
*************** JDFTx 1.5.0  ***************

Start date and time: Fri Jul  3 10:38:52 2020
Executable jdftx_gpu with command-line: -i Charged.in -o Charged.out
Running on hosts (process indices):  amax (0)
Divided in process groups (process indices):  0 (0)
gpuInit: No compatible devices (>=1.3 compute capability, not on-board) found
gpuInit() failed


*************** JDFTx 1.5.0  ***************

Start date and time: Fri Jul  3 12:50:31 2020
Executable jdftx_gpu with command-line: -i Charged.in -o Charged.out
Running on hosts (process indices):  amax (0)
Divided in process groups (process indices):  0 (0)
gpuInit: Found compatible cuda device 0 'Tesla K80'
gpuInit: Selected device 0
Resource initialization completed at t[s]:      9.51
Run totals: 1 processes, 24 threads, 1 GPUs


Input parsed successfully to the following command list (including defaults):

basis kpoint-dependent
cache-projectors no
coords-type Lattice
core-overlap-check none
coulomb-interaction Slab 001
coulomb-truncation-embed 0 0 0.5
davidson-band-ratio 1.1
dump End State
dump-name NbTe2.$VAR
elec-cutoff 20 100
elec-eigen-algo Davidson
elec-ex-corr gga-PBE
elec-smearing Gauss 0.0073499
electronic-minimize  \
	dirUpdateScheme      FletcherReeves \
	linminMethod         DirUpdateRecommended \
	nIterations          100 \
	history              15 \
	knormThreshold       0 \
	energyDiffThreshold  1e-08 \
	nEnergyDiff          2 \
	alphaTstart          1 \
	alphaTmin            1e-10 \
	updateTestStepSize   yes \
	alphaTreduceFactor   0.1 \
	alphaTincreaseFactor 3 \
	nAlphaAdjustMax      3 \
	wolfeEnergy          0.0001 \
	wolfeGradient        0.9 \
	fdTest               no
electronic-scf  \
	nIterations	500 \
	energyDiffThreshold	1e-08 \
	residualThreshold	1e-07 \
	mixFraction	0.5 \
	qMetric	0.8 \
	history	10 \
	nEigSteps	2 \
	eigDiffThreshold	1e-08 \
	mixedVariable	Density \
	qKerker	0.8 \
	qKappa	-1 \
	verbose	no \
	mixFractionMag	1.5
exchange-regularization WignerSeitzTruncated
fluid LinearPCM 298.000000 1.013250
fluid-anion F- 1 MeanFieldLJ \
	epsBulk 1 \
	pMol 0 \
	epsInf 1 \
	Pvap 0 \
	sigmaBulk 0 \
	Rvdw 2.24877 \
	Res 0 \
	tauNuc 343133
fluid-cation Na+ 1 MeanFieldLJ \
	epsBulk 1 \
	pMol 0 \
	epsInf 1 \
	Pvap 0 \
	sigmaBulk 0 \
	Rvdw 2.19208 \
	Res 0 \
	tauNuc 343133
fluid-ex-corr lda-TF lda-PZ
fluid-gummel-loop 10 1.000000e-05
fluid-minimize  \
	dirUpdateScheme      PolakRibiere \
	linminMethod         DirUpdateRecommended \
	nIterations          400 \
	history              15 \
	knormThreshold       1e-11 \
	energyDiffThreshold  0 \
	nEnergyDiff          2 \
	alphaTstart          1 \
	alphaTmin            1e-10 \
	updateTestStepSize   yes \
	alphaTreduceFactor   0.1 \
	alphaTincreaseFactor 3 \
	nAlphaAdjustMax      6 \
	wolfeEnergy          0.0001 \
	wolfeGradient        0.9 \
	fdTest               no
fluid-solvent H2O 55.338 ScalarEOS \
	epsBulk 78.4 \
	pMol 0.92466 \
	epsInf 1.77 \
	Pvap 1.06736e-10 \
	sigmaBulk 4.62e-05 \
	Rvdw 2.61727 \
	Res 1.42 \
	tauNuc 343133 \
	poleEl 15 7 1
forces-output-coords Positions
initial-state NbTe2.$VAR
ion Ni   0.083330001999997   0.083329995000000   0.536343494193192 0
ion Ni   0.000000000000000  -0.000000000000000   0.463676519806808 0
ion Ni   0.333330001999997   0.083329995000000   0.536343494193192 0
ion Ni   0.250000000000000  -0.000000000000000   0.463676519806808 0
ion Ni   0.583329970000001   0.083329995000000   0.536343494193192 0
ion Ni   0.500000000000000  -0.000000000000000   0.463676519806808 0
ion Ni   0.833330001999997   0.083329995000000   0.536343494193192 0
ion Ni   0.749999967999997  -0.000000000000000   0.463676519806808 0
ion Ni   0.083329982000002   0.333329996000003   0.536343494193192 0
ion Ni  -0.000000000000000   0.249999991999999   0.463676519806808 0
ion Ni   0.333329982000002   0.333329996000003   0.536343494193192 0
ion Ni   0.249999985000002   0.249999991999999   0.463676519806808 0
ion Ni   0.583329919000001   0.333329996000003   0.536343494193192 0
ion Ni   0.500000016000001   0.249999991999999   0.463676519806808 0
ion Ni   0.833329951000003   0.333329996000003   0.536343494193192 0
ion Ni   0.749999985000002   0.249999991999999   0.463676519806808 0
ion Ni   0.083329984999999   0.583329952000000   0.536343494193192 0
ion Ni   0.000000000999996   0.499999983999999   0.463676519806808 0
ion Ni   0.333329984999999   0.583329952000000   0.536343494193192 0
ion Ni   0.250000000999996   0.499999983999999   0.463676519806808 0
ion Ni   0.583329953000003   0.583329952000000   0.536343494193192 0
ion Ni   0.499999969000001   0.499999983999999   0.463676519806808 0
ion Ni   0.833329921999997   0.583329952000000   0.536343494193192 0
ion Ni   0.750000000999997   0.499999983999999   0.463676519806808 0
ion Ni   0.083329982999999   0.833329980000002   0.536343494193192 0
ion Ni   0.999999985000002   0.749999975999998   0.463676519806808 0
ion Ni   0.333329982999999   0.833329980000002   0.536343494193192 0
ion Ni   0.250000016999998   0.749999975999998   0.463676519806808 0
ion Ni   0.583329951000003   0.833329980000002   0.536343494193192 0
ion Ni   0.499999985000002   0.749999975999998   0.463676519806808 0
ion Ni   0.833329982999999   0.833329980000002   0.536343494193192 0
ion Ni   0.749999954000003   0.749999975999998   0.463676519806808 0
ion Te   0.083330001999997   0.083329995000000   0.398875242612108 0
ion Te  -0.000000000000000   0.000000000000000   0.601104717387896 0
ion Te   0.333330001999997   0.083329995000000   0.398875242612108 0
ion Te   0.250000000000000   0.000000000000000   0.601104717387896 0
ion Te   0.583329970000001   0.083329995000000   0.398875242612108 0
ion Te   0.500000000000000  -0.000000000000000   0.601104717387896 0
ion Te   0.833330001999997   0.083329995000000   0.398875242612108 0
ion Te   0.749999967999997  -0.000000000000000   0.601104717387896 0
ion Te   0.083329982000002   0.333329996000003   0.398875242612108 0
ion Te  -0.000000000000000   0.249999991999999   0.601104717387896 0
ion Te   0.333329982000002   0.333329996000003   0.398875242612108 0
ion Te   0.249999985000002   0.249999991999999   0.601104717387896 0
ion Te   0.583329919000001   0.333329996000003   0.398875242612108 0
ion Te   0.500000016000001   0.249999991999999   0.601104717387896 0
ion Te   0.833329951000003   0.333329996000003   0.398875242612108 0
ion Te   0.749999985000002   0.249999991999999   0.601104717387896 0
ion Te   0.083329984999999   0.583329952000000   0.398875242612108 0
ion Te   0.000000000999996   0.499999983999999   0.601104717387896 0
ion Te   0.333329984999999   0.583329952000000   0.398875242612108 0
ion Te   0.250000000999996   0.499999983999999   0.601104717387896 0
ion Te   0.583329953000003   0.583329952000000   0.398875242612108 0
ion Te   0.499999969000001   0.499999983999999   0.601104717387896 0
ion Te   0.833329921999997   0.583329952000000   0.398875242612108 0
ion Te   0.750000000999997   0.499999983999999   0.601104717387896 0
ion Te   0.083329982999999   0.833329980000002   0.398875242612108 0
ion Te   0.999999985000002   0.749999975999998   0.601104717387896 0
ion Te   0.333329982999999   0.833329980000002   0.398875242612108 0
ion Te   0.250000016999998   0.749999975999998   0.601104717387896 0
ion Te   0.583329951000003   0.833329980000002   0.398875242612108 0
ion Te   0.499999985000002   0.749999975999998   0.601104717387896 0
ion Te   0.833329982999999   0.833329980000002   0.398875242612108 0
ion Te   0.749999954000003   0.749999975999998   0.601104717387896 0
ion-species GBRV/$ID_pbe.uspp
ion-width Ecut
ionic-minimize  \
	dirUpdateScheme      L-BFGS \
	linminMethod         DirUpdateRecommended \
	nIterations          0 \
	history              15 \
	knormThreshold       0.0001 \
	energyDiffThreshold  1e-06 \
	nEnergyDiff          2 \
	alphaTstart          1 \
	alphaTmin            1e-10 \
	updateTestStepSize   yes \
	alphaTreduceFactor   0.1 \
	alphaTincreaseFactor 3 \
	nAlphaAdjustMax      3 \
	wolfeEnergy          0.0001 \
	wolfeGradient        0.9 \
	fdTest               no
kpoint   0.000000000000   0.000000000000   0.000000000000  1.00000000000000
kpoint-folding 3 3 1 
latt-move-scale 1 1 1
latt-scale 1 1 1 
lattice Triclinic 28.5693 28.5693 35.2978 90 90 60.0001
lattice-minimize  \
	dirUpdateScheme      L-BFGS \
	linminMethod         DirUpdateRecommended \
	nIterations          0 \
	history              15 \
	knormThreshold       0 \
	energyDiffThreshold  1e-06 \
	nEnergyDiff          2 \
	alphaTstart          1 \
	alphaTmin            1e-10 \
	updateTestStepSize   yes \
	alphaTreduceFactor   0.1 \
	alphaTincreaseFactor 3 \
	nAlphaAdjustMax      3 \
	wolfeEnergy          0.0001 \
	wolfeGradient        0.9 \
	fdTest               no
lcao-params -1 1e-06 0.0073499
pcm-variant CANDLE
spintype no-spin
subspace-rotation-factor 1 yes
symmetries automatic
symmetry-threshold 0.0001
target-mu -0.171252 no




---------- Setting up symmetries ----------

Found 24 point-group symmetries of the bravais lattice
Found 96 space-group symmetries with basis
Applied RMS atom displacement 8.28068e-05 bohrs to make symmetries exact.

---------- Initializing the Grid ----------
R = 
[    28.5693    14.2846          0  ]
[          0    24.7417          0  ]
[          0          0    35.2978  ]
unit cell volume = 24950.4
G =
[   0.219928  -0.126975          0  ]
[          0   0.253951          0  ]
[          0          0   0.178005  ]
Minimum fftbox size, Smin = [  132  132  160  ]
Chosen fftbox size, S = [  140  140  160  ]

---------- Initializing tighter grid for wavefunction operations ----------
R = 
[    28.5693    14.2846          0  ]
[          0    24.7417          0  ]
[          0          0    35.2978  ]
unit cell volume = 24950.4
G =
[   0.219928  -0.126975          0  ]
[          0   0.253951          0  ]
[          0          0   0.178005  ]
Minimum fftbox size, Smin = [  116  116  144  ]
Chosen fftbox size, S = [  120  120  144  ]

---------- Exchange Correlation functional ----------
Initalized PBE GGA exchange.
Initalized PBE GGA correlation.

---------- Setting up pseudopotentials ----------
Width of ionic core gaussian charges (only for fluid interactions / plotting) set to 0.397384

Reading pseudopotential file '/home/guoxy/vasp/jdftx-1.5.0/build/pseudopotentials/GBRV/ni_pbe.uspp':
  Title: Ni.  Created by USPP 7.3.6 on 1-4-15
  Reference state energy: -170.398381.  18 valence electrons in orbitals:
    |300>  occupation: 2  eigenvalue: -4.804705
    |310>  occupation: 6  eigenvalue: -3.347751
    |320>  occupation: 8  eigenvalue: -1.042415
    |400>  occupation: 0  eigenvalue: -0.795539
    |410>  occupation: 0  eigenvalue: -0.551375
  lMax: 2  lLocal: 3  QijEcut: 6.5
  6 projectors sampled on a log grid with 611 points:
    l: 0  eig: -4.804708  rCut: 1.44
    l: 0  eig: -0.795541  rCut: 1.44
    l: 1  eig: -3.347753  rCut: 1.55
    l: 1  eig: 0.500000  rCut: 1.55
    l: 2  eig: -1.042418  rCut: 1.5
    l: 2  eig: -0.450000  rCut: 1.5
  Partial core density with radius 0.65
  Transforming core density to a uniform radial grid of dG=0.02 with 1702 points.
  Transforming local potential to a uniform radial grid of dG=0.02 with 1702 points.
  Transforming nonlocal projectors to a uniform radial grid of dG=0.02 with 432 points.
  Transforming density augmentations to a uniform radial grid of dG=0.02 with 1702 points.
  Transforming atomic orbitals to a uniform radial grid of dG=0.02 with 432 points.
  Core radius for overlap checks: 1.55 bohrs.

Reading pseudopotential file '/home/guoxy/vasp/jdftx-1.5.0/build/pseudopotentials/GBRV/te_pbe.uspp':
  Title: Te.  Created by USPP 7.3.6 on 14-9-2013
  Reference state energy: -13.134220.  6 valence electrons in orbitals:
    |500>  occupation: 2  eigenvalue: -0.555231
    |510>  occupation: 4  eigenvalue: -0.218781
  lMax: 2  lLocal: 2  QijEcut: 5
  5 projectors sampled on a log grid with 723 points:
    l: 0  eig: -0.555229  rCut: 2.1
    l: 0  eig: 1.000000  rCut: 2.1
    l: 1  eig: -0.218780  rCut: 2.1
    l: 1  eig: 1.000000  rCut: 2.1
    l: 2  eig: 1.000000  rCut: 2.6
  Partial core density with radius 1.8
  Transforming core density to a uniform radial grid of dG=0.02 with 1702 points.
  Transforming local potential to a uniform radial grid of dG=0.02 with 1702 points.
  Transforming nonlocal projectors to a uniform radial grid of dG=0.02 with 432 points.
  Transforming density augmentations to a uniform radial grid of dG=0.02 with 1702 points.
  Transforming atomic orbitals to a uniform radial grid of dG=0.02 with 432 points.
  Core radius for overlap checks: 2.60 bohrs.

Initialized 2 species with 64 total atoms.

Folded 1 k-points by 3x3x1 to 9 k-points.

---------- Setting up k-points, bands, fillings ----------
Adding inversion symmetry to k-mesh for non-inversion-symmetric unit cell.
Reduced to 3 k-points under symmetry. 
Computing the number of bands and number of electrons
Reading initial fillings from file NbTe2.fillings.
nElectrons: 768.000000   nBands: 544   nStates: 3

----- Setting up reduced wavefunction bases (one per k-point) -----
average nbasis = 106596.556 , ideal nbasis = 106589.816

---------- Setting up coulomb interaction ----------
Fluid mode embedding: using embedded box, but periodic Coulomb kernel.
(Fluid response is responsible for (approximate) separation between periodic images.)
Setting up double-sized grid for truncated Coulomb potentials:
R = 
[    28.5693    14.2846          0  ]
[          0    24.7417          0  ]
[          0          0    70.5956  ]
unit cell volume = 49900.7
G =
[   0.219928  -0.126975          0  ]
[          0   0.253951          0  ]
[          0          0  0.0890025  ]
Chosen fftbox size, S = [  140  140  320  ]
Integer grid location selected as the embedding center:
   Grid: [  0  0  80  ]
   Lattice: [  0  0  0.5  ]
   Cartesian: [  0  0  17.6489  ]
Constructing Wigner-Seitz cell: 8 faces (6 quadrilaterals, 2 hexagons)
Range-separation parameter for embedded mesh potentials due to point charges: 0.592549 bohrs.

Initializing van der Waals corrections
	NOTE: vdW corrections apply only for interactions with fluid.
	Ni:  C6:  187.33 Eh-a0^6  R0: 2.952 a0
	Te:  C6:  550.54 Eh-a0^6  R0: 3.575 a0

---------- Setting up ewald sum ----------
Optimum gaussian width for ewald sums = 7.343712 bohr.
Real space sum over 405 unit cells with max indices [  4  4  2  ]
Reciprocal space sum over 7425 terms with max indices [  7  7  16  ]

---------- Allocating electronic variables ----------
Initializing wave functions:  reading from 'NbTe2.wfns'
----- createFluidSolver() ----- (Fluid-side solver setup)
   Initializing fluid molecule 'H2O'
     Initializing site 'O'
       Electron density: proportional to exp(-r/0.36935)*erfc((r-0.51523)/0.36823) with norm 6.826
       Charge density: gaussian nuclear width 0.478731 with net site charge 0.826
       Polarizability: cuspless exponential with width 0.32 and norm 3.73
       Hard sphere radius: 2.57003 bohrs
       Positions in reference frame:
         [ +0.000000 +0.000000 +0.000000 ]
     Initializing site 'H'
       Electron density: proportional to exp(-r/0.34641)*erfc((r-0)/0.390882) with norm 0.587
       Charge density: gaussian nuclear width 0.377945 with net site charge -0.413
       Polarizability: cuspless exponential with width 0.39 and norm 3.3
       Positions in reference frame:
         [ +0.000000 -1.441945 +1.122523 ]
         [ +0.000000 +1.441945 +1.122523 ]
     Net charge: 0   dipole magnitude: 0.927204
     Initializing spherical shell mfKernel with radius 2.61727 Bohr
     deltaS corrections:
       site 'O': -7.54299
       site 'H': -6.83917
   Initializing fluid molecule 'Na+'
     Initializing site 'Na'
       Electron density: proportional to exp(-r/0.19682)*erfc((r-0.71491)/0.41314) with norm 8.1383
       Charge density: gaussian nuclear width 0.365347 with net site charge -1
       Hard sphere radius: 1.86327 bohrs
       Positions in reference frame:
         [ +0.000000 +0.000000 +0.000000 ]
     Net charge: -1   dipole magnitude: 0
     Initializing gaussian mfKernel with width: 1.55004 Bohr
     deltaS corrections:
       site 'Na': -22.3555
   Initializing fluid molecule 'F-'
     Initializing site 'F'
       Electron density: proportional to exp(-r/0.38886)*erfc((r-0)/0.438782) with norm 8
       Charge density: gaussian nuclear width 0.374796 with net site charge 1
       Hard sphere radius: 2.39995 bohrs
       Positions in reference frame:
         [ +0.000000 +0.000000 +0.000000 ]
     Net charge: 1   dipole magnitude: 0
     Initializing gaussian mfKernel with width: 1.59012 Bohr
     deltaS corrections:
       site 'F': -9.04335

Correction to mu due to finite nuclear width = -0.0152705
   Cavity determined by nc: 0.00142 and sigma: 0.707107
   Nonlocal vdW cavity from gaussian model electron density with norm = 8 and sigma = 0.993594 bohr
   Charge asymmetry in cavity with sensitivity pCavity = 36.5 e-bohr/Eh
   Electrostatic cavity expanded by eta = 1.46 bohrs
   Weighted density cavitation model constrained by Nbulk: 0.0049383 bohr^-3, Pvap: 3.14029 kPa, Rvdw: 2.61727 bohr and sigmaBulk: 4.62e-05 Eh/bohr^2 at T: 298 K.
   Weighted density dispersion model using vdW pair potentials with single solvent site with sqrtC6eff: 0.77 SI.
Reading fluid state from 'NbTe2.fluidState'


---- Citations for features of the code used in this run ----

   Software package:
      R. Sundararaman, K. Letchworth-Weaver, K.A. Schwarz, D. Gunceler, Y. Ozhabes and T.A. Arias, 'JDFTx: software for joint density-functional theory', SoftwareX 6, 278 (2017)

   gga-PBE exchange-correlation functional:
      J.P. Perdew, K. Burke and M. Ernzerhof, Phys. Rev. Lett. 77, 3865 (1996)

   Pseudopotentials:
      KF Garrity, JW Bennett, KM Rabe and D Vanderbilt, Comput. Mater. Sci. 81, 446 (2014)

   Truncated Coulomb potentials:
      R. Sundararaman and T.A. Arias, Phys. Rev. B 87, 165122 (2013)

   Van der Waals correction pair-potentials:
      S. Grimme, J. Comput. Chem. 27, 1787 (2006)

   Charge-asymmetric nonlocally-determined local-electric (CANDLE) solvation model:
      R. Sundararaman and W.A. Goddard III, J. Chem. Phys. 142, 064107 (2015)

   Grand-canonical (fixed-potential) DFT:
      R. Sundararaman, W. A. Goddard III and T. A. Arias, J. Chem. Phys. 146, 114104 (2017)

This list may not be complete. Please suggest additional citations or
report any other bugs at https://github.com/shankar1729/jdftx/issues

Initialization completed successfully at t[s]:     51.07

Shifting auxilliary hamiltonian by -0.014045 to set nElectrons=768.000000
	Linear fluid (dielectric constant: 78.4, screening length: 5.74355 Bohr) occupying 0.734266 of unit cell:	Completed after 0 iterations at t[s]:     62.60

-------- Electronic minimization -----------
Will mix electronic density at each iteration.
	FillingsUpdate:  mu: -0.171251800  nElectrons: 768.000000
	Linear fluid (dielectric constant: 78.4, screening length: 5.74355 Bohr) occupying 0.734266 of unit cell:	Completed after 0 iterations at t[s]:     74.71
	FillingsUpdate:  mu: -0.171251800  nElectrons: 742.639684
	Linear fluid (dielectric constant: 78.4, screening length: 5.74355 Bohr) occupying 0.738003 of unit cell:	Completed after 16 iterations at t[s]:    177.64
SCF: Cycle:  0   G: -5600.318093829350801   dG: +1.347e+01   |Residual|: 1.028e+00   |deigs|: 6.082e-08  t[s]:    179.24
	Linear fluid (dielectric constant: 78.4, screening length: 5.74355 Bohr) occupying 0.729068 of unit cell:	Completed after 15 iterations at t[s]:    181.80
	FillingsUpdate:  mu: -0.171251800  nElectrons: 822.764633
	Linear fluid (dielectric constant: 78.4, screening length: 5.74355 Bohr) occupying 0.795221 of unit cell:	Completed after 17 iterations at t[s]:    309.89
SCF: Cycle:  1   G: -5552.590055894318539   dG: +4.773e+01   |Residual|: 4.113e+00   |deigs|: 1.063e-01  t[s]:    311.41
	Linear fluid (dielectric constant: 78.4, screening length: 5.74355 Bohr) occupying 0.730136 of unit cell:	Completed after 16 iterations at t[s]:    314.10
	FillingsUpdate:  mu: -0.171251800  nElectrons: 785.224497
	Linear fluid (dielectric constant: 78.4, screening length: 5.74355 Bohr) occupying 0.794796 of unit cell:	Completed after 23 iterations at t[s]:    438.36
SCF: Cycle:  2   G: -5606.921579587893575   dG: -5.433e+01   |Residual|: 1.135e+00   |deigs|: 7.886e-02  t[s]:    439.91
	Linear fluid (dielectric constant: 78.4, screening length: 5.74355 Bohr) occupying 0.730493 of unit cell:	Completed after 18 iterations at t[s]:    442.84
	FillingsUpdate:  mu: -0.171251800  nElectrons: 756.856916
	Linear fluid (dielectric constant: 78.4, screening length: 5.74355 Bohr) occupying 0.736695 of unit cell:	Completed after 16 iterations at t[s]:    568.89
SCF: Cycle:  3   G: -5610.825192144989160   dG: -3.904e+00   |Residual|: 6.680e-01   |deigs|: 2.188e-02  t[s]:    570.48
	Linear fluid (dielectric constant: 78.4, screening length: 5.74355 Bohr) occupying 0.729593 of unit cell:	Completed after 16 iterations at t[s]:    573.19
	FillingsUpdate:  mu: -0.171251800  nElectrons: 769.956935
	Linear fluid (dielectric constant: 78.4, screening length: 5.74355 Bohr) occupying 0.743403 of unit cell:	Completed after 15 iterations at t[s]:    699.74
SCF: Cycle:  4   G: -5613.519002117684977   dG: -2.694e+00   |Residual|: 1.921e-01   |deigs|: 9.004e-03  t[s]:    701.36
	Linear fluid (dielectric constant: 78.4, screening length: 5.74355 Bohr) occupying 0.729516 of unit cell:	Completed after 14 iterations at t[s]:    703.84
	FillingsUpdate:  mu: -0.171251800  nElectrons: 769.901797
	Linear fluid (dielectric constant: 78.4, screening length: 5.74355 Bohr) occupying 0.742948 of unit cell:	Completed after 14 iterations at t[s]:    828.30
SCF: Cycle:  5   G: -5613.524829127884004   dG: -5.827e-03   |Residual|: 1.948e-01   |deigs|: 8.349e-05  t[s]:    829.83
	Linear fluid (dielectric constant: 78.4, screening length: 5.74355 Bohr) occupying 0.729276 of unit cell:	Completed after 13 iterations at t[s]:    832.17
	FillingsUpdate:  mu: -0.171251800  nElectrons: 769.544313
	Linear fluid (dielectric constant: 78.4, screening length: 5.74355 Bohr) occupying 0.740303 of unit cell:	Completed after 15 iterations at t[s]:    955.70
SCF: Cycle:  6   G: -5613.581094974299049   dG: -5.627e-02   |Residual|: 1.781e-01   |deigs|: 3.037e-04  t[s]:    957.30
	Linear fluid (dielectric constant: 78.4, screening length: 5.74355 Bohr) occupying 0.727745 of unit cell:	Completed after 14 iterations at t[s]:    959.78
	FillingsUpdate:  mu: -0.171251800  nElectrons: 765.674135
	Linear fluid (dielectric constant: 78.4, screening length: 5.74355 Bohr) occupying 0.736046 of unit cell:	Completed after 13 iterations at t[s]:   1086.11
SCF: Cycle:  7   G: -5613.742940742408791   dG: -1.618e-01   |Residual|: 7.812e-02   |deigs|: 2.984e-03  t[s]:   1087.69
	Linear fluid (dielectric constant: 78.4, screening length: 5.74355 Bohr) occupying 0.727557 of unit cell:	Completed after 13 iterations at t[s]:   1090.06
	FillingsUpdate:  mu: -0.171251800  nElectrons: 765.778935
	Linear fluid (dielectric constant: 78.4, screening length: 5.74355 Bohr) occupying 0.736085 of unit cell:	Completed after 14 iterations at t[s]:   1215.68
SCF: Cycle:  8   G: -5613.756779441173421   dG: -1.384e-02   |Residual|: 4.677e-02   |deigs|: 3.228e-04  t[s]:   1217.19
	Linear fluid (dielectric constant: 78.4, screening length: 5.74355 Bohr) occupying 0.727861 of unit cell:	Completed after 13 iterations at t[s]:   1219.60
	FillingsUpdate:  mu: -0.171251800  nElectrons: 765.472538
	Linear fluid (dielectric constant: 78.4, screening length: 5.74355 Bohr) occupying 0.736304 of unit cell:	Completed after 14 iterations at t[s]:   1342.69
SCF: Cycle:  9   G: -5613.733112133666509   dG: +2.367e-02   |Residual|: 7.071e-02   |deigs|: 4.341e-04  t[s]:   1344.29
	Linear fluid (dielectric constant: 78.4, screening length: 5.74355 Bohr) occupying 0.728580 of unit cell:	Completed after 13 iterations at t[s]:   1346.66
	FillingsUpdate:  mu: -0.171251800  nElectrons: 765.927246
	Linear fluid (dielectric constant: 78.4, screening length: 5.74355 Bohr) occupying 0.736417 of unit cell:	Completed after 14 iterations at t[s]:   1471.03
SCF: Cycle: 10   G: -5613.762688346731011   dG: -2.958e-02   |Residual|: 6.006e-02   |deigs|: 3.666e-04  t[s]:   1472.65
	Linear fluid (dielectric constant: 78.4, screening length: 5.74355 Bohr) occupying 0.730567 of unit cell:	Completed after 13 iterations at t[s]:   1475.02
	FillingsUpdate:  mu: -0.171251800  nElectrons: 766.662188
	Linear fluid (dielectric constant: 78.4, screening length: 5.74355 Bohr) occupying 0.736590 of unit cell:	Completed after 12 iterations at t[s]:   1597.79
SCF: Cycle: 11   G: -5613.791394130739718   dG: -2.871e-02   |Residual|: 2.829e-02   |deigs|: 6.006e-04  t[s]:   1599.46
	Linear fluid (dielectric constant: 78.4, screening length: 5.74355 Bohr) occupying 0.733423 of unit cell:	Completed after 11 iterations at t[s]:   1601.64
	FillingsUpdate:  mu: -0.171251800  nElectrons: 767.091208
	Linear fluid (dielectric constant: 78.4, screening length: 5.74355 Bohr) occupying 0.736721 of unit cell:	Completed after 12 iterations at t[s]:   1726.76
SCF: Cycle: 12   G: -5613.794115232729382   dG: -2.721e-03   |Residual|: 6.279e-03   |deigs|: 4.632e-04  t[s]:   1728.38
	Linear fluid (dielectric constant: 78.4, screening length: 5.74355 Bohr) occupying 0.735988 of unit cell:	Completed after 10 iterations at t[s]:   1730.39
	FillingsUpdate:  mu: -0.171251800  nElectrons: 767.099823
	Linear fluid (dielectric constant: 78.4, screening length: 5.74355 Bohr) occupying 0.736717 of unit cell:	Completed after 12 iterations at t[s]:   1855.26
SCF: Cycle: 13   G: -5613.793477818110659   dG: +6.374e-04   |Residual|: 2.106e-02   |deigs|: 3.533e-04  t[s]:   1856.82
	Linear fluid (dielectric constant: 78.4, screening length: 5.74355 Bohr) occupying 0.737366 of unit cell:	Completed after 10 iterations at t[s]:   1858.81
	FillingsUpdate:  mu: -0.171251800  nElectrons: 766.882827
	Linear fluid (dielectric constant: 78.4, screening length: 5.74355 Bohr) occupying 0.736789 of unit cell:	Completed after 10 iterations at t[s]:   1982.69
SCF: Cycle: 14   G: -5613.794453328853706   dG: -9.755e-04   |Residual|: 9.419e-03   |deigs|: 4.157e-04  t[s]:   1984.27
	Linear fluid (dielectric constant: 78.4, screening length: 5.74355 Bohr) occupying 0.738087 of unit cell:	Completed after 8 iterations at t[s]:   1986.01
	FillingsUpdate:  mu: -0.171251800  nElectrons: 766.924736
	Linear fluid (dielectric constant: 78.4, screening length: 5.74355 Bohr) occupying 0.736909 of unit cell:	Completed after 4 iterations at t[s]:   2108.43
SCF: Cycle: 15   G: -5613.794614603732953   dG: -1.613e-04   |Residual|: 2.807e-03   |deigs|: 9.118e-04  t[s]:   2110.04
	Linear fluid (dielectric constant: 78.4, screening length: 5.74355 Bohr) occupying 0.737486 of unit cell:	Completed after 3 iterations at t[s]:   2111.17
	FillingsUpdate:  mu: -0.171251800  nElectrons: 766.767812
	Linear fluid (dielectric constant: 78.4, screening length: 5.74355 Bohr) occupying 0.736821 of unit cell:	Completed after 12 iterations at t[s]:   2234.64
SCF: Cycle: 16   G: -5613.793978673189486   dG: +6.359e-04   |Residual|: 7.611e-03   |deigs|: 9.648e-04  t[s]:   2236.27
	Linear fluid (dielectric constant: 78.4, screening length: 5.74355 Bohr) occupying 0.736720 of unit cell:	Completed after 10 iterations at t[s]:   2238.29
	FillingsUpdate:  mu: -0.171251800  nElectrons: 766.989839
	Linear fluid (dielectric constant: 78.4, screening length: 5.74355 Bohr) occupying 0.736724 of unit cell:	Completed after 10 iterations at t[s]:   2362.94
SCF: Cycle: 17   G: -5613.794580652384866   dG: -6.020e-04   |Residual|: 2.707e-03   |deigs|: 8.753e-04  t[s]:   2364.56
	Linear fluid (dielectric constant: 78.4, screening length: 5.74355 Bohr) occupying 0.736521 of unit cell:	Completed after 8 iterations at t[s]:   2366.34
	FillingsUpdate:  mu: -0.171251800  nElectrons: 766.664531
	Linear fluid (dielectric constant: 78.4, screening length: 5.74355 Bohr) occupying 0.736728 of unit cell:	Completed after 11 iterations at t[s]:   2489.31
SCF: Cycle: 18   G: -5613.792747121878165   dG: +1.834e-03   |Residual|: 1.349e-02   |deigs|: 5.324e-04  t[s]:   2490.92
	Linear fluid (dielectric constant: 78.4, screening length: 5.74355 Bohr) occupying 0.736622 of unit cell:	Completed after 12 iterations at t[s]:   2493.15
	FillingsUpdate:  mu: -0.171251800  nElectrons: 766.845598
	Linear fluid (dielectric constant: 78.4, screening length: 5.74355 Bohr) occupying 0.736732 of unit cell:	Completed after 10 iterations at t[s]:   2616.14
SCF: Cycle: 19   G: -5613.794433738767111   dG: -1.687e-03   |Residual|: 3.390e-03   |deigs|: 3.620e-04  t[s]:   2617.76
	Linear fluid (dielectric constant: 78.4, screening length: 5.74355 Bohr) occupying 0.736607 of unit cell:	Completed after 12 iterations at t[s]:   2620.03
	FillingsUpdate:  mu: -0.171251800  nElectrons: 766.916903
	Linear fluid (dielectric constant: 78.4, screening length: 5.74355 Bohr) occupying 0.736727 of unit cell:	Completed after 6 iterations at t[s]:   2743.81
SCF: Cycle: 20   G: -5613.794628864820879   dG: -1.951e-04   |Residual|: 1.499e-03   |deigs|: 1.042e-04  t[s]:   2745.44
	Linear fluid (dielectric constant: 78.4, screening length: 5.74355 Bohr) occupying 0.736699 of unit cell:	Completed after 7 iterations at t[s]:   2747.09
	FillingsUpdate:  mu: -0.171251800  nElectrons: 766.999460
	Linear fluid (dielectric constant: 78.4, screening length: 5.74355 Bohr) occupying 0.736725 of unit cell:	Completed after 8 iterations at t[s]:   2869.52
SCF: Cycle: 21   G: -5613.794565550696461   dG: +6.331e-05   |Residual|: 2.951e-03   |deigs|: 3.495e-04  t[s]:   2871.14
	Linear fluid (dielectric constant: 78.4, screening length: 5.74355 Bohr) occupying 0.736667 of unit cell:	Completed after 10 iterations at t[s]:   2873.16
	FillingsUpdate:  mu: -0.171251800  nElectrons: 766.921876
	Linear fluid (dielectric constant: 78.4, screening length: 5.74355 Bohr) occupying 0.736726 of unit cell:	Completed after 6 iterations at t[s]:   2995.75
SCF: Cycle: 22   G: -5613.794639728286711   dG: -7.418e-05   |Residual|: 7.282e-04   |deigs|: 1.332e-04  t[s]:   2997.39
	Linear fluid (dielectric constant: 78.4, screening length: 5.74355 Bohr) occupying 0.736721 of unit cell:	Completed after 7 iterations at t[s]:   2999.05
	FillingsUpdate:  mu: -0.171251800  nElectrons: 766.938368
	Linear fluid (dielectric constant: 78.4, screening length: 5.74355 Bohr) occupying 0.736727 of unit cell:	Completed after 3 iterations at t[s]:   3122.48
SCF: Cycle: 23   G: -5613.794644817035078   dG: -5.089e-06   |Residual|: 3.921e-04   |deigs|: 1.494e-04  t[s]:   3124.09
	Linear fluid (dielectric constant: 78.4, screening length: 5.74355 Bohr) occupying 0.736713 of unit cell:	Completed after 1 iterations at t[s]:   3124.99
	FillingsUpdate:  mu: -0.171251800  nElectrons: 766.985888
	Linear fluid (dielectric constant: 78.4, screening length: 5.74355 Bohr) occupying 0.736723 of unit cell:	Completed after 8 iterations at t[s]:   3247.10
SCF: Cycle: 24   G: -5613.794582286104742   dG: +6.253e-05   |Residual|: 2.731e-03   |deigs|: 8.132e-05  t[s]:   3248.67
	Linear fluid (dielectric constant: 78.4, screening length: 5.74355 Bohr) occupying 0.736726 of unit cell:	Completed after 9 iterations at t[s]:   3250.58
	FillingsUpdate:  mu: -0.171251800  nElectrons: 766.910224
	Linear fluid (dielectric constant: 78.4, screening length: 5.74355 Bohr) occupying 0.736730 of unit cell:	Completed after 7 iterations at t[s]:   3372.75
SCF: Cycle: 25   G: -5613.794628123573602   dG: -4.584e-05   |Residual|: 1.351e-03   |deigs|: 5.788e-05  t[s]:   3374.34
	Linear fluid (dielectric constant: 78.4, screening length: 5.74355 Bohr) occupying 0.736741 of unit cell:	Completed after 8 iterations at t[s]:   3376.10
	FillingsUpdate:  mu: -0.171251800  nElectrons: 766.942039
	Linear fluid (dielectric constant: 78.4, screening length: 5.74355 Bohr) occupying 0.736727 of unit cell:	Completed after 2 iterations at t[s]:   3497.54
SCF: Cycle: 26   G: -5613.794645161562585   dG: -1.704e-05   |Residual|: 3.046e-04   |deigs|: 7.047e-05  t[s]:   3499.13
	Linear fluid (dielectric constant: 78.4, screening length: 5.74355 Bohr) occupying 0.736731 of unit cell:	Completed after 0 iterations at t[s]:   3499.92
	FillingsUpdate:  mu: -0.171251800  nElectrons: 766.904960
	Linear fluid (dielectric constant: 78.4, screening length: 5.74355 Bohr) occupying 0.736730 of unit cell:	Completed after 8 iterations at t[s]:   3623.62
SCF: Cycle: 27   G: -5613.794596340489079   dG: +4.882e-05   |Residual|: 3.423e-03   |deigs|: 1.022e-04  t[s]:   3625.21
	Linear fluid (dielectric constant: 78.4, screening length: 5.74355 Bohr) occupying 0.736731 of unit cell:	Completed after 9 iterations at t[s]:   3627.10
	FillingsUpdate:  mu: -0.171251800  nElectrons: 766.949387
	Linear fluid (dielectric constant: 78.4, screening length: 5.74355 Bohr) occupying 0.736726 of unit cell:	Completed after 7 iterations at t[s]:   3751.75
SCF: Cycle: 28   G: -5613.794643547478699   dG: -4.721e-05   |Residual|: 4.422e-04   |deigs|: 3.777e-05  t[s]:   3753.29
	Linear fluid (dielectric constant: 78.4, screening length: 5.74355 Bohr) occupying 0.736730 of unit cell:	Completed after 3 iterations at t[s]:   3754.42
	FillingsUpdate:  mu: -0.171251800  nElectrons: 766.814874
	Linear fluid (dielectric constant: 78.4, screening length: 5.74355 Bohr) occupying 0.736734 of unit cell:	Completed after 10 iterations at t[s]:   3877.65
SCF: Cycle: 29   G: -5613.794312391401036   dG: +3.312e-04   |Residual|: 4.522e-03   |deigs|: 9.427e-05  t[s]:   3879.21
	Linear fluid (dielectric constant: 78.4, screening length: 5.74355 Bohr) occupying 0.736728 of unit cell:	Completed after 12 iterations at t[s]:   3881.45
	FillingsUpdate:  mu: -0.171251800  nElectrons: 766.927664
	Linear fluid (dielectric constant: 78.4, screening length: 5.74355 Bohr) occupying 0.736727 of unit cell:	Completed after 5 iterations at t[s]:   4005.47
SCF: Cycle: 30   G: -5613.794642992654190   dG: -3.306e-04   |Residual|: 2.229e-04   |deigs|: 1.416e-04  t[s]:   4007.02
	Linear fluid (dielectric constant: 78.4, screening length: 5.74355 Bohr) occupying 0.736729 of unit cell:	Completed after 6 iterations at t[s]:   4008.54
	FillingsUpdate:  mu: -0.171251800  nElectrons: 766.928311
	Linear fluid (dielectric constant: 78.4, screening length: 5.74355 Bohr) occupying 0.736727 of unit cell:	Completed after 8 iterations at t[s]:   4130.88
SCF: Cycle: 31   G: -5613.794641424153269   dG: +1.569e-06   |Residual|: 6.887e-04   |deigs|: 5.591e-05  t[s]:   4132.46
	Linear fluid (dielectric constant: 78.4, screening length: 5.74355 Bohr) occupying 0.736727 of unit cell:	Completed after 7 iterations at t[s]:   4134.08
	FillingsUpdate:  mu: -0.171251800  nElectrons: 766.936147
	Linear fluid (dielectric constant: 78.4, screening length: 5.74355 Bohr) occupying 0.736727 of unit cell:	Completed after 2 iterations at t[s]:   4255.70
SCF: Cycle: 32   G: -5613.794644931654148   dG: -3.508e-06   |Residual|: 2.317e-04   |deigs|: 2.340e-05  t[s]:   4257.24
	Linear fluid (dielectric constant: 78.4, screening length: 5.74355 Bohr) occupying 0.736726 of unit cell:	Completed after 3 iterations at t[s]:   4258.40
	FillingsUpdate:  mu: -0.171251800  nElectrons: 766.972934
	Linear fluid (dielectric constant: 78.4, screening length: 5.74355 Bohr) occupying 0.736725 of unit cell:	Completed after 8 iterations at t[s]:   4380.93
SCF: Cycle: 33   G: -5613.794617454020226   dG: +2.748e-05   |Residual|: 1.505e-03   |deigs|: 2.807e-05  t[s]:   4382.59
	Linear fluid (dielectric constant: 78.4, screening length: 5.74355 Bohr) occupying 0.736729 of unit cell:	Completed after 7 iterations at t[s]:   4384.23
	FillingsUpdate:  mu: -0.171251800  nElectrons: 766.898895
	Linear fluid (dielectric constant: 78.4, screening length: 5.74355 Bohr) occupying 0.736731 of unit cell:	Completed after 8 iterations at t[s]:   4506.77
SCF: Cycle: 34   G: -5613.794612778666306   dG: +4.675e-06   |Residual|: 1.777e-03   |deigs|: 5.622e-05  t[s]:   4508.39
	Linear fluid (dielectric constant: 78.4, screening length: 5.74355 Bohr) occupying 0.736731 of unit cell:	Completed after 9 iterations at t[s]:   4510.28
	FillingsUpdate:  mu: -0.171251800  nElectrons: 766.924066
	Linear fluid (dielectric constant: 78.4, screening length: 5.74355 Bohr) occupying 0.736727 of unit cell:	Completed after 8 iterations at t[s]:   4633.54
SCF: Cycle: 35   G: -5613.794638770968959   dG: -2.599e-05   |Residual|: 7.248e-04   |deigs|: 2.864e-05  t[s]:   4635.14
	Linear fluid (dielectric constant: 78.4, screening length: 5.74355 Bohr) occupying 0.736731 of unit cell:	Completed after 7 iterations at t[s]:   4636.79
	FillingsUpdate:  mu: -0.171251800  nElectrons: 766.939188
	Linear fluid (dielectric constant: 78.4, screening length: 5.74355 Bohr) occupying 0.736726 of unit cell:	Completed after 1 iterations at t[s]:   4747.40
SCF: Cycle: 36   G: -5613.794645235449934   dG: -6.464e-06   |Residual|: 2.556e-04   |deigs|: 1.681e-05  t[s]:   4749.00
	Linear fluid (dielectric constant: 78.4, screening length: 5.74355 Bohr) occupying 0.736731 of unit cell:	Completed after 0 iterations at t[s]:   4749.78
	FillingsUpdate:  mu: -0.171251800  nElectrons: 766.974985
	Linear fluid (dielectric constant: 78.4, screening length: 5.74355 Bohr) occupying 0.736724 of unit cell:	Completed after 8 iterations at t[s]:   4872.81
SCF: Cycle: 37   G: -5613.794599627295611   dG: +4.561e-05   |Residual|: 2.839e-03   |deigs|: 3.164e-05  t[s]:   4874.39
	Linear fluid (dielectric constant: 78.4, screening length: 5.74355 Bohr) occupying 0.736731 of unit cell:	Completed after 8 iterations at t[s]:   4876.14
	FillingsUpdate:  mu: -0.171251800  nElectrons: 766.905460
	Linear fluid (dielectric constant: 78.4, screening length: 5.74355 Bohr) occupying 0.736730 of unit cell:	Completed after 8 iterations at t[s]:   4984.18
SCF: Cycle: 38   G: -5613.794622846480706   dG: -2.322e-05   |Residual|: 1.641e-03   |deigs|: 4.402e-05  t[s]:   4985.76
	Linear fluid (dielectric constant: 78.4, screening length: 5.74355 Bohr) occupying 0.736730 of unit cell:	Completed after 8 iterations at t[s]:   4987.51
	FillingsUpdate:  mu: -0.171251800  nElectrons: 766.918534
	Linear fluid (dielectric constant: 78.4, screening length: 5.74355 Bohr) occupying 0.736728 of unit cell:	Completed after 8 iterations at t[s]:   5110.63
SCF: Cycle: 39   G: -5613.794632911732151   dG: -1.007e-05   |Residual|: 1.078e-03   |deigs|: 3.555e-05  t[s]:   5112.20
	Linear fluid (dielectric constant: 78.4, screening length: 5.74355 Bohr) occupying 0.736730 of unit cell:	Completed after 7 iterations at t[s]:   5113.83
	FillingsUpdate:  mu: -0.171251800  nElectrons: 766.945712
	Linear fluid (dielectric constant: 78.4, screening length: 5.74355 Bohr) occupying 0.736726 of unit cell:	Completed after 3 iterations at t[s]:   5221.34
SCF: Cycle: 40   G: -5613.794644948876339   dG: -1.204e-05   |Residual|: 2.793e-04   |deigs|: 1.744e-05  t[s]:   5222.90
	Linear fluid (dielectric constant: 78.4, screening length: 5.74355 Bohr) occupying 0.736729 of unit cell:	Completed after 2 iterations at t[s]:   5223.91
	FillingsUpdate:  mu: -0.171251800  nElectrons: 766.877145
	Linear fluid (dielectric constant: 78.4, screening length: 5.74355 Bohr) occupying 0.736731 of unit cell:	Completed after 10 iterations at t[s]:   5346.94
SCF: Cycle: 41   G: -5613.794553883813023   dG: +9.107e-05   |Residual|: 2.816e-03   |deigs|: 4.569e-05  t[s]:   5348.48
	Linear fluid (dielectric constant: 78.4, screening length: 5.74355 Bohr) occupying 0.736729 of unit cell:	Completed after 10 iterations at t[s]:   5350.48
	FillingsUpdate:  mu: -0.171251800  nElectrons: 766.923353
	Linear fluid (dielectric constant: 78.4, screening length: 5.74355 Bohr) occupying 0.736727 of unit cell:	Completed after 8 iterations at t[s]:   5472.23
SCF: Cycle: 42   G: -5613.794639185712185   dG: -8.530e-05   |Residual|: 5.965e-04   |deigs|: 3.174e-05  t[s]:   5473.81
	Linear fluid (dielectric constant: 78.4, screening length: 5.74355 Bohr) occupying 0.736729 of unit cell:	Completed after 6 iterations at t[s]:   5475.34
	FillingsUpdate:  mu: -0.171251800  nElectrons: 766.937733
	Linear fluid (dielectric constant: 78.4, screening length: 5.74355 Bohr) occupying 0.736726 of unit cell:	Completed after 2 iterations at t[s]:   5576.12
SCF: Cycle: 43   G: -5613.794644983992839   dG: -5.798e-06   |Residual|: 2.835e-04   |deigs|: 1.019e-05  t[s]:   5577.64
	Linear fluid (dielectric constant: 78.4, screening length: 5.74355 Bohr) occupying 0.736727 of unit cell:	Completed after 3 iterations at t[s]:   5578.79
	FillingsUpdate:  mu: -0.171251800  nElectrons: 766.964610
	Linear fluid (dielectric constant: 78.4, screening length: 5.74355 Bohr) occupying 0.736725 of unit cell:	Completed after 8 iterations at t[s]:   5705.39
SCF: Cycle: 44   G: -5613.794628889239902   dG: +1.609e-05   |Residual|: 1.228e-03   |deigs|: 2.688e-05  t[s]:   5706.95
	Linear fluid (dielectric constant: 78.4, screening length: 5.74355 Bohr) occupying 0.736727 of unit cell:	Completed after 8 iterations at t[s]:   5708.70
	FillingsUpdate:  mu: -0.171251800  nElectrons: 766.909217
	Linear fluid (dielectric constant: 78.4, screening length: 5.74355 Bohr) occupying 0.736729 of unit cell:	Completed after 8 iterations at t[s]:   5831.46
SCF: Cycle: 45   G: -5613.794627006209339   dG: +1.883e-06   |Residual|: 1.293e-03   |deigs|: 3.478e-05  t[s]:   5833.06
	Linear fluid (dielectric constant: 78.4, screening length: 5.74355 Bohr) occupying 0.736727 of unit cell:	Completed after 9 iterations at t[s]:   5834.93
	FillingsUpdate:  mu: -0.171251800  nElectrons: 766.919551
	Linear fluid (dielectric constant: 78.4, screening length: 5.74355 Bohr) occupying 0.736727 of unit cell:	Completed after 8 iterations at t[s]:   5942.12
SCF: Cycle: 46   G: -5613.794635365889008   dG: -8.360e-06   |Residual|: 8.840e-04   |deigs|: 5.662e-06  t[s]:   5943.73
	Linear fluid (dielectric constant: 78.4, screening length: 5.74355 Bohr) occupying 0.736727 of unit cell:	Completed after 8 iterations at t[s]:   5945.51
	FillingsUpdate:  mu: -0.171251800  nElectrons: 766.925850
	Linear fluid (dielectric constant: 78.4, screening length: 5.74355 Bohr) occupying 0.736727 of unit cell:	Completed after 7 iterations at t[s]:   6055.60
SCF: Cycle: 47   G: -5613.794640863816312   dG: -5.498e-06   |Residual|: 5.344e-04   |deigs|: 9.384e-06  t[s]:   6057.23
	Linear fluid (dielectric constant: 78.4, screening length: 5.74355 Bohr) occupying 0.736727 of unit cell:	Completed after 7 iterations at t[s]:   6058.90
	FillingsUpdate:  mu: -0.171251800  nElectrons: 766.932881
	Linear fluid (dielectric constant: 78.4, screening length: 5.74355 Bohr) occupying 0.736726 of unit cell:	Completed after 2 iterations at t[s]:   6145.35
SCF: Cycle: 48   G: -5613.794644157498624   dG: -3.294e-06   |Residual|: 3.653e-04   |deigs|: 6.022e-06  t[s]:   6146.99
	Linear fluid (dielectric constant: 78.4, screening length: 5.74355 Bohr) occupying 0.736725 of unit cell:	Completed after 2 iterations at t[s]:   6148.03
	FillingsUpdate:  mu: -0.171251800  nElectrons: 767.022935
	Linear fluid (dielectric constant: 78.4, screening length: 5.74355 Bohr) occupying 0.736722 of unit cell:	Completed after 10 iterations at t[s]:   6271.87
SCF: Cycle: 49   G: -5613.794474147613982   dG: +1.700e-04   |Residual|: 3.716e-03   |deigs|: 5.859e-05  t[s]:   6273.45
	Linear fluid (dielectric constant: 78.4, screening length: 5.74355 Bohr) occupying 0.736726 of unit cell:	Completed after 11 iterations at t[s]:   6275.66
	FillingsUpdate:  mu: -0.171251800  nElectrons: 766.917630
	Linear fluid (dielectric constant: 78.4, screening length: 5.74355 Bohr) occupying 0.736728 of unit cell:	Completed after 7 iterations at t[s]:   6382.99
SCF: Cycle: 50   G: -5613.794635189521614   dG: -1.610e-04   |Residual|: 1.026e-03   |deigs|: 6.678e-05  t[s]:   6384.63
	Linear fluid (dielectric constant: 78.4, screening length: 5.74355 Bohr) occupying 0.736726 of unit cell:	Completed after 7 iterations at t[s]:   6386.28
	FillingsUpdate:  mu: -0.171251800  nElectrons: 766.930050
	Linear fluid (dielectric constant: 78.4, screening length: 5.74355 Bohr) occupying 0.736726 of unit cell:	Completed after 3 iterations at t[s]:   6494.26
SCF: Cycle: 51   G: -5613.794642518404544   dG: -7.329e-06   |Residual|: 5.643e-04   |deigs|: 1.677e-05  t[s]:   6495.88
	Linear fluid (dielectric constant: 78.4, screening length: 5.74355 Bohr) occupying 0.736726 of unit cell:	Completed after 3 iterations at t[s]:   6497.02
	FillingsUpdate:  mu: -0.171251800  nElectrons: 767.037719
	Linear fluid (dielectric constant: 78.4, screening length: 5.74355 Bohr) occupying 0.736721 of unit cell:	Completed after 10 iterations at t[s]:   6589.91
SCF: Cycle: 52   G: -5613.794420334626011   dG: +2.222e-04   |Residual|: 3.993e-03   |deigs|: 7.057e-05  t[s]:   6591.48
	Linear fluid (dielectric constant: 78.4, screening length: 5.74355 Bohr) occupying 0.736727 of unit cell:	Completed after 11 iterations at t[s]:   6593.60
	FillingsUpdate:  mu: -0.171251800  nElectrons: 766.918431
	Linear fluid (dielectric constant: 78.4, screening length: 5.74355 Bohr) occupying 0.736728 of unit cell:	Completed after 7 iterations at t[s]:   6711.48
SCF: Cycle: 53   G: -5613.794635878251938   dG: -2.155e-04   |Residual|: 9.977e-04   |deigs|: 7.451e-05  t[s]:   6713.05
	Linear fluid (dielectric constant: 78.4, screening length: 5.74355 Bohr) occupying 0.736727 of unit cell:	Completed after 6 iterations at t[s]:   6714.55
	FillingsUpdate:  mu: -0.171251800  nElectrons: 766.934988
	Linear fluid (dielectric constant: 78.4, screening length: 5.74355 Bohr) occupying 0.736726 of unit cell:	Completed after 3 iterations at t[s]:   6806.75
SCF: Cycle: 54   G: -5613.794643832505244   dG: -7.954e-06   |Residual|: 5.204e-04   |deigs|: 1.028e-05  t[s]:   6808.30
	Linear fluid (dielectric constant: 78.4, screening length: 5.74355 Bohr) occupying 0.736727 of unit cell:	Completed after 2 iterations at t[s]:   6809.33
	FillingsUpdate:  mu: -0.171251800  nElectrons: 767.007650
	Linear fluid (dielectric constant: 78.4, screening length: 5.74355 Bohr) occupying 0.736723 of unit cell:	Completed after 10 iterations at t[s]:   6931.98
SCF: Cycle: 55   G: -5613.794532407959196   dG: +1.114e-04   |Residual|: 2.956e-03   |deigs|: 4.796e-05  t[s]:   6933.61
	Linear fluid (dielectric constant: 78.4, screening length: 5.74355 Bohr) occupying 0.736727 of unit cell:	Completed after 10 iterations at t[s]:   6935.62
	FillingsUpdate:  mu: -0.171251800  nElectrons: 766.913087
	Linear fluid (dielectric constant: 78.4, screening length: 5.74355 Bohr) occupying 0.736729 of unit cell:	Completed after 8 iterations at t[s]:   7028.98
SCF: Cycle: 56   G: -5613.794631478958763   dG: -9.907e-05   |Residual|: 1.221e-03   |deigs|: 5.848e-05  t[s]:   7030.53
	Linear fluid (dielectric constant: 78.4, screening length: 5.74355 Bohr) occupying 0.736727 of unit cell:	Completed after 7 iterations at t[s]:   7032.16
	FillingsUpdate:  mu: -0.171251800  nElectrons: 766.928517
	Linear fluid (dielectric constant: 78.4, screening length: 5.74355 Bohr) occupying 0.736727 of unit cell:	Completed after 7 iterations at t[s]:   7140.83
SCF: Cycle: 57   G: -5613.794640536650149   dG: -9.058e-06   |Residual|: 7.717e-04   |deigs|: 9.718e-06  t[s]:   7142.32
	Linear fluid (dielectric constant: 78.4, screening length: 5.74355 Bohr) occupying 0.736728 of unit cell:	Completed after 6 iterations at t[s]:   7143.82
	FillingsUpdate:  mu: -0.171251800  nElectrons: 766.961584
	Linear fluid (dielectric constant: 78.4, screening length: 5.74355 Bohr) occupying 0.736725 of unit cell:	Completed after 8 iterations at t[s]:   7231.81
SCF: Cycle: 58   G: -5613.794635651622229   dG: +4.885e-06   |Residual|: 8.683e-04   |deigs|: 2.125e-05  t[s]:   7233.41
	Linear fluid (dielectric constant: 78.4, screening length: 5.74355 Bohr) occupying 0.736728 of unit cell:	Completed after 7 iterations at t[s]:   7235.04
	FillingsUpdate:  mu: -0.171251800  nElectrons: 766.904651
	Linear fluid (dielectric constant: 78.4, screening length: 5.74355 Bohr) occupying 0.736730 of unit cell:	Completed after 8 iterations at t[s]:   7342.85
SCF: Cycle: 59   G: -5613.794622823148529   dG: +1.283e-05   |Residual|: 1.284e-03   |deigs|: 3.392e-05  t[s]:   7344.43
	Linear fluid (dielectric constant: 78.4, screening length: 5.74355 Bohr) occupying 0.736729 of unit cell:	Completed after 8 iterations at t[s]:   7346.20
	FillingsUpdate:  mu: -0.171251800  nElectrons: 766.922659
	Linear fluid (dielectric constant: 78.4, screening length: 5.74355 Bohr) occupying 0.736727 of unit cell:	Completed after 7 iterations at t[s]:   7470.18
SCF: Cycle: 60   G: -5613.794636975652793   dG: -1.415e-05   |Residual|: 8.872e-04   |deigs|: 1.465e-05  t[s]:   7471.74
	Linear fluid (dielectric constant: 78.4, screening length: 5.74355 Bohr) occupying 0.736727 of unit cell:	Completed after 6 iterations at t[s]:   7473.24
	FillingsUpdate:  mu: -0.171251800  nElectrons: 766.944383
	Linear fluid (dielectric constant: 78.4, screening length: 5.74355 Bohr) occupying 0.736725 of unit cell:	Completed after 2 iterations at t[s]:   7578.06
SCF: Cycle: 61   G: -5613.794645140192188   dG: -8.165e-06   |Residual|: 2.401e-04   |deigs|: 1.768e-05  t[s]:   7579.71
	Linear fluid (dielectric constant: 78.4, screening length: 5.74355 Bohr) occupying 0.736726 of unit cell:	Completed after 0 iterations at t[s]:   7580.50
	FillingsUpdate:  mu: -0.171251800  nElectrons: 766.825332
	Linear fluid (dielectric constant: 78.4, screening length: 5.74355 Bohr) occupying 0.736735 of unit cell:	Completed after 11 iterations at t[s]:   7704.25
SCF: Cycle: 62   G: -5613.794308289403489   dG: +3.369e-04   |Residual|: 6.058e-03   |deigs|: 7.917e-05  t[s]:   7705.85
	Linear fluid (dielectric constant: 78.4, screening length: 5.74355 Bohr) occupying 0.736726 of unit cell:	Completed after 12 iterations at t[s]:   7708.08
	FillingsUpdate:  mu: -0.171251800  nElectrons: 766.917992
	Linear fluid (dielectric constant: 78.4, screening length: 5.74355 Bohr) occupying 0.736728 of unit cell:	Completed after 7 iterations at t[s]:   7784.97
SCF: Cycle: 63   G: -5613.794635755425588   dG: -3.275e-04   |Residual|: 8.379e-04   |deigs|: 6.397e-05  t[s]:   7786.54
	Linear fluid (dielectric constant: 78.4, screening length: 5.74355 Bohr) occupying 0.736726 of unit cell:	Completed after 7 iterations at t[s]:   7788.18
	FillingsUpdate:  mu: -0.171251800  nElectrons: 766.937941
	Linear fluid (dielectric constant: 78.4, screening length: 5.74355 Bohr) occupying 0.736726 of unit cell:	Completed after 3 iterations at t[s]:   7864.32
SCF: Cycle: 64   G: -5613.794644121018791   dG: -8.366e-06   |Residual|: 6.002e-04   |deigs|: 1.306e-05  t[s]:   7865.88
	Linear fluid (dielectric constant: 78.4, screening length: 5.74355 Bohr) occupying 0.736727 of unit cell:	Completed after 2 iterations at t[s]:   7866.92
	FillingsUpdate:  mu: -0.171251800  nElectrons: 766.981294
	Linear fluid (dielectric constant: 78.4, screening length: 5.74355 Bohr) occupying 0.736724 of unit cell:	Completed after 8 iterations at t[s]:   7963.47
SCF: Cycle: 65   G: -5613.794601890233935   dG: +4.223e-05   |Residual|: 1.859e-03   |deigs|: 2.993e-05  t[s]:   7965.04
	Linear fluid (dielectric constant: 78.4, screening length: 5.74355 Bohr) occupying 0.736727 of unit cell:	Completed after 8 iterations at t[s]:   7966.78
	FillingsUpdate:  mu: -0.171251800  nElectrons: 766.901435
	Linear fluid (dielectric constant: 78.4, screening length: 5.74355 Bohr) occupying 0.736730 of unit cell:	Completed after 9 iterations at t[s]:   8044.87
SCF: Cycle: 66   G: -5613.794616699205108   dG: -1.481e-05   |Residual|: 1.694e-03   |deigs|: 4.893e-05  t[s]:   8046.51
	Linear fluid (dielectric constant: 78.4, screening length: 5.74355 Bohr) occupying 0.736727 of unit cell:	Completed after 8 iterations at t[s]:   8048.29
	FillingsUpdate:  mu: -0.171251800  nElectrons: 766.919707
	Linear fluid (dielectric constant: 78.4, screening length: 5.74355 Bohr) occupying 0.736727 of unit cell:	Completed after 8 iterations at t[s]:   8127.27
SCF: Cycle: 67   G: -5613.794634185798714   dG: -1.749e-05   |Residual|: 9.655e-04   |deigs|: 9.919e-06  t[s]:   8128.93
	Linear fluid (dielectric constant: 78.4, screening length: 5.74355 Bohr) occupying 0.736727 of unit cell:	Completed after 7 iterations at t[s]:   8130.59
	FillingsUpdate:  mu: -0.171251800  nElectrons: 766.944290
	Linear fluid (dielectric constant: 78.4, screening length: 5.74355 Bohr) occupying 0.736725 of unit cell:	Completed after 2 iterations at t[s]:   8221.26
SCF: Cycle: 68   G: -5613.794645181208580   dG: -1.100e-05   |Residual|: 2.079e-04   |deigs|: 1.594e-05  t[s]:   8222.79
	Linear fluid (dielectric constant: 78.4, screening length: 5.74355 Bohr) occupying 0.736727 of unit cell:	Completed after 0 iterations at t[s]:   8223.45
	FillingsUpdate:  mu: -0.171251800  nElectrons: 766.836243
	Linear fluid (dielectric constant: 78.4, screening length: 5.74355 Bohr) occupying 0.736734 of unit cell:	Completed after 11 iterations at t[s]:   8332.14
SCF: Cycle: 69   G: -5613.794374132358826   dG: +2.710e-04   |Residual|: 5.445e-03   |deigs|: 6.969e-05  t[s]:   8333.68
	Linear fluid (dielectric constant: 78.4, screening length: 5.74355 Bohr) occupying 0.736726 of unit cell:	Completed after 10 iterations at t[s]:   8335.68
	FillingsUpdate:  mu: -0.171251800  nElectrons: 766.918435
	Linear fluid (dielectric constant: 78.4, screening length: 5.74355 Bohr) occupying 0.736727 of unit cell:	Completed after 8 iterations at t[s]:   8413.12
SCF: Cycle: 70   G: -5613.794635498983553   dG: -2.614e-04   |Residual|: 8.573e-04   |deigs|: 5.474e-05  t[s]:   8414.69
	Linear fluid (dielectric constant: 78.4, screening length: 5.74355 Bohr) occupying 0.736727 of unit cell:	Completed after 7 iterations at t[s]:   8416.32
	FillingsUpdate:  mu: -0.171251800  nElectrons: 766.936057
	Linear fluid (dielectric constant: 78.4, screening length: 5.74355 Bohr) occupying 0.736726 of unit cell:	Completed after 3 iterations at t[s]:   8523.52
SCF: Cycle: 71   G: -5613.794644140015407   dG: -8.641e-06   |Residual|: 5.184e-04   |deigs|: 1.447e-05  t[s]:   8525.16
	Linear fluid (dielectric constant: 78.4, screening length: 5.74355 Bohr) occupying 0.736727 of unit cell:	Completed after 2 iterations at t[s]:   8526.19
	FillingsUpdate:  mu: -0.171251800  nElectrons: 766.993224
	Linear fluid (dielectric constant: 78.4, screening length: 5.74355 Bohr) occupying 0.736723 of unit cell:	Completed after 8 iterations at t[s]:   8603.50
SCF: Cycle: 72   G: -5613.794575034443369   dG: +6.911e-05   |Residual|: 2.321e-03   |deigs|: 3.775e-05  t[s]:   8605.13
	Linear fluid (dielectric constant: 78.4, screening length: 5.74355 Bohr) occupying 0.736727 of unit cell:	Completed after 9 iterations at t[s]:   8607.02
	FillingsUpdate:  mu: -0.171251800  nElectrons: 766.903988
	Linear fluid (dielectric constant: 78.4, screening length: 5.74355 Bohr) occupying 0.736730 of unit cell:	Completed after 8 iterations at t[s]:   8684.82
SCF: Cycle: 73   G: -5613.794620221853620   dG: -4.519e-05   |Residual|: 1.634e-03   |deigs|: 5.486e-05  t[s]:   8686.36
	Linear fluid (dielectric constant: 78.4, screening length: 5.74355 Bohr) occupying 0.736728 of unit cell:	Completed after 9 iterations at t[s]:   8688.23
	FillingsUpdate:  mu: -0.171251800  nElectrons: 766.919229
	Linear fluid (dielectric constant: 78.4, screening length: 5.74355 Bohr) occupying 0.736727 of unit cell:	Completed after 8 iterations at t[s]:   8767.48
SCF: Cycle: 74   G: -5613.794634744627729   dG: -1.452e-05   |Residual|: 8.972e-04   |deigs|: 8.400e-06  t[s]:   8769.03
	Linear fluid (dielectric constant: 78.4, screening length: 5.74355 Bohr) occupying 0.736727 of unit cell:	Completed after 7 iterations at t[s]:   8770.68
	FillingsUpdate:  mu: -0.171251800  nElectrons: 766.933249
	Linear fluid (dielectric constant: 78.4, screening length: 5.74355 Bohr) occupying 0.736726 of unit cell:	Completed after 3 iterations at t[s]:   8847.33
SCF: Cycle: 75   G: -5613.794644261503890   dG: -9.517e-06   |Residual|: 3.127e-04   |deigs|: 9.248e-06  t[s]:   8848.95
	Linear fluid (dielectric constant: 78.4, screening length: 5.74355 Bohr) occupying 0.736727 of unit cell:	Completed after 3 iterations at t[s]:   8850.09
	FillingsUpdate:  mu: -0.171251800  nElectrons: 767.008324
	Linear fluid (dielectric constant: 78.4, screening length: 5.74355 Bohr) occupying 0.736722 of unit cell:	Completed after 10 iterations at t[s]:   8928.79
SCF: Cycle: 76   G: -5613.794532884223372   dG: +1.114e-04   |Residual|: 2.890e-03   |deigs|: 4.765e-05  t[s]:   8930.31
	Linear fluid (dielectric constant: 78.4, screening length: 5.74355 Bohr) occupying 0.736726 of unit cell:	Completed after 10 iterations at t[s]:   8932.31
	FillingsUpdate:  mu: -0.171251800  nElectrons: 766.912157
	Linear fluid (dielectric constant: 78.4, screening length: 5.74355 Bohr) occupying 0.736729 of unit cell:	Completed after 7 iterations at t[s]:   9025.11
SCF: Cycle: 77   G: -5613.794630534534008   dG: -9.765e-05   |Residual|: 1.254e-03   |deigs|: 5.906e-05  t[s]:   9026.66
	Linear fluid (dielectric constant: 78.4, screening length: 5.74355 Bohr) occupying 0.736727 of unit cell:	Completed after 7 iterations at t[s]:   9028.28
	FillingsUpdate:  mu: -0.171251800  nElectrons: 766.931334
	Linear fluid (dielectric constant: 78.4, screening length: 5.74355 Bohr) occupying 0.736726 of unit cell:	Completed after 6 iterations at t[s]:   9105.58
SCF: Cycle: 78   G: -5613.794641590543506   dG: -1.106e-05   |Residual|: 7.405e-04   |deigs|: 1.066e-05  t[s]:   9107.20
	Linear fluid (dielectric constant: 78.4, screening length: 5.74355 Bohr) occupying 0.736724 of unit cell:	Completed after 7 iterations at t[s]:   9108.87
	FillingsUpdate:  mu: -0.171251800  nElectrons: 766.959562
	Linear fluid (dielectric constant: 78.4, screening length: 5.74355 Bohr) occupying 0.736725 of unit cell:	Completed after 8 iterations at t[s]:   9245.30
SCF: Cycle: 79   G: -5613.794636285976594   dG: +5.305e-06   |Residual|: 9.770e-04   |deigs|: 2.180e-05  t[s]:   9246.93
	Linear fluid (dielectric constant: 78.4, screening length: 5.74355 Bohr) occupying 0.736725 of unit cell:	Completed after 7 iterations at t[s]:   9248.58
	FillingsUpdate:  mu: -0.171251800  nElectrons: 766.908714
	Linear fluid (dielectric constant: 78.4, screening length: 5.74355 Bohr) occupying 0.736729 of unit cell:	Completed after 8 iterations at t[s]:   9341.45
SCF: Cycle: 80   G: -5613.794627201879848   dG: +9.084e-06   |Residual|: 1.174e-03   |deigs|: 3.065e-05  t[s]:   9343.04
	Linear fluid (dielectric constant: 78.4, screening length: 5.74355 Bohr) occupying 0.736727 of unit cell:	Completed after 8 iterations at t[s]:   9344.82
	FillingsUpdate:  mu: -0.171251800  nElectrons: 766.921662
	Linear fluid (dielectric constant: 78.4, screening length: 5.74355 Bohr) occupying 0.736727 of unit cell:	Completed after 7 iterations at t[s]:   9453.17
SCF: Cycle: 81   G: -5613.794636490153607   dG: -9.288e-06   |Residual|: 8.944e-04   |deigs|: 9.352e-06  t[s]:   9454.85
	Linear fluid (dielectric constant: 78.4, screening length: 5.74355 Bohr) occupying 0.736727 of unit cell:	Completed after 7 iterations at t[s]:   9456.49
	FillingsUpdate:  mu: -0.171251800  nElectrons: 766.937700
	Linear fluid (dielectric constant: 78.4, screening length: 5.74355 Bohr) occupying 0.736726 of unit cell:	Completed after 2 iterations at t[s]:   9535.74
SCF: Cycle: 82   G: -5613.794645120484347   dG: -8.630e-06   |Residual|: 1.225e-04   |deigs|: 1.028e-05  t[s]:   9537.35
	Linear fluid (dielectric constant: 78.4, screening length: 5.74355 Bohr) occupying 0.736727 of unit cell:	Completed after 0 iterations at t[s]:   9538.12
	FillingsUpdate:  mu: -0.171251800  nElectrons: 767.061585
	Linear fluid (dielectric constant: 78.4, screening length: 5.74355 Bohr) occupying 0.736719 of unit cell:	Completed after 10 iterations at t[s]:   9632.32
SCF: Cycle: 83   G: -5613.794255594375500   dG: +3.895e-04   |Residual|: 5.951e-03   |deigs|: 8.165e-05  t[s]:   9633.94
	Linear fluid (dielectric constant: 78.4, screening length: 5.74355 Bohr) occupying 0.736726 of unit cell:	Completed after 11 iterations at t[s]:   9636.09
	FillingsUpdate:  mu: -0.171251800  nElectrons: 766.918114
	Linear fluid (dielectric constant: 78.4, screening length: 5.74355 Bohr) occupying 0.736728 of unit cell:	Completed after 7 iterations at t[s]:   9713.90
SCF: Cycle: 84   G: -5613.794635158151323   dG: -3.796e-04   |Residual|: 1.110e-03   |deigs|: 9.287e-05  t[s]:   9715.54
	Linear fluid (dielectric constant: 78.4, screening length: 5.74355 Bohr) occupying 0.736727 of unit cell:	Completed after 6 iterations at t[s]:   9717.06
	FillingsUpdate:  mu: -0.171251800  nElectrons: 766.934441
	Linear fluid (dielectric constant: 78.4, screening length: 5.74355 Bohr) occupying 0.736726 of unit cell:	Completed after 3 iterations at t[s]:   9794.38
SCF: Cycle: 85   G: -5613.794643899000221   dG: -8.741e-06   |Residual|: 4.200e-04   |deigs|: 9.345e-06  t[s]:   9795.99
	Linear fluid (dielectric constant: 78.4, screening length: 5.74355 Bohr) occupying 0.736727 of unit cell:	Completed after 3 iterations at t[s]:   9797.16
	FillingsUpdate:  mu: -0.171251800  nElectrons: 767.004061
	Linear fluid (dielectric constant: 78.4, screening length: 5.74355 Bohr) occupying 0.736723 of unit cell:	Completed after 9 iterations at t[s]:   9875.07
SCF: Cycle: 86   G: -5613.794547599682119   dG: +9.630e-05   |Residual|: 2.639e-03   |deigs|: 4.503e-05  t[s]:   9876.67
	Linear fluid (dielectric constant: 78.4, screening length: 5.74355 Bohr) occupying 0.736727 of unit cell:	Completed after 10 iterations at t[s]:   9878.69
	FillingsUpdate:  mu: -0.171251800  nElectrons: 766.910942
	Linear fluid (dielectric constant: 78.4, screening length: 5.74355 Bohr) occupying 0.736729 of unit cell:	Completed after 8 iterations at t[s]:   9956.33
SCF: Cycle: 87   G: -5613.794629323851950   dG: -8.172e-05   |Residual|: 1.294e-03   |deigs|: 5.694e-05  t[s]:   9957.92
	Linear fluid (dielectric constant: 78.4, screening length: 5.74355 Bohr) occupying 0.736727 of unit cell:	Completed after 8 iterations at t[s]:   9959.70
	FillingsUpdate:  mu: -0.171251800  nElectrons: 766.920222
	Linear fluid (dielectric constant: 78.4, screening length: 5.74355 Bohr) occupying 0.736727 of unit cell:	Completed after 8 iterations at t[s]:  10039.03
SCF: Cycle: 88   G: -5613.794635551401370   dG: -6.228e-06   |Residual|: 9.195e-04   |deigs|: 5.047e-06  t[s]:  10040.63
	Linear fluid (dielectric constant: 78.4, screening length: 5.74355 Bohr) occupying 0.736727 of unit cell:	Completed after 7 iterations at t[s]:  10042.26
	FillingsUpdate:  mu: -0.171251800  nElectrons: 766.944269
	Linear fluid (dielectric constant: 78.4, screening length: 5.74355 Bohr) occupying 0.736726 of unit cell:	Completed after 3 iterations at t[s]:  10119.39
SCF: Cycle: 89   G: -5613.794644870209595   dG: -9.319e-06   |Residual|: 3.677e-04   |deigs|: 1.465e-05  t[s]:  10120.93
	Linear fluid (dielectric constant: 78.4, screening length: 5.74355 Bohr) occupying 0.736727 of unit cell:	Completed after 2 iterations at t[s]:  10121.99
	FillingsUpdate:  mu: -0.171251800  nElectrons: 766.909399
	Linear fluid (dielectric constant: 78.4, screening length: 5.74355 Bohr) occupying 0.736729 of unit cell:	Completed after 8 iterations at t[s]:  10199.40
SCF: Cycle: 90   G: -5613.794625236885622   dG: +1.963e-05   |Residual|: 1.277e-03   |deigs|: 2.060e-05  t[s]:  10201.05
	Linear fluid (dielectric constant: 78.4, screening length: 5.74355 Bohr) occupying 0.736727 of unit cell:	Completed after 8 iterations at t[s]:  10202.87
	FillingsUpdate:  mu: -0.171251800  nElectrons: 766.928336
	Linear fluid (dielectric constant: 78.4, screening length: 5.74355 Bohr) occupying 0.736727 of unit cell:	Completed after 7 iterations at t[s]:  10280.71
SCF: Cycle: 91   G: -5613.794641311730629   dG: -1.607e-05   |Residual|: 6.730e-04   |deigs|: 1.086e-05  t[s]:  10282.29
	Linear fluid (dielectric constant: 78.4, screening length: 5.74355 Bohr) occupying 0.736727 of unit cell:	Completed after 6 iterations at t[s]:  10283.79
	FillingsUpdate:  mu: -0.171251800  nElectrons: 766.935310
	Linear fluid (dielectric constant: 78.4, screening length: 5.74355 Bohr) occupying 0.736726 of unit cell:	Completed after 3 iterations at t[s]:  10364.78
SCF: Cycle: 92   G: -5613.794644798399531   dG: -3.487e-06   |Residual|: 2.175e-04   |deigs|: 4.450e-06  t[s]:  10366.36
	Linear fluid (dielectric constant: 78.4, screening length: 5.74355 Bohr) occupying 0.736727 of unit cell:	Completed after 2 iterations at t[s]:  10367.39
	FillingsUpdate:  mu: -0.171251800  nElectrons: 766.999813
	Linear fluid (dielectric constant: 78.4, screening length: 5.74355 Bohr) occupying 0.736723 of unit cell:	Completed after 8 iterations at t[s]:  10445.47
SCF: Cycle: 93   G: -5613.794555303741618   dG: +8.949e-05   |Residual|: 2.692e-03   |deigs|: 4.181e-05  t[s]:  10447.08
	Linear fluid (dielectric constant: 78.4, screening length: 5.74355 Bohr) occupying 0.736727 of unit cell:	Completed after 10 iterations at t[s]:  10449.10
	FillingsUpdate:  mu: -0.171251800  nElectrons: 766.912336
	Linear fluid (dielectric constant: 78.4, screening length: 5.74355 Bohr) occupying 0.736729 of unit cell:	Completed after 8 iterations at t[s]:  10527.58
SCF: Cycle: 94   G: -5613.794630238270656   dG: -7.493e-05   |Residual|: 1.262e-03   |deigs|: 5.461e-05  t[s]:  10529.19
	Linear fluid (dielectric constant: 78.4, screening length: 5.74355 Bohr) occupying 0.736727 of unit cell:	Completed after 8 iterations at t[s]:  10530.95
	FillingsUpdate:  mu: -0.171251800  nElectrons: 766.922613
	Linear fluid (dielectric constant: 78.4, screening length: 5.74355 Bohr) occupying 0.736727 of unit cell:	Completed after 7 iterations at t[s]:  10611.67
SCF: Cycle: 95   G: -5613.794637716347097   dG: -7.478e-06   |Residual|: 7.931e-04   |deigs|: 5.414e-06  t[s]:  10613.28
	Linear fluid (dielectric constant: 78.4, screening length: 5.74355 Bohr) occupying 0.736727 of unit cell:	Completed after 6 iterations at t[s]:  10614.84
	FillingsUpdate:  mu: -0.171251800  nElectrons: 766.942737
	Linear fluid (dielectric constant: 78.4, screening length: 5.74355 Bohr) occupying 0.736726 of unit cell:	Completed after 0 iterations at t[s]:  10693.05
SCF: Cycle: 96   G: -5613.794645411770944   dG: -7.695e-06   |Residual|: 1.790e-04   |deigs|: 1.224e-05  t[s]:  10694.64
	Linear fluid (dielectric constant: 78.4, screening length: 5.74355 Bohr) occupying 0.736727 of unit cell:	Completed after 0 iterations at t[s]:  10695.32
	FillingsUpdate:  mu: -0.171251800  nElectrons: 766.934017
	Linear fluid (dielectric constant: 78.4, screening length: 5.74355 Bohr) occupying 0.736727 of unit cell:	Completed after 3 iterations at t[s]:  10773.26
SCF: Cycle: 97   G: -5613.794644349010923   dG: +1.063e-06   |Residual|: 3.020e-04   |deigs|: 5.344e-06  t[s]:  10774.95
	Linear fluid (dielectric constant: 78.4, screening length: 5.74355 Bohr) occupying 0.736727 of unit cell:	Completed after 2 iterations at t[s]:  10776.00
	FillingsUpdate:  mu: -0.171251800  nElectrons: 767.011678
	Linear fluid (dielectric constant: 78.4, screening length: 5.74355 Bohr) occupying 0.736723 of unit cell:	Completed after 10 iterations at t[s]:  10884.82
SCF: Cycle: 98   G: -5613.794518688670905   dG: +1.257e-04   |Residual|: 3.118e-03   |deigs|: 5.002e-05  t[s]:  10886.53
	Linear fluid (dielectric constant: 78.4, screening length: 5.74355 Bohr) occupying 0.736727 of unit cell:	Completed after 10 iterations at t[s]:  10888.57
	FillingsUpdate:  mu: -0.171251800  nElectrons: 766.916989
	Linear fluid (dielectric constant: 78.4, screening length: 5.74355 Bohr) occupying 0.736728 of unit cell:	Completed after 7 iterations at t[s]:  10966.41
SCF: Cycle: 99   G: -5613.794634811152719   dG: -1.161e-04   |Residual|: 1.061e-03   |deigs|: 5.907e-05  t[s]:  10968.03
	Linear fluid (dielectric constant: 78.4, screening length: 5.74355 Bohr) occupying 0.736727 of unit cell:	Completed after 7 iterations at t[s]:  10969.74
	FillingsUpdate:  mu: -0.171251800  nElectrons: 766.928367
	Linear fluid (dielectric constant: 78.4, screening length: 5.74355 Bohr) occupying 0.736727 of unit cell:	Completed after 6 iterations at t[s]:  11046.96
SCF: Cycle: 100   G: -5613.794641123848123   dG: -6.313e-06   |Residual|: 6.343e-04   |deigs|: 6.350e-06  t[s]:  11048.56
	Linear fluid (dielectric constant: 78.4, screening length: 5.74355 Bohr) occupying 0.736727 of unit cell:	Completed after 7 iterations at t[s]:  11050.23
	FillingsUpdate:  mu: -0.171251800  nElectrons: 766.941977
	Linear fluid (dielectric constant: 78.4, screening length: 5.74355 Bohr) occupying 0.736726 of unit cell:	Completed after 0 iterations at t[s]:  11126.77
SCF: Cycle: 101   G: -5613.794645348011727   dG: -4.224e-06   |Residual|: 1.733e-04   |deigs|: 9.616e-06  t[s]:  11128.35
	Linear fluid (dielectric constant: 78.4, screening length: 5.74355 Bohr) occupying 0.736727 of unit cell:	Completed after 0 iterations at t[s]:  11129.00
	FillingsUpdate:  mu: -0.171251800  nElectrons: 766.922299
	Linear fluid (dielectric constant: 78.4, screening length: 5.74355 Bohr) occupying 0.736728 of unit cell:	Completed after 7 iterations at t[s]:  11206.98
SCF: Cycle: 102   G: -5613.794637400365900   dG: +7.948e-06   |Residual|: 8.845e-04   |deigs|: 1.280e-05  t[s]:  11208.67
	Linear fluid (dielectric constant: 78.4, screening length: 5.74355 Bohr) occupying 0.736727 of unit cell:	Completed after 6 iterations at t[s]:  11210.22
	FillingsUpdate:  mu: -0.171251800  nElectrons: 766.942136
	Linear fluid (dielectric constant: 78.4, screening length: 5.74355 Bohr) occupying 0.736726 of unit cell:	Completed after 2 iterations at t[s]:  11287.39
SCF: Cycle: 103   G: -5613.794645082673014   dG: -7.682e-06   |Residual|: 3.540e-04   |deigs|: 1.231e-05  t[s]:  11288.99
	Linear fluid (dielectric constant: 78.4, screening length: 5.74355 Bohr) occupying 0.736727 of unit cell:	Completed after 2 iterations at t[s]:  11290.04
	FillingsUpdate:  mu: -0.171251800  nElectrons: 766.926581
	Linear fluid (dielectric constant: 78.4, screening length: 5.74355 Bohr) occupying 0.736728 of unit cell:	Completed after 6 iterations at t[s]:  11368.90
SCF: Cycle: 104   G: -5613.794640184989476   dG: +4.898e-06   |Residual|: 9.889e-04   |deigs|: 8.886e-06  t[s]:  11370.49
	Linear fluid (dielectric constant: 78.4, screening length: 5.74355 Bohr) occupying 0.736727 of unit cell:	Completed after 6 iterations at t[s]:  11372.07
	FillingsUpdate:  mu: -0.171251800  nElectrons: 766.934827
	Linear fluid (dielectric constant: 78.4, screening length: 5.74355 Bohr) occupying 0.736726 of unit cell:	Completed after 3 iterations at t[s]:  11450.20
SCF: Cycle: 105   G: -5613.794644475859968   dG: -4.291e-06   |Residual|: 4.223e-04   |deigs|: 4.683e-06  t[s]:  11451.85
	Linear fluid (dielectric constant: 78.4, screening length: 5.74355 Bohr) occupying 0.736727 of unit cell:	Completed after 2 iterations at t[s]:  11452.91
	FillingsUpdate:  mu: -0.171251800  nElectrons: 767.004946
	Linear fluid (dielectric constant: 78.4, screening length: 5.74355 Bohr) occupying 0.736723 of unit cell:	Completed after 10 iterations at t[s]:  11531.05
SCF: Cycle: 106   G: -5613.794539625690959   dG: +1.049e-04   |Residual|: 2.916e-03   |deigs|: 4.564e-05  t[s]:  11532.67
	Linear fluid (dielectric constant: 78.4, screening length: 5.74355 Bohr) occupying 0.736727 of unit cell:	Completed after 10 iterations at t[s]:  11534.67
	FillingsUpdate:  mu: -0.171251800  nElectrons: 766.912913
	Linear fluid (dielectric constant: 78.4, screening length: 5.74355 Bohr) occupying 0.736729 of unit cell:	Completed after 7 iterations at t[s]:  11612.40
SCF: Cycle: 107   G: -5613.794631232317442   dG: -9.161e-05   |Residual|: 1.242e-03   |deigs|: 5.725e-05  t[s]:  11614.08
	Linear fluid (dielectric constant: 78.4, screening length: 5.74355 Bohr) occupying 0.736727 of unit cell:	Completed after 7 iterations at t[s]:  11615.74
	FillingsUpdate:  mu: -0.171251800  nElectrons: 766.932375
	Linear fluid (dielectric constant: 78.4, screening length: 5.74355 Bohr) occupying 0.736726 of unit cell:	Completed after 3 iterations at t[s]:  11692.47
SCF: Cycle: 108   G: -5613.794642810569712   dG: -1.158e-05   |Residual|: 5.987e-04   |deigs|: 1.093e-05  t[s]:  11694.04
	Linear fluid (dielectric constant: 78.4, screening length: 5.74355 Bohr) occupying 0.736727 of unit cell:	Completed after 3 iterations at t[s]:  11695.18
	FillingsUpdate:  mu: -0.171251800  nElectrons: 767.020854
	Linear fluid (dielectric constant: 78.4, screening length: 5.74355 Bohr) occupying 0.736722 of unit cell:	Completed after 9 iterations at t[s]:  11773.21
SCF: Cycle: 109   G: -5613.794491958885374   dG: +1.509e-04   |Residual|: 3.249e-03   |deigs|: 5.678e-05  t[s]:  11774.85
	Linear fluid (dielectric constant: 78.4, screening length: 5.74355 Bohr) occupying 0.736727 of unit cell:	Completed after 11 iterations at t[s]:  11776.98
	FillingsUpdate:  mu: -0.171251800  nElectrons: 766.918477
	Linear fluid (dielectric constant: 78.4, screening length: 5.74355 Bohr) occupying 0.736728 of unit cell:	Completed after 8 iterations at t[s]:  11854.41
SCF: Cycle: 110   G: -5613.794635619111432   dG: -1.437e-04   |Residual|: 1.014e-03   |deigs|: 6.346e-05  t[s]:  11856.02
	Linear fluid (dielectric constant: 78.4, screening length: 5.74355 Bohr) occupying 0.736727 of unit cell:	Completed after 6 iterations at t[s]:  11857.57
	FillingsUpdate:  mu: -0.171251800  nElectrons: 766.938188
	Linear fluid (dielectric constant: 78.4, screening length: 5.74355 Bohr) occupying 0.736726 of unit cell:	Completed after 3 iterations at t[s]:  11934.82
SCF: Cycle: 111   G: -5613.794644058287304   dG: -8.439e-06   |Residual|: 6.354e-04   |deigs|: 1.145e-05  t[s]:  11936.43
	Linear fluid (dielectric constant: 78.4, screening length: 5.74355 Bohr) occupying 0.736727 of unit cell:	Completed after 2 iterations at t[s]:  11937.48
	FillingsUpdate:  mu: -0.171251800  nElectrons: 766.980554
	Linear fluid (dielectric constant: 78.4, screening length: 5.74355 Bohr) occupying 0.736724 of unit cell:	Completed after 8 iterations at t[s]:  12016.64
SCF: Cycle: 112   G: -5613.794603305515921   dG: +4.075e-05   |Residual|: 1.825e-03   |deigs|: 2.926e-05  t[s]:  12018.31
	Linear fluid (dielectric constant: 78.4, screening length: 5.74355 Bohr) occupying 0.736727 of unit cell:	Completed after 9 iterations at t[s]:  12020.27
	FillingsUpdate:  mu: -0.171251800  nElectrons: 766.904587
	Linear fluid (dielectric constant: 78.4, screening length: 5.74355 Bohr) occupying 0.736730 of unit cell:	Completed after 8 iterations at t[s]:  12098.06
SCF: Cycle: 113   G: -5613.794620771389418   dG: -1.747e-05   |Residual|: 1.601e-03   |deigs|: 4.688e-05  t[s]:  12099.67
	Linear fluid (dielectric constant: 78.4, screening length: 5.74355 Bohr) occupying 0.736727 of unit cell:	Completed after 7 iterations at t[s]:  12101.34
	FillingsUpdate:  mu: -0.171251800  nElectrons: 766.925701
	Linear fluid (dielectric constant: 78.4, screening length: 5.74355 Bohr) occupying 0.736727 of unit cell:	Completed after 7 iterations at t[s]:  12179.96
SCF: Cycle: 114   G: -5613.794638393788773   dG: -1.762e-05   |Residual|: 8.621e-04   |deigs|: 1.142e-05  t[s]:  12181.56
	Linear fluid (dielectric constant: 78.4, screening length: 5.74355 Bohr) occupying 0.736727 of unit cell:	Completed after 7 iterations at t[s]:  12183.25
	FillingsUpdate:  mu: -0.171251800  nElectrons: 766.943614
	Linear fluid (dielectric constant: 78.4, screening length: 5.74355 Bohr) occupying 0.736726 of unit cell:	Completed after 2 iterations at t[s]:  12260.30
SCF: Cycle: 115   G: -5613.794645120274254   dG: -6.726e-06   |Residual|: 2.746e-04   |deigs|: 1.277e-05  t[s]:  12261.93
	Linear fluid (dielectric constant: 78.4, screening length: 5.74355 Bohr) occupying 0.736727 of unit cell:	Completed after 0 iterations at t[s]:  12262.73
	FillingsUpdate:  mu: -0.171251800  nElectrons: 766.822846
	Linear fluid (dielectric constant: 78.4, screening length: 5.74355 Bohr) occupying 0.736735 of unit cell:	Completed after 10 iterations at t[s]:  12341.93
SCF: Cycle: 116   G: -5613.794275050514443   dG: +3.701e-04   |Residual|: 6.628e-03   |deigs|: 8.046e-05  t[s]:  12343.52
	Linear fluid (dielectric constant: 78.4, screening length: 5.74355 Bohr) occupying 0.736727 of unit cell:	Completed after 12 iterations at t[s]:  12345.80
	FillingsUpdate:  mu: -0.171251800  nElectrons: 766.919431
	Linear fluid (dielectric constant: 78.4, screening length: 5.74355 Bohr) occupying 0.736728 of unit cell:	Completed after 7 iterations at t[s]:  12424.94
SCF: Cycle: 117   G: -5613.794637159027843   dG: -3.621e-04   |Residual|: 7.651e-04   |deigs|: 6.778e-05  t[s]:  12426.55
	Linear fluid (dielectric constant: 78.4, screening length: 5.74355 Bohr) occupying 0.736727 of unit cell:	Completed after 7 iterations at t[s]:  12428.21
	FillingsUpdate:  mu: -0.171251800  nElectrons: 766.932224
	Linear fluid (dielectric constant: 78.4, screening length: 5.74355 Bohr) occupying 0.736726 of unit cell:	Completed after 2 iterations at t[s]:  12505.49
SCF: Cycle: 118   G: -5613.794643310481661   dG: -6.151e-06   |Residual|: 5.186e-04   |deigs|: 8.611e-06  t[s]:  12507.11
	Linear fluid (dielectric constant: 78.4, screening length: 5.74355 Bohr) occupying 0.736727 of unit cell:	Completed after 3 iterations at t[s]:  12508.29
	FillingsUpdate:  mu: -0.171251800  nElectrons: 767.015438
	Linear fluid (dielectric constant: 78.4, screening length: 5.74355 Bohr) occupying 0.736722 of unit cell:	Completed after 10 iterations at t[s]:  12586.41
SCF: Cycle: 119   G: -5613.794510996229292   dG: +1.323e-04   |Residual|: 3.035e-03   |deigs|: 5.311e-05  t[s]:  12588.04
	Linear fluid (dielectric constant: 78.4, screening length: 5.74355 Bohr) occupying 0.736727 of unit cell:	Completed after 10 iterations at t[s]:  12590.08
	FillingsUpdate:  mu: -0.171251800  nElectrons: 766.916208
	Linear fluid (dielectric constant: 78.4, screening length: 5.74355 Bohr) occupying 0.736729 of unit cell:	Completed after 8 iterations at t[s]:  12667.48
SCF: Cycle: 120   G: -5613.794634092877459   dG: -1.231e-04   |Residual|: 1.107e-03   |deigs|: 6.114e-05  t[s]:  12669.13
	Linear fluid (dielectric constant: 78.4, screening length: 5.74355 Bohr) occupying 0.736727 of unit cell:	Completed after 6 iterations at t[s]:  12670.65
	FillingsUpdate:  mu: -0.171251800  nElectrons: 766.934483
	Linear fluid (dielectric constant: 78.4, screening length: 5.74355 Bohr) occupying 0.736726 of unit cell:	Completed after 3 iterations at t[s]:  12749.27
SCF: Cycle: 121   G: -5613.794643210857430   dG: -9.118e-06   |Residual|: 6.828e-04   |deigs|: 1.053e-05  t[s]:  12750.85
	Linear fluid (dielectric constant: 78.4, screening length: 5.74355 Bohr) occupying 0.736727 of unit cell:	Completed after 3 iterations at t[s]:  12752.01
	FillingsUpdate:  mu: -0.171251800  nElectrons: 767.008047
	Linear fluid (dielectric constant: 78.4, screening length: 5.74355 Bohr) occupying 0.736723 of unit cell:	Completed after 10 iterations at t[s]:  12829.61
SCF: Cycle: 122   G: -5613.794533858977047   dG: +1.094e-04   |Residual|: 2.869e-03   |deigs|: 4.783e-05  t[s]:  12831.26
	Linear fluid (dielectric constant: 78.4, screening length: 5.74355 Bohr) occupying 0.736727 of unit cell:	Completed after 10 iterations at t[s]:  12833.28
	FillingsUpdate:  mu: -0.171251800  nElectrons: 766.914082
	Linear fluid (dielectric constant: 78.4, screening length: 5.74355 Bohr) occupying 0.736729 of unit cell:	Completed after 7 iterations at t[s]:  12910.57
SCF: Cycle: 123   G: -5613.794632582310442   dG: -9.872e-05   |Residual|: 1.167e-03   |deigs|: 5.785e-05  t[s]:  12912.22
	Linear fluid (dielectric constant: 78.4, screening length: 5.74355 Bohr) occupying 0.736727 of unit cell:	Completed after 7 iterations at t[s]:  12913.87
	FillingsUpdate:  mu: -0.171251800  nElectrons: 766.932283
	Linear fluid (dielectric constant: 78.4, screening length: 5.74355 Bohr) occupying 0.736726 of unit cell:	Completed after 3 iterations at t[s]:  12990.80
SCF: Cycle: 124   G: -5613.794642411094173   dG: -9.829e-06   |Residual|: 7.177e-04   |deigs|: 1.037e-05  t[s]:  12992.39
	Linear fluid (dielectric constant: 78.4, screening length: 5.74355 Bohr) occupying 0.736727 of unit cell:	Completed after 3 iterations at t[s]:  12993.53
	FillingsUpdate:  mu: -0.171251800  nElectrons: 767.027646
	Linear fluid (dielectric constant: 78.4, screening length: 5.74355 Bohr) occupying 0.736721 of unit cell:	Completed after 10 iterations at t[s]:  13071.85
SCF: Cycle: 125   G: -5613.794462979736636   dG: +1.794e-04   |Residual|: 3.629e-03   |deigs|: 6.117e-05  t[s]:  13073.53
	Linear fluid (dielectric constant: 78.4, screening length: 5.74355 Bohr) occupying 0.736727 of unit cell:	Completed after 10 iterations at t[s]:  13075.60
	FillingsUpdate:  mu: -0.171251800  nElectrons: 766.915787
	Linear fluid (dielectric constant: 78.4, screening length: 5.74355 Bohr) occupying 0.736729 of unit cell:	Completed after 8 iterations at t[s]:  13153.55
SCF: Cycle: 126   G: -5613.794633910333687   dG: -1.709e-04   |Residual|: 1.127e-03   |deigs|: 6.888e-05  t[s]:  13155.19
	Linear fluid (dielectric constant: 78.4, screening length: 5.74355 Bohr) occupying 0.736727 of unit cell:	Completed after 7 iterations at t[s]:  13156.86
	FillingsUpdate:  mu: -0.171251800  nElectrons: 766.928854
	Linear fluid (dielectric constant: 78.4, screening length: 5.74355 Bohr) occupying 0.736727 of unit cell:	Completed after 7 iterations at t[s]:  13234.60
SCF: Cycle: 127   G: -5613.794640727913247   dG: -6.818e-06   |Residual|: 7.887e-04   |deigs|: 7.198e-06  t[s]:  13236.25
	Linear fluid (dielectric constant: 78.4, screening length: 5.74355 Bohr) occupying 0.736727 of unit cell:	Completed after 7 iterations at t[s]:  13237.90
	FillingsUpdate:  mu: -0.171251800  nElectrons: 766.952854
	Linear fluid (dielectric constant: 78.4, screening length: 5.74355 Bohr) occupying 0.736725 of unit cell:	Completed after 8 iterations at t[s]:  13316.73
SCF: Cycle: 128   G: -5613.794641795830103   dG: -1.068e-06   |Residual|: 5.812e-04   |deigs|: 1.660e-05  t[s]:  13318.34
	Linear fluid (dielectric constant: 78.4, screening length: 5.74355 Bohr) occupying 0.736727 of unit cell:	Completed after 7 iterations at t[s]:  13319.99
	FillingsUpdate:  mu: -0.171251800  nElectrons: 766.903922
	Linear fluid (dielectric constant: 78.4, screening length: 5.74355 Bohr) occupying 0.736729 of unit cell:	Completed after 8 iterations at t[s]:  13412.66
SCF: Cycle: 129   G: -5613.794620498791119   dG: +2.130e-05   |Residual|: 1.365e-03   |deigs|: 2.896e-05  t[s]:  13414.23
	Linear fluid (dielectric constant: 78.4, screening length: 5.74355 Bohr) occupying 0.736727 of unit cell:	Completed after 8 iterations at t[s]:  13416.01
	FillingsUpdate:  mu: -0.171251800  nElectrons: 766.926686
	Linear fluid (dielectric constant: 78.4, screening length: 5.74355 Bohr) occupying 0.736727 of unit cell:	Completed after 7 iterations at t[s]:  13493.93
SCF: Cycle: 130   G: -5613.794640043416621   dG: -1.954e-05   |Residual|: 6.865e-04   |deigs|: 1.320e-05  t[s]:  13495.56
	Linear fluid (dielectric constant: 78.4, screening length: 5.74355 Bohr) occupying 0.736726 of unit cell:	Completed after 7 iterations at t[s]:  13497.22
	FillingsUpdate:  mu: -0.171251800  nElectrons: 766.940188
	Linear fluid (dielectric constant: 78.4, screening length: 5.74355 Bohr) occupying 0.736726 of unit cell:	Completed after 0 iterations at t[s]:  13574.29
SCF: Cycle: 131   G: -5613.794645403128015   dG: -5.360e-06   |Residual|: 1.203e-04   |deigs|: 1.092e-05  t[s]:  13575.92
	Linear fluid (dielectric constant: 78.4, screening length: 5.74355 Bohr) occupying 0.736726 of unit cell:	Completed after 0 iterations at t[s]:  13576.66
	FillingsUpdate:  mu: -0.171251800  nElectrons: 766.940185
	Linear fluid (dielectric constant: 78.4, screening length: 5.74355 Bohr) occupying 0.736726 of unit cell:	Completed after 0 iterations at t[s]:  13646.14
SCF: Cycle: 132   G: -5613.794645403864706   dG: -7.367e-10   |Residual|: 1.200e-04   |deigs|: 1.498e-06  t[s]:  13647.77
	Linear fluid (dielectric constant: 78.4, screening length: 5.74355 Bohr) occupying 0.736726 of unit cell:	Completed after 0 iterations at t[s]:  13648.44
	FillingsUpdate:  mu: -0.171251800  nElectrons: 766.940187
	Linear fluid (dielectric constant: 78.4, screening length: 5.74355 Bohr) occupying 0.736726 of unit cell:	Completed after 0 iterations at t[s]:  13760.71
SCF: Cycle: 133   G: -5613.794645405140727   dG: -1.276e-09   |Residual|: 1.217e-04   |deigs|: 1.177e-06  t[s]:  13762.33
SCF: Converged (|Delta E|<1.000000e-08 for 2 iters).


# Ionic positions in lattice coordinates:
ion Ni   0.083331648604167   0.083331651041667   0.536343494193192 0
ion Ni  -0.000001684729167  -0.000001682291667   0.463676519806808 0
ion Ni   0.333331648604167   0.083331651041667   0.536343494193192 0
ion Ni   0.249998315270833  -0.000001682291667   0.463676519806808 0
ion Ni   0.583331648604167   0.083331651041667   0.536343494193192 0
ion Ni   0.499998315270833  -0.000001682291667   0.463676519806808 0
ion Ni   0.833331648604167   0.083331651041667   0.536343494193192 0
ion Ni   0.749998315270833  -0.000001682291667   0.463676519806808 0
ion Ni   0.083331648604167   0.333331651041667   0.536343494193192 0
ion Ni  -0.000001684729167   0.249998317708333   0.463676519806808 0
ion Ni   0.333331648604167   0.333331651041667   0.536343494193192 0
ion Ni   0.249998315270833   0.249998317708333   0.463676519806808 0
ion Ni   0.583331648604167   0.333331651041667   0.536343494193192 0
ion Ni   0.499998315270833   0.249998317708333   0.463676519806808 0
ion Ni   0.833331648604167   0.333331651041667   0.536343494193192 0
ion Ni   0.749998315270833   0.249998317708333   0.463676519806808 0
ion Ni   0.083331648604167   0.583331651041667   0.536343494193192 0
ion Ni  -0.000001684729167   0.499998317708333   0.463676519806808 0
ion Ni   0.333331648604167   0.583331651041667   0.536343494193192 0
ion Ni   0.249998315270833   0.499998317708333   0.463676519806808 0
ion Ni   0.583331648604167   0.583331651041667   0.536343494193192 0
ion Ni   0.499998315270833   0.499998317708333   0.463676519806808 0
ion Ni   0.833331648604167   0.583331651041667   0.536343494193192 0
ion Ni   0.749998315270833   0.499998317708333   0.463676519806808 0
ion Ni   0.083331648604167   0.833331651041667   0.536343494193192 0
ion Ni   0.999998315270833   0.749998317708333   0.463676519806808 0
ion Ni   0.333331648604167   0.833331651041667   0.536343494193192 0
ion Ni   0.249998315270833   0.749998317708333   0.463676519806808 0
ion Ni   0.583331648604167   0.833331651041667   0.536343494193192 0
ion Ni   0.499998315270833   0.749998317708333   0.463676519806808 0
ion Ni   0.833331648604167   0.833331651041667   0.536343494193192 0
ion Ni   0.749998315270833   0.749998317708333   0.463676519806808 0
ion Te   0.083331648604167   0.083331651041667   0.398875242612108 0
ion Te  -0.000001684729167  -0.000001682291667   0.601104717387896 0
ion Te   0.333331648604167   0.083331651041667   0.398875242612108 0
ion Te   0.249998315270833  -0.000001682291667   0.601104717387896 0
ion Te   0.583331648604167   0.083331651041667   0.398875242612108 0
ion Te   0.499998315270833  -0.000001682291667   0.601104717387896 0
ion Te   0.833331648604167   0.083331651041667   0.398875242612108 0
ion Te   0.749998315270833  -0.000001682291667   0.601104717387896 0
ion Te   0.083331648604167   0.333331651041667   0.398875242612108 0
ion Te  -0.000001684729167   0.249998317708333   0.601104717387896 0
ion Te   0.333331648604167   0.333331651041667   0.398875242612108 0
ion Te   0.249998315270833   0.249998317708333   0.601104717387896 0
ion Te   0.583331648604167   0.333331651041667   0.398875242612108 0
ion Te   0.499998315270833   0.249998317708333   0.601104717387896 0
ion Te   0.833331648604167   0.333331651041667   0.398875242612108 0
ion Te   0.749998315270833   0.249998317708333   0.601104717387896 0
ion Te   0.083331648604167   0.583331651041667   0.398875242612108 0
ion Te  -0.000001684729167   0.499998317708333   0.601104717387896 0
ion Te   0.333331648604167   0.583331651041667   0.398875242612108 0
ion Te   0.249998315270833   0.499998317708333   0.601104717387896 0
ion Te   0.583331648604167   0.583331651041667   0.398875242612108 0
ion Te   0.499998315270833   0.499998317708333   0.601104717387896 0
ion Te   0.833331648604167   0.583331651041667   0.398875242612108 0
ion Te   0.749998315270833   0.499998317708333   0.601104717387896 0
ion Te   0.083331648604167   0.833331651041667   0.398875242612108 0
ion Te   0.999998315270833   0.749998317708333   0.601104717387896 0
ion Te   0.333331648604167   0.833331651041667   0.398875242612108 0
ion Te   0.249998315270833   0.749998317708333   0.601104717387896 0
ion Te   0.583331648604167   0.833331651041667   0.398875242612108 0
ion Te   0.499998315270833   0.749998317708333   0.601104717387896 0
ion Te   0.833331648604167   0.833331651041667   0.398875242612108 0
ion Te   0.749998315270833   0.749998317708333   0.601104717387896 0


# Forces in Lattice coordinates:
force Ni  -0.000000000000000   0.000000000000000  -0.067399415389902 0
force Ni  -0.000000000000000  -0.000000000000000   0.058838317842229 0
force Ni  -0.000000000000000   0.000000000000000  -0.067399415390357 0
force Ni  -0.000000000000000  -0.000000000000000   0.058838317842684 0
force Ni  -0.000000000000000  -0.000000000000000  -0.067399415390130 0
force Ni  -0.000000000000000  -0.000000000000000   0.058838317842457 0
force Ni  -0.000000000000000   0.000000000000000  -0.067399415389903 0
force Ni  -0.000000000000000   0.000000000000000   0.058838317842456 0
force Ni   0.000000000000000   0.000000000000000  -0.067399415389902 0
force Ni  -0.000000000000000  -0.000000000000000   0.058838317842229 0
force Ni   0.000000000000000   0.000000000000000  -0.067399415389902 0
force Ni   0.000000000000000   0.000000000000000   0.058838317842684 0
force Ni   0.000000000000000   0.000000000000000  -0.067399415389903 0
force Ni  -0.000000000000000   0.000000000000000   0.058838317842457 0
force Ni  -0.000000000000000   0.000000000000000  -0.067399415390358 0
force Ni   0.000000000000000  -0.000000000000000   0.058838317842457 0
force Ni  -0.000000000000000   0.000000000000000  -0.067399415389903 0
force Ni   0.000000000000000  -0.000000000000000   0.058838317842457 0
force Ni   0.000000000000000   0.000000000000000  -0.067399415389676 0
force Ni  -0.000000000000000  -0.000000000000000   0.058838317842457 0
force Ni   0.000000000000000   0.000000000000000  -0.067399415389903 0
force Ni  -0.000000000000000   0.000000000000000   0.058838317842457 0
force Ni  -0.000000000000000   0.000000000000000  -0.067399415390130 0
force Ni   0.000000000000000  -0.000000000000000   0.058838317842456 0
force Ni   0.000000000000000   0.000000000000000  -0.067399415390130 0
force Ni  -0.000000000000000  -0.000000000000000   0.058838317842229 0
force Ni  -0.000000000000000   0.000000000000000  -0.067399415390130 0
force Ni   0.000000000000000   0.000000000000000   0.058838317842457 0
force Ni  -0.000000000000000   0.000000000000000  -0.067399415389903 0
force Ni  -0.000000000000000   0.000000000000000   0.058838317842229 0
force Ni  -0.000000000000000   0.000000000000000  -0.067399415389676 0
force Ni   0.000000000000000  -0.000000000000000   0.058838317842457 0
force Te  -0.000000000000000   0.000000000000000  -0.230143664328654 0
force Te   0.000000000000000  -0.000000000000000   0.234522713326745 0
force Te   0.000000000000000   0.000000000000000  -0.230143664328655 0
force Te   0.000000000000000   0.000000000000000   0.234522713326745 0
force Te  -0.000000000000000   0.000000000000000  -0.230143664328655 0
force Te  -0.000000000000000   0.000000000000000   0.234522713326973 0
force Te   0.000000000000000   0.000000000000000  -0.230143664328654 0
force Te   0.000000000000000  -0.000000000000000   0.234522713326745 0
force Te   0.000000000000000  -0.000000000000000  -0.230143664328654 0
force Te  -0.000000000000000   0.000000000000000   0.234522713326973 0
force Te  -0.000000000000000   0.000000000000000  -0.230143664328655 0
force Te  -0.000000000000000   0.000000000000000   0.234522713326973 0
force Te   0.000000000000000   0.000000000000000  -0.230143664328655 0
force Te   0.000000000000000  -0.000000000000000   0.234522713326973 0
force Te  -0.000000000000000  -0.000000000000000  -0.230143664328654 0
force Te   0.000000000000000   0.000000000000000   0.234522713326745 0
force Te  -0.000000000000000   0.000000000000000  -0.230143664328882 0
force Te   0.000000000000000   0.000000000000000   0.234522713326972 0
force Te   0.000000000000000   0.000000000000000  -0.230143664328655 0
force Te  -0.000000000000000   0.000000000000000   0.234522713326973 0
force Te  -0.000000000000000   0.000000000000000  -0.230143664328655 0
force Te   0.000000000000000   0.000000000000000   0.234522713326745 0
force Te   0.000000000000000   0.000000000000000  -0.230143664328654 0
force Te   0.000000000000000  -0.000000000000000   0.234522713326745 0
force Te   0.000000000000000  -0.000000000000000  -0.230143664328654 0
force Te  -0.000000000000000  -0.000000000000000   0.234522713326859 0
force Te   0.000000000000000   0.000000000000000  -0.230143664328655 0
force Te   0.000000000000000   0.000000000000000   0.234522713326859 0
force Te   0.000000000000000  -0.000000000000000  -0.230143664328655 0
force Te   0.000000000000000   0.000000000000000   0.234522713327086 0
force Te  -0.000000000000000   0.000000000000000  -0.230143664328654 0
force Te   0.000000000000000   0.000000000000000   0.234522713326859 0

# Energy components:
   A_diel =        0.0561121056712690
   Eewald =    21549.9715878370589053
       EH =    26608.4076648762638797
     Eloc =   -54809.3979828326846473
      Enl =      713.8259835494056915
      Exc =     -800.5696530628275696
 Exc_core =      171.3874870987045256
       KE =      821.3378407780087400
  MuShift =        0.0161839021775241
-------------------------------------
     Etot =    -5744.9647757482225643
       TS =        0.1697572140775404
-------------------------------------
        F =    -5745.1345329622999998
      muN =     -131.3398875571590736
-------------------------------------
        G =    -5613.7946454051407272

IonicMinimize: Iter:   0  G: -5613.794645405140727  |grad|_K:  0.000e+00  t[s]:  13777.27
IonicMinimize: Converged (|grad|_K<1.000000e-04).

#--- Lowdin population analysis ---
# oxidation-state Ni -0.556 -0.556 -0.556 -0.556 -0.556 -0.556 -0.556 -0.556 -0.556 -0.556 -0.556 -0.556 -0.556 -0.556 -0.556 -0.556 -0.556 -0.556 -0.556 -0.556 -0.556 -0.556 -0.556 -0.556 -0.556 -0.556 -0.556 -0.556 -0.556 -0.556 -0.556 -0.556
# oxidation-state Te +0.725 +0.726 +0.725 +0.726 +0.725 +0.726 +0.725 +0.726 +0.725 +0.726 +0.725 +0.726 +0.725 +0.726 +0.725 +0.726 +0.725 +0.726 +0.725 +0.726 +0.725 +0.726 +0.725 +0.726 +0.725 +0.726 +0.725 +0.726 +0.725 +0.726 +0.725 +0.726


Dumping 'NbTe2.fillings' ... done
Dumping 'NbTe2.wfns' ... done
Dumping 'NbTe2.fluidState' ... done
Dumping 'NbTe2.eigenvals' ... done
End date and time: Fri Jul  3 16:40:18 2020  (Duration: 0-3:49:47.07)
Done!
