
*************** JDFTx 1.5.0  ***************

Start date and time: Sat Jan 16 05:07:33 2021
Executable jdftx_gpu with command-line: -i Charged.in -o Charged.out
Running on hosts (process indices):  amax (0-4)
Divided in process groups (process indices):  0 (0)  1 (1)  2 (2)  3 (3)  4 (4)
gpuInit: Found compatible cuda device 0 'Tesla K80'
gpuInit: Found compatible cuda device 1 'Tesla K80'
gpuInit: Found compatible cuda device 2 'Tesla K80'
gpuInit: Found compatible cuda device 3 'Tesla K80'
gpuInit: Found compatible cuda device 4 'Tesla K80'
gpuInit: Selected device 0
Resource initialization completed at t[s]:      2.76
Run totals: 5 processes, 24 threads, 5 GPUs


Input parsed successfully to the following command list (including defaults):

basis kpoint-dependent
cache-projectors no
coords-type Lattice
core-overlap-check none
coulomb-interaction Slab 001
coulomb-truncation-embed 0.5 0.5 0.5
davidson-band-ratio 1.1
dump End State
dump-name NbTe2.$VAR
elec-cutoff 20
elec-eigen-algo Davidson
elec-ex-corr gga-PBE
elec-initial-charge 1.000000
elec-initial-magnetization 5.000000 no
elec-smearing Gauss 0.0073499
electronic-minimize  \
	dirUpdateScheme      FletcherReeves \
	linminMethod         DirUpdateRecommended \
	nIterations          200 \
	history              15 \
	knormThreshold       0 \
	energyDiffThreshold  1e-08 \
	nEnergyDiff          2 \
	alphaTstart          1 \
	alphaTmin            1e-10 \
	updateTestStepSize   yes \
	alphaTreduceFactor   0.1 \
	alphaTincreaseFactor 3 \
	nAlphaAdjustMax      3 \
	wolfeEnergy          0.0001 \
	wolfeGradient        0.9 \
	fdTest               no
exchange-regularization WignerSeitzTruncated
fluid LinearPCM 298.000000 1.013250
fluid-anion F- 1 MeanFieldLJ \
	epsBulk 1 \
	pMol 0 \
	epsInf 1 \
	Pvap 0 \
	sigmaBulk 0 \
	Rvdw 2.24877 \
	Res 0 \
	tauNuc 343133
fluid-cation Na+ 1 MeanFieldLJ \
	epsBulk 1 \
	pMol 0 \
	epsInf 1 \
	Pvap 0 \
	sigmaBulk 0 \
	Rvdw 2.19208 \
	Res 0 \
	tauNuc 343133
fluid-ex-corr lda-TF lda-PZ
fluid-gummel-loop 10 1.000000e-05
fluid-minimize  \
	dirUpdateScheme      PolakRibiere \
	linminMethod         DirUpdateRecommended \
	nIterations          400 \
	history              15 \
	knormThreshold       1e-11 \
	energyDiffThreshold  0 \
	nEnergyDiff          2 \
	alphaTstart          1 \
	alphaTmin            1e-10 \
	updateTestStepSize   yes \
	alphaTreduceFactor   0.1 \
	alphaTincreaseFactor 3 \
	nAlphaAdjustMax      6 \
	wolfeEnergy          0.0001 \
	wolfeGradient        0.9 \
	fdTest               no
fluid-solvent H2O 55.338 ScalarEOS \
	epsBulk 78.4 \
	pMol 0.92466 \
	epsInf 1.77 \
	Pvap 1.06736e-10 \
	sigmaBulk 4.62e-05 \
	Rvdw 2.61727 \
	Res 1.42 \
	tauNuc 343133 \
	poleEl 15 7 1
forces-output-coords Positions
initial-state NbTe2.$VAR
ion W   0.083329990000003   0.166669986000002   0.500000000000000 1
ion W   0.333329999999997   0.166669986000002   0.500000000000000 1
ion W   0.583329980999999   0.166669986000002   0.500000000000000 1
ion W   0.833329962000001   0.166669986000002   0.500000000000000 1
ion W   0.083329998000003   0.416670001999996   0.500000000000000 1
ion W   0.333330007000001   0.416670001999996   0.500000000000000 1
ion W   0.583330007000001   0.416670001999996   0.500000000000000 1
ion W   0.833329988999999   0.416670001999996   0.500000000000000 1
ion W   0.083329996000003   0.666670017000001   0.500000000000000 1
ion W   0.333330015000001   0.666670017000001   0.500000000000000 1
ion W   0.583329996000003   0.666670017000001   0.500000000000000 1
ion W   0.833329978000002   0.666670017000001   0.500000000000000 1
ion W   0.083329984999999   0.916670033000003   0.500000000000000 1
ion W   0.333330003999997   0.916670033000003   0.500000000000000 1
ion W   0.583329984999999   0.916670033000003   0.500000000000000 1
ion W   0.833329966999997   0.916670033000003   0.500000000000000 1
ion S   0.166669992000003   0.083329997000000   0.413270007000001 1
ion S   0.166669992000003   0.083329997000000   0.586730019999997 1
ion S   0.416669992000003   0.083329997000000   0.413270007000001 1
ion S   0.416669992000003   0.083329997000000   0.586730019999997 1
ion S   0.666670011000001   0.083329997000000   0.413270007000001 1
ion S   0.666670011000001   0.083329997000000   0.586730019999997 1
ion S   0.916670066999998   0.083329997000000   0.413270007000001 1
ion S   0.916670066999998   0.083329997000000   0.586730019999997 1
ion S   0.166669994000003   0.333330001000000   0.413270007000001 1
ion S   0.166669994000003   0.333330001000000   0.586730019999997 1
ion S   0.416669974999998   0.333330001000000   0.413270007000001 1
ion S   0.416669974999998   0.333330001000000   0.586730019999997 1
ion S   0.666669994000003   0.333330001000000   0.413270007000001 1
ion S   0.666669994000003   0.333330001000000   0.586730019999997 1
ion S   0.916670013000001   0.333330001000000   0.413270007000001 1
ion S   0.916670013000001   0.333330001000000   0.586730019999997 1
ion S   0.166669999000000   0.583329974000002   0.413270007000001 1
ion S   0.166669999000000   0.583329974000002   0.586730019999997 1
ion S   0.416669980000002   0.583329974000002   0.413270007000001 1
ion S   0.416669980000002   0.583329974000002   0.586730019999997 1
ion S   0.666669999000000   0.583329974000002   0.413270007000001 1
ion S   0.666669999000000   0.583329974000002   0.586730019999997 1
ion S   0.916670054999997   0.583329974000002   0.413270007000001 1
ion S   0.916670054999997   0.583329974000002   0.586730019999997 1
ion S   0.166669966000001   0.833329945999999   0.413270007000001 1
ion S   0.166669966000001   0.833329945999999   0.586730019999997 1
ion S   0.416669947000003   0.833329945999999   0.413270007000001 1
ion S   0.416669947000003   0.833329945999999   0.586730019999997 1
ion S   0.666669966000001   0.833329945999999   0.413270007000001 1
ion S   0.666669966000001   0.833329945999999   0.586730019999997 1
ion S   0.916670023000002   0.833329945999999   0.413270007000001 1
ion S   0.916670023000002   0.833329945999999   0.586730019999997 1
ion-species GBRV/$ID_pbe.uspp
ion-width Ecut
ionic-minimize  \
	dirUpdateScheme      L-BFGS \
	linminMethod         DirUpdateRecommended \
	nIterations          500 \
	history              15 \
	knormThreshold       0.0001 \
	energyDiffThreshold  1e-06 \
	nEnergyDiff          2 \
	alphaTstart          1 \
	alphaTmin            1e-10 \
	updateTestStepSize   yes \
	alphaTreduceFactor   0.1 \
	alphaTincreaseFactor 3 \
	nAlphaAdjustMax      3 \
	wolfeEnergy          0.0001 \
	wolfeGradient        0.9 \
	fdTest               no
kpoint   0.000000000000   0.000000000000   0.000000000000  1.00000000000000
kpoint-folding 5 5 1 
latt-move-scale 1 1 1
latt-scale 1.88973 1.88973 1.88973 
lattice Triclinic 12.7007 12.7008 18.1461 90 90 120
lattice-minimize  \
	dirUpdateScheme      L-BFGS \
	linminMethod         DirUpdateRecommended \
	nIterations          0 \
	history              15 \
	knormThreshold       0 \
	energyDiffThreshold  1e-06 \
	nEnergyDiff          2 \
	alphaTstart          1 \
	alphaTmin            1e-10 \
	updateTestStepSize   yes \
	alphaTreduceFactor   0.1 \
	alphaTincreaseFactor 3 \
	nAlphaAdjustMax      3 \
	wolfeEnergy          0.0001 \
	wolfeGradient        0.9 \
	fdTest               no
lcao-params -1 1e-06 0.0073499
pcm-variant CANDLE
spintype z-spin
subspace-rotation-factor 1 yes
symmetries automatic
symmetry-threshold 0.0001



---------- Setting up symmetries ----------

Found 24 point-group symmetries of the bravais lattice
Found 64 space-group symmetries with basis
Applied RMS atom displacement 7.79785e-07 bohrs to make symmetries exact.

---------- Initializing the Grid ----------
R = 
[    24.0008   -12.0005          0  ]
[          0    20.7855          0  ]
[          0          0    34.2912  ]
unit cell volume = 17106.8
G =
[    0.26179   0.151145         -0  ]
[          0   0.302287          0  ]
[          0         -0    0.18323  ]
Minimum fftbox size, Smin = [  100  100  140  ]
Chosen fftbox size, S = [  100  100  140  ]

---------- Exchange Correlation functional ----------
Initalized PBE GGA exchange.
Initalized PBE GGA correlation.

---------- Setting up pseudopotentials ----------
Width of ionic core gaussian charges (only for fluid interactions / plotting) set to 0.397384

Reading pseudopotential file '/home/guoxy/vasp/jdftx-1.5.0/build/pseudopotentials/GBRV/w_pbe.uspp':
  Title: W.  Created by USPP 7.3.6 on 3-2-2014
  Reference state energy: -79.133630.  14 valence electrons in orbitals:
    |500>  occupation: 2  eigenvalue: -2.938934
    |510>  occupation: 6  eigenvalue: -1.620730
    |520>  occupation: 3.9  eigenvalue: -0.194511
    |600>  occupation: 2  eigenvalue: -0.234858
    |610>  occupation: 0  eigenvalue: -0.069444
  lMax: 3  lLocal: 3  QijEcut: 5
  8 projectors sampled on a log grid with 667 points:
    l: 0  eig: -2.938934  rCut: 1.45
    l: 0  eig: -0.234859  rCut: 1.45
    l: 0  eig: 0.500000  rCut: 1.45
    l: 1  eig: -1.620730  rCut: 1.5
    l: 1  eig: -0.069446  rCut: 1.5
    l: 2  eig: -0.194511  rCut: 1.7
    l: 2  eig: 0.150000  rCut: 1.7
    l: 3  eig: 0.500000  rCut: 2.3
  Partial core density with radius 1.2
  Transforming core density to a uniform radial grid of dG=0.02 with 1463 points.
  Transforming local potential to a uniform radial grid of dG=0.02 with 1463 points.
  Transforming nonlocal projectors to a uniform radial grid of dG=0.02 with 432 points.
  Transforming density augmentations to a uniform radial grid of dG=0.02 with 1463 points.
  Transforming atomic orbitals to a uniform radial grid of dG=0.02 with 432 points.
  Core radius for overlap checks: 2.30 bohrs.

Reading pseudopotential file '/home/guoxy/vasp/jdftx-1.5.0/build/pseudopotentials/GBRV/s_pbe.uspp':
  Title: S.  Created by USPP 7.3.6 on 1-4-15
  Reference state energy: -11.898476.  6 valence electrons in orbitals:
    |300>  occupation: 2  eigenvalue: -0.634167
    |310>  occupation: 4  eigenvalue: -0.257568
  lMax: 2  lLocal: 3  QijEcut: 6
  6 projectors sampled on a log grid with 635 points:
    l: 0  eig: -0.634161  rCut: 1.5
    l: 0  eig: 1.500000  rCut: 1.5
    l: 1  eig: -0.257567  rCut: 1.5
    l: 1  eig: 1.500000  rCut: 1.5
    l: 2  eig: -1.000000  rCut: 1.5
    l: 2  eig: 1.500000  rCut: 1.5
  Partial core density with radius 1.15
  Transforming core density to a uniform radial grid of dG=0.02 with 1463 points.
  Transforming local potential to a uniform radial grid of dG=0.02 with 1463 points.
  Transforming nonlocal projectors to a uniform radial grid of dG=0.02 with 432 points.
  Transforming density augmentations to a uniform radial grid of dG=0.02 with 1463 points.
  Transforming atomic orbitals to a uniform radial grid of dG=0.02 with 432 points.
  Core radius for overlap checks: 1.50 bohrs.

Initialized 2 species with 48 total atoms.

Folded 1 k-points by 5x5x1 to 25 k-points.

---------- Setting up k-points, bands, fillings ----------
Adding inversion symmetry to k-mesh for non-inversion-symmetric unit cell.
Reduced to 9 k-points under symmetry. 
Computing the number of bands and number of electrons
Calculating initial fillings.
nElectrons: 417.000000   nBands: 336   nStates: 18

----- Setting up reduced wavefunction bases (one per k-point) -----
average nbasis = 73092.360 , ideal nbasis = 73081.621

---------- Setting up coulomb interaction ----------
Fluid mode embedding: using embedded box, but periodic Coulomb kernel.
(Fluid response is responsible for (approximate) separation between periodic images.)
Setting up double-sized grid for truncated Coulomb potentials:
R = 
[    24.0008   -12.0005          0  ]
[          0    20.7855          0  ]
[          0          0    68.5823  ]
unit cell volume = 34213.6
G =
[    0.26179   0.151145         -0  ]
[          0   0.302287          0  ]
[          0         -0  0.0916152  ]
Chosen fftbox size, S = [  100  100  280  ]
Integer grid location selected as the embedding center:
   Grid: [  50  50  70  ]
   Lattice: [  0.5  0.5  0.5  ]
   Cartesian: [  6.00016  10.3928  17.1456  ]
Constructing Wigner-Seitz cell: 8 faces (6 quadrilaterals, 2 hexagons)
Range-separation parameter for embedded mesh potentials due to point charges: 0.624363 bohrs.

Initializing van der Waals corrections
	NOTE: vdW corrections apply only for interactions with fluid.
	 W:  C6:  815.23 Eh-a0^6  R0: 3.326 a0 (WARNING: beyond Grimme's data set)
	 S:  C6:   96.61 Eh-a0^6  R0: 3.180 a0

---------- Setting up ewald sum ----------
Optimum gaussian width for ewald sums = 6.793646 bohr.
Real space sum over 605 unit cells with max indices [  5  5  2  ]
Reciprocal space sum over 7875 terms with max indices [  7  7  17  ]

---------- Allocating electronic variables ----------
Initializing wave functions:  linear combination of atomic orbitals
W pseudo-atom occupations:   s ( 2 2 )  p ( 6 0 )  d ( 4 )
S pseudo-atom occupations:   s ( 2 )  p ( 4 )
	FillingsUpdate:  mu: +0.976326897  nElectrons: 417.000000  magneticMoment: [ Abs: 1.49051  Tot: +1.48379 ]
LCAOMinimize: Iter:   0  F: -1398.0966464268217351  |grad|_K:  1.664e-02  alpha:  1.000e+00
	FillingsUpdate:  mu: -0.492825857  nElectrons: 417.000000  magneticMoment: [ Abs: 0.18838  Tot: +0.06685 ]
LCAOMinimize: Iter:   1  F: -1402.6537665482637749  |grad|_K:  7.422e-03  alpha:  4.459e-01  linmin:  2.227e-01  cgtest: -2.363e+00  t[s]:    400.95
LCAOMinimize: 	Bad step direction: g.d > 0.
LCAOMinimize: 	Undoing step.
LCAOMinimize: 	Step failed: resetting search direction.
	FillingsUpdate:  mu: -0.492825857  nElectrons: 417.000000  magneticMoment: [ Abs: 0.18838  Tot: +0.06685 ]
LCAOMinimize: Iter:   2  F: -1402.6537665482637749  |grad|_K:  7.422e-03  alpha:  0.000e+00
	FillingsUpdate:  mu: -0.311343494  nElectrons: 417.000000  magneticMoment: [ Abs: 0.36944  Tot: +0.29119 ]
LCAOMinimize: Iter:   3  F: -1419.5412823571318768  |grad|_K:  5.102e-03  alpha:  1.652e-01  linmin: -3.636e-01  cgtest:  7.929e-01  t[s]:    619.13
LCAOMinimize: Encountered beta<0, resetting CG.
LCAOMinimize: 	Predicted alpha/alphaT>3.000000, increasing alphaT to 4.956981e-01.
	FillingsUpdate:  mu: -0.215302024  nElectrons: 417.000000  magneticMoment: [ Abs: 0.40919  Tot: +0.27936 ]
LCAOMinimize: Iter:   4  F: -1425.3106755141575377  |grad|_K:  3.345e-03  alpha:  1.178e-01  linmin: -4.299e-01  cgtest:  8.428e-01  t[s]:    783.14
LCAOMinimize: Encountered beta<0, resetting CG.
	FillingsUpdate:  mu: +0.143000259  nElectrons: 417.000000  magneticMoment: [ Abs: 0.50017  Tot: +0.18296 ]
LCAOMinimize: Iter:   5  F: -1427.3993831174564093  |grad|_K:  1.897e-03  alpha:  2.910e-01  linmin:  4.748e-01  cgtest: -8.378e-01  t[s]:    910.34
LCAOMinimize: 	Bad step direction: g.d > 0.
LCAOMinimize: 	Undoing step.
LCAOMinimize: 	Step failed: resetting search direction.
	FillingsUpdate:  mu: +0.143000259  nElectrons: 417.000000  magneticMoment: [ Abs: 0.50017  Tot: +0.18296 ]
LCAOMinimize: Iter:   6  F: -1427.3993831174564093  |grad|_K:  1.897e-03  alpha:  0.000e+00
	FillingsUpdate:  mu: -0.000377137  nElectrons: 417.000000  magneticMoment: [ Abs: 0.41381  Tot: +0.17694 ]
LCAOMinimize: Iter:   7  F: -1428.0382408091998059  |grad|_K:  3.680e-05  alpha:  1.814e-01  linmin:  1.448e-01  cgtest: -4.690e-01  t[s]:   1128.30
LCAOMinimize: 	Predicted alpha/alphaT>3.000000, increasing alphaT to 5.440662e-01.
	FillingsUpdate:  mu: +0.000573179  nElectrons: 417.000000  magneticMoment: [ Abs: 0.20803  Tot: +0.07091 ]
LCAOMinimize: Iter:   8  F: -1428.0391096310488592  |grad|_K:  2.495e-05  alpha:  7.695e-01  linmin:  3.558e-03  cgtest:  4.439e-01  t[s]:   1292.05
	FillingsUpdate:  mu: +0.002841585  nElectrons: 417.000000  magneticMoment: [ Abs: 0.17402  Tot: +0.05611 ]
LCAOMinimize: Iter:   9  F: -1428.0392333521845103  |grad|_K:  4.558e-06  alpha:  1.937e-01  linmin: -6.398e-03  cgtest:  2.817e-02  t[s]:   1418.50
LCAOMinimize: 	Predicted alpha/alphaT>3.000000, increasing alphaT to 5.812413e-01.
	FillingsUpdate:  mu: +0.002678874  nElectrons: 417.000000  magneticMoment: [ Abs: 0.05610  Tot: +0.01172 ]
LCAOMinimize: Iter:  10  F: -1428.0392548063389313  |grad|_K:  1.513e-06  alpha:  1.007e+00  linmin:  3.227e-04  cgtest: -1.399e-02  t[s]:   1581.83
	FillingsUpdate:  mu: +0.002667723  nElectrons: 417.000000  magneticMoment: [ Abs: 0.00650  Tot: -0.00139 ]
LCAOMinimize: Iter:  11  F: -1428.0392571496224718  |grad|_K:  3.824e-07  alpha:  1.002e+00  linmin: -4.058e-05  cgtest:  3.793e-03  t[s]:   1708.46
	FillingsUpdate:  mu: +0.002706020  nElectrons: 417.000000  magneticMoment: [ Abs: 0.00472  Tot: -0.00123 ]
LCAOMinimize: Iter:  12  F: -1428.0392571895392848  |grad|_K:  2.177e-07  alpha:  2.670e-01  linmin:  2.048e-05  cgtest: -3.482e-05  t[s]:   1835.42
	FillingsUpdate:  mu: +0.002694619  nElectrons: 417.000000  magneticMoment: [ Abs: 0.00098  Tot: -0.00019 ]
LCAOMinimize: Iter:  13  F: -1428.0392572253676917  |grad|_K:  2.802e-08  alpha:  7.405e-01  linmin:  2.802e-03  cgtest: -9.554e-03  t[s]:   1962.78
LCAOMinimize: Converged (|Delta F|<1.000000e-06 for 2 iters).
----- createFluidSolver() ----- (Fluid-side solver setup)
   Initializing fluid molecule 'H2O'
     Initializing site 'O'
       Electron density: proportional to exp(-r/0.36935)*erfc((r-0.51523)/0.36823) with norm 6.826
       Charge density: gaussian nuclear width 0.478731 with net site charge 0.826
       Polarizability: cuspless exponential with width 0.32 and norm 3.73
       Hard sphere radius: 2.57003 bohrs
       Positions in reference frame:
         [ +0.000000 +0.000000 +0.000000 ]
     Initializing site 'H'
       Electron density: proportional to exp(-r/0.34641)*erfc((r-0)/0.390882) with norm 0.587
       Charge density: gaussian nuclear width 0.377945 with net site charge -0.413
       Polarizability: cuspless exponential with width 0.39 and norm 3.3
       Positions in reference frame:
         [ +0.000000 -1.441945 +1.122523 ]
         [ +0.000000 +1.441945 +1.122523 ]
     Net charge: 0   dipole magnitude: 0.927204
     Initializing spherical shell mfKernel with radius 2.61727 Bohr
     deltaS corrections:
       site 'O': -7.54299
       site 'H': -6.83917
   Initializing fluid molecule 'Na+'
     Initializing site 'Na'
       Electron density: proportional to exp(-r/0.19682)*erfc((r-0.71491)/0.41314) with norm 8.1383
       Charge density: gaussian nuclear width 0.365347 with net site charge -1
       Hard sphere radius: 1.86327 bohrs
       Positions in reference frame:
         [ +0.000000 +0.000000 +0.000000 ]
     Net charge: -1   dipole magnitude: 0
     Initializing gaussian mfKernel with width: 1.55004 Bohr
     deltaS corrections:
       site 'Na': -22.3555
   Initializing fluid molecule 'F-'
     Initializing site 'F'
       Electron density: proportional to exp(-r/0.38886)*erfc((r-0)/0.438782) with norm 8
       Charge density: gaussian nuclear width 0.374796 with net site charge 1
       Hard sphere radius: 2.39995 bohrs
       Positions in reference frame:
         [ +0.000000 +0.000000 +0.000000 ]
     Net charge: 1   dipole magnitude: 0
     Initializing gaussian mfKernel with width: 1.59012 Bohr
     deltaS corrections:
       site 'F': -9.04335

Correction to mu due to finite nuclear width = -0.0120641
   Cavity determined by nc: 0.00142 and sigma: 0.707107
   Nonlocal vdW cavity from gaussian model electron density with norm = 8 and sigma = 0.993594 bohr
   Charge asymmetry in cavity with sensitivity pCavity = 36.5 e-bohr/Eh
   Electrostatic cavity expanded by eta = 1.46 bohrs
   Weighted density cavitation model constrained by Nbulk: 0.0049383 bohr^-3, Pvap: 3.14029 kPa, Rvdw: 2.61727 bohr and sigmaBulk: 4.62e-05 Eh/bohr^2 at T: 298 K.
   Weighted density dispersion model using vdW pair potentials with single solvent site with sqrtC6eff: 0.77 SI.


---- Citations for features of the code used in this run ----

   Software package:
      R. Sundararaman, K. Letchworth-Weaver, K.A. Schwarz, D. Gunceler, Y. Ozhabes and T.A. Arias, 'JDFTx: software for joint density-functional theory', SoftwareX 6, 278 (2017)

   gga-PBE exchange-correlation functional:
      J.P. Perdew, K. Burke and M. Ernzerhof, Phys. Rev. Lett. 77, 3865 (1996)

   Pseudopotentials:
      KF Garrity, JW Bennett, KM Rabe and D Vanderbilt, Comput. Mater. Sci. 81, 446 (2014)

   Truncated Coulomb potentials:
      R. Sundararaman and T.A. Arias, Phys. Rev. B 87, 165122 (2013)

   Van der Waals correction pair-potentials:
      S. Grimme, J. Comput. Chem. 27, 1787 (2006)

   Charge-asymmetric nonlocally-determined local-electric (CANDLE) solvation model:
      R. Sundararaman and W.A. Goddard III, J. Chem. Phys. 142, 064107 (2015)

   Total energy minimization with Auxiliary Hamiltonian:
      C. Freysoldt, S. Boeck, and J. Neugebauer, Phys. Rev. B 79, 241103(R) (2009)

This list may not be complete. Please suggest additional citations or
report any other bugs at https://github.com/shankar1729/jdftx/issues

Initialization completed successfully at t[s]:   1980.26

Fluid solver invoked on fresh (partially random / LCAO) wavefunctions
Running a vacuum solve first:

-------- Initial electronic minimization -----------
	FillingsUpdate:  mu: +0.002694619  nElectrons: 417.000000  magneticMoment: [ Abs: 0.00098  Tot: -0.00019 ]
ElecMinimize: Iter:   0  F: -1428.039257225378833  |grad|_K:  6.636e-05  alpha:  1.000e+00
	FillingsUpdate:  mu: +0.092983935  nElectrons: 417.000000  magneticMoment: [ Abs: 0.00045  Tot: -0.00005 ]
	SubspaceRotationAdjust: set factor to 1
ElecMinimize: Iter:   1  F: -1429.551754521002522  |grad|_K:  3.410e-05  alpha:  7.781e-01  linmin: -4.518e-05  t[s]:   2266.28
	FillingsUpdate:  mu: +0.030502791  nElectrons: 417.000000  magneticMoment: [ Abs: 0.00028  Tot: -0.00006 ]
	SubspaceRotationAdjust: set factor to 0.735
ElecMinimize: Iter:   2  F: -1429.792962862233708  |grad|_K:  2.553e-05  alpha:  4.754e-01  linmin:  1.044e-05  t[s]:   2440.54
	FillingsUpdate:  mu: +0.062081298  nElectrons: 417.000000  magneticMoment: [ Abs: 0.00026  Tot: -0.00008 ]
	SubspaceRotationAdjust: set factor to 0.509
ElecMinimize: Iter:   3  F: -1429.898555436697734  |grad|_K:  1.261e-05  alpha:  3.628e-01  linmin:  3.173e-05  t[s]:   2614.76
	FillingsUpdate:  mu: +0.051844115  nElectrons: 417.000000  magneticMoment: [ Abs: 0.00029  Tot: -0.00012 ]
	SubspaceRotationAdjust: set factor to 0.576
ElecMinimize: Iter:   4  F: -1429.937281535693273  |grad|_K:  7.954e-06  alpha:  5.563e-01  linmin:  6.135e-05  t[s]:   2789.12
	FillingsUpdate:  mu: +0.043757857  nElectrons: 417.000000  magneticMoment: [ Abs: 0.00029  Tot: -0.00010 ]
	SubspaceRotationAdjust: set factor to 0.629
ElecMinimize: Iter:   5  F: -1429.952853701028744  |grad|_K:  4.871e-06  alpha:  5.640e-01  linmin:  3.638e-05  t[s]:   2963.82
	FillingsUpdate:  mu: +0.048988937  nElectrons: 417.000000  magneticMoment: [ Abs: 0.00023  Tot: -0.00005 ]
	SubspaceRotationAdjust: set factor to 0.657
ElecMinimize: Iter:   6  F: -1429.958698950185180  |grad|_K:  3.241e-06  alpha:  5.599e-01  linmin:  1.123e-05  t[s]:   3138.46
	FillingsUpdate:  mu: +0.047169712  nElectrons: 417.000000  magneticMoment: [ Abs: 0.00015  Tot: +0.00000 ]
	SubspaceRotationAdjust: set factor to 0.83
ElecMinimize: Iter:   7  F: -1429.961373384627223  |grad|_K:  2.028e-06  alpha:  5.781e-01  linmin:  5.946e-06  t[s]:   3312.89
	FillingsUpdate:  mu: +0.045924805  nElectrons: 417.000000  magneticMoment: [ Abs: 0.00010  Tot: +0.00002 ]
	SubspaceRotationAdjust: set factor to 0.906
ElecMinimize: Iter:   8  F: -1429.962350118985796  |grad|_K:  1.240e-06  alpha:  5.381e-01  linmin:  4.306e-06  t[s]:   3487.92
	FillingsUpdate:  mu: +0.047176993  nElectrons: 417.000000  magneticMoment: [ Abs: 0.00007  Tot: +0.00003 ]
	SubspaceRotationAdjust: set factor to 0.8
ElecMinimize: Iter:   9  F: -1429.962687531906795  |grad|_K:  9.308e-07  alpha:  4.963e-01  linmin:  2.931e-06  t[s]:   3662.11
	FillingsUpdate:  mu: +0.045901197  nElectrons: 417.000000  magneticMoment: [ Abs: 0.00007  Tot: +0.00003 ]
	SubspaceRotationAdjust: set factor to 0.698
ElecMinimize: Iter:  10  F: -1429.962858836136547  |grad|_K:  5.561e-07  alpha:  4.470e-01  linmin:  4.520e-06  t[s]:   3836.10
	FillingsUpdate:  mu: +0.046048764  nElectrons: 417.000000  magneticMoment: [ Abs: 0.00008  Tot: +0.00002 ]
	SubspaceRotationAdjust: set factor to 0.802
ElecMinimize: Iter:  11  F: -1429.962938278001729  |grad|_K:  4.042e-07  alpha:  5.824e-01  linmin:  3.689e-06  t[s]:   4011.32
	FillingsUpdate:  mu: +0.046169040  nElectrons: 417.000000  magneticMoment: [ Abs: 0.00007  Tot: +0.00001 ]
	SubspaceRotationAdjust: set factor to 0.933
ElecMinimize: Iter:  12  F: -1429.962978804515842  |grad|_K:  2.892e-07  alpha:  5.617e-01  linmin:  2.162e-06  t[s]:   4185.76
	FillingsUpdate:  mu: +0.045845847  nElectrons: 417.000000  magneticMoment: [ Abs: 0.00006  Tot: +0.00001 ]
	SubspaceRotationAdjust: set factor to 0.869
ElecMinimize: Iter:  13  F: -1429.962999846721914  |grad|_K:  2.257e-07  alpha:  5.691e-01  linmin:  2.665e-06  t[s]:   4360.92
	FillingsUpdate:  mu: +0.046115058  nElectrons: 417.000000  magneticMoment: [ Abs: 0.00005  Tot: +0.00000 ]
	SubspaceRotationAdjust: set factor to 0.751
ElecMinimize: Iter:  14  F: -1429.963009599674706  |grad|_K:  1.494e-07  alpha:  4.328e-01  linmin:  2.260e-07  t[s]:   4535.37
	FillingsUpdate:  mu: +0.046035577  nElectrons: 417.000000  magneticMoment: [ Abs: 0.00004  Tot: +0.00000 ]
	SubspaceRotationAdjust: set factor to 0.805
ElecMinimize: Iter:  15  F: -1429.963015304789224  |grad|_K:  1.032e-07  alpha:  5.780e-01  linmin:  1.603e-06  t[s]:   4709.98
	FillingsUpdate:  mu: +0.046005966  nElectrons: 417.000000  magneticMoment: [ Abs: 0.00003  Tot: +0.00000 ]
	SubspaceRotationAdjust: set factor to 0.923
ElecMinimize: Iter:  16  F: -1429.963018152086761  |grad|_K:  7.959e-08  alpha:  6.052e-01  linmin:  5.375e-07  t[s]:   4883.96
	FillingsUpdate:  mu: +0.046069154  nElectrons: 417.000000  magneticMoment: [ Abs: 0.00002  Tot: +0.00000 ]
	SubspaceRotationAdjust: set factor to 0.946
ElecMinimize: Iter:  17  F: -1429.963019631390125  |grad|_K:  5.841e-08  alpha:  5.277e-01  linmin:  1.248e-07  t[s]:   5059.21
	FillingsUpdate:  mu: +0.046008360  nElectrons: 417.000000  magneticMoment: [ Abs: 0.00002  Tot: +0.00000 ]
	SubspaceRotationAdjust: set factor to 0.906
ElecMinimize: Iter:  18  F: -1429.963020372930941  |grad|_K:  4.201e-08  alpha:  4.907e-01  linmin:  8.286e-08  t[s]:   5234.02
	FillingsUpdate:  mu: +0.046035455  nElectrons: 417.000000  magneticMoment: [ Abs: 0.00001  Tot: +0.00000 ]
	SubspaceRotationAdjust: set factor to 0.887
ElecMinimize: Iter:  19  F: -1429.963020764803787  |grad|_K:  2.843e-08  alpha:  5.014e-01  linmin:  7.032e-08  t[s]:   5410.53
	FillingsUpdate:  mu: +0.046020466  nElectrons: 417.000000  magneticMoment: [ Abs: 0.00001  Tot: +0.00000 ]
	SubspaceRotationAdjust: set factor to 0.972
ElecMinimize: Iter:  20  F: -1429.963020987805294  |grad|_K:  2.198e-08  alpha:  6.232e-01  linmin:  1.627e-07  t[s]:   5586.45
	FillingsUpdate:  mu: +0.046017176  nElectrons: 417.000000  magneticMoment: [ Abs: 0.00001  Tot: +0.00000 ]
	SubspaceRotationAdjust: set factor to 1.11
ElecMinimize: Iter:  21  F: -1429.963021112979504  |grad|_K:  1.790e-08  alpha:  5.856e-01  linmin:  6.713e-08  t[s]:   5761.64
	FillingsUpdate:  mu: +0.046024968  nElectrons: 417.000000  magneticMoment: [ Abs: 0.00001  Tot: +0.00000 ]
	SubspaceRotationAdjust: set factor to 1.18
ElecMinimize: Iter:  22  F: -1429.963021194685325  |grad|_K:  1.473e-08  alpha:  5.764e-01  linmin:  1.078e-07  t[s]:   5937.98
	FillingsUpdate:  mu: +0.046013894  nElectrons: 417.000000  magneticMoment: [ Abs: 0.00001  Tot: +0.00000 ]
	SubspaceRotationAdjust: set factor to 1.13
ElecMinimize: Iter:  23  F: -1429.963021243149569  |grad|_K:  1.154e-08  alpha:  5.053e-01  linmin:  8.685e-08  t[s]:   6112.97
	FillingsUpdate:  mu: +0.046027261  nElectrons: 417.000000  magneticMoment: [ Abs: 0.00001  Tot: -0.00000 ]
	SubspaceRotationAdjust: set factor to 0.998
ElecMinimize: Iter:  24  F: -1429.963021270556737  |grad|_K:  9.648e-09  alpha:  4.658e-01  linmin:  7.102e-08  t[s]:   6288.17
	FillingsUpdate:  mu: +0.046017957  nElectrons: 417.000000  magneticMoment: [ Abs: 0.00001  Tot: -0.00000 ]
	SubspaceRotationAdjust: set factor to 0.94
ElecMinimize: Iter:  25  F: -1429.963021288244818  |grad|_K:  7.251e-09  alpha:  4.303e-01  linmin:  4.829e-08  t[s]:   6463.44
	FillingsUpdate:  mu: +0.046020596  nElectrons: 417.000000  magneticMoment: [ Abs: 0.00001  Tot: -0.00000 ]
	SubspaceRotationAdjust: set factor to 1.1
ElecMinimize: Iter:  26  F: -1429.963021300480250  |grad|_K:  5.244e-09  alpha:  5.270e-01  linmin:  9.119e-08  t[s]:   6638.69
	FillingsUpdate:  mu: +0.046023446  nElectrons: 417.000000  magneticMoment: [ Abs: 0.00001  Tot: -0.00000 ]
	SubspaceRotationAdjust: set factor to 1.19
ElecMinimize: Iter:  27  F: -1429.963021306896735  |grad|_K:  4.188e-09  alpha:  5.294e-01  linmin:  3.855e-08  t[s]:   6814.11
	FillingsUpdate:  mu: +0.046018634  nElectrons: 417.000000  magneticMoment: [ Abs: 0.00001  Tot: -0.00000 ]
	SubspaceRotationAdjust: set factor to 1.05
ElecMinimize: Iter:  28  F: -1429.963021310234126  |grad|_K:  3.452e-09  alpha:  4.304e-01  linmin: -1.466e-08  t[s]:   6989.15
ElecMinimize: Converged (|Delta F|<1.000000e-08 for 2 iters).
Setting wave functions to eigenvectors of Hamiltonian
Vacuum energy after initial minimize, F = -1429.963021310234126

	Linear fluid (dielectric constant: 78.4, screening length: 5.74355 Bohr) occupying 0.755749 of unit cell:	Completed after 15 iterations at t[s]:   7028.02

-------- Electronic minimization -----------
	Linear fluid (dielectric constant: 78.4, screening length: 5.74355 Bohr) occupying 0.755749 of unit cell:	Completed after 0 iterations at t[s]:   7068.25
	FillingsUpdate:  mu: -0.122665442  nElectrons: 417.000000  magneticMoment: [ Abs: 0.00004  Tot: -0.00000 ]
ElecMinimize: Iter:   0  F: -1430.087931020631459  |grad|_K:  1.388e-06  alpha:  1.000e+00
	Linear fluid (dielectric constant: 78.4, screening length: 5.74355 Bohr) occupying 0.756418 of unit cell:	Completed after 9 iterations at t[s]:   7205.69
	Linear fluid (dielectric constant: 78.4, screening length: 5.74355 Bohr) occupying 0.755986 of unit cell:	Completed after 11 iterations at t[s]:   7260.95
	FillingsUpdate:  mu: -0.125296537  nElectrons: 417.000000  magneticMoment: [ Abs: 0.00014  Tot: +0.00000 ]
	SubspaceRotationAdjust: set factor to 0.681
ElecMinimize: Iter:   1  F: -1430.088195936383045  |grad|_K:  1.046e-06  alpha:  3.172e-01  linmin:  2.520e-06  t[s]:   7337.84
	Linear fluid (dielectric constant: 78.4, screening length: 5.74355 Bohr) occupying 0.756330 of unit cell:	Completed after 8 iterations at t[s]:   7393.55
	Linear fluid (dielectric constant: 78.4, screening length: 5.74355 Bohr) occupying 0.756511 of unit cell:	Completed after 7 iterations at t[s]:   7447.82
	FillingsUpdate:  mu: -0.124165466  nElectrons: 417.000000  magneticMoment: [ Abs: 0.00044  Tot: +0.00001 ]
	SubspaceRotationAdjust: set factor to 1.03
ElecMinimize: Iter:   2  F: -1430.088443814735001  |grad|_K:  2.611e-07  alpha:  4.994e-01  linmin: -1.368e-05  t[s]:   7524.36
	Linear fluid (dielectric constant: 78.4, screening length: 5.74355 Bohr) occupying 0.756584 of unit cell:	Completed after 2 iterations at t[s]:   7578.98
	Linear fluid (dielectric constant: 78.4, screening length: 5.74355 Bohr) occupying 0.756638 of unit cell:	Completed after 3 iterations at t[s]:   7630.90
	FillingsUpdate:  mu: -0.124028283  nElectrons: 417.000000  magneticMoment: [ Abs: 0.00046  Tot: +0.00000 ]
	SubspaceRotationAdjust: set factor to 1.02
ElecMinimize: Iter:   3  F: -1430.088472442183274  |grad|_K:  2.067e-07  alpha:  8.740e-01  linmin:  6.699e-07  t[s]:   7706.31
	Linear fluid (dielectric constant: 78.4, screening length: 5.74355 Bohr) occupying 0.756719 of unit cell:	Completed after 3 iterations at t[s]:   7761.20
	Linear fluid (dielectric constant: 78.4, screening length: 5.74355 Bohr) occupying 0.756698 of unit cell:	Completed after 2 iterations at t[s]:   7813.87
	FillingsUpdate:  mu: -0.123945100  nElectrons: 417.000000  magneticMoment: [ Abs: 0.00040  Tot: -0.00000 ]
	SubspaceRotationAdjust: set factor to 1.11
ElecMinimize: Iter:   4  F: -1430.088484349943201  |grad|_K:  1.272e-07  alpha:  6.389e-01  linmin: -1.444e-05  t[s]:   7888.70
	Linear fluid (dielectric constant: 78.4, screening length: 5.74355 Bohr) occupying 0.756698 of unit cell:	Completed after 3 iterations at t[s]:   7942.83
	Linear fluid (dielectric constant: 78.4, screening length: 5.74355 Bohr) occupying 0.756698 of unit cell:	Completed after 0 iterations at t[s]:   7995.14
	FillingsUpdate:  mu: -0.124138886  nElectrons: 417.000000  magneticMoment: [ Abs: 0.00031  Tot: -0.00001 ]
	SubspaceRotationAdjust: set factor to 0.95
ElecMinimize: Iter:   5  F: -1430.088487881376295  |grad|_K:  1.079e-07  alpha:  4.741e-01  linmin:  1.111e-05  t[s]:   8069.67
	Linear fluid (dielectric constant: 78.4, screening length: 5.74355 Bohr) occupying 0.756694 of unit cell:	Completed after 2 iterations at t[s]:   8124.48
	Linear fluid (dielectric constant: 78.4, screening length: 5.74355 Bohr) occupying 0.756696 of unit cell:	Completed after 1 iterations at t[s]:   8176.96
	FillingsUpdate:  mu: -0.123988304  nElectrons: 417.000000  magneticMoment: [ Abs: 0.00026  Tot: -0.00001 ]
	SubspaceRotationAdjust: set factor to 0.604
ElecMinimize: Iter:   6  F: -1430.088488819058284  |grad|_K:  6.672e-08  alpha:  2.483e-01  linmin: -1.671e-06  t[s]:   8252.33
	Linear fluid (dielectric constant: 78.4, screening length: 5.74355 Bohr) occupying 0.756691 of unit cell:	Completed after 0 iterations at t[s]:   8307.22
	Linear fluid (dielectric constant: 78.4, screening length: 5.74355 Bohr) occupying 0.756687 of unit cell:	Completed after 2 iterations at t[s]:   8359.19
	FillingsUpdate:  mu: -0.124028012  nElectrons: 417.000000  magneticMoment: [ Abs: 0.00017  Tot: -0.00001 ]
	SubspaceRotationAdjust: set factor to 0.677
ElecMinimize: Iter:   7  F: -1430.088489742884349  |grad|_K:  4.975e-08  alpha:  4.978e-01  linmin:  4.495e-06  t[s]:   8434.33
	Linear fluid (dielectric constant: 78.4, screening length: 5.74355 Bohr) occupying 0.756680 of unit cell:	Completed after 2 iterations at t[s]:   8489.02
	Linear fluid (dielectric constant: 78.4, screening length: 5.74355 Bohr) occupying 0.756681 of unit cell:	Completed after 0 iterations at t[s]:   8541.03
	FillingsUpdate:  mu: -0.124055545  nElectrons: 417.000000  magneticMoment: [ Abs: 0.00012  Tot: -0.00001 ]
	SubspaceRotationAdjust: set factor to 0.641
ElecMinimize: Iter:   8  F: -1430.088490160765105  |grad|_K:  3.461e-08  alpha:  4.099e-01  linmin:  3.669e-08  t[s]:   8615.96
	Linear fluid (dielectric constant: 78.4, screening length: 5.74355 Bohr) occupying 0.756680 of unit cell:	Completed after 0 iterations at t[s]:   8670.68
	Linear fluid (dielectric constant: 78.4, screening length: 5.74355 Bohr) occupying 0.756680 of unit cell:	Completed after 2 iterations at t[s]:   8722.45
	FillingsUpdate:  mu: -0.124025694  nElectrons: 417.000000  magneticMoment: [ Abs: 0.00007  Tot: -0.00000 ]
	SubspaceRotationAdjust: set factor to 0.644
ElecMinimize: Iter:   9  F: -1430.088490391506866  |grad|_K:  2.791e-08  alpha:  5.662e-01  linmin:  6.564e-05  t[s]:   8797.66
	Linear fluid (dielectric constant: 78.4, screening length: 5.74355 Bohr) occupying 0.756681 of unit cell:	Completed after 0 iterations at t[s]:   8852.59
	Linear fluid (dielectric constant: 78.4, screening length: 5.74355 Bohr) occupying 0.756681 of unit cell:	Completed after 0 iterations at t[s]:   8904.08
	FillingsUpdate:  mu: -0.124025808  nElectrons: 417.000000  magneticMoment: [ Abs: 0.00003  Tot: -0.00000 ]
	SubspaceRotationAdjust: set factor to 0.764
ElecMinimize: Iter:  10  F: -1430.088490514366185  |grad|_K:  1.919e-08  alpha:  4.411e-01  linmin:  1.876e-08  t[s]:   8978.50
	Linear fluid (dielectric constant: 78.4, screening length: 5.74355 Bohr) occupying 0.756683 of unit cell:	Completed after 0 iterations at t[s]:   9032.81
	Linear fluid (dielectric constant: 78.4, screening length: 5.74355 Bohr) occupying 0.756683 of unit cell:	Completed after 0 iterations at t[s]:   9083.89
	FillingsUpdate:  mu: -0.124025941  nElectrons: 417.000000  magneticMoment: [ Abs: 0.00002  Tot: -0.00000 ]
	SubspaceRotationAdjust: set factor to 0.908
ElecMinimize: Iter:  11  F: -1430.088490585818136  |grad|_K:  1.398e-08  alpha:  4.379e-01  linmin:  6.866e-09  t[s]:   9158.27
	Linear fluid (dielectric constant: 78.4, screening length: 5.74355 Bohr) occupying 0.756685 of unit cell:	Completed after 0 iterations at t[s]:   9212.39
	Linear fluid (dielectric constant: 78.4, screening length: 5.74355 Bohr) occupying 0.756685 of unit cell:	Completed after 0 iterations at t[s]:   9262.70
	FillingsUpdate:  mu: -0.124025917  nElectrons: 417.000000  magneticMoment: [ Abs: 0.00001  Tot: -0.00000 ]
	SubspaceRotationAdjust: set factor to 1.01
ElecMinimize: Iter:  12  F: -1430.088490628329964  |grad|_K:  1.032e-08  alpha:  4.908e-01  linmin: -1.622e-08  t[s]:   9336.92
	Linear fluid (dielectric constant: 78.4, screening length: 5.74355 Bohr) occupying 0.756687 of unit cell:	Completed after 2 iterations at t[s]:   9391.67
	Linear fluid (dielectric constant: 78.4, screening length: 5.74355 Bohr) occupying 0.756686 of unit cell:	Completed after 0 iterations at t[s]:   9444.34
ElecMinimize: 	Step increased F by 2.017396e-08, reducing alpha to 1.194552e-02.
	Linear fluid (dielectric constant: 78.4, screening length: 5.74355 Bohr) occupying 0.756685 of unit cell:	Completed after 0 iterations at t[s]:   9563.68
ElecMinimize: 	Step increased F by 1.699732e-08, reducing alpha to 1.194552e-03.
	Linear fluid (dielectric constant: 78.4, screening length: 5.74355 Bohr) occupying 0.756685 of unit cell:	Completed after 0 iterations at t[s]:   9683.12
ElecMinimize: 	Step increased F by 1.677677e-08, reducing alpha to 1.194552e-04.
ElecMinimize: 	Step failed to reduce F after 3 attempts. Quitting step.
ElecMinimize: 	Undoing step.
	Linear fluid (dielectric constant: 78.4, screening length: 5.74355 Bohr) occupying 0.756685 of unit cell:	Completed after 0 iterations at t[s]:   9801.38
ElecMinimize: 	Step failed: resetting search direction.
	FillingsUpdate:  mu: -0.124044037  nElectrons: 417.000000  magneticMoment: [ Abs: 0.00001  Tot: -0.00000 ]
	SubspaceRotationAdjust: set factor to 0.762
ElecMinimize: Iter:  13  F: -1430.088490611553880  |grad|_K:  2.184e-08  alpha:  1.195e-04
	Linear fluid (dielectric constant: 78.4, screening length: 5.74355 Bohr) occupying 0.756687 of unit cell:	Completed after 3 iterations at t[s]:   9931.20
	Linear fluid (dielectric constant: 78.4, screening length: 5.74355 Bohr) occupying 0.756686 of unit cell:	Completed after 0 iterations at t[s]:   9983.84
	FillingsUpdate:  mu: -0.123968631  nElectrons: 417.000000  magneticMoment: [ Abs: 0.00001  Tot: -0.00000 ]
	SubspaceRotationAdjust: set factor to 0.468
ElecMinimize: Iter:  14  F: -1430.088490705779805  |grad|_K:  3.279e-08  alpha:  1.536e-01  linmin:  8.135e-04  t[s]:  10058.49
ElecMinimize: 	Bad step direction: g.d > 0.
ElecMinimize: 	Undoing step.
	Linear fluid (dielectric constant: 78.4, screening length: 5.74355 Bohr) occupying 0.756686 of unit cell:	Completed after 0 iterations at t[s]:  10113.12
ElecMinimize: 	Step failed: resetting search direction.
	FillingsUpdate:  mu: -0.123968631  nElectrons: 417.000000  magneticMoment: [ Abs: 0.00001  Tot: -0.00000 ]
	SubspaceRotationAdjust: set factor to 0.331
ElecMinimize: Iter:  15  F: -1430.088490705786853  |grad|_K:  2.728e-08  alpha:  0.000e+00
	Linear fluid (dielectric constant: 78.4, screening length: 5.74355 Bohr) occupying 0.756686 of unit cell:	Completed after 1 iterations at t[s]:  10242.01
	Linear fluid (dielectric constant: 78.4, screening length: 5.74355 Bohr) occupying 0.756686 of unit cell:	Completed after 0 iterations at t[s]:  10294.08
ElecMinimize: 	Step increased F by 7.269068e-08, reducing alpha to 4.268147e-03.
	Linear fluid (dielectric constant: 78.4, screening length: 5.74355 Bohr) occupying 0.756686 of unit cell:	Completed after 0 iterations at t[s]:  10413.27
ElecMinimize: 	Step increased F by 7.062908e-08, reducing alpha to 4.268147e-04.
	Linear fluid (dielectric constant: 78.4, screening length: 5.74355 Bohr) occupying 0.756686 of unit cell:	Completed after 0 iterations at t[s]:  10532.96
ElecMinimize: 	Step increased F by 7.044446e-08, reducing alpha to 4.268147e-05.
ElecMinimize: 	Step failed to reduce F after 3 attempts. Quitting step.
ElecMinimize: 	Undoing step.
	Linear fluid (dielectric constant: 78.4, screening length: 5.74355 Bohr) occupying 0.756686 of unit cell:	Completed after 0 iterations at t[s]:  10651.82
ElecMinimize: 	Step failed along negative gradient direction.
ElecMinimize: Probably at roundoff error limit. (Stopping)
Setting wave functions to eigenvectors of Hamiltonian
Single-point solvation energy estimate, DeltaF = -0.125469325100767

# Ionic positions in lattice coordinates:
ion W   0.083329983604167   0.166670001854167   0.500000009000000 1
ion W   0.333329983604167   0.166670001854167   0.500000009000000 1
ion W   0.583329983604167   0.166670001854167   0.500000009000000 1
ion W   0.833329983604167   0.166670001854167   0.500000009000000 1
ion W   0.083329983604167   0.416670001854167   0.500000009000000 1
ion W   0.333329983604167   0.416670001854167   0.500000009000000 1
ion W   0.583329983604167   0.416670001854167   0.500000009000000 1
ion W   0.833329983604167   0.416670001854167   0.500000009000000 1
ion W   0.083329983604167   0.666670001854167   0.500000009000000 1
ion W   0.333329983604167   0.666670001854167   0.500000009000000 1
ion W   0.583329983604167   0.666670001854167   0.500000009000000 1
ion W   0.833329983604167   0.666670001854167   0.500000009000000 1
ion W   0.083329983604167   0.916670001854167   0.500000009000000 1
ion W   0.333329983604167   0.916670001854167   0.500000009000000 1
ion W   0.583329983604167   0.916670001854167   0.500000009000000 1
ion W   0.833329983604167   0.916670001854167   0.500000009000000 1
ion S   0.166670002135418   0.083329983322917   0.413270002500002 1
ion S   0.166670002135418   0.083329983322917   0.586730015499998 1
ion S   0.416670002135417   0.083329983322917   0.413270002500002 1
ion S   0.416670002135417   0.083329983322917   0.586730015499998 1
ion S   0.666670002135417   0.083329983322917   0.413270002500002 1
ion S   0.666670002135417   0.083329983322917   0.586730015499998 1
ion S   0.916670002135417   0.083329983322917   0.413270002500002 1
ion S   0.916670002135417   0.083329983322917   0.586730015499998 1
ion S   0.166670002135417   0.333329983322917   0.413270002500002 1
ion S   0.166670002135417   0.333329983322917   0.586730015499998 1
ion S   0.416670002135417   0.333329983322917   0.413270002500002 1
ion S   0.416670002135417   0.333329983322917   0.586730015499998 1
ion S   0.666670002135417   0.333329983322917   0.413270002500002 1
ion S   0.666670002135417   0.333329983322917   0.586730015499998 1
ion S   0.916670002135417   0.333329983322917   0.413270002500002 1
ion S   0.916670002135417   0.333329983322917   0.586730015499998 1
ion S   0.166670002135417   0.583329983322917   0.413270002500002 1
ion S   0.166670002135417   0.583329983322917   0.586730015499998 1
ion S   0.416670002135417   0.583329983322917   0.413270002500002 1
ion S   0.416670002135417   0.583329983322917   0.586730015499998 1
ion S   0.666670002135417   0.583329983322917   0.413270002500002 1
ion S   0.666670002135417   0.583329983322917   0.586730015499998 1
ion S   0.916670002135417   0.583329983322917   0.413270002500002 1
ion S   0.916670002135417   0.583329983322917   0.586730015499998 1
ion S   0.166670002135417   0.833329983322917   0.413270002500002 1
ion S   0.166670002135417   0.833329983322917   0.586730015499998 1
ion S   0.416670002135417   0.833329983322917   0.413270002500002 1
ion S   0.416670002135417   0.833329983322917   0.586730015499998 1
ion S   0.666670002135417   0.833329983322917   0.413270002500002 1
ion S   0.666670002135417   0.833329983322917   0.586730015499998 1
ion S   0.916670002135417   0.833329983322917   0.413270002500002 1
ion S   0.916670002135417   0.833329983322917   0.586730015499998 1


# Forces in Lattice coordinates:
force W   0.001267106409360  -0.001267106409360   0.000000000000000 1
force W   0.001267106409360  -0.001267106409360  -0.000000000000000 1
force W   0.001267106409360  -0.001267106409360   0.000000000000000 1
force W   0.001267106409360  -0.001267106409360   0.000000000000000 1
force W   0.001267106409360  -0.001267106409360  -0.000000000000000 1
force W   0.001267106409360  -0.001267106409360   0.000000000000000 1
force W   0.001267106409360  -0.001267106409360   0.000000000000000 1
force W   0.001267106409360  -0.001267106409360   0.000000000000000 1
force W   0.001267106409360  -0.001267106409360  -0.000000000000000 1
force W   0.001267106409360  -0.001267106409360   0.000000000000000 1
force W   0.001267106409360  -0.001267106409360  -0.000000000000000 1
force W   0.001267106409360  -0.001267106409360   0.000000000000000 1
force W   0.001267106409360  -0.001267106409360  -0.000000000000000 1
force W   0.001267106409360  -0.001267106409360  -0.000000000000000 1
force W   0.001267106409360  -0.001267106409360  -0.000000000000000 1
force W   0.001267106409360  -0.001267106409360   0.000000000000000 1
force S  -0.000572292325363   0.000572292325363  -0.062046133698156 1
force S  -0.000572292325363   0.000572292325363   0.062046133698269 1
force S  -0.000572292325363   0.000572292325363  -0.062046133698157 1
force S  -0.000572292325363   0.000572292325363   0.062046133697929 1
force S  -0.000572292325363   0.000572292325363  -0.062046133698155 1
force S  -0.000572292325363   0.000572292325363   0.062046133698271 1
force S  -0.000572292325363   0.000572292325363  -0.062046133698155 1
force S  -0.000572292325363   0.000572292325363   0.062046133698270 1
force S  -0.000572292325363   0.000572292325363  -0.062046133698043 1
force S  -0.000572292325363   0.000572292325363   0.062046133698269 1
force S  -0.000572292325363   0.000572292325363  -0.062046133698270 1
force S  -0.000572292325363   0.000572292325363   0.062046133698043 1
force S  -0.000572292325363   0.000572292325363  -0.062046133698042 1
force S  -0.000572292325363   0.000572292325363   0.062046133698044 1
force S  -0.000572292325363   0.000572292325363  -0.062046133698042 1
force S  -0.000572292325363   0.000572292325363   0.062046133698270 1
force S  -0.000572292325363   0.000572292325363  -0.062046133698042 1
force S  -0.000572292325363   0.000572292325363   0.062046133698272 1
force S  -0.000572292325363   0.000572292325363  -0.062046133698156 1
force S  -0.000572292325363   0.000572292325363   0.062046133698157 1
force S  -0.000572292325363   0.000572292325363  -0.062046133698383 1
force S  -0.000572292325363   0.000572292325363   0.062046133698271 1
force S  -0.000572292325363   0.000572292325363  -0.062046133698155 1
force S  -0.000572292325363   0.000572292325363   0.062046133698043 1
force S  -0.000572292325363   0.000572292325363  -0.062046133698155 1
force S  -0.000572292325363   0.000572292325363   0.062046133698044 1
force S  -0.000572292325363   0.000572292325363  -0.062046133698270 1
force S  -0.000572292325363   0.000572292325363   0.062046133697930 1
force S  -0.000572292325363   0.000572292325363  -0.062046133698042 1
force S  -0.000572292325363   0.000572292325363   0.062046133697930 1
force S  -0.000572292325363   0.000572292325363  -0.062046133698041 1
force S  -0.000572292325363   0.000572292325363   0.062046133698158 1

# Energy components:
   A_diel =       -0.1139201212787515
   Eewald =     8745.7662873743483942
       EH =     9937.2359047422469303
     Eloc =   -20196.9568237247367506
      Enl =     -179.1538896473459772
      Exc =     -465.8424943054891401
 Exc_core =      230.1593000940038394
       KE =      498.8487658048388198
  MuShift =       -0.0120640672534619
-------------------------------------
     Etot =    -1430.0689338506645072
       TS =        0.0195567846703266
-------------------------------------
        F =    -1430.0884906353348924

IonicMinimize: Iter:   0  F: -1430.088490635334892  |grad|_K:  8.533e-04  t[s]:  10754.95

#--- Lowdin population analysis ---
# oxidation-state W -0.544 -0.544 -0.544 -0.544 -0.544 -0.544 -0.544 -0.544 -0.544 -0.544 -0.544 -0.544 -0.544 -0.544 -0.544 -0.544
# magnetic-moments W +0.000 +0.000 +0.000 +0.000 +0.000 +0.000 +0.000 +0.000 +0.000 +0.000 +0.000 +0.000 +0.000 +0.000 +0.000 +0.000
# oxidation-state S +0.309 +0.309 +0.309 +0.309 +0.309 +0.309 +0.309 +0.309 +0.309 +0.309 +0.309 +0.309 +0.309 +0.309 +0.309 +0.309 +0.309 +0.309 +0.309 +0.309 +0.309 +0.309 +0.309 +0.309 +0.309 +0.309 +0.309 +0.309 +0.309 +0.309 +0.309 +0.309
# magnetic-moments S -0.000 -0.000 -0.000 -0.000 -0.000 -0.000 -0.000 -0.000 -0.000 -0.000 -0.000 -0.000 -0.000 -0.000 -0.000 -0.000 -0.000 -0.000 -0.000 -0.000 -0.000 -0.000 -0.000 -0.000 -0.000 -0.000 -0.000 -0.000 -0.000 -0.000 -0.000 -0.000

	Linear fluid (dielectric constant: 78.4, screening length: 5.74355 Bohr) occupying 0.756625 of unit cell:	Completed after 6 iterations at t[s]:  10811.57

-------- Electronic minimization -----------
	Linear fluid (dielectric constant: 78.4, screening length: 5.74355 Bohr) occupying 0.756625 of unit cell:	Completed after 0 iterations at t[s]:  10852.89
	FillingsUpdate:  mu: -0.123750090  nElectrons: 417.000000  magneticMoment: [ Abs: 0.00005  Tot: -0.00000 ]
ElecMinimize: Iter:   0  F: -1430.088558793340553  |grad|_K:  2.447e-07  alpha:  1.000e+00
	Linear fluid (dielectric constant: 78.4, screening length: 5.74355 Bohr) occupying 0.756621 of unit cell:	Completed after 8 iterations at t[s]:  10990.90
	Linear fluid (dielectric constant: 78.4, screening length: 5.74355 Bohr) occupying 0.756622 of unit cell:	Completed after 3 iterations at t[s]:  11044.70
	FillingsUpdate:  mu: -0.124320259  nElectrons: 417.000000  magneticMoment: [ Abs: 0.00005  Tot: -0.00000 ]
	SubspaceRotationAdjust: set factor to 0.338
ElecMinimize: Iter:   1  F: -1430.088575009897340  |grad|_K:  1.254e-07  alpha:  6.083e-01  linmin:  1.987e-04  t[s]:  11120.71
	Linear fluid (dielectric constant: 78.4, screening length: 5.74355 Bohr) occupying 0.756628 of unit cell:	Completed after 3 iterations at t[s]:  11175.59
	Linear fluid (dielectric constant: 78.4, screening length: 5.74355 Bohr) occupying 0.756630 of unit cell:	Completed after 3 iterations at t[s]:  11228.74
	FillingsUpdate:  mu: -0.124093741  nElectrons: 417.000000  magneticMoment: [ Abs: 0.00003  Tot: -0.00000 ]
	SubspaceRotationAdjust: set factor to 0.462
ElecMinimize: Iter:   2  F: -1430.088581098677878  |grad|_K:  9.767e-08  alpha:  8.769e-01  linmin: -1.152e-04  t[s]:  11304.43
	Linear fluid (dielectric constant: 78.4, screening length: 5.74355 Bohr) occupying 0.756637 of unit cell:	Completed after 2 iterations at t[s]:  11359.29
	Linear fluid (dielectric constant: 78.4, screening length: 5.74355 Bohr) occupying 0.756636 of unit cell:	Completed after 0 iterations at t[s]:  11411.24
	FillingsUpdate:  mu: -0.124076415  nElectrons: 417.000000  magneticMoment: [ Abs: 0.00002  Tot: +0.00000 ]
	SubspaceRotationAdjust: set factor to 0.586
ElecMinimize: Iter:   3  F: -1430.088584200831065  |grad|_K:  6.518e-08  alpha:  7.231e-01  linmin:  2.948e-07  t[s]:  11486.27
	Linear fluid (dielectric constant: 78.4, screening length: 5.74355 Bohr) occupying 0.756638 of unit cell:	Completed after 0 iterations at t[s]:  11540.82
	Linear fluid (dielectric constant: 78.4, screening length: 5.74355 Bohr) occupying 0.756638 of unit cell:	Completed after 0 iterations at t[s]:  11591.58
	FillingsUpdate:  mu: -0.124076465  nElectrons: 417.000000  magneticMoment: [ Abs: 0.00001  Tot: +0.00000 ]
	SubspaceRotationAdjust: set factor to 0.703
ElecMinimize: Iter:   4  F: -1430.088585293639198  |grad|_K:  3.267e-08  alpha:  5.806e-01  linmin: -7.800e-11  t[s]:  11666.38
	Linear fluid (dielectric constant: 78.4, screening length: 5.74355 Bohr) occupying 0.756638 of unit cell:	Completed after 2 iterations at t[s]:  11721.33
	Linear fluid (dielectric constant: 78.4, screening length: 5.74355 Bohr) occupying 0.756638 of unit cell:	Completed after 0 iterations at t[s]:  11773.29
	FillingsUpdate:  mu: -0.124117917  nElectrons: 417.000000  magneticMoment: [ Abs: 0.00001  Tot: +0.00000 ]
	SubspaceRotationAdjust: set factor to 0.61
ElecMinimize: Iter:   5  F: -1430.088585433131357  |grad|_K:  2.397e-08  alpha:  3.665e-01  linmin: -6.862e-05  t[s]:  11847.92
	Linear fluid (dielectric constant: 78.4, screening length: 5.74355 Bohr) occupying 0.756638 of unit cell:	Completed after 1 iterations at t[s]:  11903.28
	Linear fluid (dielectric constant: 78.4, screening length: 5.74355 Bohr) occupying 0.756638 of unit cell:	Completed after 0 iterations at t[s]:  11955.22
	FillingsUpdate:  mu: -0.124099939  nElectrons: 417.000000  magneticMoment: [ Abs: 0.00001  Tot: +0.00000 ]
	SubspaceRotationAdjust: set factor to 0.968
ElecMinimize: Iter:   6  F: -1430.088585514958822  |grad|_K:  1.305e-08  alpha:  3.174e-01  linmin: -6.301e-05  t[s]:  12030.00
	Linear fluid (dielectric constant: 78.4, screening length: 5.74355 Bohr) occupying 0.756638 of unit cell:	Completed after 0 iterations at t[s]:  12083.97
	Linear fluid (dielectric constant: 78.4, screening length: 5.74355 Bohr) occupying 0.756638 of unit cell:	Completed after 0 iterations at t[s]:  12136.00
	FillingsUpdate:  mu: -0.124100336  nElectrons: 417.000000  magneticMoment: [ Abs: 0.00001  Tot: +0.00000 ]
	SubspaceRotationAdjust: set factor to 1.16
ElecMinimize: Iter:   7  F: -1430.088585554644396  |grad|_K:  8.870e-09  alpha:  4.550e-01  linmin:  3.604e-08  t[s]:  12210.69
	Linear fluid (dielectric constant: 78.4, screening length: 5.74355 Bohr) occupying 0.756638 of unit cell:	Completed after 2 iterations at t[s]:  12265.74
	Linear fluid (dielectric constant: 78.4, screening length: 5.74355 Bohr) occupying 0.756638 of unit cell:	Completed after 0 iterations at t[s]:  12317.83
ElecMinimize: 	Step increased F by 5.124639e-08, reducing alpha to 4.941358e-03.
	Linear fluid (dielectric constant: 78.4, screening length: 5.74355 Bohr) occupying 0.756638 of unit cell:	Completed after 0 iterations at t[s]:  12437.29
ElecMinimize: 	Step increased F by 4.562685e-08, reducing alpha to 4.941358e-04.
	Linear fluid (dielectric constant: 78.4, screening length: 5.74355 Bohr) occupying 0.756638 of unit cell:	Completed after 0 iterations at t[s]:  12555.83
ElecMinimize: 	Step increased F by 4.510662e-08, reducing alpha to 4.941358e-05.
ElecMinimize: 	Step failed to reduce F after 3 attempts. Quitting step.
ElecMinimize: 	Undoing step.
	Linear fluid (dielectric constant: 78.4, screening length: 5.74355 Bohr) occupying 0.756638 of unit cell:	Completed after 0 iterations at t[s]:  12674.93
ElecMinimize: 	Step failed: resetting search direction.
	FillingsUpdate:  mu: -0.124048864  nElectrons: 417.000000  magneticMoment: [ Abs: 0.00001  Tot: +0.00000 ]
	SubspaceRotationAdjust: set factor to 0.715
ElecMinimize: Iter:   8  F: -1430.088585509550740  |grad|_K:  3.257e-08  alpha:  4.941e-05
	Linear fluid (dielectric constant: 78.4, screening length: 5.74355 Bohr) occupying 0.756636 of unit cell:	Completed after 3 iterations at t[s]:  12804.30
	Linear fluid (dielectric constant: 78.4, screening length: 5.74355 Bohr) occupying 0.756637 of unit cell:	Completed after 2 iterations at t[s]:  12857.30
	FillingsUpdate:  mu: -0.124096129  nElectrons: 417.000000  magneticMoment: [ Abs: 0.00001  Tot: +0.00000 ]
	SubspaceRotationAdjust: set factor to 0.273
ElecMinimize: Iter:   9  F: -1430.088585534856747  |grad|_K:  7.857e-09  alpha:  1.342e-01  linmin:  4.896e-04  t[s]:  12932.46
	Linear fluid (dielectric constant: 78.4, screening length: 5.74355 Bohr) occupying 0.756637 of unit cell:	Completed after 0 iterations at t[s]:  12987.24
ElecMinimize: 	Predicted alpha/alphaT>3.000000, increasing alphaT to 4.025539e-01.
	Linear fluid (dielectric constant: 78.4, screening length: 5.74355 Bohr) occupying 0.756637 of unit cell:	Completed after 0 iterations at t[s]:  13037.95
	Linear fluid (dielectric constant: 78.4, screening length: 5.74355 Bohr) occupying 0.756637 of unit cell:	Completed after 0 iterations at t[s]:  13089.19
	FillingsUpdate:  mu: -0.124096209  nElectrons: 417.000000  magneticMoment: [ Abs: 0.00000  Tot: -0.00000 ]
	SubspaceRotationAdjust: set factor to 0.421
ElecMinimize: Iter:  10  F: -1430.088585551194001  |grad|_K:  7.662e-09  alpha:  7.375e-01  linmin:  4.465e-07  t[s]:  13163.81
	Linear fluid (dielectric constant: 78.4, screening length: 5.74355 Bohr) occupying 0.756637 of unit cell:	Completed after 1 iterations at t[s]:  13218.23
	Linear fluid (dielectric constant: 78.4, screening length: 5.74355 Bohr) occupying 0.756637 of unit cell:	Completed after 0 iterations at t[s]:  13270.15
ElecMinimize: 	Step increased F by 1.425747e-08, reducing alpha to 1.466952e-02.
	Linear fluid (dielectric constant: 78.4, screening length: 5.74355 Bohr) occupying 0.756637 of unit cell:	Completed after 0 iterations at t[s]:  13388.44
ElecMinimize: 	Step increased F by 8.692041e-09, reducing alpha to 1.466952e-03.
	Linear fluid (dielectric constant: 78.4, screening length: 5.74355 Bohr) occupying 0.756637 of unit cell:	Completed after 0 iterations at t[s]:  13507.85
ElecMinimize: 	Step increased F by 8.199095e-09, reducing alpha to 1.466952e-04.
ElecMinimize: 	Step failed to reduce F after 3 attempts. Quitting step.
ElecMinimize: 	Undoing step.
	Linear fluid (dielectric constant: 78.4, screening length: 5.74355 Bohr) occupying 0.756637 of unit cell:	Completed after 0 iterations at t[s]:  13626.69
ElecMinimize: 	Step failed: resetting search direction.
	FillingsUpdate:  mu: -0.124062586  nElectrons: 417.000000  magneticMoment: [ Abs: 0.00000  Tot: -0.00000 ]
	SubspaceRotationAdjust: set factor to 0.376
ElecMinimize: Iter:  11  F: -1430.088585542989449  |grad|_K:  1.336e-08  alpha:  1.467e-04
	Linear fluid (dielectric constant: 78.4, screening length: 5.74355 Bohr) occupying 0.756637 of unit cell:	Completed after 3 iterations at t[s]:  13756.53
	Linear fluid (dielectric constant: 78.4, screening length: 5.74355 Bohr) occupying 0.756637 of unit cell:	Completed after 0 iterations at t[s]:  13808.81
	FillingsUpdate:  mu: -0.124107767  nElectrons: 417.000000  magneticMoment: [ Abs: 0.00000  Tot: -0.00000 ]
	SubspaceRotationAdjust: set factor to 0.229
ElecMinimize: Iter:  12  F: -1430.088585571422982  |grad|_K:  1.379e-08  alpha:  2.275e-01  linmin:  1.231e-03  t[s]:  13883.50
	Linear fluid (dielectric constant: 78.4, screening length: 5.74355 Bohr) occupying 0.756637 of unit cell:	Completed after 0 iterations at t[s]:  13938.03
	Linear fluid (dielectric constant: 78.4, screening length: 5.74355 Bohr) occupying 0.756637 of unit cell:	Completed after 0 iterations at t[s]:  13988.81
	FillingsUpdate:  mu: -0.124107777  nElectrons: 417.000000  magneticMoment: [ Abs: 0.00000  Tot: -0.00000 ]
	SubspaceRotationAdjust: set factor to 0.213
ElecMinimize: Iter:  13  F: -1430.088585572511874  |grad|_K:  1.212e-08  alpha:  1.012e-01  linmin: -2.327e-07  t[s]:  14063.12
	Linear fluid (dielectric constant: 78.4, screening length: 5.74355 Bohr) occupying 0.756637 of unit cell:	Completed after 0 iterations at t[s]:  14117.85
ElecMinimize: 	Predicted alpha/alphaT>3.000000, increasing alphaT to 3.037416e-01.
	Linear fluid (dielectric constant: 78.4, screening length: 5.74355 Bohr) occupying 0.756637 of unit cell:	Completed after 0 iterations at t[s]:  14169.47
ElecMinimize: 	Predicted alpha/alphaT>3.000000, increasing alphaT to 9.112247e-01.
	Linear fluid (dielectric constant: 78.4, screening length: 5.74355 Bohr) occupying 0.756637 of unit cell:	Completed after 2 iterations at t[s]:  14220.55
	Linear fluid (dielectric constant: 78.4, screening length: 5.74355 Bohr) occupying 0.756637 of unit cell:	Completed after 0 iterations at t[s]:  14273.02
	FillingsUpdate:  mu: -0.124045701  nElectrons: 417.000000  magneticMoment: [ Abs: 0.00000  Tot: -0.00000 ]
	SubspaceRotationAdjust: set factor to 0.157
ElecMinimize: Iter:  14  F: -1430.088585592424579  |grad|_K:  1.938e-08  alpha:  1.883e-01  linmin:  4.275e-04  t[s]:  14348.09
ElecMinimize: 	Bad step direction: g.d > 0.
ElecMinimize: 	Undoing step.
	Linear fluid (dielectric constant: 78.4, screening length: 5.74355 Bohr) occupying 0.756637 of unit cell:	Completed after 0 iterations at t[s]:  14403.11
ElecMinimize: 	Step failed: resetting search direction.
	FillingsUpdate:  mu: -0.124045701  nElectrons: 417.000000  magneticMoment: [ Abs: 0.00000  Tot: -0.00000 ]
	SubspaceRotationAdjust: set factor to 0.211
ElecMinimize: Iter:  15  F: -1430.088585592395475  |grad|_K:  1.822e-08  alpha:  0.000e+00
	Linear fluid (dielectric constant: 78.4, screening length: 5.74355 Bohr) occupying 0.756637 of unit cell:	Completed after 0 iterations at t[s]:  14533.09
ElecMinimize: 	Predicted alpha/alphaT>3.000000, increasing alphaT to 5.649839e-01.
	Linear fluid (dielectric constant: 78.4, screening length: 5.74355 Bohr) occupying 0.756637 of unit cell:	Completed after 1 iterations at t[s]:  14584.12
	Linear fluid (dielectric constant: 78.4, screening length: 5.74355 Bohr) occupying 0.756637 of unit cell:	Completed after 0 iterations at t[s]:  14636.31
ElecMinimize: 	Step increased F by 2.607885e-08, reducing alpha to 1.769667e-02.
	Linear fluid (dielectric constant: 78.4, screening length: 5.74355 Bohr) occupying 0.756637 of unit cell:	Completed after 0 iterations at t[s]:  14755.45
ElecMinimize: 	Step increased F by 2.035108e-08, reducing alpha to 1.769667e-03.
	Linear fluid (dielectric constant: 78.4, screening length: 5.74355 Bohr) occupying 0.756637 of unit cell:	Completed after 0 iterations at t[s]:  14874.85
ElecMinimize: 	Step increased F by 1.907711e-08, reducing alpha to 1.769667e-04.
ElecMinimize: 	Step failed to reduce F after 3 attempts. Quitting step.
ElecMinimize: 	Undoing step.
	Linear fluid (dielectric constant: 78.4, screening length: 5.74355 Bohr) occupying 0.756637 of unit cell:	Completed after 0 iterations at t[s]:  14993.78
ElecMinimize: 	Step failed along negative gradient direction.
ElecMinimize: Probably at roundoff error limit. (Stopping)
Setting wave functions to eigenvectors of Hamiltonian

# Ionic positions in lattice coordinates:
ion W   0.083331402804787   0.166668582698243   0.500000009000000 1
ion W   0.333331402804787   0.166668582698243   0.500000009000000 1
ion W   0.583331402804787   0.166668582698243   0.500000009000000 1
ion W   0.833331402804787   0.166668582698243   0.500000009000000 1
ion W   0.083331402804787   0.416668582698243   0.500000009000000 1
ion W   0.333331402804787   0.416668582698243   0.500000009000000 1
ion W   0.583331402804787   0.416668582698243   0.500000009000000 1
ion W   0.833331402804787   0.416668582698243   0.500000009000000 1
ion W   0.083331402804787   0.666668582698243   0.500000009000000 1
ion W   0.333331402804787   0.666668582698243   0.500000009000000 1
ion W   0.583331402804787   0.666668582698243   0.500000009000000 1
ion W   0.833331402804787   0.666668582698243   0.500000009000000 1
ion W   0.083331402804787   0.916668582698243   0.500000009000000 1
ion W   0.333331402804787   0.916668582698243   0.500000009000000 1
ion W   0.583331402804787   0.916668582698243   0.500000009000000 1
ion W   0.833331402804787   0.916668582698243   0.500000009000000 1
ion S   0.166669292535107   0.083330692900879   0.413217236952620 1
ion S   0.166669292535107   0.083330692900879   0.586782781047379 1
ion S   0.416669292535107   0.083330692900879   0.413217236952620 1
ion S   0.416669292535107   0.083330692900879   0.586782781047379 1
ion S   0.666669292535107   0.083330692900879   0.413217236952620 1
ion S   0.666669292535107   0.083330692900879   0.586782781047379 1
ion S   0.916669292535107   0.083330692900879   0.413217236952620 1
ion S   0.916669292535107   0.083330692900879   0.586782781047379 1
ion S   0.166669292535107   0.333330692900879   0.413217236952620 1
ion S   0.166669292535107   0.333330692900879   0.586782781047379 1
ion S   0.416669292535107   0.333330692900879   0.413217236952620 1
ion S   0.416669292535107   0.333330692900879   0.586782781047379 1
ion S   0.666669292535107   0.333330692900879   0.413217236952620 1
ion S   0.666669292535107   0.333330692900879   0.586782781047379 1
ion S   0.916669292535107   0.333330692900879   0.413217236952620 1
ion S   0.916669292535107   0.333330692900879   0.586782781047379 1
ion S   0.166669292535107   0.583330692900879   0.413217236952620 1
ion S   0.166669292535107   0.583330692900879   0.586782781047379 1
ion S   0.416669292535107   0.583330692900879   0.413217236952620 1
ion S   0.416669292535107   0.583330692900879   0.586782781047379 1
ion S   0.666669292535107   0.583330692900879   0.413217236952620 1
ion S   0.666669292535107   0.583330692900879   0.586782781047379 1
ion S   0.916669292535107   0.583330692900879   0.413217236952620 1
ion S   0.916669292535107   0.583330692900879   0.586782781047379 1
ion S   0.166669292535107   0.833330692900879   0.413217236952620 1
ion S   0.166669292535107   0.833330692900879   0.586782781047379 1
ion S   0.416669292535107   0.833330692900879   0.413217236952620 1
ion S   0.416669292535107   0.833330692900879   0.586782781047379 1
ion S   0.666669292535107   0.833330692900879   0.413217236952620 1
ion S   0.666669292535107   0.833330692900879   0.586782781047379 1
ion S   0.916669292535107   0.833330692900879   0.413217236952620 1
ion S   0.916669292535107   0.833330692900879   0.586782781047379 1


# Forces in Lattice coordinates:
force W   0.000868404799975  -0.000868404799975   0.000000000000000 1
force W   0.000868404799975  -0.000868404799975   0.000000000000000 1
force W   0.000868404799975  -0.000868404799975  -0.000000000000000 1
force W   0.000868404799975  -0.000868404799975   0.000000000000000 1
force W   0.000868404799975  -0.000868404799975  -0.000000000000000 1
force W   0.000868404799975  -0.000868404799975   0.000000000000000 1
force W   0.000868404799975  -0.000868404799975  -0.000000000000000 1
force W   0.000868404799975  -0.000868404799975  -0.000000000000000 1
force W   0.000868404799975  -0.000868404799975   0.000000000000000 1
force W   0.000868404799975  -0.000868404799975   0.000000000000000 1
force W   0.000868404799975  -0.000868404799975   0.000000000000000 1
force W   0.000868404799975  -0.000868404799975  -0.000000000000000 1
force W   0.000868404799975  -0.000868404799975   0.000000000000000 1
force W   0.000868404799975  -0.000868404799975   0.000000000000000 1
force W   0.000868404799975  -0.000868404799975   0.000000000000000 1
force W   0.000868404799975  -0.000868404799975  -0.000000000000000 1
force S  -0.000378968942903   0.000378968942903  -0.051055379936540 1
force S  -0.000378968942903   0.000378968942903   0.051055379936654 1
force S  -0.000378968942903   0.000378968942903  -0.051055379936425 1
force S  -0.000378968942903   0.000378968942903   0.051055379936543 1
force S  -0.000378968942903   0.000378968942903  -0.051055379936427 1
force S  -0.000378968942903   0.000378968942903   0.051055379936768 1
force S  -0.000378968942903   0.000378968942903  -0.051055379936540 1
force S  -0.000378968942903   0.000378968942903   0.051055379936768 1
force S  -0.000378968942903   0.000378968942903  -0.051055379936426 1
force S  -0.000378968942903   0.000378968942903   0.051055379936654 1
force S  -0.000378968942903   0.000378968942903  -0.051055379936539 1
force S  -0.000378968942903   0.000378968942903   0.051055379936654 1
force S  -0.000378968942903   0.000378968942903  -0.051055379936425 1
force S  -0.000378968942903   0.000378968942903   0.051055379936654 1
force S  -0.000378968942903   0.000378968942903  -0.051055379936767 1
force S  -0.000378968942903   0.000378968942903   0.051055379936767 1
force S  -0.000378968942903   0.000378968942903  -0.051055379936542 1
force S  -0.000378968942903   0.000378968942903   0.051055379936768 1
force S  -0.000378968942903   0.000378968942903  -0.051055379936427 1
force S  -0.000378968942903   0.000378968942903   0.051055379936654 1
force S  -0.000378968942903   0.000378968942903  -0.051055379936427 1
force S  -0.000378968942903   0.000378968942903   0.051055379936654 1
force S  -0.000378968942903   0.000378968942903  -0.051055379936654 1
force S  -0.000378968942903   0.000378968942903   0.051055379936654 1
force S  -0.000378968942903   0.000378968942903  -0.051055379936543 1
force S  -0.000378968942903   0.000378968942903   0.051055379936541 1
force S  -0.000378968942903   0.000378968942903  -0.051055379936428 1
force S  -0.000378968942903   0.000378968942903   0.051055379936768 1
force S  -0.000378968942903   0.000378968942903  -0.051055379936543 1
force S  -0.000378968942903   0.000378968942903   0.051055379936768 1
force S  -0.000378968942903   0.000378968942903  -0.051055379936770 1
force S  -0.000378968942903   0.000378968942903   0.051055379936655 1

# Energy components:
   A_diel =       -0.1139032155123999
   Eewald =     8744.5936435923485988
       EH =     9936.0734748108498025
     Eloc =   -20194.5999224374463665
      Enl =     -179.1525952571722655
      Exc =     -465.8295036180879833
 Exc_core =      230.1592971407826553
       KE =      498.8125552507030420
  MuShift =       -0.0120640672534619
-------------------------------------
     Etot =    -1430.0690178007876057
       TS =        0.0195677725657450
-------------------------------------
        F =    -1430.0885855733533845

IonicMinimize: Iter:   1  F: -1430.088585573353384  |grad|_K:  7.021e-04  alpha:  1.000e+00  linmin: -1.000e+00  t[s]:  15097.06

#--- Lowdin population analysis ---
# oxidation-state W -0.543 -0.543 -0.543 -0.543 -0.543 -0.543 -0.543 -0.543 -0.543 -0.543 -0.543 -0.543 -0.543 -0.543 -0.543 -0.543
# magnetic-moments W +0.000 +0.000 +0.000 +0.000 +0.000 +0.000 +0.000 +0.000 +0.000 +0.000 +0.000 +0.000 +0.000 +0.000 +0.000 +0.000
# oxidation-state S +0.309 +0.309 +0.309 +0.309 +0.309 +0.309 +0.309 +0.309 +0.309 +0.309 +0.309 +0.309 +0.309 +0.309 +0.309 +0.309 +0.309 +0.309 +0.309 +0.309 +0.309 +0.309 +0.309 +0.309 +0.309 +0.309 +0.309 +0.309 +0.309 +0.309 +0.309 +0.309
# magnetic-moments S -0.000 -0.000 -0.000 -0.000 -0.000 -0.000 -0.000 -0.000 -0.000 -0.000 -0.000 -0.000 -0.000 -0.000 -0.000 -0.000 -0.000 -0.000 -0.000 -0.000 -0.000 -0.000 -0.000 -0.000 -0.000 -0.000 -0.000 -0.000 -0.000 -0.000 -0.000 -0.000

	Linear fluid (dielectric constant: 78.4, screening length: 5.74355 Bohr) occupying 0.756359 of unit cell:	Completed after 6 iterations at t[s]:  15154.25

-------- Electronic minimization -----------
	Linear fluid (dielectric constant: 78.4, screening length: 5.74355 Bohr) occupying 0.756359 of unit cell:	Completed after 0 iterations at t[s]:  15194.52
	FillingsUpdate:  mu: -0.122974341  nElectrons: 417.000000  magneticMoment: [ Abs: 0.00010  Tot: -0.00000 ]
ElecMinimize: Iter:   0  F: -1430.088203381276344  |grad|_K:  1.011e-06  alpha:  1.000e+00
	Linear fluid (dielectric constant: 78.4, screening length: 5.74355 Bohr) occupying 0.756351 of unit cell:	Completed after 10 iterations at t[s]:  15332.26
	Linear fluid (dielectric constant: 78.4, screening length: 5.74355 Bohr) occupying 0.756354 of unit cell:	Completed after 9 iterations at t[s]:  15387.33
	FillingsUpdate:  mu: -0.124754949  nElectrons: 417.000000  magneticMoment: [ Abs: 0.00010  Tot: +0.00000 ]
	SubspaceRotationAdjust: set factor to 0.268
ElecMinimize: Iter:   1  F: -1430.088516098978516  |grad|_K:  4.871e-07  alpha:  6.908e-01  linmin: -1.324e-05  t[s]:  15464.63
	Linear fluid (dielectric constant: 78.4, screening length: 5.74355 Bohr) occupying 0.756361 of unit cell:	Completed after 3 iterations at t[s]:  15519.77
	Linear fluid (dielectric constant: 78.4, screening length: 5.74355 Bohr) occupying 0.756364 of unit cell:	Completed after 2 iterations at t[s]:  15572.21
	FillingsUpdate:  mu: -0.124553301  nElectrons: 417.000000  magneticMoment: [ Abs: 0.00009  Tot: +0.00000 ]
	SubspaceRotationAdjust: set factor to 0.347
ElecMinimize: Iter:   2  F: -1430.088621584714019  |grad|_K:  5.043e-07  alpha:  1.003e+00  linmin:  1.100e-06  t[s]:  15647.87
	Linear fluid (dielectric constant: 78.4, screening length: 5.74355 Bohr) occupying 0.756387 of unit cell:	Completed after 8 iterations at t[s]:  15703.80
	Linear fluid (dielectric constant: 78.4, screening length: 5.74355 Bohr) occupying 0.756381 of unit cell:	Completed after 2 iterations at t[s]:  15757.17
	FillingsUpdate:  mu: -0.124294379  nElectrons: 417.000000  magneticMoment: [ Abs: 0.00007  Tot: +0.00000 ]
	SubspaceRotationAdjust: set factor to 0.434
ElecMinimize: Iter:   3  F: -1430.088704432703707  |grad|_K:  3.734e-07  alpha:  7.358e-01  linmin: -1.865e-06  t[s]:  15833.14
	Linear fluid (dielectric constant: 78.4, screening length: 5.74355 Bohr) occupying 0.756396 of unit cell:	Completed after 2 iterations at t[s]:  15888.44
	Linear fluid (dielectric constant: 78.4, screening length: 5.74355 Bohr) occupying 0.756394 of unit cell:	Completed after 1 iterations at t[s]:  15940.90
	FillingsUpdate:  mu: -0.124433353  nElectrons: 417.000000  magneticMoment: [ Abs: 0.00004  Tot: +0.00000 ]
	SubspaceRotationAdjust: set factor to 0.478
ElecMinimize: Iter:   4  F: -1430.088744172282986  |grad|_K:  2.347e-07  alpha:  6.433e-01  linmin:  1.819e-05  t[s]:  16015.46
	Linear fluid (dielectric constant: 78.4, screening length: 5.74355 Bohr) occupying 0.756405 of unit cell:	Completed after 2 iterations at t[s]:  16070.50
	Linear fluid (dielectric constant: 78.4, screening length: 5.74355 Bohr) occupying 0.756402 of unit cell:	Completed after 0 iterations at t[s]:  16122.56
	FillingsUpdate:  mu: -0.124338147  nElectrons: 417.000000  magneticMoment: [ Abs: 0.00003  Tot: +0.00000 ]
	SubspaceRotationAdjust: set factor to 0.512
ElecMinimize: Iter:   5  F: -1430.088755586622028  |grad|_K:  1.391e-07  alpha:  4.674e-01  linmin:  5.194e-05  t[s]:  16196.82
	Linear fluid (dielectric constant: 78.4, screening length: 5.74355 Bohr) occupying 0.756406 of unit cell:	Completed after 0 iterations at t[s]:  16251.36
	Linear fluid (dielectric constant: 78.4, screening length: 5.74355 Bohr) occupying 0.756406 of unit cell:	Completed after 0 iterations at t[s]:  16302.19
	FillingsUpdate:  mu: -0.124339151  nElectrons: 417.000000  magneticMoment: [ Abs: 0.00002  Tot: +0.00000 ]
	SubspaceRotationAdjust: set factor to 0.52
ElecMinimize: Iter:   6  F: -1430.088759778305530  |grad|_K:  8.430e-08  alpha:  4.949e-01  linmin:  1.111e-07  t[s]:  16376.94
	Linear fluid (dielectric constant: 78.4, screening length: 5.74355 Bohr) occupying 0.756408 of unit cell:	Completed after 2 iterations at t[s]:  16431.49
	Linear fluid (dielectric constant: 78.4, screening length: 5.74355 Bohr) occupying 0.756407 of unit cell:	Completed after 0 iterations at t[s]:  16483.77
	FillingsUpdate:  mu: -0.124364787  nElectrons: 417.000000  magneticMoment: [ Abs: 0.00001  Tot: +0.00000 ]
	SubspaceRotationAdjust: set factor to 0.568
ElecMinimize: Iter:   7  F: -1430.088761175351692  |grad|_K:  5.302e-08  alpha:  4.467e-01  linmin: -4.598e-05  t[s]:  16558.82
	Linear fluid (dielectric constant: 78.4, screening length: 5.74355 Bohr) occupying 0.756408 of unit cell:	Completed after 0 iterations at t[s]:  16613.25
	Linear fluid (dielectric constant: 78.4, screening length: 5.74355 Bohr) occupying 0.756408 of unit cell:	Completed after 0 iterations at t[s]:  16664.44
	FillingsUpdate:  mu: -0.124364674  nElectrons: 417.000000  magneticMoment: [ Abs: 0.00001  Tot: +0.00000 ]
	SubspaceRotationAdjust: set factor to 0.704
ElecMinimize: Iter:   8  F: -1430.088761886377824  |grad|_K:  3.370e-08  alpha:  5.554e-01  linmin:  3.001e-08  t[s]:  16739.69
	Linear fluid (dielectric constant: 78.4, screening length: 5.74355 Bohr) occupying 0.756408 of unit cell:	Completed after 2 iterations at t[s]:  16794.52
	Linear fluid (dielectric constant: 78.4, screening length: 5.74355 Bohr) occupying 0.756408 of unit cell:	Completed after 0 iterations at t[s]:  16846.49
	FillingsUpdate:  mu: -0.124355974  nElectrons: 417.000000  magneticMoment: [ Abs: 0.00000  Tot: +0.00000 ]
	SubspaceRotationAdjust: set factor to 0.808
ElecMinimize: Iter:   9  F: -1430.088762122360095  |grad|_K:  2.057e-08  alpha:  4.888e-01  linmin: -1.513e-04  t[s]:  16921.48
	Linear fluid (dielectric constant: 78.4, screening length: 5.74355 Bohr) occupying 0.756407 of unit cell:	Completed after 0 iterations at t[s]:  16975.87
	Linear fluid (dielectric constant: 78.4, screening length: 5.74355 Bohr) occupying 0.756407 of unit cell:	Completed after 0 iterations at t[s]:  17026.79
	FillingsUpdate:  mu: -0.124355255  nElectrons: 417.000000  magneticMoment: [ Abs: 0.00000  Tot: +0.00000 ]
	SubspaceRotationAdjust: set factor to 1.07
ElecMinimize: Iter:  10  F: -1430.088762254894391  |grad|_K:  1.694e-08  alpha:  6.240e-01  linmin: -1.002e-07  t[s]:  17101.42
	Linear fluid (dielectric constant: 78.4, screening length: 5.74355 Bohr) occupying 0.756406 of unit cell:	Completed after 2 iterations at t[s]:  17156.72
	Linear fluid (dielectric constant: 78.4, screening length: 5.74355 Bohr) occupying 0.756407 of unit cell:	Completed after 0 iterations at t[s]:  17209.17
	FillingsUpdate:  mu: -0.124409788  nElectrons: 417.000000  magneticMoment: [ Abs: 0.00000  Tot: +0.00000 ]
	SubspaceRotationAdjust: set factor to 0.73
ElecMinimize: Iter:  11  F: -1430.088762261656257  |grad|_K:  3.520e-08  alpha:  1.626e-01  linmin:  1.662e-04  t[s]:  17284.44
	Linear fluid (dielectric constant: 78.4, screening length: 5.74355 Bohr) occupying 0.756406 of unit cell:	Completed after 0 iterations at t[s]:  17338.65
	Linear fluid (dielectric constant: 78.4, screening length: 5.74355 Bohr) occupying 0.756407 of unit cell:	Completed after 0 iterations at t[s]:  17390.24
	FillingsUpdate:  mu: -0.124409742  nElectrons: 417.000000  magneticMoment: [ Abs: 0.00000  Tot: +0.00000 ]
	SubspaceRotationAdjust: set factor to 0.548
ElecMinimize: Iter:  12  F: -1430.088762262388627  |grad|_K:  3.047e-08  alpha:  1.182e-02  linmin:  8.129e-10  t[s]:  17464.44
ElecMinimize: Converged (|Delta F|<1.000000e-08 for 2 iters).
Setting wave functions to eigenvectors of Hamiltonian

# Ionic positions in lattice coordinates:
ion W   0.083331466105070   0.166668519399953   0.500000009000000 1
ion W   0.333331466105070   0.166668519399953   0.500000009000000 1
ion W   0.583331466105070   0.166668519399953   0.500000009000000 1
ion W   0.833331466105070   0.166668519399953   0.500000009000000 1
ion W   0.083331466105070   0.416668519399953   0.500000009000000 1
ion W   0.333331466105070   0.416668519399953   0.500000009000000 1
ion W   0.583331466105070   0.416668519399953   0.500000009000000 1
ion W   0.833331466105070   0.416668519399953   0.500000009000000 1
ion W   0.083331466105070   0.666668519399953   0.500000009000000 1
ion W   0.333331466105070   0.666668519399953   0.500000009000000 1
ion W   0.583331466105070   0.666668519399953   0.500000009000000 1
ion W   0.833331466105070   0.666668519399953   0.500000009000000 1
ion W   0.083331466105070   0.916668519399953   0.500000009000000 1
ion W   0.333331466105070   0.916668519399953   0.500000009000000 1
ion W   0.583331466105070   0.916668519399953   0.500000009000000 1
ion W   0.833331466105070   0.916668519399953   0.500000009000000 1
ion S   0.166669260884966   0.083330724550024   0.412971967347043 1
ion S   0.166669260884966   0.083330724550024   0.587028050652956 1
ion S   0.416669260884966   0.083330724550024   0.412971967347043 1
ion S   0.416669260884966   0.083330724550024   0.587028050652956 1
ion S   0.666669260884966   0.083330724550024   0.412971967347043 1
ion S   0.666669260884966   0.083330724550024   0.587028050652956 1
ion S   0.916669260884966   0.083330724550024   0.412971967347043 1
ion S   0.916669260884966   0.083330724550024   0.587028050652956 1
ion S   0.166669260884966   0.333330724550024   0.412971967347043 1
ion S   0.166669260884966   0.333330724550024   0.587028050652956 1
ion S   0.416669260884966   0.333330724550024   0.412971967347043 1
ion S   0.416669260884966   0.333330724550024   0.587028050652956 1
ion S   0.666669260884966   0.333330724550024   0.412971967347043 1
ion S   0.666669260884966   0.333330724550024   0.587028050652956 1
ion S   0.916669260884966   0.333330724550024   0.412971967347043 1
ion S   0.916669260884966   0.333330724550024   0.587028050652956 1
ion S   0.166669260884966   0.583330724550024   0.412971967347043 1
ion S   0.166669260884966   0.583330724550024   0.587028050652956 1
ion S   0.416669260884966   0.583330724550024   0.412971967347043 1
ion S   0.416669260884966   0.583330724550024   0.587028050652956 1
ion S   0.666669260884966   0.583330724550024   0.412971967347043 1
ion S   0.666669260884966   0.583330724550024   0.587028050652956 1
ion S   0.916669260884966   0.583330724550024   0.412971967347043 1
ion S   0.916669260884966   0.583330724550024   0.587028050652956 1
ion S   0.166669260884966   0.833330724550024   0.412971967347043 1
ion S   0.166669260884966   0.833330724550024   0.587028050652956 1
ion S   0.416669260884966   0.833330724550024   0.412971967347043 1
ion S   0.416669260884966   0.833330724550024   0.587028050652956 1
ion S   0.666669260884966   0.833330724550024   0.412971967347043 1
ion S   0.666669260884966   0.833330724550024   0.587028050652956 1
ion S   0.916669260884966   0.833330724550024   0.412971967347043 1
ion S   0.916669260884966   0.833330724550024   0.587028050652956 1


# Forces in Lattice coordinates:
force W   0.000833851079976  -0.000833851079976  -0.000000000000000 1
force W   0.000833851079976  -0.000833851079977   0.000000000000000 1
force W   0.000833851079976  -0.000833851079976  -0.000000000000000 1
force W   0.000833851079976  -0.000833851079976   0.000000000000000 1
force W   0.000833851079977  -0.000833851079976   0.000000000000000 1
force W   0.000833851079976  -0.000833851079976  -0.000000000000000 1
force W   0.000833851079976  -0.000833851079977  -0.000000000000000 1
force W   0.000833851079977  -0.000833851079977  -0.000000000000000 1
force W   0.000833851079976  -0.000833851079976   0.000000000000000 1
force W   0.000833851079976  -0.000833851079977  -0.000000000000000 1
force W   0.000833851079976  -0.000833851079976  -0.000000000000000 1
force W   0.000833851079976  -0.000833851079977   0.000000000000000 1
force W   0.000833851079976  -0.000833851079977   0.000000000000000 1
force W   0.000833851079976  -0.000833851079977  -0.000000000000000 1
force W   0.000833851079976  -0.000833851079976  -0.000000000000000 1
force W   0.000833851079976  -0.000833851079976   0.000000000000000 1
force S  -0.000370015894749   0.000370015894749   0.003606909961755 1
force S  -0.000370015894749   0.000370015894749  -0.003606909962097 1
force S  -0.000370015894749   0.000370015894749   0.003606909961869 1
force S  -0.000370015894749   0.000370015894749  -0.003606909961868 1
force S  -0.000370015894749   0.000370015894749   0.003606909961867 1
force S  -0.000370015894749   0.000370015894749  -0.003606909962096 1
force S  -0.000370015894749   0.000370015894749   0.003606909961755 1
force S  -0.000370015894749   0.000370015894749  -0.003606909961983 1
force S  -0.000370015894749   0.000370015894749   0.003606909961642 1
force S  -0.000370015894749   0.000370015894749  -0.003606909961983 1
force S  -0.000370015894749   0.000370015894749   0.003606909961754 1
force S  -0.000370015894749   0.000370015894749  -0.003606909961982 1
force S  -0.000370015894749   0.000370015894749   0.003606909961754 1
force S  -0.000370015894749   0.000370015894749  -0.003606909961984 1
force S  -0.000370015894749   0.000370015894749   0.003606909961869 1
force S  -0.000370015894749   0.000370015894749  -0.003606909961869 1
force S  -0.000370015894749   0.000370015894749   0.003606909961642 1
force S  -0.000370015894749   0.000370015894749  -0.003606909961981 1
force S  -0.000370015894749   0.000370015894749   0.003606909961982 1
force S  -0.000370015894749   0.000370015894749  -0.003606909961981 1
force S  -0.000370015894749   0.000370015894749   0.003606909961868 1
force S  -0.000370015894749   0.000370015894749  -0.003606909961868 1
force S  -0.000370015894749   0.000370015894749   0.003606909961869 1
force S  -0.000370015894749   0.000370015894749  -0.003606909962095 1
force S  -0.000370015894749   0.000370015894749   0.003606909961755 1
force S  -0.000370015894749   0.000370015894749  -0.003606909961868 1
force S  -0.000370015894749   0.000370015894749   0.003606909961869 1
force S  -0.000370015894749   0.000370015894749  -0.003606909962095 1
force S  -0.000370015894749   0.000370015894749   0.003606909961755 1
force S  -0.000370015894749   0.000370015894749  -0.003606909962095 1
force S  -0.000370015894749   0.000370015894749   0.003606909961756 1
force S  -0.000370015894749   0.000370015894749  -0.003606909961983 1

# Energy components:
   A_diel =       -0.1138230543681034
   Eewald =     8739.1423456611792062
       EH =     9930.6609991736568190
     Eloc =   -20183.6366310066623555
      Enl =     -179.1425732749086990
      Exc =     -465.7688649367700009
 Exc_core =      230.1592835436056248
       KE =      498.6421692742602545
  MuShift =       -0.0120640672534619
-------------------------------------
     Etot =    -1430.0691586872580956
       TS =        0.0196035751306273
-------------------------------------
        F =    -1430.0887622623886273

IonicMinimize: Iter:   2  F: -1430.088762262388627  |grad|_K:  5.203e-05  alpha:  1.000e+00  linmin:  9.528e-01  t[s]:  17493.60
IonicMinimize: Converged (|grad|_K<1.000000e-04).

#--- Lowdin population analysis ---
# oxidation-state W -0.540 -0.540 -0.540 -0.540 -0.540 -0.540 -0.540 -0.540 -0.540 -0.540 -0.540 -0.540 -0.540 -0.540 -0.540 -0.540
# magnetic-moments W +0.000 +0.000 +0.000 +0.000 +0.000 +0.000 +0.000 +0.000 +0.000 +0.000 +0.000 +0.000 +0.000 +0.000 +0.000 +0.000
# oxidation-state S +0.307 +0.307 +0.307 +0.307 +0.307 +0.307 +0.307 +0.307 +0.307 +0.307 +0.307 +0.307 +0.307 +0.307 +0.307 +0.307 +0.307 +0.307 +0.307 +0.307 +0.307 +0.307 +0.307 +0.307 +0.307 +0.307 +0.307 +0.307 +0.307 +0.307 +0.307 +0.307
# magnetic-moments S -0.000 -0.000 -0.000 -0.000 -0.000 -0.000 -0.000 -0.000 -0.000 -0.000 -0.000 -0.000 -0.000 -0.000 -0.000 -0.000 -0.000 -0.000 -0.000 -0.000 -0.000 -0.000 -0.000 -0.000 -0.000 -0.000 -0.000 -0.000 -0.000 -0.000 -0.000 -0.000


Dumping 'NbTe2.fillings' ... done
Dumping 'NbTe2.wfns' ... done
Dumping 'NbTe2.fluidState' ... done
Dumping 'NbTe2.ionpos' ... done
Dumping 'NbTe2.eigenvals' ... done
End date and time: Sat Jan 16 09:59:26 2021  (Duration: 0-4:51:53.33)
Done!
