
*************** JDFTx 1.5.0  ***************

Start date and time: Thu Jul 16 06:39:34 2020
Executable jdftx_gpu with command-line: -i Charged.in -o Charged.out
Running on hosts (process indices):  amax (0-5)
Divided in process groups (process indices):  0 (0)  1 (1)  2 (2)  3 (3)  4 (4)  5 (5)
gpuInit: Found compatible cuda device 0 'Tesla K80'
gpuInit: Found compatible cuda device 1 'Tesla K80'
gpuInit: Found compatible cuda device 2 'Tesla K80'
gpuInit: Found compatible cuda device 3 'Tesla K80'
gpuInit: Found compatible cuda device 4 'Tesla K80'
gpuInit: Found compatible cuda device 5 'Tesla K80'
gpuInit: Selected device 0
Resource initialization completed at t[s]:      7.06
Run totals: 6 processes, 24 threads, 6 GPUs


Input parsed successfully to the following command list (including defaults):

basis kpoint-dependent
cache-projectors no
coords-type Lattice
core-overlap-check none
coulomb-interaction Slab 001
coulomb-truncation-embed 0 0 0.5
davidson-band-ratio 1.1
dump End State
dump-name NbTe2.$VAR
elec-cutoff 20 100
elec-eigen-algo Davidson
elec-ex-corr gga-PBE
elec-smearing Gauss 0.0073499
electronic-minimize  \
	dirUpdateScheme      FletcherReeves \
	linminMethod         DirUpdateRecommended \
	nIterations          500 \
	history              15 \
	knormThreshold       0 \
	energyDiffThreshold  1e-08 \
	nEnergyDiff          2 \
	alphaTstart          1 \
	alphaTmin            1e-10 \
	updateTestStepSize   yes \
	alphaTreduceFactor   0.1 \
	alphaTincreaseFactor 3 \
	nAlphaAdjustMax      3 \
	wolfeEnergy          0.0001 \
	wolfeGradient        0.9 \
	fdTest               no
exchange-regularization WignerSeitzTruncated
fluid LinearPCM 298.000000 1.013250
fluid-anion F- 1 MeanFieldLJ \
	epsBulk 1 \
	pMol 0 \
	epsInf 1 \
	Pvap 0 \
	sigmaBulk 0 \
	Rvdw 2.24877 \
	Res 0 \
	tauNuc 343133
fluid-cation Na+ 1 MeanFieldLJ \
	epsBulk 1 \
	pMol 0 \
	epsInf 1 \
	Pvap 0 \
	sigmaBulk 0 \
	Rvdw 2.19208 \
	Res 0 \
	tauNuc 343133
fluid-ex-corr lda-TF lda-PZ
fluid-gummel-loop 10 1.000000e-05
fluid-minimize  \
	dirUpdateScheme      PolakRibiere \
	linminMethod         DirUpdateRecommended \
	nIterations          400 \
	history              15 \
	knormThreshold       1e-11 \
	energyDiffThreshold  0 \
	nEnergyDiff          2 \
	alphaTstart          1 \
	alphaTmin            1e-10 \
	updateTestStepSize   yes \
	alphaTreduceFactor   0.1 \
	alphaTincreaseFactor 3 \
	nAlphaAdjustMax      6 \
	wolfeEnergy          0.0001 \
	wolfeGradient        0.9 \
	fdTest               no
fluid-solvent H2O 55.338 ScalarEOS \
	epsBulk 78.4 \
	pMol 0.92466 \
	epsInf 1.77 \
	Pvap 1.06736e-10 \
	sigmaBulk 4.62e-05 \
	Rvdw 2.61727 \
	Res 1.42 \
	tauNuc 343133 \
	poleEl 15 7 1
forces-output-coords Positions
initial-state NbTe2.$VAR
ion Te   0.250000001889973   0.287665160545551   0.612908748971326 0
ion Te   0.750000001889973   0.287665160545551   0.612908748971326 0
ion Te   0.000000000255859   0.787665561495466   0.387090694940180 0
ion Te   0.500000000255859   0.787665561495466   0.387090694940180 0
ion Te   0.249999998558792   0.712334817635103   0.612908762546209 0
ion Te   0.749999998558792   0.712334817635103   0.612908762546209 0
ion Te   0.999999999177049   0.212334488703725   0.387090712614504 0
ion Te   0.499999999177049   0.212334488703725   0.387090712614504 0
ion Pd   0.125000510483858   0.249999965141178   0.500000242742360 0
ion Pd   0.625000510483858   0.249999965141178   0.500000242742360 0
ion Pd   0.000000001050523   0.499999935440364   0.433173649531265 0
ion Pd   0.500000001050523   0.499999935440364   0.433173649531265 0
ion Pd   0.125000518351456   0.750000038305501   0.500000258547871 0
ion Pd   0.625000518351456   0.750000038305501   0.500000258547871 0
ion Pd   0.374999489716529   0.249999964015011   0.500000243687268 0
ion Pd   0.874999489716529   0.249999964015011   0.500000243687268 0
ion Pd   0.374999481455895   0.750000037116124   0.500000257873147 0
ion Pd   0.874999481455895   0.750000037116124   0.500000257873147 0
ion Pd   0.249999998787800   0.000000039837609   0.566826308452417 0
ion Pd   0.749999998787800   0.000000039837609   0.566826308452417 0
ion Pb   0.250000002040466   0.999999982222512   0.415789288617472 0
ion Pb   0.750000002040466   0.999999982222512   0.415789288617472 0
ion Pb   0.999999998725812   0.499999986238763   0.584210704476706 0
ion Pb   0.499999998725812   0.499999986238763   0.584210704476706 0
ion Pb   0.250000000780005   0.499999998712589   0.428641531647068 0
ion Pb   0.750000000780005   0.499999998712589   0.428641531647068 0
ion Pb   0.999999998725990   0.000000024590520   0.571358595352200 0
ion Pb   0.499999998725990   0.000000024590520   0.571358595352200 0
ion-species GBRV/$ID_pbe.uspp
ion-width Ecut
ionic-minimize  \
	dirUpdateScheme      L-BFGS \
	linminMethod         DirUpdateRecommended \
	nIterations          0 \
	history              15 \
	knormThreshold       0.0001 \
	energyDiffThreshold  1e-06 \
	nEnergyDiff          2 \
	alphaTstart          1 \
	alphaTmin            1e-10 \
	updateTestStepSize   yes \
	alphaTreduceFactor   0.1 \
	alphaTincreaseFactor 3 \
	nAlphaAdjustMax      3 \
	wolfeEnergy          0.0001 \
	wolfeGradient        0.9 \
	fdTest               no
kpoint   0.000000000000   0.000000000000   0.000000000000  1.00000000000000
kpoint-folding 3 4 1 
latt-move-scale 1 1 1
latt-scale 1 1 1 
lattice Triclinic 22.0202 16.2852 36.691 90 90 90
lattice-minimize  \
	dirUpdateScheme      L-BFGS \
	linminMethod         DirUpdateRecommended \
	nIterations          0 \
	history              15 \
	knormThreshold       0 \
	energyDiffThreshold  1e-06 \
	nEnergyDiff          2 \
	alphaTstart          1 \
	alphaTmin            1e-10 \
	updateTestStepSize   yes \
	alphaTreduceFactor   0.1 \
	alphaTincreaseFactor 3 \
	nAlphaAdjustMax      3 \
	wolfeEnergy          0.0001 \
	wolfeGradient        0.9 \
	fdTest               no
lcao-params -1 1e-06 0.0073499
pcm-variant CANDLE
spintype no-spin
subspace-rotation-factor 1 yes
symmetries automatic
symmetry-threshold 0.0001
target-mu -0.171252 no




---------- Setting up symmetries ----------

Found 8 point-group symmetries of the bravais lattice
Found 16 space-group symmetries with basis
Applied RMS atom displacement 9.62394e-06 bohrs to make symmetries exact.

---------- Initializing the Grid ----------
R = 
[    22.0202          0          0  ]
[          0    16.2852          0  ]
[          0          0     36.691  ]
unit cell volume = 13157.6
G =
[   0.285337          0          0  ]
[          0   0.385821          0  ]
[          0          0   0.171246  ]
Minimum fftbox size, Smin = [  100  76  168  ]
Chosen fftbox size, S = [  100  80  168  ]

---------- Initializing tighter grid for wavefunction operations ----------
R = 
[    22.0202          0          0  ]
[          0    16.2852          0  ]
[          0          0     36.691  ]
unit cell volume = 13157.6
G =
[   0.285337          0          0  ]
[          0   0.385821          0  ]
[          0          0   0.171246  ]
Minimum fftbox size, Smin = [  92  68  148  ]
Chosen fftbox size, S = [  96  70  150  ]

---------- Exchange Correlation functional ----------
Initalized PBE GGA exchange.
Initalized PBE GGA correlation.

---------- Setting up pseudopotentials ----------
Width of ionic core gaussian charges (only for fluid interactions / plotting) set to 0.397384

Reading pseudopotential file '/home/guoxy/vasp/jdftx-1.5.0/build/pseudopotentials/GBRV/te_pbe.uspp':
  Title: Te.  Created by USPP 7.3.6 on 14-9-2013
  Reference state energy: -13.134220.  6 valence electrons in orbitals:
    |500>  occupation: 2  eigenvalue: -0.555231
    |510>  occupation: 4  eigenvalue: -0.218781
  lMax: 2  lLocal: 2  QijEcut: 5
  5 projectors sampled on a log grid with 723 points:
    l: 0  eig: -0.555229  rCut: 2.1
    l: 0  eig: 1.000000  rCut: 2.1
    l: 1  eig: -0.218780  rCut: 2.1
    l: 1  eig: 1.000000  rCut: 2.1
    l: 2  eig: 1.000000  rCut: 2.6
  Partial core density with radius 1.8
  Transforming core density to a uniform radial grid of dG=0.02 with 1279 points.
  Transforming local potential to a uniform radial grid of dG=0.02 with 1279 points.
  Transforming nonlocal projectors to a uniform radial grid of dG=0.02 with 432 points.
  Transforming density augmentations to a uniform radial grid of dG=0.02 with 1279 points.
  Transforming atomic orbitals to a uniform radial grid of dG=0.02 with 432 points.
  Core radius for overlap checks: 2.60 bohrs.

Reading pseudopotential file '/home/guoxy/vasp/jdftx-1.5.0/build/pseudopotentials/GBRV/pd_pbe.uspp':
  Title: Pd.  Created by USPP 7.3.6 on 31-3-15
  Reference state energy: -99.095797.  16 valence electrons in orbitals:
    |410>  occupation: 6  eigenvalue: -2.075344
    |420>  occupation: 9.5  eigenvalue: -0.331049
    |500>  occupation: 0  eigenvalue: -0.255738
    |510>  occupation: 0  eigenvalue: -0.109005
  lMax: 2  lLocal: 3  QijEcut: 6
  6 projectors sampled on a log grid with 717 points:
    l: 0  eig: -0.255738  rCut: 2.5
    l: 0  eig: 1.000000  rCut: 2.5
    l: 1  eig: -2.075343  rCut: 1.53
    l: 1  eig: -0.109006  rCut: 1.53
    l: 2  eig: -0.331048  rCut: 1.63
    l: 2  eig: 1.500000  rCut: 1.63
  Partial core density with radius 1
  Transforming core density to a uniform radial grid of dG=0.02 with 1279 points.
  Transforming local potential to a uniform radial grid of dG=0.02 with 1279 points.
  Transforming nonlocal projectors to a uniform radial grid of dG=0.02 with 432 points.
  Transforming density augmentations to a uniform radial grid of dG=0.02 with 1279 points.
  Transforming atomic orbitals to a uniform radial grid of dG=0.02 with 432 points.
  Core radius for overlap checks: 2.50 bohrs.

Reading pseudopotential file '/home/guoxy/vasp/jdftx-1.5.0/build/pseudopotentials/GBRV/pb_pbe.uspp':
  Title: Pb.  Created by USPP 7.3.6 on 14-9-2013
  Reference state energy: -81.948189.  14 valence electrons in orbitals:
    |520>  occupation: 10  eigenvalue: -0.778257
    |600>  occupation: 2  eigenvalue: -0.442466
    |610>  occupation: 2  eigenvalue: -0.128540
  lMax: 2  lLocal: 3  QijEcut: 5
  6 projectors sampled on a log grid with 747 points:
    l: 0  eig: -0.442463  rCut: 2.3
    l: 0  eig: 1.000000  rCut: 2.3
    l: 1  eig: -0.128540  rCut: 2.3
    l: 1  eig: 1.000000  rCut: 2.3
    l: 2  eig: -0.778256  rCut: 2.1
    l: 2  eig: 0.000000  rCut: 2.1
  Partial core density with radius 1
  Transforming core density to a uniform radial grid of dG=0.02 with 1279 points.
  Transforming local potential to a uniform radial grid of dG=0.02 with 1279 points.
  Transforming nonlocal projectors to a uniform radial grid of dG=0.02 with 432 points.
  Transforming density augmentations to a uniform radial grid of dG=0.02 with 1279 points.
  Transforming atomic orbitals to a uniform radial grid of dG=0.02 with 432 points.
  Core radius for overlap checks: 2.30 bohrs.

Initialized 3 species with 28 total atoms.

Folded 1 k-points by 3x4x1 to 12 k-points.

---------- Setting up k-points, bands, fillings ----------
Reduced to 6 k-points under symmetry. 
Computing the number of bands and number of electrons
Reading initial fillings from file NbTe2.fillings.
nElectrons: 352.000000   nBands: 248   nStates: 6

----- Setting up reduced wavefunction bases (one per k-point) -----
average nbasis = 56208.583 , ideal nbasis = 56210.211

---------- Setting up coulomb interaction ----------
Fluid mode embedding: using embedded box, but periodic Coulomb kernel.
(Fluid response is responsible for (approximate) separation between periodic images.)
Setting up double-sized grid for truncated Coulomb potentials:
R = 
[    22.0202          0          0  ]
[          0    16.2852          0  ]
[          0          0    73.3821  ]
unit cell volume = 26315.2
G =
[   0.285337          0          0  ]
[          0   0.385821          0  ]
[          0          0  0.0856229  ]
Chosen fftbox size, S = [  100  80  336  ]
Integer grid location selected as the embedding center:
   Grid: [  0  0  84  ]
   Lattice: [  0  0  0.5  ]
   Cartesian: [  0  0  18.3455  ]
Constructing Wigner-Seitz cell: 6 faces (6 quadrilaterals, 0 hexagons)
Range-separation parameter for embedded mesh potentials due to point charges: 0.591999 bohrs.

Initializing van der Waals corrections
	NOTE: vdW corrections apply only for interactions with fluid.
	Te:  C6:  550.54 Eh-a0^6  R0: 3.575 a0
	Pd:  C6:  427.91 Eh-a0^6  R0: 3.097 a0
	Pb:  C6:  881.14 Eh-a0^6  R0: 3.432 a0 (WARNING: beyond Grimme's data set)

---------- Setting up ewald sum ----------
Optimum gaussian width for ewald sums = 6.809561 bohr.
Real space sum over 495 unit cells with max indices [  4  5  2  ]
Reciprocal space sum over 5291 terms with max indices [  6  5  18  ]

---------- Allocating electronic variables ----------
Initializing wave functions:  reading from 'NbTe2.wfns'
----- createFluidSolver() ----- (Fluid-side solver setup)
   Initializing fluid molecule 'H2O'
     Initializing site 'O'
       Electron density: proportional to exp(-r/0.36935)*erfc((r-0.51523)/0.36823) with norm 6.826
       Charge density: gaussian nuclear width 0.478731 with net site charge 0.826
       Polarizability: cuspless exponential with width 0.32 and norm 3.73
       Hard sphere radius: 2.57003 bohrs
       Positions in reference frame:
         [ +0.000000 +0.000000 +0.000000 ]
     Initializing site 'H'
       Electron density: proportional to exp(-r/0.34641)*erfc((r-0)/0.390882) with norm 0.587
       Charge density: gaussian nuclear width 0.377945 with net site charge -0.413
       Polarizability: cuspless exponential with width 0.39 and norm 3.3
       Positions in reference frame:
         [ +0.000000 -1.441945 +1.122523 ]
         [ +0.000000 +1.441945 +1.122523 ]
     Net charge: 0   dipole magnitude: 0.927204
     Initializing spherical shell mfKernel with radius 2.61727 Bohr
     deltaS corrections:
       site 'O': -7.54299
       site 'H': -6.83917
   Initializing fluid molecule 'Na+'
     Initializing site 'Na'
       Electron density: proportional to exp(-r/0.19682)*erfc((r-0.71491)/0.41314) with norm 8.1383
       Charge density: gaussian nuclear width 0.365347 with net site charge -1
       Hard sphere radius: 1.86327 bohrs
       Positions in reference frame:
         [ +0.000000 +0.000000 +0.000000 ]
     Net charge: -1   dipole magnitude: 0
     Initializing gaussian mfKernel with width: 1.55004 Bohr
     deltaS corrections:
       site 'Na': -22.3555
   Initializing fluid molecule 'F-'
     Initializing site 'F'
       Electron density: proportional to exp(-r/0.38886)*erfc((r-0)/0.438782) with norm 8
       Charge density: gaussian nuclear width 0.374796 with net site charge 1
       Hard sphere radius: 2.39995 bohrs
       Positions in reference frame:
         [ +0.000000 +0.000000 +0.000000 ]
     Net charge: 1   dipole magnitude: 0
     Initializing gaussian mfKernel with width: 1.59012 Bohr
     deltaS corrections:
       site 'F': -9.04335

Correction to mu due to finite nuclear width = -0.013272
   Cavity determined by nc: 0.00142 and sigma: 0.707107
   Nonlocal vdW cavity from gaussian model electron density with norm = 8 and sigma = 0.993594 bohr
   Charge asymmetry in cavity with sensitivity pCavity = 36.5 e-bohr/Eh
   Electrostatic cavity expanded by eta = 1.46 bohrs
   Weighted density cavitation model constrained by Nbulk: 0.0049383 bohr^-3, Pvap: 3.14029 kPa, Rvdw: 2.61727 bohr and sigmaBulk: 4.62e-05 Eh/bohr^2 at T: 298 K.
   Weighted density dispersion model using vdW pair potentials with single solvent site with sqrtC6eff: 0.77 SI.
Reading fluid state from 'NbTe2.fluidState'


---- Citations for features of the code used in this run ----

   Software package:
      R. Sundararaman, K. Letchworth-Weaver, K.A. Schwarz, D. Gunceler, Y. Ozhabes and T.A. Arias, 'JDFTx: software for joint density-functional theory', SoftwareX 6, 278 (2017)

   gga-PBE exchange-correlation functional:
      J.P. Perdew, K. Burke and M. Ernzerhof, Phys. Rev. Lett. 77, 3865 (1996)

   Pseudopotentials:
      KF Garrity, JW Bennett, KM Rabe and D Vanderbilt, Comput. Mater. Sci. 81, 446 (2014)

   Truncated Coulomb potentials:
      R. Sundararaman and T.A. Arias, Phys. Rev. B 87, 165122 (2013)

   Van der Waals correction pair-potentials:
      S. Grimme, J. Comput. Chem. 27, 1787 (2006)

   Charge-asymmetric nonlocally-determined local-electric (CANDLE) solvation model:
      R. Sundararaman and W.A. Goddard III, J. Chem. Phys. 142, 064107 (2015)

   Total energy minimization with Auxiliary Hamiltonian:
      C. Freysoldt, S. Boeck, and J. Neugebauer, Phys. Rev. B 79, 241103(R) (2009)

   Grand-canonical (fixed-potential) DFT:
      R. Sundararaman, W. A. Goddard III and T. A. Arias, J. Chem. Phys. 146, 114104 (2017)

This list may not be complete. Please suggest additional citations or
report any other bugs at https://github.com/shankar1729/jdftx/issues

Initialization completed successfully at t[s]:     16.68

Shifting auxilliary hamiltonian by -0.030438 to set nElectrons=352.000000
	Linear fluid (dielectric constant: 78.4, screening length: 5.74355 Bohr) occupying 0.743116 of unit cell:	Completed after 1 iterations at t[s]:     25.71

-------- Electronic minimization -----------
	Linear fluid (dielectric constant: 78.4, screening length: 5.74355 Bohr) occupying 0.743116 of unit cell:	Completed after 0 iterations at t[s]:     35.35
	FillingsUpdate:  mu: -0.171251800  nElectrons: 352.000000
ElecMinimize: Iter:   0  G: -1645.112854704927940  |grad|_K:  3.718e-05  alpha:  1.000e+00
	Linear fluid (dielectric constant: 78.4, screening length: 5.74355 Bohr) occupying 0.745955 of unit cell:	Completed after 20 iterations at t[s]:     59.80
	Linear fluid (dielectric constant: 78.4, screening length: 5.74355 Bohr) occupying 0.743159 of unit cell:	Completed after 21 iterations at t[s]:     71.56
	FillingsUpdate:  mu: -0.171251800  nElectrons: 351.801931
	SubspaceRotationAdjust: set factor to 0.506
ElecMinimize: Iter:   1  G: -1645.117570640229360  |grad|_K:  2.176e-05  alpha:  2.601e-02  linmin: -4.210e-02  t[s]:     79.31
	Linear fluid (dielectric constant: 78.4, screening length: 5.74355 Bohr) occupying 0.743261 of unit cell:	Completed after 13 iterations at t[s]:     88.32
	Linear fluid (dielectric constant: 78.4, screening length: 5.74355 Bohr) occupying 0.743330 of unit cell:	Completed after 12 iterations at t[s]:     98.01
	FillingsUpdate:  mu: -0.171251800  nElectrons: 351.499115
	SubspaceRotationAdjust: set factor to 0.322
ElecMinimize: Iter:   2  G: -1645.120280983544944  |grad|_K:  1.147e-05  alpha:  4.390e-02  linmin:  1.636e-04  t[s]:    105.77
	Linear fluid (dielectric constant: 78.4, screening length: 5.74355 Bohr) occupying 0.743463 of unit cell:	Completed after 10 iterations at t[s]:    114.70
ElecMinimize: 	Predicted alpha/alphaT>3.000000, increasing alphaT to 1.317094e-01.
	Linear fluid (dielectric constant: 78.4, screening length: 5.74355 Bohr) occupying 0.743727 of unit cell:	Completed after 11 iterations at t[s]:    132.97
	Linear fluid (dielectric constant: 78.4, screening length: 5.74355 Bohr) occupying 0.743997 of unit cell:	Completed after 12 iterations at t[s]:    143.26
	FillingsUpdate:  mu: -0.171251800  nElectrons: 351.139782
	SubspaceRotationAdjust: set factor to 0.186
ElecMinimize: Iter:   3  G: -1645.122711813624164  |grad|_K:  1.372e-05  alpha:  2.231e-01  linmin:  3.586e-06  t[s]:    151.75
	Linear fluid (dielectric constant: 78.4, screening length: 5.74355 Bohr) occupying 0.745187 of unit cell:	Completed after 13 iterations at t[s]:    160.63
	Linear fluid (dielectric constant: 78.4, screening length: 5.74355 Bohr) occupying 0.744837 of unit cell:	Completed after 10 iterations at t[s]:    170.46
	FillingsUpdate:  mu: -0.171251800  nElectrons: 350.964243
	SubspaceRotationAdjust: set factor to 0.19
ElecMinimize: Iter:   4  G: -1645.125164231157214  |grad|_K:  8.255e-06  alpha:  1.561e-01  linmin: -4.077e-06  t[s]:    177.58
	Linear fluid (dielectric constant: 78.4, screening length: 5.74355 Bohr) occupying 0.745246 of unit cell:	Completed after 12 iterations at t[s]:    186.30
	Linear fluid (dielectric constant: 78.4, screening length: 5.74355 Bohr) occupying 0.745471 of unit cell:	Completed after 12 iterations at t[s]:    196.97
	FillingsUpdate:  mu: -0.171251800  nElectrons: 350.968884
	SubspaceRotationAdjust: set factor to 0.204
ElecMinimize: Iter:   5  G: -1645.126557572261845  |grad|_K:  6.984e-06  alpha:  2.432e-01  linmin: -5.514e-05  t[s]:    204.78
	Linear fluid (dielectric constant: 78.4, screening length: 5.74355 Bohr) occupying 0.746069 of unit cell:	Completed after 11 iterations at t[s]:    214.00
	Linear fluid (dielectric constant: 78.4, screening length: 5.74355 Bohr) occupying 0.746166 of unit cell:	Completed after 8 iterations at t[s]:    223.08
	FillingsUpdate:  mu: -0.171251800  nElectrons: 350.958676
	SubspaceRotationAdjust: set factor to 0.18
ElecMinimize: Iter:   6  G: -1645.127724467708958  |grad|_K:  6.124e-06  alpha:  2.831e-01  linmin: -2.870e-05  t[s]:    230.99
	Linear fluid (dielectric constant: 78.4, screening length: 5.74355 Bohr) occupying 0.746827 of unit cell:	Completed after 13 iterations at t[s]:    239.88
	Linear fluid (dielectric constant: 78.4, screening length: 5.74355 Bohr) occupying 0.746707 of unit cell:	Completed after 9 iterations at t[s]:    250.61
	FillingsUpdate:  mu: -0.171251800  nElectrons: 350.889674
	SubspaceRotationAdjust: set factor to 0.258
ElecMinimize: Iter:   7  G: -1645.128454748237345  |grad|_K:  4.692e-06  alpha:  2.316e-01  linmin: -8.139e-07  t[s]:    258.38
	Linear fluid (dielectric constant: 78.4, screening length: 5.74355 Bohr) occupying 0.747103 of unit cell:	Completed after 12 iterations at t[s]:    266.54
	Linear fluid (dielectric constant: 78.4, screening length: 5.74355 Bohr) occupying 0.747167 of unit cell:	Completed after 8 iterations at t[s]:    275.41
	FillingsUpdate:  mu: -0.171251800  nElectrons: 350.826030
	SubspaceRotationAdjust: set factor to 0.261
ElecMinimize: Iter:   8  G: -1645.128951861675205  |grad|_K:  4.070e-06  alpha:  2.694e-01  linmin:  2.651e-06  t[s]:    283.12
	Linear fluid (dielectric constant: 78.4, screening length: 5.74355 Bohr) occupying 0.747580 of unit cell:	Completed after 12 iterations at t[s]:    292.62
	Linear fluid (dielectric constant: 78.4, screening length: 5.74355 Bohr) occupying 0.747530 of unit cell:	Completed after 2 iterations at t[s]:    301.69
	FillingsUpdate:  mu: -0.171251800  nElectrons: 350.823480
	SubspaceRotationAdjust: set factor to 0.33
ElecMinimize: Iter:   9  G: -1645.129280158309484  |grad|_K:  3.014e-06  alpha:  2.365e-01  linmin:  9.612e-06  t[s]:    308.64
	Linear fluid (dielectric constant: 78.4, screening length: 5.74355 Bohr) occupying 0.747755 of unit cell:	Completed after 10 iterations at t[s]:    317.07
	Linear fluid (dielectric constant: 78.4, screening length: 5.74355 Bohr) occupying 0.747785 of unit cell:	Completed after 7 iterations at t[s]:    326.71
	FillingsUpdate:  mu: -0.171251800  nElectrons: 350.846239
	SubspaceRotationAdjust: set factor to 0.332
ElecMinimize: Iter:  10  G: -1645.129483852742169  |grad|_K:  2.886e-06  alpha:  2.681e-01  linmin:  4.350e-05  t[s]:    333.74
	Linear fluid (dielectric constant: 78.4, screening length: 5.74355 Bohr) occupying 0.748013 of unit cell:	Completed after 6 iterations at t[s]:    342.48
	Linear fluid (dielectric constant: 78.4, screening length: 5.74355 Bohr) occupying 0.748014 of unit cell:	Completed after 0 iterations at t[s]:    349.71
	FillingsUpdate:  mu: -0.171251800  nElectrons: 350.839291
	SubspaceRotationAdjust: set factor to 0.424
ElecMinimize: Iter:  11  G: -1645.129670624455912  |grad|_K:  2.217e-06  alpha:  2.691e-01  linmin: -5.352e-06  t[s]:    356.94
	Linear fluid (dielectric constant: 78.4, screening length: 5.74355 Bohr) occupying 0.748119 of unit cell:	Completed after 12 iterations at t[s]:    365.14
	Linear fluid (dielectric constant: 78.4, screening length: 5.74355 Bohr) occupying 0.748103 of unit cell:	Completed after 6 iterations at t[s]:    373.59
	FillingsUpdate:  mu: -0.171251800  nElectrons: 350.821700
	SubspaceRotationAdjust: set factor to 0.388
ElecMinimize: Iter:  12  G: -1645.129764119648144  |grad|_K:  2.015e-06  alpha:  2.267e-01  linmin:  1.338e-05  t[s]:    382.08
	Linear fluid (dielectric constant: 78.4, screening length: 5.74355 Bohr) occupying 0.748150 of unit cell:	Completed after 8 iterations at t[s]:    390.63
	Linear fluid (dielectric constant: 78.4, screening length: 5.74355 Bohr) occupying 0.748159 of unit cell:	Completed after 3 iterations at t[s]:    399.35
	FillingsUpdate:  mu: -0.171251800  nElectrons: 350.838498
	SubspaceRotationAdjust: set factor to 0.487
ElecMinimize: Iter:  13  G: -1645.129856945830170  |grad|_K:  1.530e-06  alpha:  2.727e-01  linmin: -5.451e-05  t[s]:    407.01
	Linear fluid (dielectric constant: 78.4, screening length: 5.74355 Bohr) occupying 0.748150 of unit cell:	Completed after 9 iterations at t[s]:    414.69
	Linear fluid (dielectric constant: 78.4, screening length: 5.74355 Bohr) occupying 0.748152 of unit cell:	Completed after 4 iterations at t[s]:    422.73
	FillingsUpdate:  mu: -0.171251800  nElectrons: 350.855817
	SubspaceRotationAdjust: set factor to 0.432
ElecMinimize: Iter:  14  G: -1645.129899684836346  |grad|_K:  1.348e-06  alpha:  2.171e-01  linmin:  1.068e-05  t[s]:    431.20
	Linear fluid (dielectric constant: 78.4, screening length: 5.74355 Bohr) occupying 0.748108 of unit cell:	Completed after 10 iterations at t[s]:    439.02
	Linear fluid (dielectric constant: 78.4, screening length: 5.74355 Bohr) occupying 0.748114 of unit cell:	Completed after 3 iterations at t[s]:    447.08
	FillingsUpdate:  mu: -0.171251800  nElectrons: 350.846899
	SubspaceRotationAdjust: set factor to 0.427
ElecMinimize: Iter:  15  G: -1645.129928004376325  |grad|_K:  9.145e-07  alpha:  1.870e-01  linmin: -7.343e-05  t[s]:    455.06
	Linear fluid (dielectric constant: 78.4, screening length: 5.74355 Bohr) occupying 0.748074 of unit cell:	Completed after 7 iterations at t[s]:    463.24
	Linear fluid (dielectric constant: 78.4, screening length: 5.74355 Bohr) occupying 0.748043 of unit cell:	Completed after 6 iterations at t[s]:    473.41
	FillingsUpdate:  mu: -0.171251800  nElectrons: 350.843330
	SubspaceRotationAdjust: set factor to 0.467
ElecMinimize: Iter:  16  G: -1645.129951038794161  |grad|_K:  8.412e-07  alpha:  3.297e-01  linmin:  1.423e-04  t[s]:    480.54
	Linear fluid (dielectric constant: 78.4, screening length: 5.74355 Bohr) occupying 0.747958 of unit cell:	Completed after 10 iterations at t[s]:    488.58
	Linear fluid (dielectric constant: 78.4, screening length: 5.74355 Bohr) occupying 0.747989 of unit cell:	Completed after 8 iterations at t[s]:    497.67
	FillingsUpdate:  mu: -0.171251800  nElectrons: 350.854472
	SubspaceRotationAdjust: set factor to 0.444
ElecMinimize: Iter:  17  G: -1645.129963289154830  |grad|_K:  6.073e-07  alpha:  2.096e-01  linmin:  1.793e-05  t[s]:    506.84
	Linear fluid (dielectric constant: 78.4, screening length: 5.74355 Bohr) occupying 0.747948 of unit cell:	Completed after 2 iterations at t[s]:    512.64
	Linear fluid (dielectric constant: 78.4, screening length: 5.74355 Bohr) occupying 0.747929 of unit cell:	Completed after 2 iterations at t[s]:    519.79
	FillingsUpdate:  mu: -0.171251800  nElectrons: 350.859299
	SubspaceRotationAdjust: set factor to 0.531
ElecMinimize: Iter:  18  G: -1645.129972666570211  |grad|_K:  4.991e-07  alpha:  3.049e-01  linmin:  1.353e-05  t[s]:    527.61
	Linear fluid (dielectric constant: 78.4, screening length: 5.74355 Bohr) occupying 0.747879 of unit cell:	Completed after 8 iterations at t[s]:    534.78
	Linear fluid (dielectric constant: 78.4, screening length: 5.74355 Bohr) occupying 0.747881 of unit cell:	Completed after 0 iterations at t[s]:    542.38
	FillingsUpdate:  mu: -0.171251800  nElectrons: 350.858066
	SubspaceRotationAdjust: set factor to 0.551
ElecMinimize: Iter:  19  G: -1645.129978794272120  |grad|_K:  4.679e-07  alpha:  2.939e-01  linmin:  7.102e-05  t[s]:    550.19
	Linear fluid (dielectric constant: 78.4, screening length: 5.74355 Bohr) occupying 0.747834 of unit cell:	Completed after 8 iterations at t[s]:    557.92
	Linear fluid (dielectric constant: 78.4, screening length: 5.74355 Bohr) occupying 0.747846 of unit cell:	Completed after 2 iterations at t[s]:    565.09
	FillingsUpdate:  mu: -0.171251800  nElectrons: 350.863418
	SubspaceRotationAdjust: set factor to 0.508
ElecMinimize: Iter:  20  G: -1645.129982754112007  |grad|_K:  3.583e-07  alpha:  2.198e-01  linmin:  3.497e-05  t[s]:    573.90
	Linear fluid (dielectric constant: 78.4, screening length: 5.74355 Bohr) occupying 0.747824 of unit cell:	Completed after 3 iterations at t[s]:    580.95
	Linear fluid (dielectric constant: 78.4, screening length: 5.74355 Bohr) occupying 0.747819 of unit cell:	Completed after 3 iterations at t[s]:    589.62
	FillingsUpdate:  mu: -0.171251800  nElectrons: 350.862808
	SubspaceRotationAdjust: set factor to 0.505
ElecMinimize: Iter:  21  G: -1645.129985554961650  |grad|_K:  2.738e-07  alpha:  2.697e-01  linmin:  5.382e-05  t[s]:    596.57
	Linear fluid (dielectric constant: 78.4, screening length: 5.74355 Bohr) occupying 0.747805 of unit cell:	Completed after 1 iterations at t[s]:    601.38
	Linear fluid (dielectric constant: 78.4, screening length: 5.74355 Bohr) occupying 0.747803 of unit cell:	Completed after 0 iterations at t[s]:    608.74
	FillingsUpdate:  mu: -0.171251800  nElectrons: 350.864509
	SubspaceRotationAdjust: set factor to 0.59
ElecMinimize: Iter:  22  G: -1645.129987477074565  |grad|_K:  2.192e-07  alpha:  3.090e-01  linmin: -6.503e-05  t[s]:    617.54
	Linear fluid (dielectric constant: 78.4, screening length: 5.74355 Bohr) occupying 0.747796 of unit cell:	Completed after 3 iterations at t[s]:    624.56
	Linear fluid (dielectric constant: 78.4, screening length: 5.74355 Bohr) occupying 0.747797 of unit cell:	Completed after 0 iterations at t[s]:    631.74
	FillingsUpdate:  mu: -0.171251800  nElectrons: 350.867345
	SubspaceRotationAdjust: set factor to 0.601
ElecMinimize: Iter:  23  G: -1645.129988578989924  |grad|_K:  1.703e-07  alpha:  2.710e-01  linmin: -4.500e-05  t[s]:    639.53
	Linear fluid (dielectric constant: 78.4, screening length: 5.74355 Bohr) occupying 0.747796 of unit cell:	Completed after 3 iterations at t[s]:    646.30
	Linear fluid (dielectric constant: 78.4, screening length: 5.74355 Bohr) occupying 0.747796 of unit cell:	Completed after 0 iterations at t[s]:    654.10
	FillingsUpdate:  mu: -0.171251800  nElectrons: 350.868734
	SubspaceRotationAdjust: set factor to 0.628
ElecMinimize: Iter:  24  G: -1645.129989243872842  |grad|_K:  1.315e-07  alpha:  2.697e-01  linmin: -9.384e-05  t[s]:    661.64
	Linear fluid (dielectric constant: 78.4, screening length: 5.74355 Bohr) occupying 0.747798 of unit cell:	Completed after 0 iterations at t[s]:    667.96
	Linear fluid (dielectric constant: 78.4, screening length: 5.74355 Bohr) occupying 0.747799 of unit cell:	Completed after 1 iterations at t[s]:    674.95
	FillingsUpdate:  mu: -0.171251800  nElectrons: 350.867452
	SubspaceRotationAdjust: set factor to 0.659
ElecMinimize: Iter:  25  G: -1645.129989670040686  |grad|_K:  1.073e-07  alpha:  3.250e-01  linmin:  2.293e-04  t[s]:    682.94
	Linear fluid (dielectric constant: 78.4, screening length: 5.74355 Bohr) occupying 0.747803 of unit cell:	Completed after 1 iterations at t[s]:    689.02
	Linear fluid (dielectric constant: 78.4, screening length: 5.74355 Bohr) occupying 0.747802 of unit cell:	Completed after 0 iterations at t[s]:    697.10
	FillingsUpdate:  mu: -0.171251800  nElectrons: 350.866688
	SubspaceRotationAdjust: set factor to 0.747
ElecMinimize: Iter:  26  G: -1645.129989882813561  |grad|_K:  9.197e-08  alpha:  2.594e-01  linmin: -7.481e-05  t[s]:    705.42
	Linear fluid (dielectric constant: 78.4, screening length: 5.74355 Bohr) occupying 0.747808 of unit cell:	Completed after 1 iterations at t[s]:    710.85
	Linear fluid (dielectric constant: 78.4, screening length: 5.74355 Bohr) occupying 0.747807 of unit cell:	Completed after 0 iterations at t[s]:    718.03
	FillingsUpdate:  mu: -0.171251800  nElectrons: 350.867005
	SubspaceRotationAdjust: set factor to 0.878
ElecMinimize: Iter:  27  G: -1645.129990060337150  |grad|_K:  7.163e-08  alpha:  2.415e-01  linmin: -8.220e-05  t[s]:    725.79
	Linear fluid (dielectric constant: 78.4, screening length: 5.74355 Bohr) occupying 0.747812 of unit cell:	Completed after 2 iterations at t[s]:    732.45
	Linear fluid (dielectric constant: 78.4, screening length: 5.74355 Bohr) occupying 0.747811 of unit cell:	Completed after 0 iterations at t[s]:    740.68
	FillingsUpdate:  mu: -0.171251800  nElectrons: 350.867220
	SubspaceRotationAdjust: set factor to 0.874
ElecMinimize: Iter:  28  G: -1645.129990142994757  |grad|_K:  8.462e-08  alpha:  1.951e-01  linmin: -1.014e-04  t[s]:    748.11
	Linear fluid (dielectric constant: 78.4, screening length: 5.74355 Bohr) occupying 0.747817 of unit cell:	Completed after 1 iterations at t[s]:    754.06
	Linear fluid (dielectric constant: 78.4, screening length: 5.74355 Bohr) occupying 0.747816 of unit cell:	Completed after 0 iterations at t[s]:    761.86
	FillingsUpdate:  mu: -0.171251800  nElectrons: 350.866213
	SubspaceRotationAdjust: set factor to 1.18
ElecMinimize: Iter:  29  G: -1645.129990238776827  |grad|_K:  5.955e-08  alpha:  1.434e-01  linmin:  2.072e-05  t[s]:    769.18
	Linear fluid (dielectric constant: 78.4, screening length: 5.74355 Bohr) occupying 0.747818 of unit cell:	Completed after 0 iterations at t[s]:    774.69
	Linear fluid (dielectric constant: 78.4, screening length: 5.74355 Bohr) occupying 0.747821 of unit cell:	Completed after 1 iterations at t[s]:    781.51
ElecMinimize: 	Step increased G by 6.054506e-09, reducing alpha to 2.730708e-02.
	Linear fluid (dielectric constant: 78.4, screening length: 5.74355 Bohr) occupying 0.747816 of unit cell:	Completed after 1 iterations at t[s]:    794.07
	FillingsUpdate:  mu: -0.171251800  nElectrons: 350.866068
	SubspaceRotationAdjust: set factor to 1.1
ElecMinimize: Iter:  30  G: -1645.129990259108808  |grad|_K:  7.169e-08  alpha:  2.731e-02  linmin: -1.554e-04  t[s]:    801.15
	Linear fluid (dielectric constant: 78.4, screening length: 5.74355 Bohr) occupying 0.747817 of unit cell:	Completed after 0 iterations at t[s]:    806.47
ElecMinimize: 	Predicted alpha/alphaT>3.000000, increasing alphaT to 8.192124e-02.
	Linear fluid (dielectric constant: 78.4, screening length: 5.74355 Bohr) occupying 0.747819 of unit cell:	Completed after 0 iterations at t[s]:    813.67
	Linear fluid (dielectric constant: 78.4, screening length: 5.74355 Bohr) occupying 0.747822 of unit cell:	Completed after 0 iterations at t[s]:    820.52
	FillingsUpdate:  mu: -0.171251800  nElectrons: 350.865989
	SubspaceRotationAdjust: set factor to 1.12
ElecMinimize: Iter:  31  G: -1645.129990350911385  |grad|_K:  5.798e-08  alpha:  1.603e-01  linmin:  8.939e-08  t[s]:    828.74
	Linear fluid (dielectric constant: 78.4, screening length: 5.74355 Bohr) occupying 0.747825 of unit cell:	Completed after 1 iterations at t[s]:    834.94
	Linear fluid (dielectric constant: 78.4, screening length: 5.74355 Bohr) occupying 0.747822 of unit cell:	Completed after 0 iterations at t[s]:    843.13
ElecMinimize: 	Step increased G by 7.484232e-09, reducing alpha to 3.564995e-03.
	Linear fluid (dielectric constant: 78.4, screening length: 5.74355 Bohr) occupying 0.747822 of unit cell:	Completed after 0 iterations at t[s]:    857.11
	FillingsUpdate:  mu: -0.171251800  nElectrons: 350.866012
	SubspaceRotationAdjust: set factor to 0.664
ElecMinimize: Iter:  32  G: -1645.129990363014940  |grad|_K:  1.027e-07  alpha:  3.565e-03  linmin:  4.015e-04  t[s]:    864.54
	Linear fluid (dielectric constant: 78.4, screening length: 5.74355 Bohr) occupying 0.747822 of unit cell:	Completed after 0 iterations at t[s]:    869.60
	Linear fluid (dielectric constant: 78.4, screening length: 5.74355 Bohr) occupying 0.747822 of unit cell:	Completed after 0 iterations at t[s]:    877.23
	FillingsUpdate:  mu: -0.171251800  nElectrons: 350.866013
	SubspaceRotationAdjust: set factor to 0.436
ElecMinimize: Iter:  33  G: -1645.129990363029492  |grad|_K:  8.331e-08  alpha:  5.846e-04  linmin: -2.313e-08  t[s]:    885.81
	Linear fluid (dielectric constant: 78.4, screening length: 5.74355 Bohr) occupying 0.747822 of unit cell:	Completed after 0 iterations at t[s]:    891.95
ElecMinimize: 	Predicted alpha/alphaT>3.000000, increasing alphaT to 1.753751e-03.
	Linear fluid (dielectric constant: 78.4, screening length: 5.74355 Bohr) occupying 0.747822 of unit cell:	Completed after 0 iterations at t[s]:    899.42
ElecMinimize: 	Predicted alpha/alphaT>3.000000, increasing alphaT to 5.261252e-03.
	Linear fluid (dielectric constant: 78.4, screening length: 5.74355 Bohr) occupying 0.747822 of unit cell:	Completed after 0 iterations at t[s]:    906.75
ElecMinimize: 	Predicted alpha/alphaT>3.000000, increasing alphaT to 1.578375e-02.
	Linear fluid (dielectric constant: 78.4, screening length: 5.74355 Bohr) occupying 0.747825 of unit cell:	Completed after 2 iterations at t[s]:    914.73
ElecMinimize: 	Step increased G by 9.063115e-09, reducing alpha to 7.913228e-03.
	Linear fluid (dielectric constant: 78.4, screening length: 5.74355 Bohr) occupying 0.747822 of unit cell:	Completed after 0 iterations at t[s]:    928.43
ElecMinimize: 	Step increased G by 2.393676e-08, reducing alpha to 7.913228e-04.
	Linear fluid (dielectric constant: 78.4, screening length: 5.74355 Bohr) occupying 0.747822 of unit cell:	Completed after 0 iterations at t[s]:    941.22
ElecMinimize: 	Step increased G by 2.950514e-08, reducing alpha to 7.913228e-05.
ElecMinimize: 	Step failed to reduce G after 3 attempts. Quitting step.
ElecMinimize: 	Undoing step.
	Linear fluid (dielectric constant: 78.4, screening length: 5.74355 Bohr) occupying 0.747822 of unit cell:	Completed after 0 iterations at t[s]:    954.21
ElecMinimize: 	Step failed: resetting search direction.
	FillingsUpdate:  mu: -0.171251800  nElectrons: 350.866007
	SubspaceRotationAdjust: set factor to 0.759
ElecMinimize: Iter:  34  G: -1645.129990333436581  |grad|_K:  3.963e-08  alpha:  7.913e-05
	Linear fluid (dielectric constant: 78.4, screening length: 5.74355 Bohr) occupying 0.747822 of unit cell:	Completed after 0 iterations at t[s]:    966.64
ElecMinimize: 	Wrong curvature in test step, increasing alphaT to 1.753751e-03.
	Linear fluid (dielectric constant: 78.4, screening length: 5.74355 Bohr) occupying 0.747822 of unit cell:	Completed after 0 iterations at t[s]:    974.39
	FillingsUpdate:  mu: -0.171251800  nElectrons: 350.866006
	SubspaceRotationAdjust: set factor to 0.84
ElecMinimize: Iter:  35  G: -1645.129990333614387  |grad|_K:  4.119e-08  alpha: -1.885e-03  linmin: -2.317e-03  t[s]:    982.25
	Linear fluid (dielectric constant: 78.4, screening length: 5.74355 Bohr) occupying 0.747820 of unit cell:	Completed after 6 iterations at t[s]:    990.45
	Linear fluid (dielectric constant: 78.4, screening length: 5.74355 Bohr) occupying 0.747821 of unit cell:	Completed after 2 iterations at t[s]:    998.44
	FillingsUpdate:  mu: -0.171251800  nElectrons: 350.865301
	SubspaceRotationAdjust: set factor to 0.442
ElecMinimize: Iter:  36  G: -1645.129990483128950  |grad|_K:  1.176e-07  alpha:  1.597e-01  linmin:  1.300e-03  t[s]:   1005.75
	Linear fluid (dielectric constant: 78.4, screening length: 5.74355 Bohr) occupying 0.747819 of unit cell:	Completed after 2 iterations at t[s]:   1011.32
	Linear fluid (dielectric constant: 78.4, screening length: 5.74355 Bohr) occupying 0.747821 of unit cell:	Completed after 3 iterations at t[s]:   1019.93
ElecMinimize: 	Step increased G by 5.756215e-08, reducing alpha to 1.704265e-04.
	Linear fluid (dielectric constant: 78.4, screening length: 5.74355 Bohr) occupying 0.747821 of unit cell:	Completed after 0 iterations at t[s]:   1033.61
ElecMinimize: 	Step increased G by 5.765105e-08, reducing alpha to 1.704265e-05.
	Linear fluid (dielectric constant: 78.4, screening length: 5.74355 Bohr) occupying 0.747821 of unit cell:	Completed after 0 iterations at t[s]:   1045.98
ElecMinimize: 	Step increased G by 5.768425e-08, reducing alpha to 1.704265e-06.
ElecMinimize: 	Step failed to reduce G after 3 attempts. Quitting step.
ElecMinimize: 	Undoing step.
	Linear fluid (dielectric constant: 78.4, screening length: 5.74355 Bohr) occupying 0.747821 of unit cell:	Completed after 0 iterations at t[s]:   1058.16
ElecMinimize: 	Step failed: resetting search direction.
	FillingsUpdate:  mu: -0.171251800  nElectrons: 350.865300
	SubspaceRotationAdjust: set factor to 0.245
ElecMinimize: Iter:  37  G: -1645.129990425434926  |grad|_K:  7.865e-08  alpha:  1.704e-06
	Linear fluid (dielectric constant: 78.4, screening length: 5.74355 Bohr) occupying 0.747822 of unit cell:	Completed after 3 iterations at t[s]:   1074.14
	Linear fluid (dielectric constant: 78.4, screening length: 5.74355 Bohr) occupying 0.747821 of unit cell:	Completed after 1 iterations at t[s]:   1081.69
ElecMinimize: 	Step increased G by 2.210732e-08, reducing alpha to 6.351861e-03.
	Linear fluid (dielectric constant: 78.4, screening length: 5.74355 Bohr) occupying 0.747821 of unit cell:	Completed after 0 iterations at t[s]:   1094.07
ElecMinimize: 	Step increased G by 4.308959e-09, reducing alpha to 6.351861e-04.
	Linear fluid (dielectric constant: 78.4, screening length: 5.74355 Bohr) occupying 0.747821 of unit cell:	Completed after 0 iterations at t[s]:   1106.73
ElecMinimize: 	Step increased G by 2.612069e-09, reducing alpha to 6.351861e-05.
ElecMinimize: 	Step failed to reduce G after 3 attempts. Quitting step.
ElecMinimize: 	Undoing step.
	Linear fluid (dielectric constant: 78.4, screening length: 5.74355 Bohr) occupying 0.747821 of unit cell:	Completed after 0 iterations at t[s]:   1119.41
ElecMinimize: 	Step failed along negative gradient direction.
ElecMinimize: Probably at roundoff error limit. (Stopping)
Setting wave functions to eigenvectors of Hamiltonian

# Ionic positions in lattice coordinates:
ion Te   0.250000000000000   0.287665353925548   0.612909025990712 0
ion Te   0.750000000000000   0.287665353925548   0.612909025990712 0
ion Te   0.000000000000000   0.787665353925548   0.387090974009287 0
ion Te   0.500000000000000   0.787665353925548   0.387090974009287 0
ion Te   0.250000000000000   0.712334646074454   0.612909025990712 0
ion Te   0.750000000000000   0.712334646074454   0.612909025990712 0
ion Te   1.000000000000000   0.212334646074454   0.387090974009287 0
ion Te   0.500000000000000   0.212334646074454   0.387090974009287 0
ion Pd   0.125000000000000   0.250000000000001   0.500000000000000 0
ion Pd   0.625000000000000   0.250000000000001   0.500000000000000 0
ion Pd   0.000000000000000   0.500000000000001   0.433173670539424 0
ion Pd   0.500000000000000   0.500000000000001   0.433173670539424 0
ion Pd   0.125000000000000   0.750000000000001   0.500000000000000 0
ion Pd   0.625000000000000   0.750000000000001   0.500000000000000 0
ion Pd   0.375000000000000   0.250000000000001   0.500000000000000 0
ion Pd   0.875000000000000   0.250000000000001   0.500000000000000 0
ion Pd   0.375000000000000   0.750000000000001   0.500000000000000 0
ion Pd   0.875000000000000   0.750000000000001   0.500000000000000 0
ion Pd   0.250000000000000   0.000000000000001   0.566826329460575 0
ion Pd   0.750000000000000   0.000000000000001   0.566826329460575 0
ion Pb   0.250000000000000   1.000000000000001   0.415789292070383 0
ion Pb   0.750000000000000   1.000000000000001   0.415789292070383 0
ion Pb   1.000000000000000   0.500000000000001   0.584210707929616 0
ion Pb   0.500000000000000   0.500000000000001   0.584210707929616 0
ion Pb   0.250000000000000   0.500000000000001   0.428641468147434 0
ion Pb   0.750000000000000   0.500000000000001   0.428641468147434 0
ion Pb   1.000000000000000   0.000000000000001   0.571358531852565 0
ion Pb   0.500000000000000   0.000000000000001   0.571358531852565 0


# Forces in Lattice coordinates:
force Te   0.000000000000000   0.066078356324386   0.187114454860601 0
force Te  -0.000000000000000   0.066078356324386   0.187114454860715 0
force Te  -0.000000000000000   0.066078356324379  -0.187114454860829 0
force Te  -0.000000000000000   0.066078356324379  -0.187114454860715 0
force Te   0.000000000000000  -0.066078356324371   0.187114454860715 0
force Te   0.000000000000000  -0.066078356324393   0.187114454860715 0
force Te  -0.000000000000000  -0.066078356324386  -0.187114454860828 0
force Te  -0.000000000000000  -0.066078356324386  -0.187114454860716 0
force Pd  -0.000000000000000  -0.000000000000000   0.000000000000000 0
force Pd  -0.000000000000000  -0.000000000000000  -0.000000000000000 0
force Pd   0.000000000000000  -0.000000000000000   0.070914610340645 0
force Pd  -0.000000000000000   0.000000000000000   0.070914610340191 0
force Pd  -0.000000000000000   0.000000000000000  -0.000000000000000 0
force Pd   0.000000000000000  -0.000000000000000  -0.000000000000000 0
force Pd  -0.000000000000000   0.000000000000000  -0.000000000000000 0
force Pd  -0.000000000000000   0.000000000000000  -0.000000000000000 0
force Pd   0.000000000000000  -0.000000000000000   0.000000000000000 0
force Pd   0.000000000000000  -0.000000000000000   0.000000000000000 0
force Pd   0.000000000000000   0.000000000000000  -0.070914610340418 0
force Pd   0.000000000000000   0.000000000000000  -0.070914610340418 0
force Pb  -0.000000000000000   0.000000000000000  -0.059499189419340 0
force Pb  -0.000000000000000  -0.000000000000000  -0.059499189419340 0
force Pb   0.000000000000000   0.000000000000000   0.059499189419794 0
force Pb  -0.000000000000000  -0.000000000000000   0.059499189419339 0
force Pb   0.000000000000000  -0.000000000000000  -0.042657869807663 0
force Pb   0.000000000000000   0.000000000000000  -0.042657869807436 0
force Pb  -0.000000000000000  -0.000000000000000   0.042657869808118 0
force Pb  -0.000000000000000   0.000000000000000   0.042657869808118 0

# Energy components:
   A_diel =        0.0170930369280285
   Eewald =     9043.1591298958865082
       EH =    10515.8419797064361774
     Eloc =   -21386.9456993424755638
      Enl =     -107.3802672087065986
      Exc =     -499.4908327777435488
 Exc_core =      249.7748281525281584
       KE =      479.8201218408501063
  MuShift =        0.0150596490444991
-------------------------------------
     Etot =    -1705.1885870472524402
       TS =        0.0277185606531921
-------------------------------------
        F =    -1705.2163056079057242
      muN =      -60.0863151850751791
-------------------------------------
        G =    -1645.1299904228305877

IonicMinimize: Iter:   0  G: -1645.129990422830588  |grad|_K:  0.000e+00  t[s]:   1132.19
IonicMinimize: Converged (|grad|_K<1.000000e-04).

#--- Lowdin population analysis ---
# oxidation-state Te +0.630 +0.630 +0.630 +0.630 +0.630 +0.630 +0.630 +0.630
# oxidation-state Pd -0.896 -0.896 -0.823 -0.823 -0.896 -0.896 -0.896 -0.896 -0.896 -0.896 -0.823 -0.823
# oxidation-state Pb +0.751 +0.751 +0.751 +0.751 +1.042 +1.042 +1.042 +1.042


Dumping 'NbTe2.fillings' ... done
Dumping 'NbTe2.wfns' ... done
Dumping 'NbTe2.fluidState' ... done
Dumping 'NbTe2.eigenvals' ... done
End date and time: Thu Jul 16 06:58:29 2020  (Duration: 0-0:18:55.02)
Done!
