
*************** JDFTx 1.5.0  ***************


*************** JDFTx 1.5.0  ***************

Start date and time: Fri Jul 17 08:50:08 2020
Executable jdftx_gpu with command-line: -i Charged.in -o Charged.out
Running on hosts (process indices):  amax (0-5)
Divided in process groups (process indices):  0 (0)  1 (1)  2 (2)  3 (3)  4 (4)  5 (5)
gpuInit: Found compatible cuda device 0 'Tesla K80'
gpuInit: Found compatible cuda device 1 'Tesla K80'
gpuInit: Found compatible cuda device 2 'Tesla K80'
gpuInit: Found compatible cuda device 3 'Tesla K80'
gpuInit: Found compatible cuda device 4 'Tesla K80'
gpuInit: Found compatible cuda device 5 'Tesla K80'
gpuInit: Selected device 0
Resource initialization completed at t[s]:      7.21
Run totals: 6 processes, 24 threads, 6 GPUs


Input parsed successfully to the following command list (including defaults):

basis kpoint-dependent
cache-projectors no
coords-type Lattice
core-overlap-check none
coulomb-interaction Slab 001
coulomb-truncation-embed 0 0 0.5
davidson-band-ratio 1.1
dump End State
dump-name NbTe2.$VAR
elec-cutoff 20 100
elec-eigen-algo Davidson
elec-ex-corr gga-PBE
elec-smearing Gauss 0.0073499
electronic-minimize  \
	dirUpdateScheme      FletcherReeves \
	linminMethod         DirUpdateRecommended \
	nIterations          500 \
	history              15 \
	knormThreshold       0 \
	energyDiffThreshold  1e-08 \
	nEnergyDiff          2 \
	alphaTstart          1 \
	alphaTmin            1e-10 \
	updateTestStepSize   yes \
	alphaTreduceFactor   0.1 \
	alphaTincreaseFactor 3 \
	nAlphaAdjustMax      3 \
	wolfeEnergy          0.0001 \
	wolfeGradient        0.9 \
	fdTest               no
exchange-regularization WignerSeitzTruncated
fluid LinearPCM 298.000000 1.013250
fluid-anion F- 1 MeanFieldLJ \
	epsBulk 1 \
	pMol 0 \
	epsInf 1 \
	Pvap 0 \
	sigmaBulk 0 \
	Rvdw 2.24877 \
	Res 0 \
	tauNuc 343133
fluid-cation Na+ 1 MeanFieldLJ \
	epsBulk 1 \
	pMol 0 \
	epsInf 1 \
	Pvap 0 \
	sigmaBulk 0 \
	Rvdw 2.19208 \
	Res 0 \
	tauNuc 343133
fluid-ex-corr lda-TF lda-PZ
fluid-gummel-loop 10 1.000000e-05
fluid-minimize  \
	dirUpdateScheme      PolakRibiere \
	linminMethod         DirUpdateRecommended \
	nIterations          400 \
	history              15 \
	knormThreshold       1e-11 \
	energyDiffThreshold  0 \
	nEnergyDiff          2 \
	alphaTstart          1 \
	alphaTmin            1e-10 \
	updateTestStepSize   yes \
	alphaTreduceFactor   0.1 \
	alphaTincreaseFactor 3 \
	nAlphaAdjustMax      6 \
	wolfeEnergy          0.0001 \
	wolfeGradient        0.9 \
	fdTest               no
fluid-solvent H2O 55.338 ScalarEOS \
	epsBulk 78.4 \
	pMol 0.92466 \
	epsInf 1.77 \
	Pvap 1.06736e-10 \
	sigmaBulk 4.62e-05 \
	Rvdw 2.61727 \
	Res 1.42 \
	tauNuc 343133 \
	poleEl 15 7 1
forces-output-coords Positions
initial-state NbTe2.$VAR
ion Ta   0.211010116660952   0.713074459871324   0.504106293641224 0
ion Ta   0.548170066244649   0.713431583129925   0.497890486218262 0
ion Ta   0.882618484436034   0.715001839879284   0.504762235284241 0
ion Ta   0.112310569072982   0.283286301454314   0.499430708534789 0
ion Ta   0.435589994766016   0.275361168789715   0.488833306426077 0
ion Ta   0.806470283160747   0.279670233870269   0.494068245288165 0
ion Ta   0.302190115539477   0.003268799885502   0.501022628340921 0
ion Ta   0.694499862671220   0.005666340715576   0.500088606053846 0
ion Ta   0.000875040066349   0.003073192661963   0.500582076466456 0
ion Te   0.179504222809373   0.886411248740916   0.392560206032082 0
ion Te   0.515414570192672   0.907360693277483   0.403260795073467 0
ion Te   0.855695634045675   0.888723786031717   0.392974413147870 0
ion Te   0.143396660078813   0.109244423696609   0.611190696683771 0
ion Te   0.481143521854337   0.103143695002373   0.596393282843298 0
ion Te   0.816303205180199   0.115536998148938   0.608521851953569 0
ion Te   0.073311357414621   0.548306296292649   0.421626604408388 0
ion Te   0.409258442949772   0.545158144437223   0.424411902308813 0
ion Te   0.742353789065567   0.544790639135643   0.424970788138253 0
ion Te   0.035217689022994   0.787159866001315   0.609557823102421 0
ion Te   0.371701975977249   0.785021288574362   0.605456245042872 0
ion Te   0.698310374578471   0.788881279354383   0.605518836848310 0
ion Te   0.284141703404443   0.204607654750204   0.388807359003666 0
ion Te   0.634633974268668   0.217686628514475   0.394168385973416 0
ion Te   0.969649842653571   0.205436515885402   0.388207402480616 0
ion Te   0.268133995130771   0.444267803379689   0.578807225166391 0
ion Te   0.917958836754386   0.449247636518723   0.583358451538810 0
ion-species GBRV/$ID_pbe.uspp
ion-width Ecut
ionic-minimize  \
	dirUpdateScheme      L-BFGS \
	linminMethod         DirUpdateRecommended \
	nIterations          0 \
	history              15 \
	knormThreshold       0.0001 \
	energyDiffThreshold  1e-06 \
	nEnergyDiff          2 \
	alphaTstart          1 \
	alphaTmin            1e-10 \
	updateTestStepSize   yes \
	alphaTreduceFactor   0.1 \
	alphaTincreaseFactor 3 \
	nAlphaAdjustMax      3 \
	wolfeEnergy          0.0001 \
	wolfeGradient        0.9 \
	fdTest               no
kpoint   0.000000000000   0.000000000000   0.000000000000  1.00000000000000
kpoint-folding 3 3 1 
latt-move-scale 1 1 1
latt-scale 1 1 1 
lattice Triclinic 19.9959 18.365 36.0545 90 90 79.6035
lattice-minimize  \
	dirUpdateScheme      L-BFGS \
	linminMethod         DirUpdateRecommended \
	nIterations          0 \
	history              15 \
	knormThreshold       0 \
	energyDiffThreshold  1e-06 \
	nEnergyDiff          2 \
	alphaTstart          1 \
	alphaTmin            1e-10 \
	updateTestStepSize   yes \
	alphaTreduceFactor   0.1 \
	alphaTincreaseFactor 3 \
	nAlphaAdjustMax      3 \
	wolfeEnergy          0.0001 \
	wolfeGradient        0.9 \
	fdTest               no
lcao-params -1 1e-06 0.0073499
pcm-variant CANDLE
spintype no-spin
subspace-rotation-factor 1 yes
symmetries automatic
symmetry-threshold 0.0001
target-mu -0.24475 no




---------- Setting up symmetries ----------

Found 4 point-group symmetries of the bravais lattice
Found 1 space-group symmetries with basis
Applied RMS atom displacement 0 bohrs to make symmetries exact.

---------- Initializing the Grid ----------
R = 
[    19.9959    3.31413          0  ]
[          0    18.0635          0  ]
[          0          0    36.0545  ]
unit cell volume = 13022.7
G =
[   0.314224  -0.057651          0  ]
[          0   0.347839          0  ]
[          0          0   0.174269  ]
Minimum fftbox size, Smin = [  92  84  164  ]
Chosen fftbox size, S = [  96  84  168  ]

---------- Initializing tighter grid for wavefunction operations ----------
R = 
[    19.9959    3.31413          0  ]
[          0    18.0635          0  ]
[          0          0    36.0545  ]
unit cell volume = 13022.7
G =
[   0.314224  -0.057651          0  ]
[          0   0.347839          0  ]
[          0          0   0.174269  ]
Minimum fftbox size, Smin = [  84  76  148  ]
Chosen fftbox size, S = [  84  80  150  ]

---------- Exchange Correlation functional ----------
Initalized PBE GGA exchange.
Initalized PBE GGA correlation.

---------- Setting up pseudopotentials ----------
Width of ionic core gaussian charges (only for fluid interactions / plotting) set to 0.397384

Reading pseudopotential file '/home/guoxy/vasp/jdftx-1.5.0/build/pseudopotentials/GBRV/ta_pbe.uspp':
  Title: Ta.  Created by USPP 7.3.6 on 14-9-2013
  Reference state energy: -70.583193.  13 valence electrons in orbitals:
    |500>  occupation: 2  eigenvalue: -2.682396
    |510>  occupation: 6  eigenvalue: -1.447928
    |520>  occupation: 3  eigenvalue: -0.131987
    |600>  occupation: 2  eigenvalue: -0.199982
    |610>  occupation: 0  eigenvalue: -0.051129
  lMax: 3  lLocal: 3  QijEcut: 5
  7 projectors sampled on a log grid with 667 points:
    l: 0  eig: -2.682397  rCut: 1.4
    l: 0  eig: -0.199983  rCut: 1.4
    l: 1  eig: -1.447928  rCut: 1.5
    l: 1  eig: -0.051130  rCut: 1.5
    l: 2  eig: -0.131987  rCut: 1.7
    l: 2  eig: 0.150000  rCut: 1.7
    l: 3  eig: 0.250000  rCut: 2.3
  Partial core density with radius 1.2
  Transforming core density to a uniform radial grid of dG=0.02 with 1369 points.
  Transforming local potential to a uniform radial grid of dG=0.02 with 1369 points.
  Transforming nonlocal projectors to a uniform radial grid of dG=0.02 with 432 points.
  Transforming density augmentations to a uniform radial grid of dG=0.02 with 1369 points.
  Transforming atomic orbitals to a uniform radial grid of dG=0.02 with 432 points.
  Core radius for overlap checks: 2.30 bohrs.

Reading pseudopotential file '/home/guoxy/vasp/jdftx-1.5.0/build/pseudopotentials/GBRV/te_pbe.uspp':
  Title: Te.  Created by USPP 7.3.6 on 14-9-2013
  Reference state energy: -13.134220.  6 valence electrons in orbitals:
    |500>  occupation: 2  eigenvalue: -0.555231
    |510>  occupation: 4  eigenvalue: -0.218781
  lMax: 2  lLocal: 2  QijEcut: 5
  5 projectors sampled on a log grid with 723 points:
    l: 0  eig: -0.555229  rCut: 2.1
    l: 0  eig: 1.000000  rCut: 2.1
    l: 1  eig: -0.218780  rCut: 2.1
    l: 1  eig: 1.000000  rCut: 2.1
    l: 2  eig: 1.000000  rCut: 2.6
  Partial core density with radius 1.8
  Transforming core density to a uniform radial grid of dG=0.02 with 1369 points.
  Transforming local potential to a uniform radial grid of dG=0.02 with 1369 points.
  Transforming nonlocal projectors to a uniform radial grid of dG=0.02 with 432 points.
  Transforming density augmentations to a uniform radial grid of dG=0.02 with 1369 points.
  Transforming atomic orbitals to a uniform radial grid of dG=0.02 with 432 points.
  Core radius for overlap checks: 2.60 bohrs.

Initialized 2 species with 26 total atoms.

Folded 1 k-points by 3x3x1 to 9 k-points.

---------- Setting up k-points, bands, fillings ----------
Adding inversion symmetry to k-mesh for non-inversion-symmetric unit cell.
Reduced to 5 k-points under symmetry. 
Computing the number of bands and number of electrons
Reading initial fillings from file NbTe2.fillings.
nElectrons: 219.000000   nBands: 185   nStates: 5

----- Setting up reduced wavefunction bases (one per k-point) -----
average nbasis = 55646.778 , ideal nbasis = 55634.015

---------- Setting up coulomb interaction ----------
Fluid mode embedding: using embedded box, but periodic Coulomb kernel.
(Fluid response is responsible for (approximate) separation between periodic images.)
Setting up double-sized grid for truncated Coulomb potentials:
R = 
[    19.9959    3.31413          0  ]
[          0    18.0635          0  ]
[          0          0    72.1089  ]
unit cell volume = 26045.4
G =
[   0.314224  -0.057651          0  ]
[          0   0.347839          0  ]
[          0          0  0.0871346  ]
Chosen fftbox size, S = [  96  84  336  ]
Integer grid location selected as the embedding center:
   Grid: [  0  0  84  ]
   Lattice: [  0  0  0.5  ]
   Cartesian: [  0  0  18.0272  ]
Constructing Wigner-Seitz cell: 8 faces (6 quadrilaterals, 2 hexagons)
Range-separation parameter for embedded mesh potentials due to point charges: 0.589883 bohrs.

Initializing van der Waals corrections
	NOTE: vdW corrections apply only for interactions with fluid.
	Ta:  C6:  815.23 Eh-a0^6  R0: 3.326 a0 (WARNING: beyond Grimme's data set)
	Te:  C6:  550.54 Eh-a0^6  R0: 3.575 a0

---------- Setting up ewald sum ----------
Optimum gaussian width for ewald sums = 6.870552 bohr.
Real space sum over 605 unit cells with max indices [  5  5  2  ]
Reciprocal space sum over 5915 terms with max indices [  6  6  17  ]

---------- Allocating electronic variables ----------
Initializing wave functions:  reading from 'NbTe2.wfns'
----- createFluidSolver() ----- (Fluid-side solver setup)
   Initializing fluid molecule 'H2O'
     Initializing site 'O'
       Electron density: proportional to exp(-r/0.36935)*erfc((r-0.51523)/0.36823) with norm 6.826
       Charge density: gaussian nuclear width 0.478731 with net site charge 0.826
       Polarizability: cuspless exponential with width 0.32 and norm 3.73
       Hard sphere radius: 2.57003 bohrs
       Positions in reference frame:
         [ +0.000000 +0.000000 +0.000000 ]
     Initializing site 'H'
       Electron density: proportional to exp(-r/0.34641)*erfc((r-0)/0.390882) with norm 0.587
       Charge density: gaussian nuclear width 0.377945 with net site charge -0.413
       Polarizability: cuspless exponential with width 0.39 and norm 3.3
       Positions in reference frame:
         [ +0.000000 -1.441945 +1.122523 ]
         [ +0.000000 +1.441945 +1.122523 ]
     Net charge: 0   dipole magnitude: 0.927204
     Initializing spherical shell mfKernel with radius 2.61727 Bohr
     deltaS corrections:
       site 'O': -7.54299
       site 'H': -6.83917
   Initializing fluid molecule 'Na+'
     Initializing site 'Na'
       Electron density: proportional to exp(-r/0.19682)*erfc((r-0.71491)/0.41314) with norm 8.1383
       Charge density: gaussian nuclear width 0.365347 with net site charge -1
       Hard sphere radius: 1.86327 bohrs
       Positions in reference frame:
         [ +0.000000 +0.000000 +0.000000 ]
     Net charge: -1   dipole magnitude: 0
     Initializing gaussian mfKernel with width: 1.55004 Bohr
     deltaS corrections:
       site 'Na': -22.3555
   Initializing fluid molecule 'F-'
     Initializing site 'F'
       Electron density: proportional to exp(-r/0.38886)*erfc((r-0)/0.438782) with norm 8
       Charge density: gaussian nuclear width 0.374796 with net site charge 1
       Hard sphere radius: 2.39995 bohrs
       Positions in reference frame:
         [ +0.000000 +0.000000 +0.000000 ]
     Net charge: 1   dipole magnitude: 0
     Initializing gaussian mfKernel with width: 1.59012 Bohr
     deltaS corrections:
       site 'F': -9.04335

Correction to mu due to finite nuclear width = -0.00834281
   Cavity determined by nc: 0.00142 and sigma: 0.707107
   Nonlocal vdW cavity from gaussian model electron density with norm = 8 and sigma = 0.993594 bohr
   Charge asymmetry in cavity with sensitivity pCavity = 36.5 e-bohr/Eh
   Electrostatic cavity expanded by eta = 1.46 bohrs
   Weighted density cavitation model constrained by Nbulk: 0.0049383 bohr^-3, Pvap: 3.14029 kPa, Rvdw: 2.61727 bohr and sigmaBulk: 4.62e-05 Eh/bohr^2 at T: 298 K.
   Weighted density dispersion model using vdW pair potentials with single solvent site with sqrtC6eff: 0.77 SI.
Reading fluid state from 'NbTe2.fluidState'


---- Citations for features of the code used in this run ----

   Software package:
      R. Sundararaman, K. Letchworth-Weaver, K.A. Schwarz, D. Gunceler, Y. Ozhabes and T.A. Arias, 'JDFTx: software for joint density-functional theory', SoftwareX 6, 278 (2017)

   gga-PBE exchange-correlation functional:
      J.P. Perdew, K. Burke and M. Ernzerhof, Phys. Rev. Lett. 77, 3865 (1996)

   Pseudopotentials:
      KF Garrity, JW Bennett, KM Rabe and D Vanderbilt, Comput. Mater. Sci. 81, 446 (2014)

   Truncated Coulomb potentials:
      R. Sundararaman and T.A. Arias, Phys. Rev. B 87, 165122 (2013)

   Van der Waals correction pair-potentials:
      S. Grimme, J. Comput. Chem. 27, 1787 (2006)

   Charge-asymmetric nonlocally-determined local-electric (CANDLE) solvation model:
      R. Sundararaman and W.A. Goddard III, J. Chem. Phys. 142, 064107 (2015)

   Total energy minimization with Auxiliary Hamiltonian:
      C. Freysoldt, S. Boeck, and J. Neugebauer, Phys. Rev. B 79, 241103(R) (2009)

   Grand-canonical (fixed-potential) DFT:
      R. Sundararaman, W. A. Goddard III and T. A. Arias, J. Chem. Phys. 146, 114104 (2017)

This list may not be complete. Please suggest additional citations or
report any other bugs at https://github.com/shankar1729/jdftx/issues

Initialization completed successfully at t[s]:     14.61

Shifting auxilliary hamiltonian by -0.086659 to set nElectrons=219.000000
	Linear fluid (dielectric constant: 78.4, screening length: 5.74355 Bohr) occupying 0.740442 of unit cell:	Completed after 4 iterations at t[s]:     21.34

-------- Electronic minimization -----------
	Linear fluid (dielectric constant: 78.4, screening length: 5.74355 Bohr) occupying 0.740442 of unit cell:	Completed after 0 iterations at t[s]:     28.36
	FillingsUpdate:  mu: -0.244750400  nElectrons: 219.000000
ElecMinimize: Iter:   0  G: -615.867753761419067  |grad|_K:  1.400e-04  alpha:  1.000e+00
	Linear fluid (dielectric constant: 78.4, screening length: 5.74355 Bohr) occupying 0.751826 of unit cell:	Completed after 30 iterations at t[s]:     50.50
	Linear fluid (dielectric constant: 78.4, screening length: 5.74355 Bohr) occupying 0.740534 of unit cell:	Completed after 27 iterations at t[s]:     64.51
	FillingsUpdate:  mu: -0.244750400  nElectrons: 218.691404
	SubspaceRotationAdjust: set factor to 0.501
ElecMinimize: Iter:   1  G: -615.890916165299359  |grad|_K:  1.061e-04  alpha:  1.292e-02  linmin: -1.268e-01  t[s]:     73.86
	Linear fluid (dielectric constant: 78.4, screening length: 5.74355 Bohr) occupying 0.740704 of unit cell:	Completed after 16 iterations at t[s]:     84.66
	Linear fluid (dielectric constant: 78.4, screening length: 5.74355 Bohr) occupying 0.740954 of unit cell:	Completed after 16 iterations at t[s]:     96.34
	FillingsUpdate:  mu: -0.244750400  nElectrons: 217.624748
	SubspaceRotationAdjust: set factor to 0.276
ElecMinimize: Iter:   2  G: -615.919408360170905  |grad|_K:  4.968e-05  alpha:  3.091e-02  linmin:  8.262e-03  t[s]:    103.14
	Linear fluid (dielectric constant: 78.4, screening length: 5.74355 Bohr) occupying 0.741214 of unit cell:	Completed after 12 iterations at t[s]:    111.81
ElecMinimize: 	Predicted alpha/alphaT>3.000000, increasing alphaT to 9.273444e-02.
	Linear fluid (dielectric constant: 78.4, screening length: 5.74355 Bohr) occupying 0.741731 of unit cell:	Completed after 14 iterations at t[s]:    121.98
	Linear fluid (dielectric constant: 78.4, screening length: 5.74355 Bohr) occupying 0.741877 of unit cell:	Completed after 12 iterations at t[s]:    133.15
	FillingsUpdate:  mu: -0.244750400  nElectrons: 216.932463
	SubspaceRotationAdjust: set factor to 0.159
ElecMinimize: Iter:   3  G: -615.928471787485819  |grad|_K:  5.862e-05  alpha:  1.102e-01  linmin:  7.804e-04  t[s]:    139.89
	Linear fluid (dielectric constant: 78.4, screening length: 5.74355 Bohr) occupying 0.743461 of unit cell:	Completed after 16 iterations at t[s]:    149.00
	Linear fluid (dielectric constant: 78.4, screening length: 5.74355 Bohr) occupying 0.744240 of unit cell:	Completed after 16 iterations at t[s]:    163.44
	FillingsUpdate:  mu: -0.244750400  nElectrons: 216.054503
	SubspaceRotationAdjust: set factor to 0.106
	SubspaceRotationAdjust: resetting CG because factor has changed by 0.106182
	Linear fluid (dielectric constant: 78.4, screening length: 5.74355 Bohr) occupying 0.744240 of unit cell:	Completed after 0 iterations at t[s]:    175.92
ElecMinimize: 	State modified externally: resetting search direction.
ElecMinimize: Iter:   4  G: -615.956597243717738  |grad|_K:  3.568e-05  alpha:  1.661e-01
	Linear fluid (dielectric constant: 78.4, screening length: 5.74355 Bohr) occupying 0.744597 of unit cell:	Completed after 15 iterations at t[s]:    191.76
	Linear fluid (dielectric constant: 78.4, screening length: 5.74355 Bohr) occupying 0.744982 of unit cell:	Completed after 16 iterations at t[s]:    204.78
	FillingsUpdate:  mu: -0.244750400  nElectrons: 216.641230
	SubspaceRotationAdjust: set factor to 0.042
ElecMinimize: Iter:   5  G: -615.979751089240267  |grad|_K:  1.456e-05  alpha:  3.444e-01  linmin: -5.228e-03  t[s]:    213.89
	Linear fluid (dielectric constant: 78.4, screening length: 5.74355 Bohr) occupying 0.745690 of unit cell:	Completed after 14 iterations at t[s]:    223.32
	Linear fluid (dielectric constant: 78.4, screening length: 5.74355 Bohr) occupying 0.746832 of unit cell:	Completed after 14 iterations at t[s]:    234.76
	FillingsUpdate:  mu: -0.244750400  nElectrons: 216.523766
	SubspaceRotationAdjust: set factor to 0.0584
ElecMinimize: Iter:   6  G: -615.990100560558176  |grad|_K:  9.011e-06  alpha:  9.024e-01  linmin: -1.393e-04  t[s]:    241.49
	Linear fluid (dielectric constant: 78.4, screening length: 5.74355 Bohr) occupying 0.748133 of unit cell:	Completed after 14 iterations at t[s]:    250.97
	Linear fluid (dielectric constant: 78.4, screening length: 5.74355 Bohr) occupying 0.748288 of unit cell:	Completed after 5 iterations at t[s]:    260.78
	FillingsUpdate:  mu: -0.244750400  nElectrons: 216.389568
	SubspaceRotationAdjust: set factor to 0.0719
ElecMinimize: Iter:   7  G: -615.994352445432241  |grad|_K:  8.183e-06  alpha:  1.012e+00  linmin: -7.457e-05  t[s]:    268.98
	Linear fluid (dielectric constant: 78.4, screening length: 5.74355 Bohr) occupying 0.749648 of unit cell:	Completed after 14 iterations at t[s]:    278.32
	Linear fluid (dielectric constant: 78.4, screening length: 5.74355 Bohr) occupying 0.749619 of unit cell:	Completed after 3 iterations at t[s]:    286.16
	FillingsUpdate:  mu: -0.244750400  nElectrons: 216.169747
	SubspaceRotationAdjust: set factor to 0.0856
ElecMinimize: Iter:   8  G: -615.997778066936917  |grad|_K:  8.837e-06  alpha:  9.895e-01  linmin: -1.130e-05  t[s]:    294.11
	Linear fluid (dielectric constant: 78.4, screening length: 5.74355 Bohr) occupying 0.750961 of unit cell:	Completed after 13 iterations at t[s]:    304.37
	Linear fluid (dielectric constant: 78.4, screening length: 5.74355 Bohr) occupying 0.750444 of unit cell:	Completed after 12 iterations at t[s]:    315.25
	FillingsUpdate:  mu: -0.244750400  nElectrons: 215.999279
	SubspaceRotationAdjust: set factor to 0.101
ElecMinimize: Iter:   9  G: -616.000147867412352  |grad|_K:  8.858e-06  alpha:  5.886e-01  linmin:  4.425e-06  t[s]:    321.51
	Linear fluid (dielectric constant: 78.4, screening length: 5.74355 Bohr) occupying 0.751166 of unit cell:	Completed after 8 iterations at t[s]:    328.49
	Linear fluid (dielectric constant: 78.4, screening length: 5.74355 Bohr) occupying 0.751210 of unit cell:	Completed after 3 iterations at t[s]:    337.09
	FillingsUpdate:  mu: -0.244750400  nElectrons: 215.840577
	SubspaceRotationAdjust: set factor to 0.121
ElecMinimize: Iter:  10  G: -616.002684288017463  |grad|_K:  7.443e-06  alpha:  6.270e-01  linmin: -2.920e-05  t[s]:    344.37
	Linear fluid (dielectric constant: 78.4, screening length: 5.74355 Bohr) occupying 0.751739 of unit cell:	Completed after 10 iterations at t[s]:    353.24
	Linear fluid (dielectric constant: 78.4, screening length: 5.74355 Bohr) occupying 0.751998 of unit cell:	Completed after 6 iterations at t[s]:    362.65
	FillingsUpdate:  mu: -0.244750400  nElectrons: 215.679523
	SubspaceRotationAdjust: set factor to 0.133
ElecMinimize: Iter:  11  G: -616.005471964537833  |grad|_K:  6.930e-06  alpha:  9.698e-01  linmin: -6.321e-05  t[s]:    369.86
	Linear fluid (dielectric constant: 78.4, screening length: 5.74355 Bohr) occupying 0.752757 of unit cell:	Completed after 14 iterations at t[s]:    378.64
	Linear fluid (dielectric constant: 78.4, screening length: 5.74355 Bohr) occupying 0.752627 of unit cell:	Completed after 10 iterations at t[s]:    389.58
	FillingsUpdate:  mu: -0.244750400  nElectrons: 215.544088
	SubspaceRotationAdjust: set factor to 0.139
ElecMinimize: Iter:  12  G: -616.007442307364499  |grad|_K:  6.402e-06  alpha:  7.900e-01  linmin: -7.786e-06  t[s]:    399.27
	Linear fluid (dielectric constant: 78.4, screening length: 5.74355 Bohr) occupying 0.753212 of unit cell:	Completed after 12 iterations at t[s]:    408.09
	Linear fluid (dielectric constant: 78.4, screening length: 5.74355 Bohr) occupying 0.752999 of unit cell:	Completed after 9 iterations at t[s]:    417.22
	FillingsUpdate:  mu: -0.244750400  nElectrons: 215.540750
	SubspaceRotationAdjust: set factor to 0.142
ElecMinimize: Iter:  13  G: -616.008476627503001  |grad|_K:  4.449e-06  alpha:  4.901e-01  linmin:  4.463e-06  t[s]:    425.62
	Linear fluid (dielectric constant: 78.4, screening length: 5.74355 Bohr) occupying 0.753173 of unit cell:	Completed after 7 iterations at t[s]:    434.09
	Linear fluid (dielectric constant: 78.4, screening length: 5.74355 Bohr) occupying 0.753165 of unit cell:	Completed after 2 iterations at t[s]:    442.59
	FillingsUpdate:  mu: -0.244750400  nElectrons: 215.532037
	SubspaceRotationAdjust: set factor to 0.152
ElecMinimize: Iter:  14  G: -616.008953727716175  |grad|_K:  2.966e-06  alpha:  4.677e-01  linmin:  2.381e-06  t[s]:    449.09
	Linear fluid (dielectric constant: 78.4, screening length: 5.74355 Bohr) occupying 0.753211 of unit cell:	Completed after 10 iterations at t[s]:    455.81
	Linear fluid (dielectric constant: 78.4, screening length: 5.74355 Bohr) occupying 0.753213 of unit cell:	Completed after 0 iterations at t[s]:    463.37
	FillingsUpdate:  mu: -0.244750400  nElectrons: 215.524640
	SubspaceRotationAdjust: set factor to 0.162
ElecMinimize: Iter:  15  G: -616.009175207957469  |grad|_K:  1.748e-06  alpha:  4.883e-01  linmin: -1.806e-05  t[s]:    470.20
	Linear fluid (dielectric constant: 78.4, screening length: 5.74355 Bohr) occupying 0.753199 of unit cell:	Completed after 9 iterations at t[s]:    477.33
	Linear fluid (dielectric constant: 78.4, screening length: 5.74355 Bohr) occupying 0.753196 of unit cell:	Completed after 7 iterations at t[s]:    486.76
	FillingsUpdate:  mu: -0.244750400  nElectrons: 215.546071
	SubspaceRotationAdjust: set factor to 0.155
ElecMinimize: Iter:  16  G: -616.009270372796550  |grad|_K:  1.191e-06  alpha:  6.044e-01  linmin:  8.664e-05  t[s]:    493.90
	Linear fluid (dielectric constant: 78.4, screening length: 5.74355 Bohr) occupying 0.753161 of unit cell:	Completed after 10 iterations at t[s]:    501.50
	Linear fluid (dielectric constant: 78.4, screening length: 5.74355 Bohr) occupying 0.753167 of unit cell:	Completed after 5 iterations at t[s]:    510.31
	FillingsUpdate:  mu: -0.244750400  nElectrons: 215.536456
	SubspaceRotationAdjust: set factor to 0.126
ElecMinimize: Iter:  17  G: -616.009306183896001  |grad|_K:  9.187e-07  alpha:  4.910e-01  linmin:  9.315e-05  t[s]:    518.48
	Linear fluid (dielectric constant: 78.4, screening length: 5.74355 Bohr) occupying 0.753142 of unit cell:	Completed after 10 iterations at t[s]:    527.75
	Linear fluid (dielectric constant: 78.4, screening length: 5.74355 Bohr) occupying 0.753143 of unit cell:	Completed after 0 iterations at t[s]:    535.92
	FillingsUpdate:  mu: -0.244750400  nElectrons: 215.551821
	SubspaceRotationAdjust: set factor to 0.11
ElecMinimize: Iter:  18  G: -616.009326381336336  |grad|_K:  6.195e-07  alpha:  4.680e-01  linmin: -7.685e-06  t[s]:    541.93
	Linear fluid (dielectric constant: 78.4, screening length: 5.74355 Bohr) occupying 0.753127 of unit cell:	Completed after 2 iterations at t[s]:    547.08
	Linear fluid (dielectric constant: 78.4, screening length: 5.74355 Bohr) occupying 0.753122 of unit cell:	Completed after 2 iterations at t[s]:    555.42
	FillingsUpdate:  mu: -0.244750400  nElectrons: 215.553930
	SubspaceRotationAdjust: set factor to 0.139
ElecMinimize: Iter:  19  G: -616.009338445146909  |grad|_K:  4.272e-07  alpha:  6.079e-01  linmin: -7.303e-05  t[s]:    562.79
	Linear fluid (dielectric constant: 78.4, screening length: 5.74355 Bohr) occupying 0.753109 of unit cell:	Completed after 7 iterations at t[s]:    571.80
	Linear fluid (dielectric constant: 78.4, screening length: 5.74355 Bohr) occupying 0.753108 of unit cell:	Completed after 0 iterations at t[s]:    579.54
	FillingsUpdate:  mu: -0.244750400  nElectrons: 215.554073
	SubspaceRotationAdjust: set factor to 0.156
ElecMinimize: Iter:  20  G: -616.009344618755563  |grad|_K:  3.593e-07  alpha:  6.476e-01  linmin: -1.012e-04  t[s]:    585.93
	Linear fluid (dielectric constant: 78.4, screening length: 5.74355 Bohr) occupying 0.753098 of unit cell:	Completed after 7 iterations at t[s]:    593.29
	Linear fluid (dielectric constant: 78.4, screening length: 5.74355 Bohr) occupying 0.753099 of unit cell:	Completed after 0 iterations at t[s]:    599.81
	FillingsUpdate:  mu: -0.244750400  nElectrons: 215.560490
	SubspaceRotationAdjust: set factor to 0.148
ElecMinimize: Iter:  21  G: -616.009348427344548  |grad|_K:  3.306e-07  alpha:  5.560e-01  linmin:  1.635e-04  t[s]:    607.19
	Linear fluid (dielectric constant: 78.4, screening length: 5.74355 Bohr) occupying 0.753090 of unit cell:	Completed after 6 iterations at t[s]:    616.50
	Linear fluid (dielectric constant: 78.4, screening length: 5.74355 Bohr) occupying 0.753091 of unit cell:	Completed after 0 iterations at t[s]:    623.32
	FillingsUpdate:  mu: -0.244750400  nElectrons: 215.559817
	SubspaceRotationAdjust: set factor to 0.136
ElecMinimize: Iter:  22  G: -616.009351108882242  |grad|_K:  2.380e-07  alpha:  5.033e-01  linmin: -6.177e-05  t[s]:    630.43
	Linear fluid (dielectric constant: 78.4, screening length: 5.74355 Bohr) occupying 0.753087 of unit cell:	Completed after 3 iterations at t[s]:    634.91
	Linear fluid (dielectric constant: 78.4, screening length: 5.74355 Bohr) occupying 0.753086 of unit cell:	Completed after 0 iterations at t[s]:    642.32
	FillingsUpdate:  mu: -0.244750400  nElectrons: 215.563870
	SubspaceRotationAdjust: set factor to 0.155
ElecMinimize: Iter:  23  G: -616.009353148810419  |grad|_K:  1.881e-07  alpha:  6.703e-01  linmin: -1.444e-04  t[s]:    650.25
	Linear fluid (dielectric constant: 78.4, screening length: 5.74355 Bohr) occupying 0.753083 of unit cell:	Completed after 6 iterations at t[s]:    657.84
	Linear fluid (dielectric constant: 78.4, screening length: 5.74355 Bohr) occupying 0.753084 of unit cell:	Completed after 0 iterations at t[s]:    666.35
	FillingsUpdate:  mu: -0.244750400  nElectrons: 215.565528
	SubspaceRotationAdjust: set factor to 0.132
ElecMinimize: Iter:  24  G: -616.009353896069797  |grad|_K:  2.089e-07  alpha:  4.219e-01  linmin: -4.342e-05  t[s]:    673.65
	Linear fluid (dielectric constant: 78.4, screening length: 5.74355 Bohr) occupying 0.753082 of unit cell:	Completed after 7 iterations at t[s]:    680.40
	Linear fluid (dielectric constant: 78.4, screening length: 5.74355 Bohr) occupying 0.753083 of unit cell:	Completed after 3 iterations at t[s]:    689.53
	FillingsUpdate:  mu: -0.244750400  nElectrons: 215.563925
	SubspaceRotationAdjust: set factor to 0.105
ElecMinimize: Iter:  25  G: -616.009354420566183  |grad|_K:  1.526e-07  alpha:  2.398e-01  linmin:  9.358e-05  t[s]:    697.30
	Linear fluid (dielectric constant: 78.4, screening length: 5.74355 Bohr) occupying 0.753082 of unit cell:	Completed after 0 iterations at t[s]:    701.57
	Linear fluid (dielectric constant: 78.4, screening length: 5.74355 Bohr) occupying 0.753082 of unit cell:	Completed after 0 iterations at t[s]:    710.51
	FillingsUpdate:  mu: -0.244750400  nElectrons: 215.563696
	SubspaceRotationAdjust: set factor to 0.134
ElecMinimize: Iter:  26  G: -616.009354771514950  |grad|_K:  1.039e-07  alpha:  3.105e-01  linmin: -8.768e-08  t[s]:    719.14
	Linear fluid (dielectric constant: 78.4, screening length: 5.74355 Bohr) occupying 0.753081 of unit cell:	Completed after 0 iterations at t[s]:    724.50
	Linear fluid (dielectric constant: 78.4, screening length: 5.74355 Bohr) occupying 0.753081 of unit cell:	Completed after 1 iterations at t[s]:    731.60
	FillingsUpdate:  mu: -0.244750400  nElectrons: 215.564780
	SubspaceRotationAdjust: set factor to 0.164
ElecMinimize: Iter:  27  G: -616.009355056202594  |grad|_K:  8.822e-08  alpha:  5.580e-01  linmin:  7.597e-05  t[s]:    739.04
	Linear fluid (dielectric constant: 78.4, screening length: 5.74355 Bohr) occupying 0.753080 of unit cell:	Completed after 3 iterations at t[s]:    744.91
	Linear fluid (dielectric constant: 78.4, screening length: 5.74355 Bohr) occupying 0.753081 of unit cell:	Completed after 2 iterations at t[s]:    753.81
	FillingsUpdate:  mu: -0.244750400  nElectrons: 215.565652
	SubspaceRotationAdjust: set factor to 0.145
ElecMinimize: Iter:  28  G: -616.009355105739360  |grad|_K:  7.825e-08  alpha:  2.526e-01  linmin:  5.421e-05  t[s]:    761.78
	Linear fluid (dielectric constant: 78.4, screening length: 5.74355 Bohr) occupying 0.753080 of unit cell:	Completed after 0 iterations at t[s]:    766.95
	Linear fluid (dielectric constant: 78.4, screening length: 5.74355 Bohr) occupying 0.753080 of unit cell:	Completed after 0 iterations at t[s]:    773.26
	FillingsUpdate:  mu: -0.244750400  nElectrons: 215.565421
	SubspaceRotationAdjust: set factor to 0.21
ElecMinimize: Iter:  29  G: -616.009355207396084  |grad|_K:  7.491e-08  alpha:  3.344e-01  linmin:  1.267e-07  t[s]:    780.29
	Linear fluid (dielectric constant: 78.4, screening length: 5.74355 Bohr) occupying 0.753078 of unit cell:	Completed after 2 iterations at t[s]:    786.05
	Linear fluid (dielectric constant: 78.4, screening length: 5.74355 Bohr) occupying 0.753079 of unit cell:	Completed after 0 iterations at t[s]:    792.21
	FillingsUpdate:  mu: -0.244750400  nElectrons: 215.564774
	SubspaceRotationAdjust: set factor to 0.173
ElecMinimize: Iter:  30  G: -616.009355257211382  |grad|_K:  7.028e-08  alpha:  1.795e-01  linmin:  1.965e-04  t[s]:    798.06
	Linear fluid (dielectric constant: 78.4, screening length: 5.74355 Bohr) occupying 0.753078 of unit cell:	Completed after 0 iterations at t[s]:    801.07
	Linear fluid (dielectric constant: 78.4, screening length: 5.74355 Bohr) occupying 0.753077 of unit cell:	Completed after 0 iterations at t[s]:    805.11
	FillingsUpdate:  mu: -0.244750400  nElectrons: 215.564767
	SubspaceRotationAdjust: set factor to 0.213
ElecMinimize: Iter:  31  G: -616.009355302155200  |grad|_K:  6.367e-08  alpha:  2.248e-01  linmin:  1.209e-08  t[s]:    809.17
	Linear fluid (dielectric constant: 78.4, screening length: 5.74355 Bohr) occupying 0.753076 of unit cell:	Completed after 2 iterations at t[s]:    812.36
	Linear fluid (dielectric constant: 78.4, screening length: 5.74355 Bohr) occupying 0.753076 of unit cell:	Completed after 0 iterations at t[s]:    815.74
	FillingsUpdate:  mu: -0.244750400  nElectrons: 215.565085
	SubspaceRotationAdjust: set factor to 0.217
ElecMinimize: Iter:  32  G: -616.009355309300076  |grad|_K:  4.613e-08  alpha:  1.238e-01  linmin: -1.118e-04  t[s]:    818.91
	Linear fluid (dielectric constant: 78.4, screening length: 5.74355 Bohr) occupying 0.753076 of unit cell:	Completed after 0 iterations at t[s]:    821.50
	Linear fluid (dielectric constant: 78.4, screening length: 5.74355 Bohr) occupying 0.753075 of unit cell:	Completed after 0 iterations at t[s]:    825.00
	FillingsUpdate:  mu: -0.244750400  nElectrons: 215.565306
	SubspaceRotationAdjust: set factor to 0.264
ElecMinimize: Iter:  33  G: -616.009355343577454  |grad|_K:  3.352e-08  alpha:  2.672e-01  linmin:  8.660e-07  t[s]:    828.65
	Linear fluid (dielectric constant: 78.4, screening length: 5.74355 Bohr) occupying 0.753074 of unit cell:	Completed after 0 iterations at t[s]:    831.15
	Linear fluid (dielectric constant: 78.4, screening length: 5.74355 Bohr) occupying 0.753074 of unit cell:	Completed after 0 iterations at t[s]:    834.83
	FillingsUpdate:  mu: -0.244750400  nElectrons: 215.565254
	SubspaceRotationAdjust: set factor to 0.304
ElecMinimize: Iter:  34  G: -616.009355370325466  |grad|_K:  3.367e-08  alpha:  4.624e-01  linmin:  1.177e-07  t[s]:    838.57
	Linear fluid (dielectric constant: 78.4, screening length: 5.74355 Bohr) occupying 0.753072 of unit cell:	Completed after 0 iterations at t[s]:    841.37
	Linear fluid (dielectric constant: 78.4, screening length: 5.74355 Bohr) occupying 0.753073 of unit cell:	Completed after 0 iterations at t[s]:    845.17
	FillingsUpdate:  mu: -0.244750400  nElectrons: 215.565077
	SubspaceRotationAdjust: set factor to 0.361
ElecMinimize: Iter:  35  G: -616.009355376457506  |grad|_K:  2.508e-08  alpha:  2.312e-01  linmin: -5.837e-05  t[s]:    848.96
	Linear fluid (dielectric constant: 78.4, screening length: 5.74355 Bohr) occupying 0.753073 of unit cell:	Completed after 0 iterations at t[s]:    851.90
	Linear fluid (dielectric constant: 78.4, screening length: 5.74355 Bohr) occupying 0.753073 of unit cell:	Completed after 0 iterations at t[s]:    855.86
	FillingsUpdate:  mu: -0.244750400  nElectrons: 215.564880
	SubspaceRotationAdjust: set factor to 0.416
ElecMinimize: Iter:  36  G: -616.009355389169173  |grad|_K:  2.443e-08  alpha:  3.402e-01  linmin: -2.060e-07  t[s]:    859.18
	Linear fluid (dielectric constant: 78.4, screening length: 5.74355 Bohr) occupying 0.753072 of unit cell:	Completed after 0 iterations at t[s]:    861.91
	Linear fluid (dielectric constant: 78.4, screening length: 5.74355 Bohr) occupying 0.753072 of unit cell:	Completed after 0 iterations at t[s]:    865.54
	FillingsUpdate:  mu: -0.244750400  nElectrons: 215.564678
	SubspaceRotationAdjust: set factor to 0.482
ElecMinimize: Iter:  37  G: -616.009355398377352  |grad|_K:  2.044e-08  alpha:  2.989e-01  linmin:  8.531e-09  t[s]:    869.19
	Linear fluid (dielectric constant: 78.4, screening length: 5.74355 Bohr) occupying 0.753072 of unit cell:	Completed after 0 iterations at t[s]:    871.85
	Linear fluid (dielectric constant: 78.4, screening length: 5.74355 Bohr) occupying 0.753072 of unit cell:	Completed after 0 iterations at t[s]:    875.69
	FillingsUpdate:  mu: -0.244750400  nElectrons: 215.564519
	SubspaceRotationAdjust: set factor to 0.552
ElecMinimize: Iter:  38  G: -616.009355404304301  |grad|_K:  1.802e-08  alpha:  2.753e-01  linmin: -2.858e-08  t[s]:    879.92
ElecMinimize: Converged (|Delta G|<1.000000e-08 for 2 iters).
Setting wave functions to eigenvectors of Hamiltonian

# Ionic positions in lattice coordinates:
ion Ta   0.211010116660952   0.713074459871324   0.504106293641224 0
ion Ta   0.548170066244649   0.713431583129925   0.497890486218262 0
ion Ta   0.882618484436034   0.715001839879284   0.504762235284241 0
ion Ta   0.112310569072982   0.283286301454314   0.499430708534789 0
ion Ta   0.435589994766016   0.275361168789715   0.488833306426077 0
ion Ta   0.806470283160747   0.279670233870269   0.494068245288165 0
ion Ta   0.302190115539477   0.003268799885502   0.501022628340921 0
ion Ta   0.694499862671220   0.005666340715576   0.500088606053846 0
ion Ta   0.000875040066349   0.003073192661963   0.500582076466456 0
ion Te   0.179504222809373   0.886411248740916   0.392560206032082 0
ion Te   0.515414570192672   0.907360693277483   0.403260795073467 0
ion Te   0.855695634045675   0.888723786031717   0.392974413147870 0
ion Te   0.143396660078813   0.109244423696609   0.611190696683771 0
ion Te   0.481143521854337   0.103143695002373   0.596393282843298 0
ion Te   0.816303205180199   0.115536998148938   0.608521851953569 0
ion Te   0.073311357414621   0.548306296292649   0.421626604408388 0
ion Te   0.409258442949772   0.545158144437223   0.424411902308813 0
ion Te   0.742353789065567   0.544790639135643   0.424970788138253 0
ion Te   0.035217689022994   0.787159866001315   0.609557823102421 0
ion Te   0.371701975977249   0.785021288574362   0.605456245042872 0
ion Te   0.698310374578471   0.788881279354383   0.605518836848310 0
ion Te   0.284141703404443   0.204607654750204   0.388807359003666 0
ion Te   0.634633974268668   0.217686628514475   0.394168385973416 0
ion Te   0.969649842653571   0.205436515885402   0.388207402480616 0
ion Te   0.268133995130771   0.444267803379689   0.578807225166391 0
ion Te   0.917958836754386   0.449247636518723   0.583358451538810 0


# Forces in Lattice coordinates:
force Ta  -0.031713547209396  -0.088342802896080  -0.074680031444616 0
force Ta  -0.012773802774578  -0.048975366880456   0.103214462052699 0
force Ta   0.054771482876958  -0.108757139179771  -0.088404469050249 0
force Ta   0.002284451529299   0.142404210194869   0.280172179867467 0
force Ta  -0.022811241936498   0.079001445050800  -0.133125633998953 0
force Ta   0.042575733851174   0.142408549772587  -0.072933403475933 0
force Ta   0.100110724219603  -0.012869782040966   0.064484088261751 0
force Ta  -0.152698180351509   0.015601056309150   0.011794331186180 0
force Ta  -0.005153691703477  -0.011302304803350   0.046221175728863 0
force Te  -0.015528626718943   0.023441456512333  -0.161417869608692 0
force Te  -0.010868630594211  -0.030476006251258  -0.173673332984865 0
force Te   0.029718959495429   0.015590531776814  -0.116676678153269 0
force Te  -0.013524485602767  -0.030929631611852   0.174697746811610 0
force Te   0.011263876610043  -0.028287847990134   0.168808030837096 0
force Te   0.015624503173102  -0.030070270239726   0.180736772655558 0
force Te   0.010354621042941   0.080044006185200   0.183988849001116 0
force Te   0.023758414134595  -0.013257927992507   0.060122188732971 0
force Te  -0.044126635446976  -0.006296269078819   0.030289407285728 0
force Te  -0.001201809802869   0.021259856620090   0.108688846501976 0
force Te   0.032032044287645   0.030337685233951   0.082747010163194 0
force Te  -0.032256058368651   0.007929939164945   0.058617718934580 0
force Te   0.037169364503863   0.016079574165187  -0.138477568246962 0
force Te  -0.020267693976171  -0.005736211032956   0.062685034704313 0
force Te   0.002732688369740   0.001772376269357  -0.152782150872162 0
force Te  -0.026296941134752  -0.075941887731946  -0.258507909608710 0
force Te   0.026182928792477  -0.084392439561976  -0.245443506402979 0

# Energy components:
   A_diel =       -0.3219142230532113
   Eewald =     3373.8386206926838895
       EH =     3821.2991886026425163
     Eloc =    -7754.4299893801407961
      Enl =     -213.4827009634333308
      Exc =     -312.1385703933683544
 Exc_core =      194.4953446225183598
       KE =      221.9865932054891005
  MuShift =        0.0286615631554509
-------------------------------------
     Etot =     -668.7247662735059066
       TS =        0.0440913434705156
-------------------------------------
        F =     -668.7688576169764474
      muN =      -52.7595022126721034
-------------------------------------
        G =     -616.0093554043043014

IonicMinimize: Iter:   0  G: -616.009355404304301  |grad|_K:  0.000e+00  t[s]:    884.01
IonicMinimize: Converged (|grad|_K<1.000000e-04).

#--- Lowdin population analysis ---
# oxidation-state Ta -0.986 -0.818 -0.984 -0.940 -0.850 -0.812 -0.872 -0.886 -0.826
# oxidation-state Te +0.751 +0.770 +0.765 +0.781 +0.709 +0.786 +0.656 +0.679 +0.665 +0.752 +0.745 +0.756 +0.784 +0.711 +0.778 +0.671 +0.667


Dumping 'NbTe2.fillings' ... done
Dumping 'NbTe2.wfns' ... done
Dumping 'NbTe2.fluidState' ... done
Dumping 'NbTe2.eigenvals' ... done
End date and time: Fri Jul 17 09:04:54 2020  (Duration: 0-0:14:45.78)
Done!
