
*************** JDFTx 1.5.0  ***************

Start date and time: Thu Jul 16 08:29:50 2020
Executable jdftx_gpu with command-line: -i Charged.in -o Charged.out
Running on hosts (process indices):  amax (0-5)
Divided in process groups (process indices):  0 (0)  1 (1)  2 (2)  3 (3)  4 (4)  5 (5)
gpuInit: Found compatible cuda device 0 'Tesla K80'
gpuInit: Found compatible cuda device 1 'Tesla K80'
gpuInit: Found compatible cuda device 2 'Tesla K80'
gpuInit: Found compatible cuda device 3 'Tesla K80'
gpuInit: Found compatible cuda device 4 'Tesla K80'
gpuInit: Found compatible cuda device 5 'Tesla K80'
gpuInit: Selected device 0
Resource initialization completed at t[s]:     19.11
Run totals: 6 processes, 24 threads, 6 GPUs


Input parsed successfully to the following command list (including defaults):

basis kpoint-dependent
cache-projectors no
coords-type Lattice
core-overlap-check none
coulomb-interaction Slab 001
coulomb-truncation-embed 0 0 0.5
davidson-band-ratio 1.1
dump End State
dump-name NbTe2.$VAR
elec-cutoff 20 100
elec-eigen-algo Davidson
elec-ex-corr gga-PBE
elec-smearing Gauss 0.0073499
electronic-minimize  \
	dirUpdateScheme      FletcherReeves \
	linminMethod         DirUpdateRecommended \
	nIterations          500 \
	history              15 \
	knormThreshold       0 \
	energyDiffThreshold  1e-08 \
	nEnergyDiff          2 \
	alphaTstart          1 \
	alphaTmin            1e-10 \
	updateTestStepSize   yes \
	alphaTreduceFactor   0.1 \
	alphaTincreaseFactor 3 \
	nAlphaAdjustMax      3 \
	wolfeEnergy          0.0001 \
	wolfeGradient        0.9 \
	fdTest               no
exchange-regularization WignerSeitzTruncated
fluid LinearPCM 298.000000 1.013250
fluid-anion F- 1 MeanFieldLJ \
	epsBulk 1 \
	pMol 0 \
	epsInf 1 \
	Pvap 0 \
	sigmaBulk 0 \
	Rvdw 2.24877 \
	Res 0 \
	tauNuc 343133
fluid-cation Na+ 1 MeanFieldLJ \
	epsBulk 1 \
	pMol 0 \
	epsInf 1 \
	Pvap 0 \
	sigmaBulk 0 \
	Rvdw 2.19208 \
	Res 0 \
	tauNuc 343133
fluid-ex-corr lda-TF lda-PZ
fluid-gummel-loop 10 1.000000e-05
fluid-minimize  \
	dirUpdateScheme      PolakRibiere \
	linminMethod         DirUpdateRecommended \
	nIterations          400 \
	history              15 \
	knormThreshold       1e-11 \
	energyDiffThreshold  0 \
	nEnergyDiff          2 \
	alphaTstart          1 \
	alphaTmin            1e-10 \
	updateTestStepSize   yes \
	alphaTreduceFactor   0.1 \
	alphaTincreaseFactor 3 \
	nAlphaAdjustMax      6 \
	wolfeEnergy          0.0001 \
	wolfeGradient        0.9 \
	fdTest               no
fluid-solvent H2O 55.338 ScalarEOS \
	epsBulk 78.4 \
	pMol 0.92466 \
	epsInf 1.77 \
	Pvap 1.06736e-10 \
	sigmaBulk 4.62e-05 \
	Rvdw 2.61727 \
	Res 1.42 \
	tauNuc 343133 \
	poleEl 15 7 1
forces-output-coords Positions
initial-state NbTe2.$VAR
ion Te   0.264578727188149   0.293225778340057   0.609031877762474 0
ion Te   0.735421292811853   0.293225778340057   0.609031877762474 0
ion Te   0.000000000000000   0.788266891076550   0.390898338331579 0
ion Te   0.500000000000000   0.784589116180071   0.380766557007455 0
ion Te   0.264578727188149   0.706774221659943   0.609031877762474 0
ion Te   0.735421292811853   0.706774221659943   0.609031877762474 0
ion Te   0.000000000000000   0.211733163923452   0.390898338331579 0
ion Te   0.500000000000000   0.215410938819930   0.380766557007455 0
ion Pd   0.123947799282042   0.251872353082045   0.504342663004432 0
ion Pd   0.622941695060638   0.243364881743885   0.494449792283614 0
ion Pd   0.000000000000000   0.499999944999999   0.437609022447548 0
ion Pd   0.500000000000000   0.499999944999999   0.431217929735757 0
ion Pd   0.123947809282043   0.748127673917953   0.504342663004432 0
ion Pd   0.622941695060638   0.756635145256114   0.494449792283614 0
ion Pd   0.377058304939361   0.243364881743885   0.494449792283614 0
ion Pd   0.876052190717957   0.251872353082045   0.504342663004432 0
ion Pd   0.377058304939361   0.756635145256114   0.494449792283614 0
ion Pd   0.876052190717957   0.748127673917953   0.504342663004432 0
ion Pd   0.248604004423193   0.000000000000000   0.566184194131648 0
ion Pd   0.751396015576809   0.000000000000000   0.566184194131648 0
ion Pb   0.251128639659875   0.000000000000000   0.415572690805236 0
ion Pb   0.748871380340127   0.000000000000000   0.415572690805236 0
ion Pb   0.000000000000000   0.500000000000000   0.589219183273141 0
ion Pb   0.251664621972508   0.500000000000000   0.435759671757952 0
ion Pb   0.748335398027494   0.500000000000000   0.435759671757952 0
ion Pb   0.000000000000000   0.000000000000000   0.574308639259319 0
ion Pb   0.500000000000000   0.000000000000000   0.573481043014405 0
ion-species GBRV/$ID_pbe.uspp
ion-width Ecut
ionic-minimize  \
	dirUpdateScheme      L-BFGS \
	linminMethod         DirUpdateRecommended \
	nIterations          0 \
	history              15 \
	knormThreshold       0.0001 \
	energyDiffThreshold  1e-06 \
	nEnergyDiff          2 \
	alphaTstart          1 \
	alphaTmin            1e-10 \
	updateTestStepSize   yes \
	alphaTreduceFactor   0.1 \
	alphaTincreaseFactor 3 \
	nAlphaAdjustMax      3 \
	wolfeEnergy          0.0001 \
	wolfeGradient        0.9 \
	fdTest               no
kpoint   0.000000000000   0.000000000000   0.000000000000  1.00000000000000
kpoint-folding 3 4 1 
latt-move-scale 1 1 1
latt-scale 1 1 1 
lattice Triclinic 22.0202 16.2852 36.691 90 90 90
lattice-minimize  \
	dirUpdateScheme      L-BFGS \
	linminMethod         DirUpdateRecommended \
	nIterations          0 \
	history              15 \
	knormThreshold       0 \
	energyDiffThreshold  1e-06 \
	nEnergyDiff          2 \
	alphaTstart          1 \
	alphaTmin            1e-10 \
	updateTestStepSize   yes \
	alphaTreduceFactor   0.1 \
	alphaTincreaseFactor 3 \
	nAlphaAdjustMax      3 \
	wolfeEnergy          0.0001 \
	wolfeGradient        0.9 \
	fdTest               no
lcao-params -1 1e-06 0.0073499
pcm-variant CANDLE
spintype no-spin
subspace-rotation-factor 1 yes
symmetries automatic
symmetry-threshold 0.0001
target-mu -0.171252 no




---------- Setting up symmetries ----------

Found 8 point-group symmetries of the bravais lattice
Found 4 space-group symmetries with basis
Applied RMS atom displacement 3.36357e-07 bohrs to make symmetries exact.

---------- Initializing the Grid ----------
R = 
[    22.0202          0          0  ]
[          0    16.2852          0  ]
[          0          0     36.691  ]
unit cell volume = 13157.6
G =
[   0.285337          0          0  ]
[          0   0.385821          0  ]
[          0          0   0.171246  ]
Minimum fftbox size, Smin = [  100  76  168  ]
Chosen fftbox size, S = [  100  80  168  ]

---------- Initializing tighter grid for wavefunction operations ----------
R = 
[    22.0202          0          0  ]
[          0    16.2852          0  ]
[          0          0     36.691  ]
unit cell volume = 13157.6
G =
[   0.285337          0          0  ]
[          0   0.385821          0  ]
[          0          0   0.171246  ]
Minimum fftbox size, Smin = [  92  68  148  ]
Chosen fftbox size, S = [  96  70  150  ]

---------- Exchange Correlation functional ----------
Initalized PBE GGA exchange.
Initalized PBE GGA correlation.

---------- Setting up pseudopotentials ----------
Width of ionic core gaussian charges (only for fluid interactions / plotting) set to 0.397384

Reading pseudopotential file '/home/guoxy/vasp/jdftx-1.5.0/build/pseudopotentials/GBRV/te_pbe.uspp':
  Title: Te.  Created by USPP 7.3.6 on 14-9-2013
  Reference state energy: -13.134220.  6 valence electrons in orbitals:
    |500>  occupation: 2  eigenvalue: -0.555231
    |510>  occupation: 4  eigenvalue: -0.218781
  lMax: 2  lLocal: 2  QijEcut: 5
  5 projectors sampled on a log grid with 723 points:
    l: 0  eig: -0.555229  rCut: 2.1
    l: 0  eig: 1.000000  rCut: 2.1
    l: 1  eig: -0.218780  rCut: 2.1
    l: 1  eig: 1.000000  rCut: 2.1
    l: 2  eig: 1.000000  rCut: 2.6
  Partial core density with radius 1.8
  Transforming core density to a uniform radial grid of dG=0.02 with 1279 points.
  Transforming local potential to a uniform radial grid of dG=0.02 with 1279 points.
  Transforming nonlocal projectors to a uniform radial grid of dG=0.02 with 432 points.
  Transforming density augmentations to a uniform radial grid of dG=0.02 with 1279 points.
  Transforming atomic orbitals to a uniform radial grid of dG=0.02 with 432 points.
  Core radius for overlap checks: 2.60 bohrs.

Reading pseudopotential file '/home/guoxy/vasp/jdftx-1.5.0/build/pseudopotentials/GBRV/pd_pbe.uspp':
  Title: Pd.  Created by USPP 7.3.6 on 31-3-15
  Reference state energy: -99.095797.  16 valence electrons in orbitals:
    |410>  occupation: 6  eigenvalue: -2.075344
    |420>  occupation: 9.5  eigenvalue: -0.331049
    |500>  occupation: 0  eigenvalue: -0.255738
    |510>  occupation: 0  eigenvalue: -0.109005
  lMax: 2  lLocal: 3  QijEcut: 6
  6 projectors sampled on a log grid with 717 points:
    l: 0  eig: -0.255738  rCut: 2.5
    l: 0  eig: 1.000000  rCut: 2.5
    l: 1  eig: -2.075343  rCut: 1.53
    l: 1  eig: -0.109006  rCut: 1.53
    l: 2  eig: -0.331048  rCut: 1.63
    l: 2  eig: 1.500000  rCut: 1.63
  Partial core density with radius 1
  Transforming core density to a uniform radial grid of dG=0.02 with 1279 points.
  Transforming local potential to a uniform radial grid of dG=0.02 with 1279 points.
  Transforming nonlocal projectors to a uniform radial grid of dG=0.02 with 432 points.
  Transforming density augmentations to a uniform radial grid of dG=0.02 with 1279 points.
  Transforming atomic orbitals to a uniform radial grid of dG=0.02 with 432 points.
  Core radius for overlap checks: 2.50 bohrs.

Reading pseudopotential file '/home/guoxy/vasp/jdftx-1.5.0/build/pseudopotentials/GBRV/pb_pbe.uspp':
  Title: Pb.  Created by USPP 7.3.6 on 14-9-2013
  Reference state energy: -81.948189.  14 valence electrons in orbitals:
    |520>  occupation: 10  eigenvalue: -0.778257
    |600>  occupation: 2  eigenvalue: -0.442466
    |610>  occupation: 2  eigenvalue: -0.128540
  lMax: 2  lLocal: 3  QijEcut: 5
  6 projectors sampled on a log grid with 747 points:
    l: 0  eig: -0.442463  rCut: 2.3
    l: 0  eig: 1.000000  rCut: 2.3
    l: 1  eig: -0.128540  rCut: 2.3
    l: 1  eig: 1.000000  rCut: 2.3
    l: 2  eig: -0.778256  rCut: 2.1
    l: 2  eig: 0.000000  rCut: 2.1
  Partial core density with radius 1
  Transforming core density to a uniform radial grid of dG=0.02 with 1279 points.
  Transforming local potential to a uniform radial grid of dG=0.02 with 1279 points.
  Transforming nonlocal projectors to a uniform radial grid of dG=0.02 with 432 points.
  Transforming density augmentations to a uniform radial grid of dG=0.02 with 1279 points.
  Transforming atomic orbitals to a uniform radial grid of dG=0.02 with 432 points.
  Core radius for overlap checks: 2.30 bohrs.

Initialized 3 species with 27 total atoms.

Folded 1 k-points by 3x4x1 to 12 k-points.

---------- Setting up k-points, bands, fillings ----------
Reduced to 6 k-points under symmetry. 
Computing the number of bands and number of electrons
Reading initial fillings from file NbTe2.fillings.
nElectrons: 338.000000   nBands: 239   nStates: 6

----- Setting up reduced wavefunction bases (one per k-point) -----
average nbasis = 56208.583 , ideal nbasis = 56210.211

---------- Setting up coulomb interaction ----------
Fluid mode embedding: using embedded box, but periodic Coulomb kernel.
(Fluid response is responsible for (approximate) separation between periodic images.)
Setting up double-sized grid for truncated Coulomb potentials:
R = 
[    22.0202          0          0  ]
[          0    16.2852          0  ]
[          0          0    73.3821  ]
unit cell volume = 26315.2
G =
[   0.285337          0          0  ]
[          0   0.385821          0  ]
[          0          0  0.0856229  ]
Chosen fftbox size, S = [  100  80  336  ]
Integer grid location selected as the embedding center:
   Grid: [  0  0  84  ]
   Lattice: [  0  0  0.5  ]
   Cartesian: [  0  0  18.3455  ]
Constructing Wigner-Seitz cell: 6 faces (6 quadrilaterals, 0 hexagons)
Range-separation parameter for embedded mesh potentials due to point charges: 0.591999 bohrs.

Initializing van der Waals corrections
	NOTE: vdW corrections apply only for interactions with fluid.
	Te:  C6:  550.54 Eh-a0^6  R0: 3.575 a0
	Pd:  C6:  427.91 Eh-a0^6  R0: 3.097 a0
	Pb:  C6:  881.14 Eh-a0^6  R0: 3.432 a0 (WARNING: beyond Grimme's data set)

---------- Setting up ewald sum ----------
Optimum gaussian width for ewald sums = 6.850961 bohr.
Real space sum over 495 unit cells with max indices [  4  5  2  ]
Reciprocal space sum over 5291 terms with max indices [  6  5  18  ]

---------- Allocating electronic variables ----------
Initializing wave functions:  reading from 'NbTe2.wfns'
----- createFluidSolver() ----- (Fluid-side solver setup)
   Initializing fluid molecule 'H2O'
     Initializing site 'O'
       Electron density: proportional to exp(-r/0.36935)*erfc((r-0.51523)/0.36823) with norm 6.826
       Charge density: gaussian nuclear width 0.478731 with net site charge 0.826
       Polarizability: cuspless exponential with width 0.32 and norm 3.73
       Hard sphere radius: 2.57003 bohrs
       Positions in reference frame:
         [ +0.000000 +0.000000 +0.000000 ]
     Initializing site 'H'
       Electron density: proportional to exp(-r/0.34641)*erfc((r-0)/0.390882) with norm 0.587
       Charge density: gaussian nuclear width 0.377945 with net site charge -0.413
       Polarizability: cuspless exponential with width 0.39 and norm 3.3
       Positions in reference frame:
         [ +0.000000 -1.441945 +1.122523 ]
         [ +0.000000 +1.441945 +1.122523 ]
     Net charge: 0   dipole magnitude: 0.927204
     Initializing spherical shell mfKernel with radius 2.61727 Bohr
     deltaS corrections:
       site 'O': -7.54299
       site 'H': -6.83917
   Initializing fluid molecule 'Na+'
     Initializing site 'Na'
       Electron density: proportional to exp(-r/0.19682)*erfc((r-0.71491)/0.41314) with norm 8.1383
       Charge density: gaussian nuclear width 0.365347 with net site charge -1
       Hard sphere radius: 1.86327 bohrs
       Positions in reference frame:
         [ +0.000000 +0.000000 +0.000000 ]
     Net charge: -1   dipole magnitude: 0
     Initializing gaussian mfKernel with width: 1.55004 Bohr
     deltaS corrections:
       site 'Na': -22.3555
   Initializing fluid molecule 'F-'
     Initializing site 'F'
       Electron density: proportional to exp(-r/0.38886)*erfc((r-0)/0.438782) with norm 8
       Charge density: gaussian nuclear width 0.374796 with net site charge 1
       Hard sphere radius: 2.39995 bohrs
       Positions in reference frame:
         [ +0.000000 +0.000000 +0.000000 ]
     Net charge: 1   dipole magnitude: 0
     Initializing gaussian mfKernel with width: 1.59012 Bohr
     deltaS corrections:
       site 'F': -9.04335

Correction to mu due to finite nuclear width = -0.0127441
   Cavity determined by nc: 0.00142 and sigma: 0.707107
   Nonlocal vdW cavity from gaussian model electron density with norm = 8 and sigma = 0.993594 bohr
   Charge asymmetry in cavity with sensitivity pCavity = 36.5 e-bohr/Eh
   Electrostatic cavity expanded by eta = 1.46 bohrs
   Weighted density cavitation model constrained by Nbulk: 0.0049383 bohr^-3, Pvap: 3.14029 kPa, Rvdw: 2.61727 bohr and sigmaBulk: 4.62e-05 Eh/bohr^2 at T: 298 K.
   Weighted density dispersion model using vdW pair potentials with single solvent site with sqrtC6eff: 0.77 SI.
Reading fluid state from 'NbTe2.fluidState'


---- Citations for features of the code used in this run ----

   Software package:
      R. Sundararaman, K. Letchworth-Weaver, K.A. Schwarz, D. Gunceler, Y. Ozhabes and T.A. Arias, 'JDFTx: software for joint density-functional theory', SoftwareX 6, 278 (2017)

   gga-PBE exchange-correlation functional:
      J.P. Perdew, K. Burke and M. Ernzerhof, Phys. Rev. Lett. 77, 3865 (1996)

   Pseudopotentials:
      KF Garrity, JW Bennett, KM Rabe and D Vanderbilt, Comput. Mater. Sci. 81, 446 (2014)

   Truncated Coulomb potentials:
      R. Sundararaman and T.A. Arias, Phys. Rev. B 87, 165122 (2013)

   Van der Waals correction pair-potentials:
      S. Grimme, J. Comput. Chem. 27, 1787 (2006)

   Charge-asymmetric nonlocally-determined local-electric (CANDLE) solvation model:
      R. Sundararaman and W.A. Goddard III, J. Chem. Phys. 142, 064107 (2015)

   Total energy minimization with Auxiliary Hamiltonian:
      C. Freysoldt, S. Boeck, and J. Neugebauer, Phys. Rev. B 79, 241103(R) (2009)

   Grand-canonical (fixed-potential) DFT:
      R. Sundararaman, W. A. Goddard III and T. A. Arias, J. Chem. Phys. 146, 114104 (2017)

This list may not be complete. Please suggest additional citations or
report any other bugs at https://github.com/shankar1729/jdftx/issues

Initialization completed successfully at t[s]:     25.60

Shifting auxilliary hamiltonian by -0.024403 to set nElectrons=338.000000
	Linear fluid (dielectric constant: 78.4, screening length: 5.74355 Bohr) occupying 0.745389 of unit cell:	Completed after 3 iterations at t[s]:     28.91

-------- Electronic minimization -----------
	Linear fluid (dielectric constant: 78.4, screening length: 5.74355 Bohr) occupying 0.745389 of unit cell:	Completed after 0 iterations at t[s]:     32.57
	FillingsUpdate:  mu: -0.171251800  nElectrons: 338.000000
ElecMinimize: Iter:   0  G: -1586.490705237400562  |grad|_K:  3.150e-05  alpha:  1.000e+00
	Linear fluid (dielectric constant: 78.4, screening length: 5.74355 Bohr) occupying 0.747832 of unit cell:	Completed after 22 iterations at t[s]:     43.01
	Linear fluid (dielectric constant: 78.4, screening length: 5.74355 Bohr) occupying 0.745421 of unit cell:	Completed after 23 iterations at t[s]:     49.87
	FillingsUpdate:  mu: -0.171251800  nElectrons: 337.825169
	SubspaceRotationAdjust: set factor to 0.507
ElecMinimize: Iter:   1  G: -1586.493949863885973  |grad|_K:  1.737e-05  alpha:  2.643e-02  linmin: -3.956e-02  t[s]:     53.81
	Linear fluid (dielectric constant: 78.4, screening length: 5.74355 Bohr) occupying 0.745503 of unit cell:	Completed after 14 iterations at t[s]:     59.62
	Linear fluid (dielectric constant: 78.4, screening length: 5.74355 Bohr) occupying 0.745554 of unit cell:	Completed after 13 iterations at t[s]:     66.09
	FillingsUpdate:  mu: -0.171251800  nElectrons: 337.589114
	SubspaceRotationAdjust: set factor to 0.32
ElecMinimize: Iter:   2  G: -1586.495521217270607  |grad|_K:  9.700e-06  alpha:  4.273e-02  linmin:  4.531e-04  t[s]:     69.94
	Linear fluid (dielectric constant: 78.4, screening length: 5.74355 Bohr) occupying 0.745663 of unit cell:	Completed after 10 iterations at t[s]:     75.10
ElecMinimize: 	Predicted alpha/alphaT>3.000000, increasing alphaT to 1.281936e-01.
	Linear fluid (dielectric constant: 78.4, screening length: 5.74355 Bohr) occupying 0.745879 of unit cell:	Completed after 12 iterations at t[s]:     82.17
	Linear fluid (dielectric constant: 78.4, screening length: 5.74355 Bohr) occupying 0.746054 of unit cell:	Completed after 12 iterations at t[s]:     89.87
	FillingsUpdate:  mu: -0.171251800  nElectrons: 337.309145
	SubspaceRotationAdjust: set factor to 0.183
ElecMinimize: Iter:   3  G: -1586.496966135756111  |grad|_K:  1.188e-05  alpha:  1.979e-01  linmin:  1.611e-04  t[s]:     94.39
	Linear fluid (dielectric constant: 78.4, screening length: 5.74355 Bohr) occupying 0.746977 of unit cell:	Completed after 8 iterations at t[s]:     99.14
	Linear fluid (dielectric constant: 78.4, screening length: 5.74355 Bohr) occupying 0.746720 of unit cell:	Completed after 7 iterations at t[s]:    104.78
	FillingsUpdate:  mu: -0.171251800  nElectrons: 337.157908
	SubspaceRotationAdjust: set factor to 0.165
ElecMinimize: Iter:   4  G: -1586.498555572859686  |grad|_K:  7.258e-06  alpha:  1.419e-01  linmin: -5.641e-06  t[s]:    108.73
	Linear fluid (dielectric constant: 78.4, screening length: 5.74355 Bohr) occupying 0.747044 of unit cell:	Completed after 13 iterations at t[s]:    114.30
	Linear fluid (dielectric constant: 78.4, screening length: 5.74355 Bohr) occupying 0.747187 of unit cell:	Completed after 11 iterations at t[s]:    120.74
	FillingsUpdate:  mu: -0.171251800  nElectrons: 337.163700
	SubspaceRotationAdjust: set factor to 0.187
ElecMinimize: Iter:   5  G: -1586.499432105627875  |grad|_K:  5.844e-06  alpha:  2.051e-01  linmin: -7.406e-05  t[s]:    125.28
	Linear fluid (dielectric constant: 78.4, screening length: 5.74355 Bohr) occupying 0.747588 of unit cell:	Completed after 12 iterations at t[s]:    131.14
	Linear fluid (dielectric constant: 78.4, screening length: 5.74355 Bohr) occupying 0.747695 of unit cell:	Completed after 10 iterations at t[s]:    137.12
	FillingsUpdate:  mu: -0.171251800  nElectrons: 337.168359
	SubspaceRotationAdjust: set factor to 0.162
ElecMinimize: Iter:   6  G: -1586.500158659745011  |grad|_K:  5.341e-06  alpha:  2.605e-01  linmin: -2.799e-05  t[s]:    141.23
	Linear fluid (dielectric constant: 78.4, screening length: 5.74355 Bohr) occupying 0.748223 of unit cell:	Completed after 14 iterations at t[s]:    147.53
	Linear fluid (dielectric constant: 78.4, screening length: 5.74355 Bohr) occupying 0.748133 of unit cell:	Completed after 4 iterations at t[s]:    152.42
	FillingsUpdate:  mu: -0.171251800  nElectrons: 337.120319
	SubspaceRotationAdjust: set factor to 0.258
ElecMinimize: Iter:   7  G: -1586.500656661936546  |grad|_K:  4.117e-06  alpha:  2.156e-01  linmin: -3.673e-06  t[s]:    156.37
	Linear fluid (dielectric constant: 78.4, screening length: 5.74355 Bohr) occupying 0.748458 of unit cell:	Completed after 12 iterations at t[s]:    161.82
	Linear fluid (dielectric constant: 78.4, screening length: 5.74355 Bohr) occupying 0.748520 of unit cell:	Completed after 8 iterations at t[s]:    167.84
	FillingsUpdate:  mu: -0.171251800  nElectrons: 337.061107
	SubspaceRotationAdjust: set factor to 0.262
ElecMinimize: Iter:   8  G: -1586.501007567301713  |grad|_K:  3.685e-06  alpha:  2.568e-01  linmin:  5.478e-05  t[s]:    172.36
	Linear fluid (dielectric constant: 78.4, screening length: 5.74355 Bohr) occupying 0.748893 of unit cell:	Completed after 8 iterations at t[s]:    177.77
	Linear fluid (dielectric constant: 78.4, screening length: 5.74355 Bohr) occupying 0.748863 of unit cell:	Completed after 2 iterations at t[s]:    182.53
	FillingsUpdate:  mu: -0.171251800  nElectrons: 337.044735
	SubspaceRotationAdjust: set factor to 0.333
ElecMinimize: Iter:   9  G: -1586.501263980115482  |grad|_K:  2.896e-06  alpha:  2.356e-01  linmin:  4.310e-06  t[s]:    186.85
	Linear fluid (dielectric constant: 78.4, screening length: 5.74355 Bohr) occupying 0.749105 of unit cell:	Completed after 10 iterations at t[s]:    192.08
	Linear fluid (dielectric constant: 78.4, screening length: 5.74355 Bohr) occupying 0.749080 of unit cell:	Completed after 5 iterations at t[s]:    197.33
	FillingsUpdate:  mu: -0.171251800  nElectrons: 337.063709
	SubspaceRotationAdjust: set factor to 0.334
ElecMinimize: Iter:  10  G: -1586.501407034869999  |grad|_K:  2.531e-06  alpha:  2.114e-01  linmin:  1.114e-05  t[s]:    201.38
	Linear fluid (dielectric constant: 78.4, screening length: 5.74355 Bohr) occupying 0.749255 of unit cell:	Completed after 9 iterations at t[s]:    206.53
	Linear fluid (dielectric constant: 78.4, screening length: 5.74355 Bohr) occupying 0.749322 of unit cell:	Completed after 8 iterations at t[s]:    212.07
	FillingsUpdate:  mu: -0.171251800  nElectrons: 337.066886
	SubspaceRotationAdjust: set factor to 0.413
ElecMinimize: Iter:  11  G: -1586.501558234882395  |grad|_K:  2.335e-06  alpha:  2.929e-01  linmin:  9.870e-06  t[s]:    216.81
	Linear fluid (dielectric constant: 78.4, screening length: 5.74355 Bohr) occupying 0.749505 of unit cell:	Completed after 12 iterations at t[s]:    222.98
	Linear fluid (dielectric constant: 78.4, screening length: 5.74355 Bohr) occupying 0.749440 of unit cell:	Completed after 10 iterations at t[s]:    228.92
	FillingsUpdate:  mu: -0.171251800  nElectrons: 337.047257
	SubspaceRotationAdjust: set factor to 0.379
ElecMinimize: Iter:  12  G: -1586.501641386861820  |grad|_K:  1.785e-06  alpha:  1.885e-01  linmin:  3.558e-06  t[s]:    233.29
	Linear fluid (dielectric constant: 78.4, screening length: 5.74355 Bohr) occupying 0.749491 of unit cell:	Completed after 3 iterations at t[s]:    237.25
	Linear fluid (dielectric constant: 78.4, screening length: 5.74355 Bohr) occupying 0.749518 of unit cell:	Completed after 3 iterations at t[s]:    242.28
	FillingsUpdate:  mu: -0.171251800  nElectrons: 337.048993
	SubspaceRotationAdjust: set factor to 0.457
ElecMinimize: Iter:  13  G: -1586.501716403387718  |grad|_K:  1.655e-06  alpha:  2.917e-01  linmin:  8.376e-06  t[s]:    246.40
	Linear fluid (dielectric constant: 78.4, screening length: 5.74355 Bohr) occupying 0.749547 of unit cell:	Completed after 10 iterations at t[s]:    251.47
	Linear fluid (dielectric constant: 78.4, screening length: 5.74355 Bohr) occupying 0.749537 of unit cell:	Completed after 8 iterations at t[s]:    257.15
	FillingsUpdate:  mu: -0.171251800  nElectrons: 337.068362
	SubspaceRotationAdjust: set factor to 0.399
ElecMinimize: Iter:  14  G: -1586.501759355198601  |grad|_K:  1.252e-06  alpha:  1.939e-01  linmin:  2.697e-05  t[s]:    261.82
	Linear fluid (dielectric constant: 78.4, screening length: 5.74355 Bohr) occupying 0.749518 of unit cell:	Completed after 8 iterations at t[s]:    267.37
	Linear fluid (dielectric constant: 78.4, screening length: 5.74355 Bohr) occupying 0.749512 of unit cell:	Completed after 2 iterations at t[s]:    272.65
	FillingsUpdate:  mu: -0.171251800  nElectrons: 337.067241
	SubspaceRotationAdjust: set factor to 0.491
ElecMinimize: Iter:  15  G: -1586.501790376561075  |grad|_K:  9.299e-07  alpha:  2.452e-01  linmin: -8.731e-05  t[s]:    276.76
	Linear fluid (dielectric constant: 78.4, screening length: 5.74355 Bohr) occupying 0.749466 of unit cell:	Completed after 9 iterations at t[s]:    281.78
	Linear fluid (dielectric constant: 78.4, screening length: 5.74355 Bohr) occupying 0.749470 of unit cell:	Completed after 2 iterations at t[s]:    286.42
	FillingsUpdate:  mu: -0.171251800  nElectrons: 337.058270
	SubspaceRotationAdjust: set factor to 0.428
ElecMinimize: Iter:  16  G: -1586.501806012586712  |grad|_K:  9.130e-07  alpha:  2.233e-01  linmin: -1.354e-05  t[s]:    290.65
	Linear fluid (dielectric constant: 78.4, screening length: 5.74355 Bohr) occupying 0.749407 of unit cell:	Completed after 9 iterations at t[s]:    295.43
	Linear fluid (dielectric constant: 78.4, screening length: 5.74355 Bohr) occupying 0.749410 of unit cell:	Completed after 0 iterations at t[s]:    299.94
	FillingsUpdate:  mu: -0.171251800  nElectrons: 337.066884
	SubspaceRotationAdjust: set factor to 0.475
ElecMinimize: Iter:  17  G: -1586.501820417244289  |grad|_K:  6.323e-07  alpha:  2.138e-01  linmin: -4.350e-06  t[s]:    304.10
	Linear fluid (dielectric constant: 78.4, screening length: 5.74355 Bohr) occupying 0.749366 of unit cell:	Completed after 2 iterations at t[s]:    308.62
	Linear fluid (dielectric constant: 78.4, screening length: 5.74355 Bohr) occupying 0.749350 of unit cell:	Completed after 3 iterations at t[s]:    314.44
	FillingsUpdate:  mu: -0.171251800  nElectrons: 337.073643
	SubspaceRotationAdjust: set factor to 0.53
ElecMinimize: Iter:  18  G: -1586.501829808019693  |grad|_K:  5.181e-07  alpha:  2.941e-01  linmin:  1.669e-04  t[s]:    319.24
	Linear fluid (dielectric constant: 78.4, screening length: 5.74355 Bohr) occupying 0.749295 of unit cell:	Completed after 4 iterations at t[s]:    323.60
	Linear fluid (dielectric constant: 78.4, screening length: 5.74355 Bohr) occupying 0.749294 of unit cell:	Completed after 0 iterations at t[s]:    327.98
	FillingsUpdate:  mu: -0.171251800  nElectrons: 337.073762
	SubspaceRotationAdjust: set factor to 0.593
ElecMinimize: Iter:  19  G: -1586.501836150709096  |grad|_K:  4.631e-07  alpha:  2.983e-01  linmin:  5.189e-05  t[s]:    332.22
	Linear fluid (dielectric constant: 78.4, screening length: 5.74355 Bohr) occupying 0.749242 of unit cell:	Completed after 3 iterations at t[s]:    336.37
	Linear fluid (dielectric constant: 78.4, screening length: 5.74355 Bohr) occupying 0.749244 of unit cell:	Completed after 0 iterations at t[s]:    340.53
	FillingsUpdate:  mu: -0.171251800  nElectrons: 337.077102
	SubspaceRotationAdjust: set factor to 0.713
ElecMinimize: Iter:  20  G: -1586.501841080924805  |grad|_K:  3.607e-07  alpha:  2.871e-01  linmin: -3.997e-06  t[s]:    344.64
	Linear fluid (dielectric constant: 78.4, screening length: 5.74355 Bohr) occupying 0.749212 of unit cell:	Completed after 2 iterations at t[s]:    348.80
	Linear fluid (dielectric constant: 78.4, screening length: 5.74355 Bohr) occupying 0.749213 of unit cell:	Completed after 0 iterations at t[s]:    353.74
	FillingsUpdate:  mu: -0.171251800  nElectrons: 337.080432
	SubspaceRotationAdjust: set factor to 0.716
ElecMinimize: Iter:  21  G: -1586.501844020637236  |grad|_K:  3.146e-07  alpha:  2.794e-01  linmin:  5.825e-05  t[s]:    358.65
	Linear fluid (dielectric constant: 78.4, screening length: 5.74355 Bohr) occupying 0.749188 of unit cell:	Completed after 7 iterations at t[s]:    364.17
	Linear fluid (dielectric constant: 78.4, screening length: 5.74355 Bohr) occupying 0.749195 of unit cell:	Completed after 2 iterations at t[s]:    369.15
	FillingsUpdate:  mu: -0.171251800  nElectrons: 337.078766
	SubspaceRotationAdjust: set factor to 0.607
ElecMinimize: Iter:  22  G: -1586.501845615961429  |grad|_K:  3.246e-07  alpha:  2.010e-01  linmin:  1.974e-04  t[s]:    373.29
	Linear fluid (dielectric constant: 78.4, screening length: 5.74355 Bohr) occupying 0.749179 of unit cell:	Completed after 7 iterations at t[s]:    378.34
	Linear fluid (dielectric constant: 78.4, screening length: 5.74355 Bohr) occupying 0.749185 of unit cell:	Completed after 3 iterations at t[s]:    383.46
	FillingsUpdate:  mu: -0.171251800  nElectrons: 337.082809
	SubspaceRotationAdjust: set factor to 0.44
ElecMinimize: Iter:  23  G: -1586.501846630526416  |grad|_K:  2.258e-07  alpha:  1.281e-01  linmin:  1.433e-04  t[s]:    387.62
	Linear fluid (dielectric constant: 78.4, screening length: 5.74355 Bohr) occupying 0.749182 of unit cell:	Completed after 2 iterations at t[s]:    391.79
	Linear fluid (dielectric constant: 78.4, screening length: 5.74355 Bohr) occupying 0.749179 of unit cell:	Completed after 2 iterations at t[s]:    397.12
	FillingsUpdate:  mu: -0.171251800  nElectrons: 337.083054
	SubspaceRotationAdjust: set factor to 0.434
ElecMinimize: Iter:  24  G: -1586.501847535002071  |grad|_K:  1.608e-07  alpha:  2.227e-01  linmin: -2.855e-04  t[s]:    402.12
	Linear fluid (dielectric constant: 78.4, screening length: 5.74355 Bohr) occupying 0.749179 of unit cell:	Completed after 0 iterations at t[s]:    406.16
	Linear fluid (dielectric constant: 78.4, screening length: 5.74355 Bohr) occupying 0.749179 of unit cell:	Completed after 1 iterations at t[s]:    411.47
	FillingsUpdate:  mu: -0.171251800  nElectrons: 337.083258
	SubspaceRotationAdjust: set factor to 0.47
ElecMinimize: Iter:  25  G: -1586.501848173922554  |grad|_K:  1.272e-07  alpha:  3.163e-01  linmin:  3.675e-04  t[s]:    415.60
	Linear fluid (dielectric constant: 78.4, screening length: 5.74355 Bohr) occupying 0.749183 of unit cell:	Completed after 3 iterations at t[s]:    420.06
	Linear fluid (dielectric constant: 78.4, screening length: 5.74355 Bohr) occupying 0.749183 of unit cell:	Completed after 0 iterations at t[s]:    424.53
	FillingsUpdate:  mu: -0.171251800  nElectrons: 337.084157
	SubspaceRotationAdjust: set factor to 0.499
ElecMinimize: Iter:  26  G: -1586.501848500923415  |grad|_K:  1.043e-07  alpha:  2.673e-01  linmin:  4.999e-05  t[s]:    428.85
	Linear fluid (dielectric constant: 78.4, screening length: 5.74355 Bohr) occupying 0.749187 of unit cell:	Completed after 0 iterations at t[s]:    432.73
	Linear fluid (dielectric constant: 78.4, screening length: 5.74355 Bohr) occupying 0.749188 of unit cell:	Completed after 0 iterations at t[s]:    437.32
	FillingsUpdate:  mu: -0.171251800  nElectrons: 337.083888
	SubspaceRotationAdjust: set factor to 0.605
ElecMinimize: Iter:  27  G: -1586.501848779594866  |grad|_K:  8.471e-08  alpha:  3.203e-01  linmin:  4.667e-07  t[s]:    442.16
	Linear fluid (dielectric constant: 78.4, screening length: 5.74355 Bohr) occupying 0.749195 of unit cell:	Completed after 1 iterations at t[s]:    446.80
	Linear fluid (dielectric constant: 78.4, screening length: 5.74355 Bohr) occupying 0.749194 of unit cell:	Completed after 0 iterations at t[s]:    451.76
	FillingsUpdate:  mu: -0.171251800  nElectrons: 337.082967
	SubspaceRotationAdjust: set factor to 0.693
ElecMinimize: Iter:  28  G: -1586.501848913027288  |grad|_K:  7.526e-08  alpha:  2.472e-01  linmin: -2.540e-04  t[s]:    455.79
	Linear fluid (dielectric constant: 78.4, screening length: 5.74355 Bohr) occupying 0.749200 of unit cell:	Completed after 0 iterations at t[s]:    459.50
	Linear fluid (dielectric constant: 78.4, screening length: 5.74355 Bohr) occupying 0.749201 of unit cell:	Completed after 0 iterations at t[s]:    463.88
	FillingsUpdate:  mu: -0.171251800  nElectrons: 337.082069
	SubspaceRotationAdjust: set factor to 0.818
ElecMinimize: Iter:  29  G: -1586.501849062547308  |grad|_K:  6.639e-08  alpha:  3.040e-01  linmin: -2.061e-07  t[s]:    467.91
	Linear fluid (dielectric constant: 78.4, screening length: 5.74355 Bohr) occupying 0.749209 of unit cell:	Completed after 2 iterations at t[s]:    472.41
	Linear fluid (dielectric constant: 78.4, screening length: 5.74355 Bohr) occupying 0.749206 of unit cell:	Completed after 0 iterations at t[s]:    477.45
	FillingsUpdate:  mu: -0.171251800  nElectrons: 337.081742
	SubspaceRotationAdjust: set factor to 0.857
ElecMinimize: Iter:  30  G: -1586.501849106688269  |grad|_K:  8.258e-08  alpha:  1.755e-01  linmin: -7.724e-05  t[s]:    481.97
	Linear fluid (dielectric constant: 78.4, screening length: 5.74355 Bohr) occupying 0.749214 of unit cell:	Completed after 3 iterations at t[s]:    486.12
	Linear fluid (dielectric constant: 78.4, screening length: 5.74355 Bohr) occupying 0.749210 of unit cell:	Completed after 0 iterations at t[s]:    490.29
	FillingsUpdate:  mu: -0.171251800  nElectrons: 337.082217
	SubspaceRotationAdjust: set factor to 0.597
ElecMinimize: Iter:  31  G: -1586.501849173090477  |grad|_K:  6.998e-08  alpha:  1.004e-01  linmin:  3.826e-04  t[s]:    494.23
	Linear fluid (dielectric constant: 78.4, screening length: 5.74355 Bohr) occupying 0.749214 of unit cell:	Completed after 0 iterations at t[s]:    497.72
	Linear fluid (dielectric constant: 78.4, screening length: 5.74355 Bohr) occupying 0.749215 of unit cell:	Completed after 0 iterations at t[s]:    501.87
	FillingsUpdate:  mu: -0.171251800  nElectrons: 337.081416
	SubspaceRotationAdjust: set factor to 0.765
ElecMinimize: Iter:  32  G: -1586.501849215053880  |grad|_K:  6.194e-08  alpha:  1.425e-01  linmin: -6.391e-07  t[s]:    506.13
	Linear fluid (dielectric constant: 78.4, screening length: 5.74355 Bohr) occupying 0.749219 of unit cell:	Completed after 2 iterations at t[s]:    510.00
	Linear fluid (dielectric constant: 78.4, screening length: 5.74355 Bohr) occupying 0.749216 of unit cell:	Completed after 0 iterations at t[s]:    514.19
ElecMinimize: 	Step increased G by 5.299398e-09, reducing alpha to 4.513125e-03.
	Linear fluid (dielectric constant: 78.4, screening length: 5.74355 Bohr) occupying 0.749215 of unit cell:	Completed after 0 iterations at t[s]:    521.67
	FillingsUpdate:  mu: -0.171251800  nElectrons: 337.081370
	SubspaceRotationAdjust: set factor to 0.579
ElecMinimize: Iter:  33  G: -1586.501849220938539  |grad|_K:  8.764e-08  alpha:  4.513e-03  linmin:  3.210e-04  t[s]:    525.78
	Linear fluid (dielectric constant: 78.4, screening length: 5.74355 Bohr) occupying 0.749216 of unit cell:	Completed after 0 iterations at t[s]:    529.35
ElecMinimize: 	Predicted alpha/alphaT>3.000000, increasing alphaT to 1.353937e-02.
	Linear fluid (dielectric constant: 78.4, screening length: 5.74355 Bohr) occupying 0.749216 of unit cell:	Completed after 0 iterations at t[s]:    533.63
ElecMinimize: 	Predicted alpha/alphaT>3.000000, increasing alphaT to 4.061812e-02.
	Linear fluid (dielectric constant: 78.4, screening length: 5.74355 Bohr) occupying 0.749217 of unit cell:	Completed after 0 iterations at t[s]:    537.91
	Linear fluid (dielectric constant: 78.4, screening length: 5.74355 Bohr) occupying 0.749219 of unit cell:	Completed after 0 iterations at t[s]:    542.60
	FillingsUpdate:  mu: -0.171251800  nElectrons: 337.080790
	SubspaceRotationAdjust: set factor to 0.449
ElecMinimize: Iter:  34  G: -1586.501849245821859  |grad|_K:  7.677e-08  alpha:  6.196e-02  linmin:  9.337e-07  t[s]:    546.83
	Linear fluid (dielectric constant: 78.4, screening length: 5.74355 Bohr) occupying 0.749221 of unit cell:	Completed after 1 iterations at t[s]:    551.12
	Linear fluid (dielectric constant: 78.4, screening length: 5.74355 Bohr) occupying 0.749220 of unit cell:	Completed after 0 iterations at t[s]:    556.27
ElecMinimize: 	Step increased G by 4.952881e-09, reducing alpha to 3.017571e-03.
	Linear fluid (dielectric constant: 78.4, screening length: 5.74355 Bohr) occupying 0.749219 of unit cell:	Completed after 0 iterations at t[s]:    564.33
ElecMinimize: 	Step increased G by 1.471471e-08, reducing alpha to 3.017571e-04.
	Linear fluid (dielectric constant: 78.4, screening length: 5.74355 Bohr) occupying 0.749219 of unit cell:	Completed after 0 iterations at t[s]:    571.81
ElecMinimize: 	Step increased G by 1.605167e-08, reducing alpha to 3.017571e-05.
ElecMinimize: 	Step failed to reduce G after 3 attempts. Quitting step.
ElecMinimize: 	Undoing step.
	Linear fluid (dielectric constant: 78.4, screening length: 5.74355 Bohr) occupying 0.749219 of unit cell:	Completed after 0 iterations at t[s]:    578.51
ElecMinimize: 	Step failed: resetting search direction.
	FillingsUpdate:  mu: -0.171251800  nElectrons: 337.080790
	SubspaceRotationAdjust: set factor to 0.766
ElecMinimize: Iter:  35  G: -1586.501849229730169  |grad|_K:  4.510e-08  alpha:  3.018e-05
	Linear fluid (dielectric constant: 78.4, screening length: 5.74355 Bohr) occupying 0.749218 of unit cell:	Completed after 0 iterations at t[s]:    586.22
ElecMinimize: 	Predicted alpha/alphaT>3.000000, increasing alphaT to 1.858949e-01.
	Linear fluid (dielectric constant: 78.4, screening length: 5.74355 Bohr) occupying 0.749218 of unit cell:	Completed after 0 iterations at t[s]:    590.83
ElecMinimize: 	Predicted alpha/alphaT>3.000000, increasing alphaT to 5.576846e-01.
	Linear fluid (dielectric constant: 78.4, screening length: 5.74355 Bohr) occupying 0.749218 of unit cell:	Completed after 1 iterations at t[s]:    596.17
	Linear fluid (dielectric constant: 78.4, screening length: 5.74355 Bohr) occupying 0.749218 of unit cell:	Completed after 0 iterations at t[s]:    601.09
	FillingsUpdate:  mu: -0.171251800  nElectrons: 337.081580
	SubspaceRotationAdjust: set factor to 0.503
ElecMinimize: Iter:  36  G: -1586.501849287586765  |grad|_K:  4.988e-08  alpha:  3.531e-01  linmin:  1.102e-03  t[s]:    604.96
	Linear fluid (dielectric constant: 78.4, screening length: 5.74355 Bohr) occupying 0.749216 of unit cell:	Completed after 3 iterations at t[s]:    608.93
	Linear fluid (dielectric constant: 78.4, screening length: 5.74355 Bohr) occupying 0.749217 of unit cell:	Completed after 0 iterations at t[s]:    613.44
	FillingsUpdate:  mu: -0.171251800  nElectrons: 337.081006
	SubspaceRotationAdjust: set factor to 0.267
ElecMinimize: Iter:  37  G: -1586.501849322386988  |grad|_K:  5.252e-08  alpha:  1.470e-01  linmin:  1.518e-03  t[s]:    617.49
	Linear fluid (dielectric constant: 78.4, screening length: 5.74355 Bohr) occupying 0.749216 of unit cell:	Completed after 0 iterations at t[s]:    620.94
	Linear fluid (dielectric constant: 78.4, screening length: 5.74355 Bohr) occupying 0.749216 of unit cell:	Completed after 0 iterations at t[s]:    625.36
	FillingsUpdate:  mu: -0.171251800  nElectrons: 337.081383
	SubspaceRotationAdjust: set factor to 0.282
ElecMinimize: Iter:  38  G: -1586.501849350613384  |grad|_K:  4.586e-08  alpha:  2.441e-01  linmin: -1.254e-06  t[s]:    629.96
	Linear fluid (dielectric constant: 78.4, screening length: 5.74355 Bohr) occupying 0.749214 of unit cell:	Completed after 2 iterations at t[s]:    634.66
	Linear fluid (dielectric constant: 78.4, screening length: 5.74355 Bohr) occupying 0.749215 of unit cell:	Completed after 0 iterations at t[s]:    639.83
ElecMinimize: 	Step increased G by 3.017385e-08, reducing alpha to 4.938048e-03.
	Linear fluid (dielectric constant: 78.4, screening length: 5.74355 Bohr) occupying 0.749216 of unit cell:	Completed after 0 iterations at t[s]:    647.51
ElecMinimize: 	Step increased G by 1.171952e-08, reducing alpha to 4.938048e-04.
	Linear fluid (dielectric constant: 78.4, screening length: 5.74355 Bohr) occupying 0.749216 of unit cell:	Completed after 0 iterations at t[s]:    654.52
ElecMinimize: 	Step increased G by 9.945552e-09, reducing alpha to 4.938048e-05.
ElecMinimize: 	Step failed to reduce G after 3 attempts. Quitting step.
ElecMinimize: 	Undoing step.
	Linear fluid (dielectric constant: 78.4, screening length: 5.74355 Bohr) occupying 0.749216 of unit cell:	Completed after 0 iterations at t[s]:    662.01
ElecMinimize: 	Step failed: resetting search direction.
	FillingsUpdate:  mu: -0.171251800  nElectrons: 337.081385
	SubspaceRotationAdjust: set factor to 0.203
ElecMinimize: Iter:  39  G: -1586.501849340677836  |grad|_K:  6.913e-08  alpha:  4.938e-05
	Linear fluid (dielectric constant: 78.4, screening length: 5.74355 Bohr) occupying 0.749215 of unit cell:	Completed after 2 iterations at t[s]:    670.91
	Linear fluid (dielectric constant: 78.4, screening length: 5.74355 Bohr) occupying 0.749216 of unit cell:	Completed after 0 iterations at t[s]:    676.45
ElecMinimize: 	Step increased G by 1.614126e-09, reducing alpha to 9.431147e-03.
	Linear fluid (dielectric constant: 78.4, screening length: 5.74355 Bohr) occupying 0.749216 of unit cell:	Completed after 1 iterations at t[s]:    685.17
ElecMinimize: 	Step increased G by 2.210732e-08, reducing alpha to 9.431147e-04.
	Linear fluid (dielectric constant: 78.4, screening length: 5.74355 Bohr) occupying 0.749216 of unit cell:	Completed after 0 iterations at t[s]:    692.68
ElecMinimize: 	Step increased G by 2.301772e-08, reducing alpha to 9.431147e-05.
ElecMinimize: 	Step failed to reduce G after 3 attempts. Quitting step.
ElecMinimize: 	Undoing step.
	Linear fluid (dielectric constant: 78.4, screening length: 5.74355 Bohr) occupying 0.749216 of unit cell:	Completed after 0 iterations at t[s]:    700.01
ElecMinimize: 	Step failed along negative gradient direction.
ElecMinimize: Probably at roundoff error limit. (Stopping)
Setting wave functions to eigenvectors of Hamiltonian

# Ionic positions in lattice coordinates:
ion Te   0.264578720521482   0.293225782340057   0.609031877762474 0
ion Te   0.735421286145186   0.293225782340057   0.609031877762474 0
ion Te   0.000000003333334   0.788266867576549   0.390898338331579 0
ion Te   0.500000003333334   0.784589092680070   0.380766557007455 0
ion Te   0.264578720521482   0.706774225659943   0.609031877762474 0
ion Te   0.735421286145186   0.706774225659943   0.609031877762474 0
ion Te   0.000000003333334   0.211733140423451   0.390898338331579 0
ion Te   0.500000003333334   0.215410915319929   0.380766557007455 0
ion Pd   0.123947810115377   0.251872343582046   0.504342663004432 0
ion Pd   0.622941698393972   0.243364872243885   0.494449792283614 0
ion Pd   0.000000003333334   0.500000004000000   0.437609022447548 0
ion Pd   0.500000003333334   0.500000004000000   0.431217929735757 0
ion Pd   0.123947810115377   0.748127664417954   0.504342663004432 0
ion Pd   0.622941698393972   0.756635135756114   0.494449792283614 0
ion Pd   0.377058308272695   0.243364872243885   0.494449792283614 0
ion Pd   0.876052196551291   0.251872343582046   0.504342663004432 0
ion Pd   0.377058308272695   0.756635135756114   0.494449792283614 0
ion Pd   0.876052196551291   0.748127664417954   0.504342663004432 0
ion Pd   0.248603997756525   0.000000004000000   0.566184194131648 0
ion Pd   0.751396008910142   0.000000004000000   0.566184194131648 0
ion Pb   0.251128632993207   0.000000004000000   0.415572690805236 0
ion Pb   0.748871373673460   0.000000004000000   0.415572690805236 0
ion Pb   0.000000003333334   0.500000004000000   0.589219183273141 0
ion Pb   0.251664615305841   0.500000004000000   0.435759671757952 0
ion Pb   0.748335391360827   0.500000004000000   0.435759671757952 0
ion Pb   0.000000003333334   0.000000004000000   0.574308639259319 0
ion Pb   0.500000003333334   0.000000004000000   0.573481043014405 0


# Forces in Lattice coordinates:
force Te   0.003231357281740   0.056523391901716   0.224418306638010 0
force Te  -0.003231357281747   0.056523391901702   0.224418306637896 0
force Te   0.000000000000000   0.065015511328236  -0.192923442656569 0
force Te   0.000000000000000   0.068440358189533  -0.214984246580545 0
force Te   0.003231357281747  -0.056523391901716   0.224418306638123 0
force Te  -0.003231357281747  -0.056523391901709   0.224418306638009 0
force Te   0.000000000000000  -0.065015511328236  -0.192923442656455 0
force Te   0.000000000000000  -0.068440358189533  -0.214984246580431 0
force Pd   0.011786767207907  -0.002547574761006  -0.001784109010783 0
force Pd   0.010899571679920  -0.002755903797378  -0.014619557146669 0
force Pd   0.000000000000000   0.000000000000000   0.021214180624406 0
force Pd   0.000000000000000   0.000000000000000   0.081415967180063 0
force Pd   0.011786767207904   0.002547574761006  -0.001784109010783 0
force Pd   0.010899571679920   0.002755903797385  -0.014619557146669 0
force Pd  -0.010899571679920  -0.002755903797371  -0.014619557146669 0
force Pd  -0.011786767207907  -0.002547574761007  -0.001784109010783 0
force Pd  -0.010899571679927   0.002755903797385  -0.014619557146669 0
force Pd  -0.011786767207904   0.002547574761006  -0.001784109010811 0
force Pd   0.008785101613677   0.000000000000000  -0.015078417029974 0
force Pd  -0.008785101613677   0.000000000000000  -0.015078417029974 0
force Pb   0.000273773195794   0.000000000000000  -0.075349421277081 0
force Pb  -0.000273773195794   0.000000000000000  -0.075349421277308 0
force Pb   0.000000000000000   0.000000000000000   0.080165753161835 0
force Pb  -0.000298055225932  -0.000000000000000  -0.060719863638648 0
force Pb   0.000298055225932   0.000000000000000  -0.060719863638647 0
force Pb   0.000000000000000   0.000000000000000   0.070292615690901 0
force Pb   0.000000000000000   0.000000000000000   0.014143105526106 0

# Energy components:
   A_diel =        0.0189542652002349
   Eewald =     8374.2660784391209745
       EH =     9800.4796552583611629
     Eloc =   -19927.9561412379262038
      Enl =     -118.7709452477598262
      Exc =     -467.7519578429905778
 Exc_core =      228.6756325401910885
       KE =      466.8306510346536697
  MuShift =        0.0117070047363049
-------------------------------------
     Etot =    -1644.1963657864107518
       TS =        0.0312766664938148
-------------------------------------
        F =    -1644.2276424529045471
      muN =      -57.7257931352666915
-------------------------------------
        G =    -1586.5018493176378342

IonicMinimize: Iter:   0  G: -1586.501849317637834  |grad|_K:  0.000e+00  t[s]:    708.03
IonicMinimize: Converged (|grad|_K<1.000000e-04).

#--- Lowdin population analysis ---
# oxidation-state Te +0.640 +0.640 +0.615 +0.607 +0.640 +0.640 +0.615 +0.607
# oxidation-state Pd -0.892 -0.831 -0.806 -0.729 -0.892 -0.831 -0.831 -0.892 -0.831 -0.892 -0.799 -0.799
# oxidation-state Pb +0.768 +0.768 +0.802 +1.056 +1.056 +1.070 +1.011


Dumping 'NbTe2.fillings' ... done
Dumping 'NbTe2.wfns' ... done
Dumping 'NbTe2.fluidState' ... done
Dumping 'NbTe2.eigenvals' ... done
End date and time: Thu Jul 16 08:41:40 2020  (Duration: 0-0:11:50.32)
Done!
