
*************** JDFTx 1.5.0  ***************

Start date and time: Sun Jan 17 05:40:25 2021
Executable jdftx_gpu with command-line: -i Charged.in -o Charged.out
Running on hosts (process indices):  amax (0-4)
Divided in process groups (process indices):  0 (0)  1 (1)  2 (2)  3 (3)  4 (4)
gpuInit: Found compatible cuda device 0 'Tesla K80'
gpuInit: Found compatible cuda device 1 'Tesla K80'
gpuInit: Found compatible cuda device 2 'Tesla K80'
gpuInit: Found compatible cuda device 3 'Tesla K80'
gpuInit: Found compatible cuda device 4 'Tesla K80'
gpuInit: Selected device 0
Resource initialization completed at t[s]:      3.01
Run totals: 5 processes, 24 threads, 5 GPUs


Input parsed successfully to the following command list (including defaults):

basis kpoint-dependent
cache-projectors no
coords-type Lattice
core-overlap-check none
coulomb-interaction Slab 001
coulomb-truncation-embed 0.5 0.5 0.5
davidson-band-ratio 1.1
dump End State
dump-name NbTe2.$VAR
elec-cutoff 20
elec-eigen-algo Davidson
elec-ex-corr gga-PBE
elec-initial-charge -0.500000
elec-initial-magnetization 30.000000 no
elec-smearing Gauss 0.0073499
electronic-minimize  \
	dirUpdateScheme      FletcherReeves \
	linminMethod         DirUpdateRecommended \
	nIterations          200 \
	history              15 \
	knormThreshold       0 \
	energyDiffThreshold  1e-08 \
	nEnergyDiff          2 \
	alphaTstart          1 \
	alphaTmin            1e-10 \
	updateTestStepSize   yes \
	alphaTreduceFactor   0.1 \
	alphaTincreaseFactor 3 \
	nAlphaAdjustMax      3 \
	wolfeEnergy          0.0001 \
	wolfeGradient        0.9 \
	fdTest               no
exchange-regularization WignerSeitzTruncated
fluid LinearPCM 298.000000 1.013250
fluid-anion F- 1 MeanFieldLJ \
	epsBulk 1 \
	pMol 0 \
	epsInf 1 \
	Pvap 0 \
	sigmaBulk 0 \
	Rvdw 2.24877 \
	Res 0 \
	tauNuc 343133
fluid-cation Na+ 1 MeanFieldLJ \
	epsBulk 1 \
	pMol 0 \
	epsInf 1 \
	Pvap 0 \
	sigmaBulk 0 \
	Rvdw 2.19208 \
	Res 0 \
	tauNuc 343133
fluid-ex-corr lda-TF lda-PZ
fluid-gummel-loop 10 1.000000e-05
fluid-minimize  \
	dirUpdateScheme      PolakRibiere \
	linminMethod         DirUpdateRecommended \
	nIterations          400 \
	history              15 \
	knormThreshold       1e-11 \
	energyDiffThreshold  0 \
	nEnergyDiff          2 \
	alphaTstart          1 \
	alphaTmin            1e-10 \
	updateTestStepSize   yes \
	alphaTreduceFactor   0.1 \
	alphaTincreaseFactor 3 \
	nAlphaAdjustMax      6 \
	wolfeEnergy          0.0001 \
	wolfeGradient        0.9 \
	fdTest               no
fluid-solvent H2O 55.338 ScalarEOS \
	epsBulk 78.4 \
	pMol 0.92466 \
	epsInf 1.77 \
	Pvap 1.06736e-10 \
	sigmaBulk 4.62e-05 \
	Rvdw 2.61727 \
	Res 1.42 \
	tauNuc 343133 \
	poleEl 15 7 1
forces-output-coords Positions
initial-state NbTe2.$VAR
ion Ti   0.166666628871778   0.083333387753221   0.566175256878475 1
ion Ti   0.083333386878221   0.166666629746778   0.433824743121525 1
ion Ti   0.416666628871778   0.083333387753221   0.566175256878475 1
ion Ti   0.333333386878221   0.166666629746778   0.433824743121525 1
ion Ti   0.666666628871778   0.083333387753221   0.566175256878475 1
ion Ti   0.583333386878221   0.166666629746778   0.433824743121525 1
ion Ti   0.916666628871778   0.083333387753221   0.566175256878475 1
ion Ti   0.833333386878221   0.166666629746778   0.433824743121525 1
ion Ti   0.166666628871778   0.333333387753221   0.566175256878475 1
ion Ti   0.083333386878221   0.416666629746779   0.433824743121525 1
ion Ti   0.416666628871778   0.333333387753221   0.566175256878475 1
ion Ti   0.333333386878221   0.416666629746779   0.433824743121525 1
ion Ti   0.666666628871778   0.333333387753221   0.566175256878475 1
ion Ti   0.583333386878221   0.416666629746779   0.433824743121525 1
ion Ti   0.916666628871778   0.333333387753221   0.566175256878475 1
ion Ti   0.833333386878221   0.416666629746779   0.433824743121525 1
ion Ti   0.166666628871778   0.583333387753221   0.566175256878475 1
ion Ti   0.083333386878221   0.666666629746778   0.433824743121525 1
ion Ti   0.416666628871778   0.583333387753221   0.566175256878475 1
ion Ti   0.333333386878221   0.666666629746778   0.433824743121525 1
ion Ti   0.666666628871778   0.583333387753221   0.566175256878475 1
ion Ti   0.583333386878221   0.666666629746778   0.433824743121525 1
ion Ti   0.916666628871778   0.583333387753221   0.566175256878475 1
ion Ti   0.833333386878221   0.666666629746778   0.433824743121525 1
ion Ti   0.166666628871778   0.833333387753221   0.566175256878475 1
ion Ti   0.083333386878221   0.916666629746778   0.433824743121525 1
ion Ti   0.416666628871778   0.833333387753221   0.566175256878475 1
ion Ti   0.333333386878221   0.916666629746778   0.433824743121525 1
ion Ti   0.666666628871778   0.833333387753221   0.566175256878475 1
ion Ti   0.583333386878221   0.916666629746778   0.433824743121525 1
ion Ti   0.916666628871778   0.833333387753221   0.566175256878475 1
ion Ti   0.833333386878221   0.916666629746778   0.433824743121525 1
ion C   0.000000007874999   0.000000008750000   0.500000000000000 1
ion C   0.250000007874999   0.000000008750000   0.500000000000000 1
ion C   0.500000007875000   0.000000008750000   0.500000000000000 1
ion C   0.750000007875000   0.000000008750000   0.500000000000000 1
ion C   0.000000007874999   0.250000008750000   0.500000000000000 1
ion C   0.250000007874999   0.250000008750000   0.500000000000000 1
ion C   0.500000007875000   0.250000008750000   0.500000000000000 1
ion C   0.750000007875000   0.250000008750000   0.500000000000000 1
ion C   0.000000007874999   0.500000008750000   0.500000000000000 1
ion C   0.250000007874999   0.500000008750000   0.500000000000000 1
ion C   0.500000007875000   0.500000008750000   0.500000000000000 1
ion C   0.750000007875000   0.500000008750000   0.500000000000000 1
ion C   1.000000007875000   0.750000008750000   0.500000000000000 1
ion C   0.250000007874999   0.750000008750000   0.500000000000000 1
ion C   0.500000007875000   0.750000008750000   0.500000000000000 1
ion C   0.750000007875000   0.750000008750000   0.500000000000000 1
ion-species GBRV/$ID_pbe.uspp
ion-width Ecut
ionic-minimize  \
	dirUpdateScheme      L-BFGS \
	linminMethod         DirUpdateRecommended \
	nIterations          500 \
	history              15 \
	knormThreshold       0.0001 \
	energyDiffThreshold  1e-06 \
	nEnergyDiff          2 \
	alphaTstart          1 \
	alphaTmin            1e-10 \
	updateTestStepSize   yes \
	alphaTreduceFactor   0.1 \
	alphaTincreaseFactor 3 \
	nAlphaAdjustMax      3 \
	wolfeEnergy          0.0001 \
	wolfeGradient        0.9 \
	fdTest               no
kpoint   0.000000000000   0.000000000000   0.000000000000  1.00000000000000
kpoint-folding 5 5 1 
latt-move-scale 1 1 1
latt-scale 1.88973 1.88973 1.88973 
lattice Triclinic 12.1569 12.1569 17.2781 90 90 120
lattice-minimize  \
	dirUpdateScheme      L-BFGS \
	linminMethod         DirUpdateRecommended \
	nIterations          0 \
	history              15 \
	knormThreshold       0 \
	energyDiffThreshold  1e-06 \
	nEnergyDiff          2 \
	alphaTstart          1 \
	alphaTmin            1e-10 \
	updateTestStepSize   yes \
	alphaTreduceFactor   0.1 \
	alphaTincreaseFactor 3 \
	nAlphaAdjustMax      3 \
	wolfeEnergy          0.0001 \
	wolfeGradient        0.9 \
	fdTest               no
lcao-params -1 1e-06 0.0073499
pcm-variant CANDLE
spintype z-spin
subspace-rotation-factor 1 yes
symmetries automatic
symmetry-threshold 0.0001



---------- Setting up symmetries ----------

Found 24 point-group symmetries of the bravais lattice
Found 192 space-group symmetries with basis
Applied RMS atom displacement 1.48377e-06 bohrs to make symmetries exact.

---------- Initializing the Grid ----------
R = 
[    22.9732   -11.4866          0  ]
[          0    19.8954          0  ]
[          0          0    32.6508  ]
unit cell volume = 14923.4
G =
[   0.273501   0.157906         -0  ]
[          0   0.315811          0  ]
[          0         -0   0.192436  ]
Minimum fftbox size, Smin = [  96  96  132  ]
Chosen fftbox size, S = [  96  96  140  ]

---------- Exchange Correlation functional ----------
Initalized PBE GGA exchange.
Initalized PBE GGA correlation.

---------- Setting up pseudopotentials ----------
Width of ionic core gaussian charges (only for fluid interactions / plotting) set to 0.397384

Reading pseudopotential file '/home/guoxy/vasp/jdftx-1.5.0/build/pseudopotentials/GBRV/ti_pbe.uspp':
  Title: Ti.  Created by USPP 7.3.6 on 31-3-15
  Reference state energy: -59.020943.  12 valence electrons in orbitals:
    |300>  occupation: 2  eigenvalue: -2.777623
    |310>  occupation: 6  eigenvalue: -1.894596
    |400>  occupation: 2  eigenvalue: -0.438610
    |320>  occupation: 1  eigenvalue: -0.583119
  lMax: 2  lLocal: 3  QijEcut: 6
  6 projectors sampled on a log grid with 597 points:
    l: 0  eig: -2.777624  rCut: 1.8
    l: 0  eig: -0.438611  rCut: 1.8
    l: 1  eig: -1.894596  rCut: 1.8
    l: 1  eig: 0.500000  rCut: 1.8
    l: 2  eig: -0.583118  rCut: 1.8
    l: 2  eig: 0.150000  rCut: 1.8
  Partial core density with radius 0.8
  Transforming core density to a uniform radial grid of dG=0.02 with 1481 points.
  Transforming local potential to a uniform radial grid of dG=0.02 with 1481 points.
  Transforming nonlocal projectors to a uniform radial grid of dG=0.02 with 432 points.
  Transforming density augmentations to a uniform radial grid of dG=0.02 with 1481 points.
  Transforming atomic orbitals to a uniform radial grid of dG=0.02 with 432 points.
  Core radius for overlap checks: 1.80 bohrs.

Reading pseudopotential file '/home/guoxy/vasp/jdftx-1.5.0/build/pseudopotentials/GBRV/c_pbe.uspp':
  Title: C.  Created by USPP 7.3.6 on 3-2-2014
  Reference state energy: -5.406344.  4 valence electrons in orbitals:
    |200>  occupation: 2  eigenvalue: -0.504890
    |210>  occupation: 2  eigenvalue: -0.194356
  lMax: 1  lLocal: 2  QijEcut: 5
  4 projectors sampled on a log grid with 503 points:
    l: 0  eig: -0.504890  rCut: 1.3
    l: 0  eig: 0.000000  rCut: 1.3
    l: 1  eig: -0.194357  rCut: 1.3
    l: 1  eig: 0.000000  rCut: 1.3
  Partial core density with radius 1.1
  Transforming core density to a uniform radial grid of dG=0.02 with 1481 points.
  Transforming local potential to a uniform radial grid of dG=0.02 with 1481 points.
  Transforming nonlocal projectors to a uniform radial grid of dG=0.02 with 432 points.
  Transforming density augmentations to a uniform radial grid of dG=0.02 with 1481 points.
  Transforming atomic orbitals to a uniform radial grid of dG=0.02 with 432 points.
  Core radius for overlap checks: 1.30 bohrs.

Initialized 2 species with 48 total atoms.

Folded 1 k-points by 5x5x1 to 25 k-points.

---------- Setting up k-points, bands, fillings ----------
Adding inversion symmetry to k-mesh for non-inversion-symmetric unit cell.
Reduced to 5 k-points under symmetry. 
Computing the number of bands and number of electrons
Calculating initial fillings.
nElectrons: 447.500000   nBands: 384   nStates: 10

----- Setting up reduced wavefunction bases (one per k-point) -----
average nbasis = 63729.080 , ideal nbasis = 63753.870

---------- Setting up coulomb interaction ----------
Fluid mode embedding: using embedded box, but periodic Coulomb kernel.
(Fluid response is responsible for (approximate) separation between periodic images.)
Setting up double-sized grid for truncated Coulomb potentials:
R = 
[    22.9732   -11.4866          0  ]
[          0    19.8954          0  ]
[          0          0    65.3016  ]
unit cell volume = 29846.8
G =
[   0.273501   0.157906         -0  ]
[          0   0.315811          0  ]
[          0         -0   0.096218  ]
Chosen fftbox size, S = [  96  96  280  ]
Integer grid location selected as the embedding center:
   Grid: [  48  48  70  ]
   Lattice: [  0.5  0.5  0.5  ]
   Cartesian: [  5.7433  9.94769  16.3254  ]
Constructing Wigner-Seitz cell: 8 faces (6 quadrilaterals, 2 hexagons)
Range-separation parameter for embedded mesh potentials due to point charges: 0.617142 bohrs.

Initializing van der Waals corrections
	NOTE: vdW corrections apply only for interactions with fluid.
	Ti:  C6:  187.33 Eh-a0^6  R0: 2.952 a0
	 C:  C6:   30.35 Eh-a0^6  R0: 2.744 a0

---------- Setting up ewald sum ----------
Optimum gaussian width for ewald sums = 6.491360 bohr.
Real space sum over 605 unit cells with max indices [  5  5  2  ]
Reciprocal space sum over 7875 terms with max indices [  7  7  17  ]

---------- Allocating electronic variables ----------
Initializing wave functions:  linear combination of atomic orbitals
Ti pseudo-atom occupations:   s ( 2 0 )  p ( 6 )  d ( 4 )
C pseudo-atom occupations:   s ( 2 )  p ( 2 )
	FillingsUpdate:  mu: +0.278273044  nElectrons: 447.500000  magneticMoment: [ Abs: 47.90394  Tot: +47.90051 ]
LCAOMinimize: Iter:   0  F: -1838.1393987949763869  |grad|_K:  1.431e-02  alpha:  1.000e+00
	FillingsUpdate:  mu: -0.000268279  nElectrons: 447.500000  magneticMoment: [ Abs: 8.03636  Tot: +8.02810 ]
LCAOMinimize: Iter:   1  F: -1916.2162816839168045  |grad|_K:  6.447e-03  alpha:  6.083e-01  linmin:  1.614e-01  cgtest: -1.374e+00  t[s]:    187.88
LCAOMinimize: 	Bad step direction: g.d > 0.
LCAOMinimize: 	Undoing step.
LCAOMinimize: 	Step failed: resetting search direction.
	FillingsUpdate:  mu: -0.000268279  nElectrons: 447.500000  magneticMoment: [ Abs: 8.03636  Tot: +8.02810 ]
LCAOMinimize: Iter:   2  F: -1916.2162816839168045  |grad|_K:  6.447e-03  alpha:  0.000e+00
	FillingsUpdate:  mu: +0.123781731  nElectrons: 447.500000  magneticMoment: [ Abs: 10.60879  Tot: +10.11217 ]
LCAOMinimize: Iter:   3  F: -1944.7395717480260373  |grad|_K:  5.111e-03  alpha:  3.022e-01  linmin: -3.569e-01  cgtest:  4.382e-01  t[s]:    289.24
	FillingsUpdate:  mu: +0.163990164  nElectrons: 447.500000  magneticMoment: [ Abs: 11.86177  Tot: +10.87524 ]
LCAOMinimize: Iter:   4  F: -1951.0905520525402608  |grad|_K:  1.010e-03  alpha:  1.313e-01  linmin: -4.402e-01  cgtest:  7.544e-01  t[s]:    349.29
LCAOMinimize: Encountered beta<0, resetting CG.
	FillingsUpdate:  mu: +0.166845819  nElectrons: 447.500000  magneticMoment: [ Abs: 11.08434  Tot: +10.10370 ]
LCAOMinimize: Iter:   5  F: -1951.2856147204390709  |grad|_K:  2.393e-04  alpha:  2.699e-01  linmin:  8.855e-02  cgtest: -3.978e-01  t[s]:    408.95
LCAOMinimize: 	Predicted alpha/alphaT>3.000000, increasing alphaT to 8.096339e-01.
	FillingsUpdate:  mu: +0.163746199  nElectrons: 447.500000  magneticMoment: [ Abs: 6.26100  Tot: +5.37003 ]
LCAOMinimize: Iter:   6  F: -1951.3136273466870989  |grad|_K:  2.346e-04  alpha:  8.774e-01  linmin:  1.485e-02  cgtest:  5.719e-01  t[s]:    487.98
	FillingsUpdate:  mu: +0.162725184  nElectrons: 447.500000  magneticMoment: [ Abs: 4.91574  Tot: +4.11458 ]
LCAOMinimize: Iter:   7  F: -1951.3235628398601875  |grad|_K:  7.135e-05  alpha:  2.527e-01  linmin:  6.396e-03  cgtest:  4.442e-02  t[s]:    547.97
LCAOMinimize: 	Predicted alpha/alphaT>3.000000, increasing alphaT to 7.579929e-01.
	FillingsUpdate:  mu: +0.163837693  nElectrons: 447.500000  magneticMoment: [ Abs: 2.03233  Tot: +1.62592 ]
LCAOMinimize: Iter:   8  F: -1951.3279510412903619  |grad|_K:  3.213e-05  alpha:  1.157e+00  linmin: -1.607e-02  cgtest:  1.021e-03  t[s]:    626.72
	FillingsUpdate:  mu: +0.163857670  nElectrons: 447.500000  magneticMoment: [ Abs: 0.54788  Tot: +0.41942 ]
LCAOMinimize: Iter:   9  F: -1951.3288114824761124  |grad|_K:  1.931e-05  alpha:  1.093e+00  linmin:  2.843e-03  cgtest: -5.854e-02  t[s]:    686.63
	FillingsUpdate:  mu: +0.163654503  nElectrons: 447.500000  magneticMoment: [ Abs: 0.31078  Tot: +0.23265 ]
LCAOMinimize: Iter:  10  F: -1951.3288954036995619  |grad|_K:  8.592e-06  alpha:  3.058e-01  linmin:  1.550e-03  cgtest:  9.307e-03  t[s]:    745.95
	FillingsUpdate:  mu: +0.163444297  nElectrons: 447.500000  magneticMoment: [ Abs: 0.07443  Tot: +0.05631 ]
LCAOMinimize: Iter:  11  F: -1951.3289409581750533  |grad|_K:  2.046e-06  alpha:  8.353e-01  linmin:  2.510e-03  cgtest: -1.328e-02  t[s]:    805.22
	FillingsUpdate:  mu: +0.163588848  nElectrons: 447.500000  magneticMoment: [ Abs: 0.05037  Tot: +0.03868 ]
LCAOMinimize: Iter:  12  F: -1951.3289425093735190  |grad|_K:  1.038e-06  alpha:  5.013e-01  linmin: -1.259e-05  cgtest:  6.624e-03  t[s]:    865.50
	FillingsUpdate:  mu: +0.163609197  nElectrons: 447.500000  magneticMoment: [ Abs: 0.03829  Tot: +0.02960 ]
LCAOMinimize: Iter:  13  F: -1951.3289428039468021  |grad|_K:  5.920e-07  alpha:  3.687e-01  linmin:  8.050e-06  cgtest: -8.832e-04  t[s]:    926.01
	FillingsUpdate:  mu: +0.163573256  nElectrons: 447.500000  magneticMoment: [ Abs: 0.01569  Tot: +0.00997 ]
LCAOMinimize: Iter:  14  F: -1951.3289430579545751  |grad|_K:  2.252e-07  alpha:  9.781e-01  linmin: -2.613e-04  cgtest:  4.957e-04  t[s]:    984.84
LCAOMinimize: Converged (|Delta F|<1.000000e-06 for 2 iters).
----- createFluidSolver() ----- (Fluid-side solver setup)
   Initializing fluid molecule 'H2O'
     Initializing site 'O'
       Electron density: proportional to exp(-r/0.36935)*erfc((r-0.51523)/0.36823) with norm 6.826
       Charge density: gaussian nuclear width 0.478731 with net site charge 0.826
       Polarizability: cuspless exponential with width 0.32 and norm 3.73
       Hard sphere radius: 2.57003 bohrs
       Positions in reference frame:
         [ +0.000000 +0.000000 +0.000000 ]
     Initializing site 'H'
       Electron density: proportional to exp(-r/0.34641)*erfc((r-0)/0.390882) with norm 0.587
       Charge density: gaussian nuclear width 0.377945 with net site charge -0.413
       Polarizability: cuspless exponential with width 0.39 and norm 3.3
       Positions in reference frame:
         [ +0.000000 -1.441945 +1.122523 ]
         [ +0.000000 +1.441945 +1.122523 ]
     Net charge: 0   dipole magnitude: 0.927204
     Initializing spherical shell mfKernel with radius 2.61727 Bohr
     deltaS corrections:
       site 'O': -7.54299
       site 'H': -6.83917
   Initializing fluid molecule 'Na+'
     Initializing site 'Na'
       Electron density: proportional to exp(-r/0.19682)*erfc((r-0.71491)/0.41314) with norm 8.1383
       Charge density: gaussian nuclear width 0.365347 with net site charge -1
       Hard sphere radius: 1.86327 bohrs
       Positions in reference frame:
         [ +0.000000 +0.000000 +0.000000 ]
     Net charge: -1   dipole magnitude: 0
     Initializing gaussian mfKernel with width: 1.55004 Bohr
     deltaS corrections:
       site 'Na': -22.3555
   Initializing fluid molecule 'F-'
     Initializing site 'F'
       Electron density: proportional to exp(-r/0.38886)*erfc((r-0)/0.438782) with norm 8
       Charge density: gaussian nuclear width 0.374796 with net site charge 1
       Hard sphere radius: 2.39995 bohrs
       Positions in reference frame:
         [ +0.000000 +0.000000 +0.000000 ]
     Net charge: 1   dipole magnitude: 0
     Initializing gaussian mfKernel with width: 1.59012 Bohr
     deltaS corrections:
       site 'F': -9.04335

Correction to mu due to finite nuclear width = -0.0148929
   Cavity determined by nc: 0.00142 and sigma: 0.707107
   Nonlocal vdW cavity from gaussian model electron density with norm = 8 and sigma = 0.993594 bohr
   Charge asymmetry in cavity with sensitivity pCavity = 36.5 e-bohr/Eh
   Electrostatic cavity expanded by eta = 1.46 bohrs
   Weighted density cavitation model constrained by Nbulk: 0.0049383 bohr^-3, Pvap: 3.14029 kPa, Rvdw: 2.61727 bohr and sigmaBulk: 4.62e-05 Eh/bohr^2 at T: 298 K.
   Weighted density dispersion model using vdW pair potentials with single solvent site with sqrtC6eff: 0.77 SI.


---- Citations for features of the code used in this run ----

   Software package:
      R. Sundararaman, K. Letchworth-Weaver, K.A. Schwarz, D. Gunceler, Y. Ozhabes and T.A. Arias, 'JDFTx: software for joint density-functional theory', SoftwareX 6, 278 (2017)

   gga-PBE exchange-correlation functional:
      J.P. Perdew, K. Burke and M. Ernzerhof, Phys. Rev. Lett. 77, 3865 (1996)

   Pseudopotentials:
      KF Garrity, JW Bennett, KM Rabe and D Vanderbilt, Comput. Mater. Sci. 81, 446 (2014)

   Truncated Coulomb potentials:
      R. Sundararaman and T.A. Arias, Phys. Rev. B 87, 165122 (2013)

   Van der Waals correction pair-potentials:
      S. Grimme, J. Comput. Chem. 27, 1787 (2006)

   Charge-asymmetric nonlocally-determined local-electric (CANDLE) solvation model:
      R. Sundararaman and W.A. Goddard III, J. Chem. Phys. 142, 064107 (2015)

   Total energy minimization with Auxiliary Hamiltonian:
      C. Freysoldt, S. Boeck, and J. Neugebauer, Phys. Rev. B 79, 241103(R) (2009)

This list may not be complete. Please suggest additional citations or
report any other bugs at https://github.com/shankar1729/jdftx/issues

Initialization completed successfully at t[s]:    992.69

Fluid solver invoked on fresh (partially random / LCAO) wavefunctions
Running a vacuum solve first:

-------- Initial electronic minimization -----------
	FillingsUpdate:  mu: +0.163573256  nElectrons: 447.500000  magneticMoment: [ Abs: 0.01569  Tot: +0.00997 ]
ElecMinimize: Iter:   0  F: -1951.328943057956849  |grad|_K:  1.936e-04  alpha:  1.000e+00
	FillingsUpdate:  mu: -0.004074329  nElectrons: 447.500000  magneticMoment: [ Abs: 0.01513  Tot: +0.00848 ]
	SubspaceRotationAdjust: set factor to 1
ElecMinimize: Iter:   1  F: -1954.585250755027801  |grad|_K:  1.127e-04  alpha:  3.601e-01  linmin:  6.240e-05  t[s]:   1123.07
	FillingsUpdate:  mu: +0.001429813  nElectrons: 447.500000  magneticMoment: [ Abs: 0.01191  Tot: +0.00916 ]
	SubspaceRotationAdjust: set factor to 0.772
ElecMinimize: Iter:   2  F: -1956.281730283118122  |grad|_K:  7.607e-05  alpha:  5.506e-01  linmin: -8.335e-05  t[s]:   1201.98
	FillingsUpdate:  mu: -0.028834829  nElectrons: 447.500000  magneticMoment: [ Abs: 0.00780  Tot: +0.00582 ]
	SubspaceRotationAdjust: set factor to 0.605
ElecMinimize: Iter:   3  F: -1957.029891044162014  |grad|_K:  5.063e-05  alpha:  5.175e-01  linmin:  4.979e-05  t[s]:   1282.22
	FillingsUpdate:  mu: -0.108931209  nElectrons: 447.500000  magneticMoment: [ Abs: 0.00733  Tot: +0.00622 ]
	SubspaceRotationAdjust: set factor to 0.517
ElecMinimize: Iter:   4  F: -1957.377291121582402  |grad|_K:  2.866e-05  alpha:  5.612e-01  linmin:  9.451e-04  t[s]:   1362.52
	FillingsUpdate:  mu: -0.095113722  nElectrons: 447.500000  magneticMoment: [ Abs: 0.00663  Tot: +0.00577 ]
	SubspaceRotationAdjust: set factor to 0.577
ElecMinimize: Iter:   5  F: -1957.494278172847771  |grad|_K:  1.892e-05  alpha:  6.322e-01  linmin:  7.230e-05  t[s]:   1442.48
	FillingsUpdate:  mu: -0.089741043  nElectrons: 447.500000  magneticMoment: [ Abs: 0.00616  Tot: +0.00552 ]
	SubspaceRotationAdjust: set factor to 0.594
ElecMinimize: Iter:   6  F: -1957.537610641440097  |grad|_K:  1.350e-05  alpha:  5.107e-01  linmin:  6.877e-06  t[s]:   1522.32
	FillingsUpdate:  mu: -0.099022725  nElectrons: 447.500000  magneticMoment: [ Abs: 0.00668  Tot: +0.00633 ]
	SubspaceRotationAdjust: set factor to 0.768
ElecMinimize: Iter:   7  F: -1957.563008103649736  |grad|_K:  8.709e-06  alpha:  5.713e-01  linmin:  1.394e-05  t[s]:   1602.40
	FillingsUpdate:  mu: -0.106069401  nElectrons: 447.500000  magneticMoment: [ Abs: 0.00768  Tot: +0.00745 ]
	SubspaceRotationAdjust: set factor to 0.874
ElecMinimize: Iter:   8  F: -1957.574183784401839  |grad|_K:  7.048e-06  alpha:  6.056e-01  linmin:  4.646e-06  t[s]:   1682.35
	FillingsUpdate:  mu: -0.104796476  nElectrons: 447.500000  magneticMoment: [ Abs: 0.00871  Tot: +0.00852 ]
	SubspaceRotationAdjust: set factor to 1
ElecMinimize: Iter:   9  F: -1957.579570864855668  |grad|_K:  4.209e-06  alpha:  4.435e-01  linmin: -2.228e-06  t[s]:   1762.15
	FillingsUpdate:  mu: -0.104251734  nElectrons: 447.500000  magneticMoment: [ Abs: 0.00983  Tot: +0.00962 ]
	SubspaceRotationAdjust: set factor to 1.16
ElecMinimize: Iter:  10  F: -1957.581885120331208  |grad|_K:  3.052e-06  alpha:  5.317e-01  linmin: -8.590e-06  t[s]:   1842.62
	FillingsUpdate:  mu: -0.107114103  nElectrons: 447.500000  magneticMoment: [ Abs: 0.01094  Tot: +0.01069 ]
	SubspaceRotationAdjust: set factor to 1.03
ElecMinimize: Iter:  11  F: -1957.582913415684288  |grad|_K:  2.326e-06  alpha:  4.493e-01  linmin: -1.721e-06  t[s]:   1922.67
	FillingsUpdate:  mu: -0.105878931  nElectrons: 447.500000  magneticMoment: [ Abs: 0.01224  Tot: +0.01191 ]
	SubspaceRotationAdjust: set factor to 1.01
ElecMinimize: Iter:  12  F: -1957.583476548699537  |grad|_K:  1.585e-06  alpha:  4.238e-01  linmin: -9.738e-07  t[s]:   2002.67
	FillingsUpdate:  mu: -0.106192627  nElectrons: 447.500000  magneticMoment: [ Abs: 0.01370  Tot: +0.01329 ]
	SubspaceRotationAdjust: set factor to 1.28
ElecMinimize: Iter:  13  F: -1957.583788440319950  |grad|_K:  1.031e-06  alpha:  5.055e-01  linmin:  2.885e-06  t[s]:   2081.97
	FillingsUpdate:  mu: -0.106372815  nElectrons: 447.500000  magneticMoment: [ Abs: 0.01524  Tot: +0.01475 ]
	SubspaceRotationAdjust: set factor to 1.35
ElecMinimize: Iter:  14  F: -1957.583932974895106  |grad|_K:  8.419e-07  alpha:  5.547e-01  linmin:  1.492e-06  t[s]:   2161.51
	FillingsUpdate:  mu: -0.105925371  nElectrons: 447.500000  magneticMoment: [ Abs: 0.01676  Tot: +0.01621 ]
	SubspaceRotationAdjust: set factor to 1.18
ElecMinimize: Iter:  15  F: -1957.583998911942672  |grad|_K:  5.816e-07  alpha:  3.792e-01  linmin:  1.846e-08  t[s]:   2241.73
	FillingsUpdate:  mu: -0.106376595  nElectrons: 447.500000  magneticMoment: [ Abs: 0.01852  Tot: +0.01791 ]
	SubspaceRotationAdjust: set factor to 1.09
ElecMinimize: Iter:  16  F: -1957.584032252583029  |grad|_K:  4.200e-07  alpha:  4.017e-01  linmin:  5.611e-07  t[s]:   2321.20
	FillingsUpdate:  mu: -0.106077591  nElectrons: 447.500000  magneticMoment: [ Abs: 0.02044  Tot: +0.01977 ]
	SubspaceRotationAdjust: set factor to 1.1
ElecMinimize: Iter:  17  F: -1957.584050039330805  |grad|_K:  2.799e-07  alpha:  4.111e-01  linmin: -2.500e-07  t[s]:   2401.25
	FillingsUpdate:  mu: -0.106186665  nElectrons: 447.500000  magneticMoment: [ Abs: 0.02260  Tot: +0.02187 ]
	SubspaceRotationAdjust: set factor to 1.2
ElecMinimize: Iter:  18  F: -1957.584059324304690  |grad|_K:  2.066e-07  alpha:  4.827e-01  linmin: -2.047e-07  t[s]:   2481.21
	FillingsUpdate:  mu: -0.106265379  nElectrons: 447.500000  magneticMoment: [ Abs: 0.02497  Tot: +0.02416 ]
	SubspaceRotationAdjust: set factor to 1.35
ElecMinimize: Iter:  19  F: -1957.584064130116531  |grad|_K:  1.346e-07  alpha:  4.585e-01  linmin: -2.320e-08  t[s]:   2561.56
	FillingsUpdate:  mu: -0.106140787  nElectrons: 447.500000  magneticMoment: [ Abs: 0.02752  Tot: +0.02662 ]
	SubspaceRotationAdjust: set factor to 1.26
ElecMinimize: Iter:  20  F: -1957.584066203454995  |grad|_K:  1.143e-07  alpha:  4.665e-01  linmin: -5.466e-08  t[s]:   2641.29
	FillingsUpdate:  mu: -0.106233954  nElectrons: 447.500000  magneticMoment: [ Abs: 0.03018  Tot: +0.02920 ]
	SubspaceRotationAdjust: set factor to 1.11
ElecMinimize: Iter:  21  F: -1957.584067274358404  |grad|_K:  7.327e-08  alpha:  3.338e-01  linmin:  2.450e-07  t[s]:   2720.95
	FillingsUpdate:  mu: -0.106194069  nElectrons: 447.500000  magneticMoment: [ Abs: 0.03376  Tot: +0.03267 ]
	SubspaceRotationAdjust: set factor to 1.23
ElecMinimize: Iter:  22  F: -1957.584067911969669  |grad|_K:  5.172e-08  alpha:  4.842e-01  linmin:  8.415e-07  t[s]:   2802.44
	FillingsUpdate:  mu: -0.106190430  nElectrons: 447.500000  magneticMoment: [ Abs: 0.03773  Tot: +0.03651 ]
	SubspaceRotationAdjust: set factor to 1.45
ElecMinimize: Iter:  23  F: -1957.584068248071389  |grad|_K:  3.738e-08  alpha:  5.124e-01  linmin: -4.626e-07  t[s]:   2883.05
	FillingsUpdate:  mu: -0.106220373  nElectrons: 447.500000  magneticMoment: [ Abs: 0.04190  Tot: +0.04054 ]
	SubspaceRotationAdjust: set factor to 1.45
ElecMinimize: Iter:  24  F: -1957.584068404954223  |grad|_K:  3.190e-08  alpha:  4.574e-01  linmin:  4.807e-07  t[s]:   2963.70
	FillingsUpdate:  mu: -0.106191233  nElectrons: 447.500000  magneticMoment: [ Abs: 0.04673  Tot: +0.04522 ]
	SubspaceRotationAdjust: set factor to 1.33
ElecMinimize: Iter:  25  F: -1957.584068496290683  |grad|_K:  2.403e-08  alpha:  3.658e-01  linmin:  1.021e-06  t[s]:   3043.82
	FillingsUpdate:  mu: -0.106210602  nElectrons: 447.500000  magneticMoment: [ Abs: 0.05271  Tot: +0.05102 ]
	SubspaceRotationAdjust: set factor to 1.32
ElecMinimize: Iter:  26  F: -1957.584068553495399  |grad|_K:  2.014e-08  alpha:  4.038e-01  linmin: -7.725e-07  t[s]:   3123.74
	FillingsUpdate:  mu: -0.106207008  nElectrons: 447.500000  magneticMoment: [ Abs: 0.06225  Tot: +0.06026 ]
	SubspaceRotationAdjust: set factor to 1.48
ElecMinimize: Iter:  27  F: -1957.584068606643086  |grad|_K:  1.915e-08  alpha:  5.319e-01  linmin: -1.359e-06  t[s]:   3201.66
	FillingsUpdate:  mu: -0.106204307  nElectrons: 447.500000  magneticMoment: [ Abs: 0.07996  Tot: +0.07741 ]
	SubspaceRotationAdjust: set factor to 1.81
ElecMinimize: Iter:  28  F: -1957.584068670657189  |grad|_K:  2.317e-08  alpha:  7.070e-01  linmin: -1.095e-06  t[s]:   3281.36
	FillingsUpdate:  mu: -0.106237825  nElectrons: 447.500000  magneticMoment: [ Abs: 0.14385  Tot: +0.13930 ]
	SubspaceRotationAdjust: set factor to 1.48
ElecMinimize: Iter:  29  F: -1957.584068841719727  |grad|_K:  5.688e-08  alpha:  1.296e+00  linmin:  4.622e-07  t[s]:   3360.97
	FillingsUpdate:  mu: -0.106073532  nElectrons: 447.500000  magneticMoment: [ Abs: 0.57187  Tot: +0.55494 ]
	SubspaceRotationAdjust: set factor to 1.4
ElecMinimize: Iter:  30  F: -1957.584069886121142  |grad|_K:  2.406e-07  alpha:  1.319e+00  linmin:  7.303e-06  t[s]:   3439.67
	FillingsUpdate:  mu: -0.106073518  nElectrons: 447.500000  magneticMoment: [ Abs: 0.57194  Tot: +0.55501 ]
	SubspaceRotationAdjust: set factor to 1.36
ElecMinimize: Iter:  31  F: -1957.584069886375801  |grad|_K:  2.372e-07  alpha:  1.144e-05  linmin: -3.307e-05  t[s]:   3518.51
ElecMinimize: 	Predicted alpha/alphaT>3.000000, increasing alphaT to 3.432915e-05.
ElecMinimize: 	Wrong curvature in test step, increasing alphaT to 1.029875e-04.
	FillingsUpdate:  mu: -0.106073508  nElectrons: 447.500000  magneticMoment: [ Abs: 0.57214  Tot: +0.55520 ]
	SubspaceRotationAdjust: set factor to 1.34
ElecMinimize: Iter:  32  F: -1957.584069888197291  |grad|_K:  2.355e-07  alpha: -1.681e-03  linmin: -7.462e-05  t[s]:   3615.12
ElecMinimize: Converged (|Delta F|<1.000000e-08 for 2 iters).
Setting wave functions to eigenvectors of Hamiltonian
Vacuum energy after initial minimize, F = -1957.584069888197291

	Linear fluid (dielectric constant: 78.4, screening length: 5.74355 Bohr) occupying 0.730096 of unit cell:	Completed after 13 iterations at t[s]:   3634.36

-------- Electronic minimization -----------
	Linear fluid (dielectric constant: 78.4, screening length: 5.74355 Bohr) occupying 0.730096 of unit cell:	Completed after 0 iterations at t[s]:   3655.46
	FillingsUpdate:  mu: -0.158800455  nElectrons: 447.500000  magneticMoment: [ Abs: 0.63010  Tot: +0.61300 ]
ElecMinimize: Iter:   0  F: -1957.536566900015487  |grad|_K:  3.188e-06  alpha:  1.000e+00
	Linear fluid (dielectric constant: 78.4, screening length: 5.74355 Bohr) occupying 0.734111 of unit cell:	Completed after 10 iterations at t[s]:   3718.35
	Linear fluid (dielectric constant: 78.4, screening length: 5.74355 Bohr) occupying 0.730809 of unit cell:	Completed after 11 iterations at t[s]:   3746.66
	FillingsUpdate:  mu: -0.153541242  nElectrons: 447.500000  magneticMoment: [ Abs: 0.64750  Tot: +0.62979 ]
	SubspaceRotationAdjust: set factor to 0.935
ElecMinimize: Iter:   1  F: -1957.537006544009046  |grad|_K:  1.271e-06  alpha:  1.784e-01  linmin:  9.013e-06  t[s]:   3782.03
	Linear fluid (dielectric constant: 78.4, screening length: 5.74355 Bohr) occupying 0.730986 of unit cell:	Completed after 7 iterations at t[s]:   3807.18
ElecMinimize: 	Predicted alpha/alphaT>3.000000, increasing alphaT to 5.351446e-01.
	Linear fluid (dielectric constant: 78.4, screening length: 5.74355 Bohr) occupying 0.731339 of unit cell:	Completed after 8 iterations at t[s]:   3834.34
	Linear fluid (dielectric constant: 78.4, screening length: 5.74355 Bohr) occupying 0.731418 of unit cell:	Completed after 6 iterations at t[s]:   3863.13
	FillingsUpdate:  mu: -0.152558678  nElectrons: 447.500000  magneticMoment: [ Abs: 0.71689  Tot: +0.69673 ]
	SubspaceRotationAdjust: set factor to 0.724
ElecMinimize: Iter:   2  F: -1957.537247324149575  |grad|_K:  7.398e-07  alpha:  6.141e-01  linmin: -3.733e-07  t[s]:   3897.68
	Linear fluid (dielectric constant: 78.4, screening length: 5.74355 Bohr) occupying 0.731603 of unit cell:	Completed after 6 iterations at t[s]:   3923.22
	Linear fluid (dielectric constant: 78.4, screening length: 5.74355 Bohr) occupying 0.731614 of unit cell:	Completed after 2 iterations at t[s]:   3950.02
	FillingsUpdate:  mu: -0.151972328  nElectrons: 447.500000  magneticMoment: [ Abs: 0.79296  Tot: +0.76968 ]
	SubspaceRotationAdjust: set factor to 0.897
ElecMinimize: Iter:   3  F: -1957.537335082885193  |grad|_K:  5.299e-07  alpha:  6.519e-01  linmin: -8.794e-07  t[s]:   3984.41
	Linear fluid (dielectric constant: 78.4, screening length: 5.74355 Bohr) occupying 0.731606 of unit cell:	Completed after 3 iterations at t[s]:   4008.12
	Linear fluid (dielectric constant: 78.4, screening length: 5.74355 Bohr) occupying 0.731607 of unit cell:	Completed after 2 iterations at t[s]:   4034.68
	FillingsUpdate:  mu: -0.152387563  nElectrons: 447.500000  magneticMoment: [ Abs: 0.86998  Tot: +0.84331 ]
	SubspaceRotationAdjust: set factor to 0.864
ElecMinimize: Iter:   4  F: -1957.537376491839723  |grad|_K:  4.582e-07  alpha:  5.995e-01  linmin: -1.181e-06  t[s]:   4068.75
	Linear fluid (dielectric constant: 78.4, screening length: 5.74355 Bohr) occupying 0.731640 of unit cell:	Completed after 6 iterations at t[s]:   4093.36
	Linear fluid (dielectric constant: 78.4, screening length: 5.74355 Bohr) occupying 0.731642 of unit cell:	Completed after 0 iterations at t[s]:   4120.28
	FillingsUpdate:  mu: -0.151974594  nElectrons: 447.500000  magneticMoment: [ Abs: 0.98930  Tot: +0.95786 ]
	SubspaceRotationAdjust: set factor to 0.889
ElecMinimize: Iter:   5  F: -1957.537408744565710  |grad|_K:  2.934e-07  alpha:  6.257e-01  linmin: -2.387e-06  t[s]:   4154.31
	Linear fluid (dielectric constant: 78.4, screening length: 5.74355 Bohr) occupying 0.731618 of unit cell:	Completed after 2 iterations at t[s]:   4178.37
	Linear fluid (dielectric constant: 78.4, screening length: 5.74355 Bohr) occupying 0.731607 of unit cell:	Completed after 1 iterations at t[s]:   4204.59
	FillingsUpdate:  mu: -0.152082819  nElectrons: 447.500000  magneticMoment: [ Abs: 1.15981  Tot: +1.12235 ]
	SubspaceRotationAdjust: set factor to 1.07
ElecMinimize: Iter:   6  F: -1957.537428477232652  |grad|_K:  2.775e-07  alpha:  9.348e-01  linmin:  2.374e-06  t[s]:   4239.01
	Linear fluid (dielectric constant: 78.4, screening length: 5.74355 Bohr) occupying 0.731629 of unit cell:	Completed after 2 iterations at t[s]:   4263.22
	Linear fluid (dielectric constant: 78.4, screening length: 5.74355 Bohr) occupying 0.731631 of unit cell:	Completed after 0 iterations at t[s]:   4289.03
	FillingsUpdate:  mu: -0.151950744  nElectrons: 447.500000  magneticMoment: [ Abs: 1.45130  Tot: +1.40442 ]
	SubspaceRotationAdjust: set factor to 1.28
ElecMinimize: Iter:   7  F: -1957.537447217635190  |grad|_K:  4.047e-07  alpha:  1.008e+00  linmin: -1.373e-06  t[s]:   4322.46
	Linear fluid (dielectric constant: 78.4, screening length: 5.74355 Bohr) occupying 0.731728 of unit cell:	Completed after 6 iterations at t[s]:   4347.02
	Linear fluid (dielectric constant: 78.4, screening length: 5.74355 Bohr) occupying 0.731844 of unit cell:	Completed after 6 iterations at t[s]:   4374.61
	FillingsUpdate:  mu: -0.151631061  nElectrons: 447.500000  magneticMoment: [ Abs: 3.09645  Tot: +2.99928 ]
	SubspaceRotationAdjust: set factor to 1.39
ElecMinimize: Iter:   8  F: -1957.537529594668058  |grad|_K:  1.065e-06  alpha:  2.054e+00  linmin:  1.166e-05  t[s]:   4409.42
	Linear fluid (dielectric constant: 78.4, screening length: 5.74355 Bohr) occupying 0.720512 of unit cell:	Completed after 10 iterations at t[s]:   4435.04
	Linear fluid (dielectric constant: 78.4, screening length: 5.74355 Bohr) occupying 0.731849 of unit cell:	Completed after 11 iterations at t[s]:   4463.32
	FillingsUpdate:  mu: -0.151589000  nElectrons: 447.500000  magneticMoment: [ Abs: 3.12575  Tot: +3.02771 ]
	SubspaceRotationAdjust: set factor to 1.77
ElecMinimize: Iter:   9  F: -1957.537532196267648  |grad|_K:  1.082e-06  alpha:  4.888e-03  linmin: -6.874e-04  t[s]:   4499.84
	Linear fluid (dielectric constant: 78.4, screening length: 5.74355 Bohr) occupying 0.731854 of unit cell:	Completed after 0 iterations at t[s]:   4523.67
ElecMinimize: 	Wrong curvature in test step, increasing alphaT to 1.466477e-02.
	Linear fluid (dielectric constant: 78.4, screening length: 5.74355 Bohr) occupying 0.731854 of unit cell:	Completed after 0 iterations at t[s]:   4544.53
	FillingsUpdate:  mu: -0.151588824  nElectrons: 447.500000  magneticMoment: [ Abs: 3.15852  Tot: +3.05952 ]
	SubspaceRotationAdjust: set factor to 2.27
ElecMinimize: Iter:  10  F: -1957.537537751881246  |grad|_K:  1.121e-06  alpha: -8.702e-01  linmin: -4.531e-04  t[s]:   4578.44
	Linear fluid (dielectric constant: 78.4, screening length: 5.74355 Bohr) occupying 0.733208 of unit cell:	Completed after 10 iterations at t[s]:   4604.79
	Linear fluid (dielectric constant: 78.4, screening length: 5.74355 Bohr) occupying 0.732808 of unit cell:	Completed after 8 iterations at t[s]:   4632.85
	FillingsUpdate:  mu: -0.149155731  nElectrons: 447.500000  magneticMoment: [ Abs: 8.39400  Tot: +8.15011 ]
	SubspaceRotationAdjust: set factor to 2.31
ElecMinimize: Iter:  11  F: -1957.538557966872304  |grad|_K:  3.920e-06  alpha:  6.752e-01  linmin: -4.521e-05  t[s]:   4668.29
	Linear fluid (dielectric constant: 78.4, screening length: 5.74355 Bohr) occupying 0.665609 of unit cell:	Completed after 11 iterations at t[s]:   4693.75
	Linear fluid (dielectric constant: 78.4, screening length: 5.74355 Bohr) occupying 0.732877 of unit cell:	Completed after 11 iterations at t[s]:   4722.45
	FillingsUpdate:  mu: -0.148982492  nElectrons: 447.500000  magneticMoment: [ Abs: 8.78139  Tot: +8.52745 ]
	SubspaceRotationAdjust: set factor to 2.93
ElecMinimize: Iter:  12  F: -1957.538635456677412  |grad|_K:  4.163e-06  alpha:  4.094e-03  linmin: -7.739e-05  t[s]:   4757.92
	Linear fluid (dielectric constant: 78.4, screening length: 5.74355 Bohr) occupying 0.732952 of unit cell:	Completed after 3 iterations at t[s]:   4782.44
ElecMinimize: 	Predicted alpha/alphaT>3.000000, increasing alphaT to 1.228296e-02.
	Linear fluid (dielectric constant: 78.4, screening length: 5.74355 Bohr) occupying 0.733103 of unit cell:	Completed after 6 iterations at t[s]:   4809.69
ElecMinimize: 	Predicted alpha/alphaT>3.000000, increasing alphaT to 3.684889e-02.
	Linear fluid (dielectric constant: 78.4, screening length: 5.74355 Bohr) occupying 0.733499 of unit cell:	Completed after 8 iterations at t[s]:   4837.19
	Linear fluid (dielectric constant: 78.4, screening length: 5.74355 Bohr) occupying 0.733077 of unit cell:	Completed after 8 iterations at t[s]:   4864.51
	FillingsUpdate:  mu: -0.148485895  nElectrons: 447.500000  magneticMoment: [ Abs: 9.95540  Tot: +9.67166 ]
	SubspaceRotationAdjust: set factor to 3.39
ElecMinimize: Iter:  13  F: -1957.538952879684530  |grad|_K:  4.884e-06  alpha:  1.090e-02  linmin: -1.015e-04  t[s]:   4899.65
	Linear fluid (dielectric constant: 78.4, screening length: 5.74355 Bohr) occupying 0.733352 of unit cell:	Completed after 8 iterations at t[s]:   4924.50
ElecMinimize: 	Predicted alpha/alphaT>3.000000, increasing alphaT to 3.269374e-02.
	Linear fluid (dielectric constant: 78.4, screening length: 5.74355 Bohr) occupying 0.733749 of unit cell:	Completed after 8 iterations at t[s]:   4952.21
	Linear fluid (dielectric constant: 78.4, screening length: 5.74355 Bohr) occupying 0.733212 of unit cell:	Completed after 8 iterations at t[s]:   4980.98
	FillingsUpdate:  mu: -0.148154854  nElectrons: 447.500000  magneticMoment: [ Abs: 10.75637  Tot: +10.45286 ]
	SubspaceRotationAdjust: set factor to 3.59
ElecMinimize: Iter:  14  F: -1957.539221672034955  |grad|_K:  5.364e-06  alpha:  5.370e-03  linmin: -1.365e-04  t[s]:   5016.19
	Linear fluid (dielectric constant: 78.4, screening length: 5.74355 Bohr) occupying 0.733375 of unit cell:	Completed after 6 iterations at t[s]:   5041.05
ElecMinimize: 	Predicted alpha/alphaT>3.000000, increasing alphaT to 1.610906e-02.
	Linear fluid (dielectric constant: 78.4, screening length: 5.74355 Bohr) occupying 0.733704 of unit cell:	Completed after 8 iterations at t[s]:   5068.70
ElecMinimize: 	Predicted alpha/alphaT>3.000000, increasing alphaT to 4.832718e-02.
	Linear fluid (dielectric constant: 78.4, screening length: 5.74355 Bohr) occupying 0.734371 of unit cell:	Completed after 8 iterations at t[s]:   5096.65
	Linear fluid (dielectric constant: 78.4, screening length: 5.74355 Bohr) occupying 0.733454 of unit cell:	Completed after 8 iterations at t[s]:   5125.33
	FillingsUpdate:  mu: -0.147558542  nElectrons: 447.500000  magneticMoment: [ Abs: 12.19468  Tot: +11.85666 ]
	SubspaceRotationAdjust: set factor to 3.36
ElecMinimize: Iter:  15  F: -1957.539783077127368  |grad|_K:  6.101e-06  alpha:  7.980e-03  linmin: -1.674e-04  t[s]:   5160.42
	Linear fluid (dielectric constant: 78.4, screening length: 5.74355 Bohr) occupying 0.733774 of unit cell:	Completed after 8 iterations at t[s]:   5186.33
ElecMinimize: 	Predicted alpha/alphaT>3.000000, increasing alphaT to 2.394109e-02.
	Linear fluid (dielectric constant: 78.4, screening length: 5.74355 Bohr) occupying 0.734406 of unit cell:	Completed after 8 iterations at t[s]:   5214.04
	Linear fluid (dielectric constant: 78.4, screening length: 5.74355 Bohr) occupying 0.734310 of unit cell:	Completed after 6 iterations at t[s]:   5242.18
	FillingsUpdate:  mu: -0.145172622  nElectrons: 447.500000  magneticMoment: [ Abs: 16.97985  Tot: +16.53601 ]
	SubspaceRotationAdjust: set factor to 1.97
ElecMinimize: Iter:  16  F: -1957.541006934325196  |grad|_K:  1.281e-05  alpha:  2.140e-02  linmin:  7.558e-05  t[s]:   5276.95
ElecMinimize: 	Bad step direction: g.d > 0.
ElecMinimize: 	Undoing step.
	Linear fluid (dielectric constant: 78.4, screening length: 5.74355 Bohr) occupying 0.734310 of unit cell:	Completed after 0 iterations at t[s]:   5300.63
ElecMinimize: 	Step failed: resetting search direction.
	FillingsUpdate:  mu: -0.145172622  nElectrons: 447.500000  magneticMoment: [ Abs: 16.97985  Tot: +16.53601 ]
	SubspaceRotationAdjust: set factor to 1.27
ElecMinimize: Iter:  17  F: -1957.541006934350207  |grad|_K:  1.029e-05  alpha:  0.000e+00
	Linear fluid (dielectric constant: 78.4, screening length: 5.74355 Bohr) occupying 0.734321 of unit cell:	Completed after 2 iterations at t[s]:   5359.09
	Linear fluid (dielectric constant: 78.4, screening length: 5.74355 Bohr) occupying 0.734321 of unit cell:	Completed after 1 iterations at t[s]:   5384.92
	FillingsUpdate:  mu: -0.145174493  nElectrons: 447.500000  magneticMoment: [ Abs: 17.02867  Tot: +16.58098 ]
	SubspaceRotationAdjust: set factor to 1.96
ElecMinimize: Iter:  18  F: -1957.541909220638672  |grad|_K:  5.228e-06  alpha:  3.073e-02  linmin: -2.346e-04  t[s]:   5419.21
	Linear fluid (dielectric constant: 78.4, screening length: 5.74355 Bohr) occupying 0.734313 of unit cell:	Completed after 2 iterations at t[s]:   5442.53
ElecMinimize: 	Predicted alpha/alphaT>3.000000, increasing alphaT to 9.219892e-02.
	Linear fluid (dielectric constant: 78.4, screening length: 5.74355 Bohr) occupying 0.734295 of unit cell:	Completed after 2 iterations at t[s]:   5468.74
	Linear fluid (dielectric constant: 78.4, screening length: 5.74355 Bohr) occupying 0.734275 of unit cell:	Completed after 2 iterations at t[s]:   5495.12
	FillingsUpdate:  mu: -0.145382747  nElectrons: 447.500000  magneticMoment: [ Abs: 17.27448  Tot: +16.80660 ]
	SubspaceRotationAdjust: set factor to 2.21
ElecMinimize: Iter:  19  F: -1957.543654074707774  |grad|_K:  2.867e-06  alpha:  1.641e-01  linmin: -2.691e-04  t[s]:   5529.88
	Linear fluid (dielectric constant: 78.4, screening length: 5.74355 Bohr) occupying 0.734266 of unit cell:	Completed after 6 iterations at t[s]:   5554.71
	Linear fluid (dielectric constant: 78.4, screening length: 5.74355 Bohr) occupying 0.734252 of unit cell:	Completed after 6 iterations at t[s]:   5581.94
	FillingsUpdate:  mu: -0.144486840  nElectrons: 447.500000  magneticMoment: [ Abs: 18.11293  Tot: +17.59037 ]
	SubspaceRotationAdjust: set factor to 2.56
ElecMinimize: Iter:  20  F: -1957.544890004932313  |grad|_K:  3.193e-06  alpha:  4.084e-01  linmin: -8.994e-06  t[s]:   5617.67
	Linear fluid (dielectric constant: 78.4, screening length: 5.74355 Bohr) occupying 0.734053 of unit cell:	Completed after 4 iterations at t[s]:   5642.19
	Linear fluid (dielectric constant: 78.4, screening length: 5.74355 Bohr) occupying 0.734025 of unit cell:	Completed after 2 iterations at t[s]:   5668.84
	FillingsUpdate:  mu: -0.144375238  nElectrons: 447.500000  magneticMoment: [ Abs: 20.04057  Tot: +19.39518 ]
	SubspaceRotationAdjust: set factor to 2.9
ElecMinimize: Iter:  21  F: -1957.546165422942067  |grad|_K:  3.760e-06  alpha:  4.642e-01  linmin: -7.409e-07  t[s]:   5703.03
	Linear fluid (dielectric constant: 78.4, screening length: 5.74355 Bohr) occupying 0.733745 of unit cell:	Completed after 8 iterations at t[s]:   5728.10
	Linear fluid (dielectric constant: 78.4, screening length: 5.74355 Bohr) occupying 0.733835 of unit cell:	Completed after 6 iterations at t[s]:   5755.96
	FillingsUpdate:  mu: -0.143577021  nElectrons: 447.500000  magneticMoment: [ Abs: 22.34201  Tot: +21.53043 ]
	SubspaceRotationAdjust: set factor to 3.85
ElecMinimize: Iter:  22  F: -1957.547320762959998  |grad|_K:  3.747e-06  alpha:  3.259e-01  linmin:  3.206e-06  t[s]:   5790.69
	Linear fluid (dielectric constant: 78.4, screening length: 5.74355 Bohr) occupying 0.733660 of unit cell:	Completed after 4 iterations at t[s]:   5815.37
	Linear fluid (dielectric constant: 78.4, screening length: 5.74355 Bohr) occupying 0.733732 of unit cell:	Completed after 3 iterations at t[s]:   5842.07
	FillingsUpdate:  mu: -0.143299224  nElectrons: 447.500000  magneticMoment: [ Abs: 24.03877  Tot: +23.07821 ]
	SubspaceRotationAdjust: set factor to 4.85
ElecMinimize: Iter:  23  F: -1957.548100593136041  |grad|_K:  2.686e-06  alpha:  2.228e-01  linmin:  9.844e-08  t[s]:   5876.93
	Linear fluid (dielectric constant: 78.4, screening length: 5.74355 Bohr) occupying 0.733840 of unit cell:	Completed after 8 iterations at t[s]:   5902.39
	Linear fluid (dielectric constant: 78.4, screening length: 5.74355 Bohr) occupying 0.733813 of unit cell:	Completed after 4 iterations at t[s]:   5929.85
	FillingsUpdate:  mu: -0.142299475  nElectrons: 447.500000  magneticMoment: [ Abs: 24.64647  Tot: +23.61615 ]
	SubspaceRotationAdjust: set factor to 4.65
ElecMinimize: Iter:  24  F: -1957.548379775138073  |grad|_K:  1.830e-06  alpha:  1.558e-01  linmin:  3.793e-08  t[s]:   5964.44
	Linear fluid (dielectric constant: 78.4, screening length: 5.74355 Bohr) occupying 0.733798 of unit cell:	Completed after 3 iterations at t[s]:   5989.06
	Linear fluid (dielectric constant: 78.4, screening length: 5.74355 Bohr) occupying 0.733795 of unit cell:	Completed after 2 iterations at t[s]:   6015.91
	FillingsUpdate:  mu: -0.142462675  nElectrons: 447.500000  magneticMoment: [ Abs: 24.87934  Tot: +23.80568 ]
	SubspaceRotationAdjust: set factor to 5.01
ElecMinimize: Iter:  25  F: -1957.548534777889017  |grad|_K:  1.737e-06  alpha:  1.890e-01  linmin:  1.013e-06  t[s]:   6050.70
	Linear fluid (dielectric constant: 78.4, screening length: 5.74355 Bohr) occupying 0.733789 of unit cell:	Completed after 6 iterations at t[s]:   6075.49
	Linear fluid (dielectric constant: 78.4, screening length: 5.74355 Bohr) occupying 0.733788 of unit cell:	Completed after 2 iterations at t[s]:   6102.33
	FillingsUpdate:  mu: -0.141944468  nElectrons: 447.500000  magneticMoment: [ Abs: 24.97369  Tot: +23.85880 ]
	SubspaceRotationAdjust: set factor to 5.89
ElecMinimize: Iter:  26  F: -1957.548705358008419  |grad|_K:  1.858e-06  alpha:  2.320e-01  linmin: -2.069e-07  t[s]:   6136.32
	Linear fluid (dielectric constant: 78.4, screening length: 5.74355 Bohr) occupying 0.733477 of unit cell:	Completed after 8 iterations at t[s]:   6161.15
	Linear fluid (dielectric constant: 78.4, screening length: 5.74355 Bohr) occupying 0.733568 of unit cell:	Completed after 6 iterations at t[s]:   6188.53
	FillingsUpdate:  mu: -0.143114491  nElectrons: 447.500000  magneticMoment: [ Abs: 24.91622  Tot: +23.77980 ]
	SubspaceRotationAdjust: set factor to 5.85
ElecMinimize: Iter:  27  F: -1957.548845047208715  |grad|_K:  1.664e-06  alpha:  1.648e-01  linmin:  1.600e-07  t[s]:   6222.89
	Linear fluid (dielectric constant: 78.4, screening length: 5.74355 Bohr) occupying 0.733485 of unit cell:	Completed after 6 iterations at t[s]:   6247.56
	Linear fluid (dielectric constant: 78.4, screening length: 5.74355 Bohr) occupying 0.733507 of unit cell:	Completed after 2 iterations at t[s]:   6274.67
	FillingsUpdate:  mu: -0.142725042  nElectrons: 447.500000  magneticMoment: [ Abs: 24.79759  Tot: +23.65611 ]
	SubspaceRotationAdjust: set factor to 4.86
ElecMinimize: Iter:  28  F: -1957.548927599503713  |grad|_K:  1.452e-06  alpha:  1.216e-01  linmin:  2.624e-07  t[s]:   6309.11
	Linear fluid (dielectric constant: 78.4, screening length: 5.74355 Bohr) occupying 0.733366 of unit cell:	Completed after 8 iterations at t[s]:   6334.38
	Linear fluid (dielectric constant: 78.4, screening length: 5.74355 Bohr) occupying 0.733357 of unit cell:	Completed after 0 iterations at t[s]:   6360.97
	FillingsUpdate:  mu: -0.143743557  nElectrons: 447.500000  magneticMoment: [ Abs: 24.64045  Tot: +23.49988 ]
	SubspaceRotationAdjust: set factor to 4.5
ElecMinimize: Iter:  29  F: -1957.548994233560506  |grad|_K:  1.191e-06  alpha:  1.289e-01  linmin: -1.294e-05  t[s]:   6395.17
	Linear fluid (dielectric constant: 78.4, screening length: 5.74355 Bohr) occupying 0.733395 of unit cell:	Completed after 6 iterations at t[s]:   6419.90
	Linear fluid (dielectric constant: 78.4, screening length: 5.74355 Bohr) occupying 0.733406 of unit cell:	Completed after 2 iterations at t[s]:   6447.08
	FillingsUpdate:  mu: -0.143430488  nElectrons: 447.500000  magneticMoment: [ Abs: 24.49008  Tot: +23.35155 ]
	SubspaceRotationAdjust: set factor to 4.83
ElecMinimize: Iter:  30  F: -1957.549052447774329  |grad|_K:  9.320e-07  alpha:  1.652e-01  linmin:  6.516e-07  t[s]:   6481.22
	Linear fluid (dielectric constant: 78.4, screening length: 5.74355 Bohr) occupying 0.733472 of unit cell:	Completed after 6 iterations at t[s]:   6506.35
	Linear fluid (dielectric constant: 78.4, screening length: 5.74355 Bohr) occupying 0.733475 of unit cell:	Completed after 0 iterations at t[s]:   6532.77
	FillingsUpdate:  mu: -0.143160692  nElectrons: 447.500000  magneticMoment: [ Abs: 24.41062  Tot: +23.27483 ]
	SubspaceRotationAdjust: set factor to 4.9
ElecMinimize: Iter:  31  F: -1957.549089564032329  |grad|_K:  8.259e-07  alpha:  1.749e-01  linmin: -1.233e-06  t[s]:   6566.10
	Linear fluid (dielectric constant: 78.4, screening length: 5.74355 Bohr) occupying 0.733474 of unit cell:	Completed after 6 iterations at t[s]:   6590.61
	Linear fluid (dielectric constant: 78.4, screening length: 5.74355 Bohr) occupying 0.733474 of unit cell:	Completed after 3 iterations at t[s]:   6617.77
	FillingsUpdate:  mu: -0.143617602  nElectrons: 447.500000  magneticMoment: [ Abs: 24.38930  Tot: +23.25767 ]
	SubspaceRotationAdjust: set factor to 4.61
ElecMinimize: Iter:  32  F: -1957.549112579994471  |grad|_K:  8.195e-07  alpha:  1.365e-01  linmin:  3.687e-06  t[s]:   6652.45
	Linear fluid (dielectric constant: 78.4, screening length: 5.74355 Bohr) occupying 0.733567 of unit cell:	Completed after 6 iterations at t[s]:   6677.06
	Linear fluid (dielectric constant: 78.4, screening length: 5.74355 Bohr) occupying 0.733563 of unit cell:	Completed after 0 iterations at t[s]:   6703.59
	FillingsUpdate:  mu: -0.143074335  nElectrons: 447.500000  magneticMoment: [ Abs: 24.39957  Tot: +23.27494 ]
	SubspaceRotationAdjust: set factor to 4.39
ElecMinimize: Iter:  33  F: -1957.549134153230852  |grad|_K:  6.764e-07  alpha:  1.313e-01  linmin:  5.214e-07  t[s]:   6736.96
	Linear fluid (dielectric constant: 78.4, screening length: 5.74355 Bohr) occupying 0.733590 of unit cell:	Completed after 2 iterations at t[s]:   6760.73
	Linear fluid (dielectric constant: 78.4, screening length: 5.74355 Bohr) occupying 0.733605 of unit cell:	Completed after 2 iterations at t[s]:   6786.72
	FillingsUpdate:  mu: -0.143070970  nElectrons: 447.500000  magneticMoment: [ Abs: 24.43373  Tot: +23.32350 ]
	SubspaceRotationAdjust: set factor to 4.73
ElecMinimize: Iter:  34  F: -1957.549156964572148  |grad|_K:  6.227e-07  alpha:  2.036e-01  linmin: -2.066e-07  t[s]:   6820.90
	Linear fluid (dielectric constant: 78.4, screening length: 5.74355 Bohr) occupying 0.733632 of unit cell:	Completed after 3 iterations at t[s]:   6845.00
	Linear fluid (dielectric constant: 78.4, screening length: 5.74355 Bohr) occupying 0.733631 of unit cell:	Completed after 0 iterations at t[s]:   6871.19
	FillingsUpdate:  mu: -0.143184164  nElectrons: 447.500000  magneticMoment: [ Abs: 24.46342  Tot: +23.37097 ]
	SubspaceRotationAdjust: set factor to 4.81
ElecMinimize: Iter:  35  F: -1957.549175983397163  |grad|_K:  6.198e-07  alpha:  1.996e-01  linmin:  4.403e-07  t[s]:   6904.76
	Linear fluid (dielectric constant: 78.4, screening length: 5.74355 Bohr) occupying 0.733746 of unit cell:	Completed after 6 iterations at t[s]:   6929.77
	Linear fluid (dielectric constant: 78.4, screening length: 5.74355 Bohr) occupying 0.733726 of unit cell:	Completed after 2 iterations at t[s]:   6957.12
	FillingsUpdate:  mu: -0.142678578  nElectrons: 447.500000  magneticMoment: [ Abs: 24.47568  Tot: +23.40006 ]
	SubspaceRotationAdjust: set factor to 4.55
ElecMinimize: Iter:  36  F: -1957.549191427726782  |grad|_K:  5.969e-07  alpha:  1.635e-01  linmin:  2.754e-06  t[s]:   6991.57
	Linear fluid (dielectric constant: 78.4, screening length: 5.74355 Bohr) occupying 0.733750 of unit cell:	Completed after 6 iterations at t[s]:   7016.48
	Linear fluid (dielectric constant: 78.4, screening length: 5.74355 Bohr) occupying 0.733746 of unit cell:	Completed after 2 iterations at t[s]:   7043.31
	FillingsUpdate:  mu: -0.142936085  nElectrons: 447.500000  magneticMoment: [ Abs: 24.46320  Tot: +23.40085 ]
	SubspaceRotationAdjust: set factor to 4.24
ElecMinimize: Iter:  37  F: -1957.549202915292881  |grad|_K:  4.641e-07  alpha:  1.336e-01  linmin: -1.211e-07  t[s]:   7077.36
	Linear fluid (dielectric constant: 78.4, screening length: 5.74355 Bohr) occupying 0.733790 of unit cell:	Completed after 2 iterations at t[s]:   7101.56
	Linear fluid (dielectric constant: 78.4, screening length: 5.74355 Bohr) occupying 0.733794 of unit cell:	Completed after 0 iterations at t[s]:   7126.87
	FillingsUpdate:  mu: -0.142831339  nElectrons: 447.500000  magneticMoment: [ Abs: 24.43361  Tot: +23.37899 ]
	SubspaceRotationAdjust: set factor to 4.68
ElecMinimize: Iter:  38  F: -1957.549210646926667  |grad|_K:  3.339e-07  alpha:  1.460e-01  linmin: -3.697e-06  t[s]:   7160.06
	Linear fluid (dielectric constant: 78.4, screening length: 5.74355 Bohr) occupying 0.733824 of unit cell:	Completed after 6 iterations at t[s]:   7184.53
	Linear fluid (dielectric constant: 78.4, screening length: 5.74355 Bohr) occupying 0.733830 of unit cell:	Completed after 0 iterations at t[s]:   7211.59
	FillingsUpdate:  mu: -0.142647448  nElectrons: 447.500000  magneticMoment: [ Abs: 24.39553  Tot: +23.34438 ]
	SubspaceRotationAdjust: set factor to 5.22
ElecMinimize: Iter:  39  F: -1957.549215493105976  |grad|_K:  3.327e-07  alpha:  1.714e-01  linmin: -2.749e-05  t[s]:   7245.88
	Linear fluid (dielectric constant: 78.4, screening length: 5.74355 Bohr) occupying 0.733811 of unit cell:	Completed after 6 iterations at t[s]:   7270.16
	Linear fluid (dielectric constant: 78.4, screening length: 5.74355 Bohr) occupying 0.733817 of unit cell:	Completed after 2 iterations at t[s]:   7297.41
	FillingsUpdate:  mu: -0.142892902  nElectrons: 447.500000  magneticMoment: [ Abs: 24.35735  Tot: +23.30817 ]
	SubspaceRotationAdjust: set factor to 4.44
ElecMinimize: Iter:  40  F: -1957.549219021749423  |grad|_K:  3.234e-07  alpha:  1.190e-01  linmin:  2.572e-06  t[s]:   7331.83
	Linear fluid (dielectric constant: 78.4, screening length: 5.74355 Bohr) occupying 0.733829 of unit cell:	Completed after 3 iterations at t[s]:   7356.30
	Linear fluid (dielectric constant: 78.4, screening length: 5.74355 Bohr) occupying 0.733830 of unit cell:	Completed after 0 iterations at t[s]:   7382.96
	FillingsUpdate:  mu: -0.142816473  nElectrons: 447.500000  magneticMoment: [ Abs: 24.31421  Tot: +23.26664 ]
	SubspaceRotationAdjust: set factor to 4.96
ElecMinimize: Iter:  41  F: -1957.549222198564166  |grad|_K:  2.411e-07  alpha:  1.260e-01  linmin: -2.287e-06  t[s]:   7417.09
	Linear fluid (dielectric constant: 78.4, screening length: 5.74355 Bohr) occupying 0.733838 of unit cell:	Completed after 3 iterations at t[s]:   7442.06
	Linear fluid (dielectric constant: 78.4, screening length: 5.74355 Bohr) occupying 0.733840 of unit cell:	Completed after 0 iterations at t[s]:   7467.28
	FillingsUpdate:  mu: -0.142707726  nElectrons: 447.500000  magneticMoment: [ Abs: 24.28812  Tot: +23.24151 ]
	SubspaceRotationAdjust: set factor to 5.18
ElecMinimize: Iter:  42  F: -1957.549224484748038  |grad|_K:  2.501e-07  alpha:  1.555e-01  linmin: -6.365e-05  t[s]:   7500.27
	Linear fluid (dielectric constant: 78.4, screening length: 5.74355 Bohr) occupying 0.733815 of unit cell:	Completed after 2 iterations at t[s]:   7524.45
	Linear fluid (dielectric constant: 78.4, screening length: 5.74355 Bohr) occupying 0.733821 of unit cell:	Completed after 2 iterations at t[s]:   7550.97
	FillingsUpdate:  mu: -0.142817599  nElectrons: 447.500000  magneticMoment: [ Abs: 24.27366  Tot: +23.22766 ]
	SubspaceRotationAdjust: set factor to 4.94
ElecMinimize: Iter:  43  F: -1957.549226394572543  |grad|_K:  2.053e-07  alpha:  1.170e-01  linmin:  3.093e-06  t[s]:   7585.32
	Linear fluid (dielectric constant: 78.4, screening length: 5.74355 Bohr) occupying 0.733817 of unit cell:	Completed after 0 iterations at t[s]:   7609.28
	Linear fluid (dielectric constant: 78.4, screening length: 5.74355 Bohr) occupying 0.733815 of unit cell:	Completed after 1 iterations at t[s]:   7634.91
	FillingsUpdate:  mu: -0.142835825  nElectrons: 447.500000  magneticMoment: [ Abs: 24.27455  Tot: +23.22809 ]
	SubspaceRotationAdjust: set factor to 5.59
ElecMinimize: Iter:  44  F: -1957.549228210519459  |grad|_K:  1.937e-07  alpha:  1.881e-01  linmin:  5.027e-06  t[s]:   7670.52
	Linear fluid (dielectric constant: 78.4, screening length: 5.74355 Bohr) occupying 0.733835 of unit cell:	Completed after 2 iterations at t[s]:   7694.91
	Linear fluid (dielectric constant: 78.4, screening length: 5.74355 Bohr) occupying 0.733829 of unit cell:	Completed after 0 iterations at t[s]:   7721.09
	FillingsUpdate:  mu: -0.142715287  nElectrons: 447.500000  magneticMoment: [ Abs: 24.28696  Tot: +23.23893 ]
	SubspaceRotationAdjust: set factor to 4.6
ElecMinimize: Iter:  45  F: -1957.549229447292646  |grad|_K:  2.146e-07  alpha:  1.364e-01  linmin:  2.241e-05  t[s]:   7755.26
	Linear fluid (dielectric constant: 78.4, screening length: 5.74355 Bohr) occupying 0.733821 of unit cell:	Completed after 1 iterations at t[s]:   7779.29
	Linear fluid (dielectric constant: 78.4, screening length: 5.74355 Bohr) occupying 0.733825 of unit cell:	Completed after 2 iterations at t[s]:   7805.47
	FillingsUpdate:  mu: -0.142803726  nElectrons: 447.500000  magneticMoment: [ Abs: 24.30004  Tot: +23.25042 ]
	SubspaceRotationAdjust: set factor to 4.35
ElecMinimize: Iter:  46  F: -1957.549230119256436  |grad|_K:  1.462e-07  alpha:  7.246e-02  linmin:  4.205e-06  t[s]:   7838.92
	Linear fluid (dielectric constant: 78.4, screening length: 5.74355 Bohr) occupying 0.733827 of unit cell:	Completed after 0 iterations at t[s]:   7862.72
	Linear fluid (dielectric constant: 78.4, screening length: 5.74355 Bohr) occupying 0.733830 of unit cell:	Completed after 2 iterations at t[s]:   7888.96
	FillingsUpdate:  mu: -0.142788215  nElectrons: 447.500000  magneticMoment: [ Abs: 24.32376  Tot: +23.27123 ]
	SubspaceRotationAdjust: set factor to 4.69
ElecMinimize: Iter:  47  F: -1957.549230971696716  |grad|_K:  1.285e-07  alpha:  1.775e-01  linmin:  6.088e-06  t[s]:   7923.30
	Linear fluid (dielectric constant: 78.4, screening length: 5.74355 Bohr) occupying 0.733835 of unit cell:	Completed after 2 iterations at t[s]:   7948.17
	Linear fluid (dielectric constant: 78.4, screening length: 5.74355 Bohr) occupying 0.733834 of unit cell:	Completed after 0 iterations at t[s]:   7974.07
	FillingsUpdate:  mu: -0.142730187  nElectrons: 447.500000  magneticMoment: [ Abs: 24.34286  Tot: +23.28808 ]
	SubspaceRotationAdjust: set factor to 4.52
ElecMinimize: Iter:  48  F: -1957.549231558072961  |grad|_K:  1.379e-07  alpha:  1.545e-01  linmin: -3.154e-07  t[s]:   8007.94
	Linear fluid (dielectric constant: 78.4, screening length: 5.74355 Bohr) occupying 0.733817 of unit cell:	Completed after 2 iterations at t[s]:   8032.55
	Linear fluid (dielectric constant: 78.4, screening length: 5.74355 Bohr) occupying 0.733821 of unit cell:	Completed after 0 iterations at t[s]:   8058.73
	FillingsUpdate:  mu: -0.142781709  nElectrons: 447.500000  magneticMoment: [ Abs: 24.35993  Tot: +23.30323 ]
	SubspaceRotationAdjust: set factor to 4.91
ElecMinimize: Iter:  49  F: -1957.549232139936748  |grad|_K:  1.014e-07  alpha:  1.246e-01  linmin:  7.435e-06  t[s]:   8092.73
	Linear fluid (dielectric constant: 78.4, screening length: 5.74355 Bohr) occupying 0.733811 of unit cell:	Completed after 0 iterations at t[s]:   8116.92
	Linear fluid (dielectric constant: 78.4, screening length: 5.74355 Bohr) occupying 0.733807 of unit cell:	Completed after 0 iterations at t[s]:   8143.07
	FillingsUpdate:  mu: -0.142781587  nElectrons: 447.500000  magneticMoment: [ Abs: 24.36906  Tot: +23.31119 ]
	SubspaceRotationAdjust: set factor to 5.64
ElecMinimize: Iter:  50  F: -1957.549232602915026  |grad|_K:  8.754e-08  alpha:  1.865e-01  linmin:  1.073e-07  t[s]:   8176.34
	Linear fluid (dielectric constant: 78.4, screening length: 5.74355 Bohr) occupying 0.733796 of unit cell:	Completed after 3 iterations at t[s]:   8200.14
	Linear fluid (dielectric constant: 78.4, screening length: 5.74355 Bohr) occupying 0.733798 of unit cell:	Completed after 0 iterations at t[s]:   8226.27
	FillingsUpdate:  mu: -0.142806051  nElectrons: 447.500000  magneticMoment: [ Abs: 24.36835  Tot: +23.31002 ]
	SubspaceRotationAdjust: set factor to 5.94
ElecMinimize: Iter:  51  F: -1957.549232855079481  |grad|_K:  9.383e-08  alpha:  1.469e-01  linmin: -9.629e-06  t[s]:   8260.50
	Linear fluid (dielectric constant: 78.4, screening length: 5.74355 Bohr) occupying 0.733792 of unit cell:	Completed after 2 iterations at t[s]:   8284.42
	Linear fluid (dielectric constant: 78.4, screening length: 5.74355 Bohr) occupying 0.733793 of unit cell:	Completed after 0 iterations at t[s]:   8309.89
	FillingsUpdate:  mu: -0.142816295  nElectrons: 447.500000  magneticMoment: [ Abs: 24.36167  Tot: +23.30286 ]
	SubspaceRotationAdjust: set factor to 6.57
ElecMinimize: Iter:  52  F: -1957.549233188299695  |grad|_K:  8.106e-08  alpha:  1.384e-01  linmin: -6.172e-06  t[s]:   8343.52
	Linear fluid (dielectric constant: 78.4, screening length: 5.74355 Bohr) occupying 0.733791 of unit cell:	Completed after 0 iterations at t[s]:   8367.48
	Linear fluid (dielectric constant: 78.4, screening length: 5.74355 Bohr) occupying 0.733791 of unit cell:	Completed after 0 iterations at t[s]:   8392.94
	FillingsUpdate:  mu: -0.142817382  nElectrons: 447.500000  magneticMoment: [ Abs: 24.35058  Tot: +23.29115 ]
	SubspaceRotationAdjust: set factor to 8.06
ElecMinimize: Iter:  53  F: -1957.549233463297014  |grad|_K:  6.930e-08  alpha:  1.627e-01  linmin: -8.686e-08  t[s]:   8426.70
	Linear fluid (dielectric constant: 78.4, screening length: 5.74355 Bohr) occupying 0.733785 of unit cell:	Completed after 1 iterations at t[s]:   8450.32
	Linear fluid (dielectric constant: 78.4, screening length: 5.74355 Bohr) occupying 0.733788 of unit cell:	Completed after 0 iterations at t[s]:   8475.95
	FillingsUpdate:  mu: -0.142852855  nElectrons: 447.500000  magneticMoment: [ Abs: 24.34549  Tot: +23.28572 ]
	SubspaceRotationAdjust: set factor to 5.32
ElecMinimize: Iter:  54  F: -1957.549233530388165  |grad|_K:  1.213e-07  alpha:  7.864e-02  linmin:  9.485e-06  t[s]:   8509.64
	Linear fluid (dielectric constant: 78.4, screening length: 5.74355 Bohr) occupying 0.733783 of unit cell:	Completed after 2 iterations at t[s]:   8533.40
	Linear fluid (dielectric constant: 78.4, screening length: 5.74355 Bohr) occupying 0.733786 of unit cell:	Completed after 0 iterations at t[s]:   8559.52
	FillingsUpdate:  mu: -0.142856599  nElectrons: 447.500000  magneticMoment: [ Abs: 24.33897  Tot: +23.27871 ]
	SubspaceRotationAdjust: set factor to 9.2
ElecMinimize: Iter:  55  F: -1957.549233617872915  |grad|_K:  6.062e-08  alpha:  3.406e-02  linmin:  3.379e-06  t[s]:   8592.96
	Linear fluid (dielectric constant: 78.4, screening length: 5.74355 Bohr) occupying 0.733786 of unit cell:	Completed after 0 iterations at t[s]:   8616.75
ElecMinimize: 	Predicted alpha/alphaT>3.000000, increasing alphaT to 1.021939e-01.
	Linear fluid (dielectric constant: 78.4, screening length: 5.74355 Bohr) occupying 0.733787 of unit cell:	Completed after 0 iterations at t[s]:   8641.45
	Linear fluid (dielectric constant: 78.4, screening length: 5.74355 Bohr) occupying 0.733787 of unit cell:	Completed after 0 iterations at t[s]:   8666.77
	FillingsUpdate:  mu: -0.142855834  nElectrons: 447.500000  magneticMoment: [ Abs: 24.33384  Tot: +23.27318 ]
	SubspaceRotationAdjust: set factor to 10.6
	SubspaceRotationAdjust: resetting CG because factor has changed by 7.89292
	Linear fluid (dielectric constant: 78.4, screening length: 5.74355 Bohr) occupying 0.733787 of unit cell:	Completed after 0 iterations at t[s]:   8715.07
ElecMinimize: 	State modified externally: resetting search direction.
ElecMinimize: Iter:  56  F: -1957.549233727935189  |grad|_K:  5.987e-08  alpha:  1.397e-01
	Linear fluid (dielectric constant: 78.4, screening length: 5.74355 Bohr) occupying 0.733788 of unit cell:	Completed after 1 iterations at t[s]:   8772.46
	Linear fluid (dielectric constant: 78.4, screening length: 5.74355 Bohr) occupying 0.733788 of unit cell:	Completed after 0 iterations at t[s]:   8798.00
	FillingsUpdate:  mu: -0.142822006  nElectrons: 447.500000  magneticMoment: [ Abs: 24.33832  Tot: +23.27796 ]
	SubspaceRotationAdjust: set factor to 6.73
ElecMinimize: Iter:  57  F: -1957.549233809585076  |grad|_K:  7.841e-08  alpha:  1.097e-01  linmin: -1.420e-05  t[s]:   8831.48
	Linear fluid (dielectric constant: 78.4, screening length: 5.74355 Bohr) occupying 0.733771 of unit cell:	Completed after 2 iterations at t[s]:   8855.56
	Linear fluid (dielectric constant: 78.4, screening length: 5.74355 Bohr) occupying 0.733781 of unit cell:	Completed after 2 iterations at t[s]:   8881.76
	FillingsUpdate:  mu: -0.142869165  nElectrons: 447.500000  magneticMoment: [ Abs: 24.34220  Tot: +23.28209 ]
	SubspaceRotationAdjust: set factor to 3.34
ElecMinimize: Iter:  58  F: -1957.549233897951808  |grad|_K:  4.912e-08  alpha:  4.500e-02  linmin:  2.328e-05  t[s]:   8915.93
	Linear fluid (dielectric constant: 78.4, screening length: 5.74355 Bohr) occupying 0.733782 of unit cell:	Completed after 0 iterations at t[s]:   8939.93
ElecMinimize: 	Predicted alpha/alphaT>3.000000, increasing alphaT to 1.349971e-01.
	Linear fluid (dielectric constant: 78.4, screening length: 5.74355 Bohr) occupying 0.733784 of unit cell:	Completed after 0 iterations at t[s]:   8965.17
	Linear fluid (dielectric constant: 78.4, screening length: 5.74355 Bohr) occupying 0.733787 of unit cell:	Completed after 0 iterations at t[s]:   8990.97
	FillingsUpdate:  mu: -0.142863060  nElectrons: 447.500000  magneticMoment: [ Abs: 24.35267  Tot: +23.29278 ]
	SubspaceRotationAdjust: set factor to 3.12
ElecMinimize: Iter:  59  F: -1957.549234001162631  |grad|_K:  4.122e-08  alpha:  2.432e-01  linmin:  1.569e-05  t[s]:   9024.70
	Linear fluid (dielectric constant: 78.4, screening length: 5.74355 Bohr) occupying 0.733800 of unit cell:	Completed after 2 iterations at t[s]:   9048.77
	Linear fluid (dielectric constant: 78.4, screening length: 5.74355 Bohr) occupying 0.733791 of unit cell:	Completed after 1 iterations at t[s]:   9074.84
ElecMinimize: 	Step increased F by 2.136085e-08, reducing alpha to 7.710576e-03.
	Linear fluid (dielectric constant: 78.4, screening length: 5.74355 Bohr) occupying 0.733787 of unit cell:	Completed after 0 iterations at t[s]:   9128.62
ElecMinimize: 	Step increased F by 1.560352e-08, reducing alpha to 7.710576e-04.
	Linear fluid (dielectric constant: 78.4, screening length: 5.74355 Bohr) occupying 0.733787 of unit cell:	Completed after 0 iterations at t[s]:   9181.84
ElecMinimize: 	Step increased F by 1.473791e-08, reducing alpha to 7.710576e-05.
ElecMinimize: 	Step failed to reduce F after 3 attempts. Quitting step.
ElecMinimize: 	Undoing step.
	Linear fluid (dielectric constant: 78.4, screening length: 5.74355 Bohr) occupying 0.733787 of unit cell:	Completed after 0 iterations at t[s]:   9234.42
ElecMinimize: 	Step failed: resetting search direction.
	FillingsUpdate:  mu: -0.142792037  nElectrons: 447.500000  magneticMoment: [ Abs: 24.35268  Tot: +23.29279 ]
	SubspaceRotationAdjust: set factor to 1.93
ElecMinimize: Iter:  60  F: -1957.549233986414720  |grad|_K:  7.179e-08  alpha:  7.711e-05
	Linear fluid (dielectric constant: 78.4, screening length: 5.74355 Bohr) occupying 0.733769 of unit cell:	Completed after 1 iterations at t[s]:   9291.47
	Linear fluid (dielectric constant: 78.4, screening length: 5.74355 Bohr) occupying 0.733781 of unit cell:	Completed after 2 iterations at t[s]:   9317.99
	FillingsUpdate:  mu: -0.142881384  nElectrons: 447.500000  magneticMoment: [ Abs: 24.35189  Tot: +23.29197 ]
	SubspaceRotationAdjust: set factor to 0.918
	SubspaceRotationAdjust: resetting CG because factor has changed by 0.0866623
	Linear fluid (dielectric constant: 78.4, screening length: 5.74355 Bohr) occupying 0.733781 of unit cell:	Completed after 0 iterations at t[s]:   9366.00
ElecMinimize: 	State modified externally: resetting search direction.
ElecMinimize: Iter:  61  F: -1957.549234007961331  |grad|_K:  3.357e-08  alpha:  7.381e-02
	Linear fluid (dielectric constant: 78.4, screening length: 5.74355 Bohr) occupying 0.733783 of unit cell:	Completed after 0 iterations at t[s]:   9423.89
ElecMinimize: 	Predicted alpha/alphaT>3.000000, increasing alphaT to 2.214375e-01.
	Linear fluid (dielectric constant: 78.4, screening length: 5.74355 Bohr) occupying 0.733786 of unit cell:	Completed after 0 iterations at t[s]:   9449.02
	Linear fluid (dielectric constant: 78.4, screening length: 5.74355 Bohr) occupying 0.733791 of unit cell:	Completed after 1 iterations at t[s]:   9474.76
	FillingsUpdate:  mu: -0.142818975  nElectrons: 447.500000  magneticMoment: [ Abs: 24.35121  Tot: +23.29124 ]
	SubspaceRotationAdjust: set factor to 1.34
ElecMinimize: Iter:  62  F: -1957.549234045056437  |grad|_K:  3.539e-08  alpha:  4.985e-01  linmin:  2.286e-04  t[s]:   9508.29
	Linear fluid (dielectric constant: 78.4, screening length: 5.74355 Bohr) occupying 0.733797 of unit cell:	Completed after 0 iterations at t[s]:   9532.16
	Linear fluid (dielectric constant: 78.4, screening length: 5.74355 Bohr) occupying 0.733799 of unit cell:	Completed after 0 iterations at t[s]:   9557.10
	FillingsUpdate:  mu: -0.142819034  nElectrons: 447.500000  magneticMoment: [ Abs: 24.34898  Tot: +23.28903 ]
	SubspaceRotationAdjust: set factor to 1.08
ElecMinimize: Iter:  63  F: -1957.549234127689942  |grad|_K:  3.203e-08  alpha:  6.513e-01  linmin: -3.759e-08  t[s]:   9590.38
	Linear fluid (dielectric constant: 78.4, screening length: 5.74355 Bohr) occupying 0.733792 of unit cell:	Completed after 3 iterations at t[s]:   9614.28
	Linear fluid (dielectric constant: 78.4, screening length: 5.74355 Bohr) occupying 0.733797 of unit cell:	Completed after 1 iterations at t[s]:   9640.65
	FillingsUpdate:  mu: -0.142819850  nElectrons: 447.500000  magneticMoment: [ Abs: 24.34831  Tot: +23.28844 ]
	SubspaceRotationAdjust: set factor to 1.69
ElecMinimize: Iter:  64  F: -1957.549234145602441  |grad|_K:  1.836e-08  alpha:  1.814e-01  linmin: -1.082e-05  t[s]:   9674.13
	Linear fluid (dielectric constant: 78.4, screening length: 5.74355 Bohr) occupying 0.733795 of unit cell:	Completed after 0 iterations at t[s]:   9697.53
	Linear fluid (dielectric constant: 78.4, screening length: 5.74355 Bohr) occupying 0.733791 of unit cell:	Completed after 0 iterations at t[s]:   9722.81
	FillingsUpdate:  mu: -0.142827780  nElectrons: 447.500000  magneticMoment: [ Abs: 24.34742  Tot: +23.28778 ]
	SubspaceRotationAdjust: set factor to 2.03
ElecMinimize: Iter:  65  F: -1957.549234176289929  |grad|_K:  1.596e-08  alpha:  5.033e-01  linmin:  2.170e-05  t[s]:   9756.26
	Linear fluid (dielectric constant: 78.4, screening length: 5.74355 Bohr) occupying 0.733782 of unit cell:	Completed after 1 iterations at t[s]:   9779.63
	Linear fluid (dielectric constant: 78.4, screening length: 5.74355 Bohr) occupying 0.733789 of unit cell:	Completed after 0 iterations at t[s]:   9805.28
ElecMinimize: 	Step increased F by 4.435151e-09, reducing alpha to 9.024611e-03.
	Linear fluid (dielectric constant: 78.4, screening length: 5.74355 Bohr) occupying 0.733791 of unit cell:	Completed after 0 iterations at t[s]:   9858.88
ElecMinimize: 	Step increased F by 6.355776e-09, reducing alpha to 9.024611e-04.
	Linear fluid (dielectric constant: 78.4, screening length: 5.74355 Bohr) occupying 0.733791 of unit cell:	Completed after 0 iterations at t[s]:   9911.92
ElecMinimize: 	Step increased F by 5.415586e-09, reducing alpha to 9.024611e-05.
ElecMinimize: 	Step failed to reduce F after 3 attempts. Quitting step.
ElecMinimize: 	Undoing step.
	Linear fluid (dielectric constant: 78.4, screening length: 5.74355 Bohr) occupying 0.733791 of unit cell:	Completed after 0 iterations at t[s]:   9964.87
ElecMinimize: 	Step failed: resetting search direction.
	FillingsUpdate:  mu: -0.142873546  nElectrons: 447.500000  magneticMoment: [ Abs: 24.34742  Tot: +23.28777 ]
	SubspaceRotationAdjust: set factor to 1.21
ElecMinimize: Iter:  66  F: -1957.549234170951877  |grad|_K:  4.510e-08  alpha:  9.025e-05
	Linear fluid (dielectric constant: 78.4, screening length: 5.74355 Bohr) occupying 0.733812 of unit cell:	Completed after 5 iterations at t[s]:  10023.21
	Linear fluid (dielectric constant: 78.4, screening length: 5.74355 Bohr) occupying 0.733795 of unit cell:	Completed after 2 iterations at t[s]:  10049.73
	FillingsUpdate:  mu: -0.142770806  nElectrons: 447.500000  magneticMoment: [ Abs: 24.34755  Tot: +23.28791 ]
	SubspaceRotationAdjust: set factor to 0.526
ElecMinimize: Iter:  67  F: -1957.549234210488976  |grad|_K:  2.776e-08  alpha:  9.833e-02  linmin:  6.373e-04  t[s]:  10083.71
	Linear fluid (dielectric constant: 78.4, screening length: 5.74355 Bohr) occupying 0.733793 of unit cell:	Completed after 0 iterations at t[s]:  10107.19
ElecMinimize: 	Predicted alpha/alphaT>3.000000, increasing alphaT to 2.949946e-01.
	Linear fluid (dielectric constant: 78.4, screening length: 5.74355 Bohr) occupying 0.733790 of unit cell:	Completed after 0 iterations at t[s]:  10131.91
	Linear fluid (dielectric constant: 78.4, screening length: 5.74355 Bohr) occupying 0.733787 of unit cell:	Completed after 0 iterations at t[s]:  10156.90
	FillingsUpdate:  mu: -0.142771202  nElectrons: 447.500000  magneticMoment: [ Abs: 24.34682  Tot: +23.28732 ]
	SubspaceRotationAdjust: set factor to 0.562
ElecMinimize: Iter:  68  F: -1957.549234250911695  |grad|_K:  2.423e-08  alpha:  4.592e-01  linmin: -4.184e-07  t[s]:  10190.15
	Linear fluid (dielectric constant: 78.4, screening length: 5.74355 Bohr) occupying 0.733774 of unit cell:	Completed after 3 iterations at t[s]:  10214.33
	Linear fluid (dielectric constant: 78.4, screening length: 5.74355 Bohr) occupying 0.733783 of unit cell:	Completed after 2 iterations at t[s]:  10240.15
ElecMinimize: 	Step increased F by 7.863036e-08, reducing alpha to 1.339099e-02.
	Linear fluid (dielectric constant: 78.4, screening length: 5.74355 Bohr) occupying 0.733787 of unit cell:	Completed after 0 iterations at t[s]:  10293.80
ElecMinimize: 	Step increased F by 7.423000e-08, reducing alpha to 1.339099e-03.
	Linear fluid (dielectric constant: 78.4, screening length: 5.74355 Bohr) occupying 0.733787 of unit cell:	Completed after 0 iterations at t[s]:  10347.17
ElecMinimize: 	Step increased F by 7.402150e-08, reducing alpha to 1.339099e-04.
ElecMinimize: 	Step failed to reduce F after 3 attempts. Quitting step.
ElecMinimize: 	Undoing step.
	Linear fluid (dielectric constant: 78.4, screening length: 5.74355 Bohr) occupying 0.733787 of unit cell:	Completed after 0 iterations at t[s]:  10400.60
ElecMinimize: 	Step failed: resetting search direction.
	FillingsUpdate:  mu: -0.142853219  nElectrons: 447.500000  magneticMoment: [ Abs: 24.34682  Tot: +23.28732 ]
	SubspaceRotationAdjust: set factor to 0.431
ElecMinimize: Iter:  69  F: -1957.549234176929531  |grad|_K:  1.850e-08  alpha:  1.339e-04
	Linear fluid (dielectric constant: 78.4, screening length: 5.74355 Bohr) occupying 0.733789 of unit cell:	Completed after 0 iterations at t[s]:  10457.93
	Linear fluid (dielectric constant: 78.4, screening length: 5.74355 Bohr) occupying 0.733788 of unit cell:	Completed after 0 iterations at t[s]:  10483.26
	FillingsUpdate:  mu: -0.142852893  nElectrons: 447.500000  magneticMoment: [ Abs: 24.34684  Tot: +23.28735 ]
	SubspaceRotationAdjust: set factor to 0.44
ElecMinimize: Iter:  70  F: -1957.549234200825595  |grad|_K:  8.051e-09  alpha:  2.846e-01  linmin:  1.001e-06  t[s]:  10517.09
	Linear fluid (dielectric constant: 78.4, screening length: 5.74355 Bohr) occupying 0.733790 of unit cell:	Completed after 0 iterations at t[s]:  10540.94
ElecMinimize: 	Predicted alpha/alphaT>3.000000, increasing alphaT to 8.538372e-01.
	Linear fluid (dielectric constant: 78.4, screening length: 5.74355 Bohr) occupying 0.733793 of unit cell:	Completed after 1 iterations at t[s]:  10565.93
	Linear fluid (dielectric constant: 78.4, screening length: 5.74355 Bohr) occupying 0.733789 of unit cell:	Completed after 0 iterations at t[s]:  10590.97
ElecMinimize: 	Step increased F by 9.114046e-09, reducing alpha to 1.447154e-02.
	Linear fluid (dielectric constant: 78.4, screening length: 5.74355 Bohr) occupying 0.733788 of unit cell:	Completed after 0 iterations at t[s]:  10643.51
ElecMinimize: 	Step increased F by 2.193019e-09, reducing alpha to 1.447154e-03.
	Linear fluid (dielectric constant: 78.4, screening length: 5.74355 Bohr) occupying 0.733788 of unit cell:	Completed after 0 iterations at t[s]:  10696.68
ElecMinimize: 	Step increased F by 1.547960e-09, reducing alpha to 1.447154e-04.
ElecMinimize: 	Step failed to reduce F after 3 attempts. Quitting step.
ElecMinimize: 	Undoing step.
	Linear fluid (dielectric constant: 78.4, screening length: 5.74355 Bohr) occupying 0.733788 of unit cell:	Completed after 0 iterations at t[s]:  10750.17
ElecMinimize: 	Step failed: resetting search direction.
	FillingsUpdate:  mu: -0.142812514  nElectrons: 447.500000  magneticMoment: [ Abs: 24.34684  Tot: +23.28735 ]
	SubspaceRotationAdjust: set factor to 0.377
ElecMinimize: Iter:  71  F: -1957.549234199321290  |grad|_K:  1.881e-08  alpha:  1.447e-04
[...]
	FillingsUpdate:  mu: -0.142782041  nElectrons: 447.500000  magneticMoment: [ Abs: 24.36630  Tot: +23.30928 ]
	SubspaceRotationAdjust: set factor to 0.512
ElecMinimize: Iter:   7  F: -1957.549254315715643  |grad|_K:  2.293e-08  alpha:  5.294e-01  linmin: -4.073e-07  t[s]:  13813.73
	Linear fluid (dielectric constant: 78.4, screening length: 5.74355 Bohr) occupying 0.733841 of unit cell:	Completed after 0 iterations at t[s]:  13837.58
	Linear fluid (dielectric constant: 78.4, screening length: 5.74355 Bohr) occupying 0.733839 of unit cell:	Completed after 2 iterations at t[s]:  13863.24
ElecMinimize: 	Step increased F by 7.534254e-09, reducing alpha to 7.109296e-02.
	Linear fluid (dielectric constant: 78.4, screening length: 5.74355 Bohr) occupying 0.733845 of unit cell:	Completed after 0 iterations at t[s]:  13916.99
ElecMinimize: 	Step increased F by 6.582241e-09, reducing alpha to 7.109296e-03.
	Linear fluid (dielectric constant: 78.4, screening length: 5.74355 Bohr) occupying 0.733846 of unit cell:	Completed after 0 iterations at t[s]:  13970.69
ElecMinimize: 	Step increased F by 1.420744e-08, reducing alpha to 7.109296e-04.
ElecMinimize: 	Step failed to reduce F after 3 attempts. Quitting step.
ElecMinimize: 	Undoing step.
	Linear fluid (dielectric constant: 78.4, screening length: 5.74355 Bohr) occupying 0.733846 of unit cell:	Completed after 0 iterations at t[s]:  14023.66
ElecMinimize: 	Step failed: resetting search direction.
	FillingsUpdate:  mu: -0.142838611  nElectrons: 447.500000  magneticMoment: [ Abs: 24.36633  Tot: +23.30931 ]
	SubspaceRotationAdjust: set factor to 0.531
ElecMinimize: Iter:   8  F: -1957.549254301412248  |grad|_K:  2.652e-08  alpha:  7.109e-04
	Linear fluid (dielectric constant: 78.4, screening length: 5.74355 Bohr) occupying 0.733849 of unit cell:	Completed after 1 iterations at t[s]:  14081.72
	Linear fluid (dielectric constant: 78.4, screening length: 5.74355 Bohr) occupying 0.733848 of unit cell:	Completed after 0 iterations at t[s]:  14107.13
	FillingsUpdate:  mu: -0.142800988  nElectrons: 447.500000  magneticMoment: [ Abs: 24.36770  Tot: +23.31065 ]
	SubspaceRotationAdjust: set factor to 0.616
ElecMinimize: Iter:   9  F: -1957.549254343667371  |grad|_K:  1.549e-08  alpha:  3.390e-01  linmin: -1.913e-04  t[s]:  14140.68
	Linear fluid (dielectric constant: 78.4, screening length: 5.74355 Bohr) occupying 0.733848 of unit cell:	Completed after 0 iterations at t[s]:  14164.30
	Linear fluid (dielectric constant: 78.4, screening length: 5.74355 Bohr) occupying 0.733847 of unit cell:	Completed after 0 iterations at t[s]:  14189.58
	FillingsUpdate:  mu: -0.142800356  nElectrons: 447.500000  magneticMoment: [ Abs: 24.37169  Tot: +23.31455 ]
	SubspaceRotationAdjust: set factor to 0.873
ElecMinimize: Iter:  10  F: -1957.549254396215247  |grad|_K:  1.415e-08  alpha:  8.107e-01  linmin: -1.356e-06  t[s]:  14223.28
	Linear fluid (dielectric constant: 78.4, screening length: 5.74355 Bohr) occupying 0.733844 of unit cell:	Completed after 1 iterations at t[s]:  14247.18
	Linear fluid (dielectric constant: 78.4, screening length: 5.74355 Bohr) occupying 0.733846 of unit cell:	Completed after 0 iterations at t[s]:  14272.72
	FillingsUpdate:  mu: -0.142813732  nElectrons: 447.500000  magneticMoment: [ Abs: 24.37469  Tot: +23.31747 ]
	SubspaceRotationAdjust: set factor to 0.895
ElecMinimize: Iter:  11  F: -1957.549254399473739  |grad|_K:  1.854e-08  alpha:  3.876e-01  linmin: -1.877e-05  t[s]:  14306.92
	Linear fluid (dielectric constant: 78.4, screening length: 5.74355 Bohr) occupying 0.733844 of unit cell:	Completed after 0 iterations at t[s]:  14330.53
	Linear fluid (dielectric constant: 78.4, screening length: 5.74355 Bohr) occupying 0.733844 of unit cell:	Completed after 0 iterations at t[s]:  14355.78
	FillingsUpdate:  mu: -0.142813043  nElectrons: 447.500000  magneticMoment: [ Abs: 24.38090  Tot: +23.32348 ]
	SubspaceRotationAdjust: set factor to 1.21
ElecMinimize: Iter:  12  F: -1957.549254430731935  |grad|_K:  1.724e-08  alpha:  3.418e-01  linmin:  4.948e-08  t[s]:  14389.48
	Linear fluid (dielectric constant: 78.4, screening length: 5.74355 Bohr) occupying 0.733845 of unit cell:	Completed after 1 iterations at t[s]:  14413.45
	Linear fluid (dielectric constant: 78.4, screening length: 5.74355 Bohr) occupying 0.733845 of unit cell:	Completed after 0 iterations at t[s]:  14438.90
	FillingsUpdate:  mu: -0.142808002  nElectrons: 447.500000  magneticMoment: [ Abs: 24.38404  Tot: +23.32649 ]
	SubspaceRotationAdjust: set factor to 1.51
	SubspaceRotationAdjust: resetting CG because factor has changed by 8.59149
	Linear fluid (dielectric constant: 78.4, screening length: 5.74355 Bohr) occupying 0.733845 of unit cell:	Completed after 0 iterations at t[s]:  14486.40
ElecMinimize: 	State modified externally: resetting search direction.
ElecMinimize: Iter:  13  F: -1957.549254433058877  |grad|_K:  1.580e-08  alpha:  1.616e-01
	Linear fluid (dielectric constant: 78.4, screening length: 5.74355 Bohr) occupying 0.733845 of unit cell:	Completed after 0 iterations at t[s]:  14543.92
ElecMinimize: 	Predicted alpha/alphaT>3.000000, increasing alphaT to 4.848066e-01.
	Linear fluid (dielectric constant: 78.4, screening length: 5.74355 Bohr) occupying 0.733847 of unit cell:	Completed after 0 iterations at t[s]:  14569.23
	Linear fluid (dielectric constant: 78.4, screening length: 5.74355 Bohr) occupying 0.733847 of unit cell:	Completed after 0 iterations at t[s]:  14594.98
	FillingsUpdate:  mu: -0.142807368  nElectrons: 447.500000  magneticMoment: [ Abs: 24.38638  Tot: +23.32863 ]
	SubspaceRotationAdjust: set factor to 2.12
ElecMinimize: Iter:  14  F: -1957.549254463346415  |grad|_K:  9.423e-09  alpha:  4.940e-01  linmin: -7.698e-07  t[s]:  14628.46
	Linear fluid (dielectric constant: 78.4, screening length: 5.74355 Bohr) occupying 0.733850 of unit cell:	Completed after 0 iterations at t[s]:  14652.19
	Linear fluid (dielectric constant: 78.4, screening length: 5.74355 Bohr) occupying 0.733852 of unit cell:	Completed after 0 iterations at t[s]:  14677.57
	FillingsUpdate:  mu: -0.142806048  nElectrons: 447.500000  magneticMoment: [ Abs: 24.39062  Tot: +23.33255 ]
	SubspaceRotationAdjust: set factor to 2.59
ElecMinimize: Iter:  15  F: -1957.549254478904459  |grad|_K:  1.015e-08  alpha:  7.186e-01  linmin:  4.951e-06  t[s]:  14711.03
	Linear fluid (dielectric constant: 78.4, screening length: 5.74355 Bohr) occupying 0.733862 of unit cell:	Completed after 2 iterations at t[s]:  14734.82
	Linear fluid (dielectric constant: 78.4, screening length: 5.74355 Bohr) occupying 0.733853 of unit cell:	Completed after 2 iterations at t[s]:  14761.60
ElecMinimize: 	Step increased F by 3.273954e-08, reducing alpha to 7.057732e-03.
	Linear fluid (dielectric constant: 78.4, screening length: 5.74355 Bohr) occupying 0.733852 of unit cell:	Completed after 0 iterations at t[s]:  14815.27
ElecMinimize: 	Step increased F by 2.626507e-08, reducing alpha to 7.057732e-04.
	Linear fluid (dielectric constant: 78.4, screening length: 5.74355 Bohr) occupying 0.733852 of unit cell:	Completed after 0 iterations at t[s]:  14869.27
ElecMinimize: 	Step increased F by 2.562410e-08, reducing alpha to 7.057732e-05.
ElecMinimize: 	Step failed to reduce F after 3 attempts. Quitting step.
ElecMinimize: 	Undoing step.
	Linear fluid (dielectric constant: 78.4, screening length: 5.74355 Bohr) occupying 0.733852 of unit cell:	Completed after 0 iterations at t[s]:  14923.19
ElecMinimize: 	Step failed: resetting search direction.
	FillingsUpdate:  mu: -0.142765232  nElectrons: 447.500000  magneticMoment: [ Abs: 24.39063  Tot: +23.33255 ]
	SubspaceRotationAdjust: set factor to 1.44
ElecMinimize: Iter:  16  F: -1957.549254453287858  |grad|_K:  3.445e-08  alpha:  7.058e-05
	Linear fluid (dielectric constant: 78.4, screening length: 5.74355 Bohr) occupying 0.733818 of unit cell:	Completed after 5 iterations at t[s]:  14981.51
	Linear fluid (dielectric constant: 78.4, screening length: 5.74355 Bohr) occupying 0.733847 of unit cell:	Completed after 1 iterations at t[s]:  15008.11
	FillingsUpdate:  mu: -0.142875786  nElectrons: 447.500000  magneticMoment: [ Abs: 24.39083  Tot: +23.33275 ]
	SubspaceRotationAdjust: set factor to 0.728
ElecMinimize: Iter:  17  F: -1957.549254575136047  |grad|_K:  3.348e-08  alpha:  9.382e-02  linmin:  2.699e-03  t[s]:  15041.92
	Linear fluid (dielectric constant: 78.4, screening length: 5.74355 Bohr) occupying 0.733847 of unit cell:	Completed after 0 iterations at t[s]:  15065.76
	Linear fluid (dielectric constant: 78.4, screening length: 5.74355 Bohr) occupying 0.733847 of unit cell:	Completed after 3 iterations at t[s]:  15091.97
ElecMinimize: 	Step increased F by 9.940118e-08, reducing alpha to 1.301251e-02.
	Linear fluid (dielectric constant: 78.4, screening length: 5.74355 Bohr) occupying 0.733847 of unit cell:	Completed after 0 iterations at t[s]:  15146.13
ElecMinimize: 	Step increased F by 6.543473e-08, reducing alpha to 1.301251e-03.
	Linear fluid (dielectric constant: 78.4, screening length: 5.74355 Bohr) occupying 0.733847 of unit cell:	Completed after 0 iterations at t[s]:  15199.81
ElecMinimize: 	Step increased F by 6.243818e-08, reducing alpha to 1.301251e-04.
ElecMinimize: 	Step failed to reduce F after 3 attempts. Quitting step.
ElecMinimize: 	Undoing step.
	Linear fluid (dielectric constant: 78.4, screening length: 5.74355 Bohr) occupying 0.733847 of unit cell:	Completed after 0 iterations at t[s]:  15252.47
ElecMinimize: 	Step failed: resetting search direction.
	FillingsUpdate:  mu: -0.142853415  nElectrons: 447.500000  magneticMoment: [ Abs: 24.39084  Tot: +23.33275 ]
	SubspaceRotationAdjust: set factor to 0.568
ElecMinimize: Iter:  18  F: -1957.549254512647394  |grad|_K:  2.810e-08  alpha:  1.301e-04
	Linear fluid (dielectric constant: 78.4, screening length: 5.74355 Bohr) occupying 0.733849 of unit cell:	Completed after 0 iterations at t[s]:  15309.86
ElecMinimize: 	Predicted alpha/alphaT>3.000000, increasing alphaT to 2.814643e-01.
	Linear fluid (dielectric constant: 78.4, screening length: 5.74355 Bohr) occupying 0.733852 of unit cell:	Completed after 1 iterations at t[s]:  15334.95
	Linear fluid (dielectric constant: 78.4, screening length: 5.74355 Bohr) occupying 0.733849 of unit cell:	Completed after 0 iterations at t[s]:  15360.52
ElecMinimize: 	Step increased F by 2.554634e-08, reducing alpha to 9.606891e-03.
	Linear fluid (dielectric constant: 78.4, screening length: 5.74355 Bohr) occupying 0.733847 of unit cell:	Completed after 0 iterations at t[s]:  15414.02
ElecMinimize: 	Step increased F by 1.332796e-08, reducing alpha to 9.606891e-04.
	Linear fluid (dielectric constant: 78.4, screening length: 5.74355 Bohr) occupying 0.733847 of unit cell:	Completed after 0 iterations at t[s]:  15466.87
ElecMinimize: 	Step increased F by 1.224021e-08, reducing alpha to 9.606891e-05.
ElecMinimize: 	Step failed to reduce F after 3 attempts. Quitting step.
ElecMinimize: 	Undoing step.
	Linear fluid (dielectric constant: 78.4, screening length: 5.74355 Bohr) occupying 0.733847 of unit cell:	Completed after 0 iterations at t[s]:  15520.86
ElecMinimize: 	Step failed along negative gradient direction.
ElecMinimize: Probably at roundoff error limit. (Stopping)
Setting wave functions to eigenvectors of Hamiltonian

# Ionic positions in lattice coordinates:
ion Ti   0.166666674541666   0.083333342083333   0.566111826821739 1
ion Ti   0.083333341208333   0.166666675416666   0.433888173178261 1
ion Ti   0.416666674541666   0.083333342083333   0.566111826821739 1
ion Ti   0.333333341208333   0.166666675416666   0.433888173178261 1
ion Ti   0.666666674541666   0.083333342083333   0.566111826821739 1
ion Ti   0.583333341208333   0.166666675416666   0.433888173178261 1
ion Ti   0.916666674541666   0.083333342083333   0.566111826821739 1
ion Ti   0.833333341208333   0.166666675416666   0.433888173178261 1
ion Ti   0.166666674541666   0.333333342083333   0.566111826821739 1
ion Ti   0.083333341208333   0.416666675416666   0.433888173178261 1
ion Ti   0.416666674541666   0.333333342083333   0.566111826821739 1
ion Ti   0.333333341208333   0.416666675416666   0.433888173178261 1
ion Ti   0.666666674541666   0.333333342083333   0.566111826821739 1
ion Ti   0.583333341208333   0.416666675416666   0.433888173178261 1
ion Ti   0.916666674541666   0.333333342083333   0.566111826821739 1
ion Ti   0.833333341208333   0.416666675416666   0.433888173178261 1
ion Ti   0.166666674541666   0.583333342083333   0.566111826821739 1
ion Ti   0.083333341208333   0.666666675416666   0.433888173178261 1
ion Ti   0.416666674541666   0.583333342083333   0.566111826821739 1
ion Ti   0.333333341208333   0.666666675416666   0.433888173178261 1
ion Ti   0.666666674541666   0.583333342083333   0.566111826821739 1
ion Ti   0.583333341208333   0.666666675416666   0.433888173178261 1
ion Ti   0.916666674541666   0.583333342083333   0.566111826821739 1
ion Ti   0.833333341208333   0.666666675416666   0.433888173178261 1
ion Ti   0.166666674541666   0.833333342083333   0.566111826821739 1
ion Ti   0.083333341208333   0.916666675416666   0.433888173178261 1
ion Ti   0.416666674541666   0.833333342083333   0.566111826821739 1
ion Ti   0.333333341208333   0.916666675416666   0.433888173178261 1
ion Ti   0.666666674541666   0.833333342083333   0.566111826821739 1
ion Ti   0.583333341208333   0.916666675416666   0.433888173178261 1
ion Ti   0.916666674541666   0.833333342083333   0.566111826821739 1
ion Ti   0.833333341208333   0.916666675416666   0.433888173178261 1
ion C   0.000000007874999   0.000000008750000   0.500000000000000 1
ion C   0.250000007874999   0.000000008750000   0.500000000000000 1
ion C   0.500000007875000   0.000000008750000   0.500000000000000 1
ion C   0.750000007875000   0.000000008750000   0.500000000000000 1
ion C   0.000000007874999   0.250000008750000   0.500000000000000 1
ion C   0.250000007874999   0.250000008750000   0.500000000000000 1
ion C   0.500000007875000   0.250000008750000   0.500000000000000 1
ion C   0.750000007875000   0.250000008750000   0.500000000000000 1
ion C   0.000000007874999   0.500000008750000   0.500000000000000 1
ion C   0.250000007874999   0.500000008750000   0.500000000000000 1
ion C   0.500000007875000   0.500000008750000   0.500000000000000 1
ion C   0.750000007875000   0.500000008750000   0.500000000000000 1
ion C   1.000000007875000   0.750000008750000   0.500000000000000 1
ion C   0.250000007874999   0.750000008750000   0.500000000000000 1
ion C   0.500000007875000   0.750000008750000   0.500000000000000 1
ion C   0.750000007875000   0.750000008750000   0.500000000000000 1


# Forces in Lattice coordinates:
force Ti   0.000000000000000  -0.000000000000000  -0.003844194536011 1
force Ti  -0.000000000000000   0.000000000000000   0.003844194533739 1
force Ti   0.000000000000000  -0.000000000000000  -0.003844194535784 1
force Ti  -0.000000000000000   0.000000000000000   0.003844194533966 1
force Ti   0.000000000000000  -0.000000000000000  -0.003844194535785 1
force Ti  -0.000000000000000  -0.000000000000000   0.003844194533739 1
force Ti   0.000000000000000  -0.000000000000000  -0.003844194535785 1
force Ti  -0.000000000000000   0.000000000000000   0.003844194533966 1
force Ti   0.000000000000000  -0.000000000000000  -0.003844194536012 1
force Ti  -0.000000000000000   0.000000000000000   0.003844194533511 1
force Ti   0.000000000000000  -0.000000000000000  -0.003844194536012 1
force Ti  -0.000000000000000   0.000000000000000   0.003844194533739 1
force Ti   0.000000000000000  -0.000000000000000  -0.003844194535785 1
force Ti  -0.000000000000000   0.000000000000000   0.003844194533739 1
force Ti   0.000000000000000  -0.000000000000000  -0.003844194535785 1
force Ti  -0.000000000000000   0.000000000000000   0.003844194533739 1
force Ti   0.000000000000000  -0.000000000000000  -0.003844194535784 1
force Ti   0.000000000000000   0.000000000000000   0.003844194533511 1
force Ti   0.000000000000000  -0.000000000000000  -0.003844194535784 1
force Ti  -0.000000000000000   0.000000000000000   0.003844194533739 1
force Ti  -0.000000000000000  -0.000000000000000  -0.003844194535785 1
force Ti  -0.000000000000000   0.000000000000000   0.003844194533511 1
force Ti   0.000000000000000  -0.000000000000000  -0.003844194536012 1
force Ti   0.000000000000000  -0.000000000000000   0.003844194533739 1
force Ti   0.000000000000000  -0.000000000000000  -0.003844194535784 1
force Ti  -0.000000000000000   0.000000000000000   0.003844194533512 1
force Ti   0.000000000000000  -0.000000000000000  -0.003844194536012 1
force Ti  -0.000000000000000   0.000000000000000   0.003844194533739 1
force Ti  -0.000000000000000  -0.000000000000000  -0.003844194535785 1
force Ti  -0.000000000000000   0.000000000000000   0.003844194533511 1
force Ti   0.000000000000000  -0.000000000000000  -0.003844194536012 1
force Ti  -0.000000000000000   0.000000000000000   0.003844194533511 1
force C  -0.000000000000000  -0.000000000000000   0.000000000000000 1
force C  -0.000000000000000   0.000000000000000  -0.000000000000000 1
force C   0.000000000000000   0.000000000000000   0.000000000000000 1
force C   0.000000000000000   0.000000000000000  -0.000000000000000 1
force C  -0.000000000000000   0.000000000000000  -0.000000000000000 1
force C  -0.000000000000000   0.000000000000000  -0.000000000000000 1
force C  -0.000000000000000   0.000000000000000   0.000000000000000 1
force C  -0.000000000000000   0.000000000000000  -0.000000000000000 1
force C  -0.000000000000000  -0.000000000000000   0.000000000000000 1
force C  -0.000000000000000  -0.000000000000000   0.000000000000000 1
force C  -0.000000000000000   0.000000000000000   0.000000000000000 1
force C  -0.000000000000000  -0.000000000000000  -0.000000000000000 1
force C  -0.000000000000000  -0.000000000000000   0.000000000000000 1
force C   0.000000000000000   0.000000000000000   0.000000000000000 1
force C  -0.000000000000000  -0.000000000000000   0.000000000000000 1
force C  -0.000000000000000   0.000000000000000   0.000000000000000 1

# Energy components:
   A_diel =        0.0364413658078830
   Eewald =    10430.4386040081499232
       EH =    12027.4547648687494075
     Eloc =   -24783.1313365580208483
      Enl =      187.4445001140450984
      Exc =     -317.8587173760760152
 Exc_core =       42.4424972463671040
       KE =      455.7640674701210628
  MuShift =        0.0074464633635781
-------------------------------------
     Etot =    -1957.4017323974944702
       TS =        0.1475221029925734
-------------------------------------
        F =    -1957.5492545004869953

IonicMinimize: Iter:   2  F: -1957.549254500486995  |grad|_K:  5.550e-05  alpha:  1.000e+00  linmin: -1.000e+00  t[s]:  15569.85
IonicMinimize: Converged (|grad|_K<1.000000e-04).

#--- Lowdin population analysis ---
# oxidation-state Ti +0.850 +0.850 +0.850 +0.850 +0.850 +0.850 +0.850 +0.850 +0.850 +0.850 +0.850 +0.850 +0.850 +0.850 +0.850 +0.850 +0.850 +0.850 +0.850 +0.850 +0.850 +0.850 +0.850 +0.850 +0.850 +0.850 +0.850 +0.850 +0.850 +0.850 +0.850 +0.850
# magnetic-moments Ti +0.610 +0.610 +0.610 +0.610 +0.610 +0.610 +0.610 +0.610 +0.610 +0.610 +0.610 +0.610 +0.610 +0.610 +0.610 +0.610 +0.610 +0.610 +0.610 +0.610 +0.610 +0.610 +0.610 +0.610 +0.610 +0.610 +0.610 +0.610 +0.610 +0.610 +0.610 +0.610
# oxidation-state C -1.121 -1.121 -1.121 -1.121 -1.121 -1.121 -1.121 -1.121 -1.121 -1.121 -1.121 -1.121 -1.121 -1.121 -1.121 -1.121
# magnetic-moments C -0.015 -0.015 -0.015 -0.015 -0.015 -0.015 -0.015 -0.015 -0.015 -0.015 -0.015 -0.015 -0.015 -0.015 -0.015 -0.015


Dumping 'NbTe2.fillings' ... done
Dumping 'NbTe2.wfns' ... done
Dumping 'NbTe2.fluidState' ... done
Dumping 'NbTe2.ionpos' ... done
Dumping 'NbTe2.eigenvals' ... done
End date and time: Sun Jan 17 10:00:04 2021  (Duration: 0-4:19:38.85)
Done!
