  COHP#  atomMU  atomNU     distance     translation      ICOHP (at) eF   for spin  1
      1     Ni5     S29      2.43255       0   0   0           -0.51343 
      2     Ni6     S29      2.43475       0   0   0           -0.51437 
      3     P13     S29      2.05241       0   0   0           -3.08555 
      4     P16     S29      3.29479       0   0   0           -0.02635 
      5     S20     S29      3.29011       0   1   0           -0.03148 
      6     S21     S29      3.47479       0   0   0           -0.08224 
      7     S29     S32      3.28968       0   0   0           -0.03315 
      8     S29     S33      3.28996       0   0   0           -0.03427 
      9     S29     S38      3.47495       0   0   0           -0.08408 
     10     S29     S39      3.28995       1   0   0           -0.03214 
     11     P13     S21      2.05242       0   0   0           -3.10840 
     12     P13     S28      3.29479       0   0   0           -0.02629 
     13     P13     S29      2.05241       0   0   0           -3.08555 
     14     P13     S31      3.29273       0   0   0           -0.02673 
     15     P13     S36      3.29479       0   0   0           -0.02713 
     16     P13     S38      2.05205       0   0   0           -3.10012 
  COHP#  atomMU  atomNU     distance     translation      ICOHP (at) eF   for spin  2
      1     Ni5     S29      2.43255       0   0   0           -0.75965 
      2     Ni6     S29      2.43475       0   0   0           -0.75273 
      3     P13     S29      2.05241       0   0   0           -3.09504 
      4     P16     S29      3.29479       0   0   0           -0.03470 
      5     S20     S29      3.29011       0   1   0           -0.04247 
      6     S21     S29      3.47479       0   0   0           -0.06934 
      7     S29     S32      3.28968       0   0   0           -0.04279 
      8     S29     S33      3.28996       0   0   0           -0.04288 
      9     S29     S38      3.47495       0   0   0           -0.06858 
     10     S29     S39      3.28995       1   0   0           -0.04323 
     11     P13     S21      2.05242       0   0   0           -3.09916 
     12     P13     S28      3.29479       0   0   0           -0.03454 
     13     P13     S29      2.05241       0   0   0           -3.09504 
     14     P13     S31      3.29273       0   0   0           -0.03381 
     15     P13     S36      3.29479       0   0   0           -0.03256 
     16     P13     S38      2.05205       0   0   0           -3.10053 
