
*************** JDFTx 1.5.0  ***************

Start date and time: Mon Aug  3 15:12:29 2020
Executable jdftx_gpu with command-line: -i Neutral.in -o Neutral.out
Running on hosts (process indices):  amax (0-5)
Divided in process groups (process indices):  0 (0)  1 (1)  2 (2)  3 (3)  4 (4)  5 (5)
gpuInit: Found compatible cuda device 0 'Tesla K80'
gpuInit: Found compatible cuda device 1 'Tesla K80'
gpuInit: Found compatible cuda device 2 'Tesla K80'
gpuInit: Found compatible cuda device 3 'Tesla K80'
gpuInit: Found compatible cuda device 4 'Tesla K80'
gpuInit: Found compatible cuda device 5 'Tesla K80'
gpuInit: Selected device 0
Resource initialization completed at t[s]:     13.42
Run totals: 6 processes, 24 threads, 6 GPUs


Input parsed successfully to the following command list (including defaults):

basis kpoint-dependent
cache-projectors no
coords-type Lattice
core-overlap-check none
coulomb-interaction Slab 001
coulomb-truncation-embed 0 0 0.5
davidson-band-ratio 1.1
dump End State
dump-name NbTe2.$VAR
elec-cutoff 20 100
elec-eigen-algo Davidson
elec-ex-corr gga-PBE
elec-smearing Gauss 0.0073499
electronic-minimize  \
	dirUpdateScheme      FletcherReeves \
	linminMethod         DirUpdateRecommended \
	nIterations          500 \
	history              15 \
	knormThreshold       0 \
	energyDiffThreshold  1e-08 \
	nEnergyDiff          2 \
	alphaTstart          1 \
	alphaTmin            1e-10 \
	updateTestStepSize   yes \
	alphaTreduceFactor   0.1 \
	alphaTincreaseFactor 3 \
	nAlphaAdjustMax      3 \
	wolfeEnergy          0.0001 \
	wolfeGradient        0.9 \
	fdTest               no
exchange-regularization WignerSeitzTruncated
fluid LinearPCM 298.000000 1.013250
fluid-anion F- 1 MeanFieldLJ \
	epsBulk 1 \
	pMol 0 \
	epsInf 1 \
	Pvap 0 \
	sigmaBulk 0 \
	Rvdw 2.24877 \
	Res 0 \
	tauNuc 343133
fluid-cation Na+ 1 MeanFieldLJ \
	epsBulk 1 \
	pMol 0 \
	epsInf 1 \
	Pvap 0 \
	sigmaBulk 0 \
	Rvdw 2.19208 \
	Res 0 \
	tauNuc 343133
fluid-ex-corr lda-TF lda-PZ
fluid-gummel-loop 10 1.000000e-05
fluid-minimize  \
	dirUpdateScheme      PolakRibiere \
	linminMethod         DirUpdateRecommended \
	nIterations          400 \
	history              15 \
	knormThreshold       1e-11 \
	energyDiffThreshold  0 \
	nEnergyDiff          2 \
	alphaTstart          1 \
	alphaTmin            1e-10 \
	updateTestStepSize   yes \
	alphaTreduceFactor   0.1 \
	alphaTincreaseFactor 3 \
	nAlphaAdjustMax      6 \
	wolfeEnergy          0.0001 \
	wolfeGradient        0.9 \
	fdTest               no
fluid-solvent H2O 55.338 ScalarEOS \
	epsBulk 78.4 \
	pMol 0.92466 \
	epsInf 1.77 \
	Pvap 1.06736e-10 \
	sigmaBulk 4.62e-05 \
	Rvdw 2.61727 \
	Res 1.42 \
	tauNuc 343133 \
	poleEl 15 7 1
forces-output-coords Positions
initial-state NbTe2.$VAR
ion Cu   0.340473000435033   0.263622567052962   0.525243772786029 0
ion Cu   0.840863837170563   0.263268533378136   0.526523474913446 0
ion Cu   0.844906893927817   0.759238755514447   0.527971521559194 0
ion Cu   0.093660466971939   0.489769681117874   0.526804693619621 0
ion Cu   0.589972665182279   0.496992398306705   0.530023868820997 0
ion Cu   0.093447475107496   0.990438180931599   0.519660761753175 0
ion Cu   0.592550549854779   0.981392020149785   0.545331362094593 0
ion Cu   0.158392813890919   0.239852317423444   0.464330957441554 0
ion Cu   0.655310426034861   0.240420449805201   0.470341735030228 0
ion Cu   0.159464066398181   0.745986609398069   0.473640348206072 0
ion Cu   0.661439088750346   0.730067005944424   0.464773182182968 0
ion Cu   0.403379444774657  -0.003093632832837   0.483118231353690 0
ion Cu   0.903441085190322   0.011488288662870   0.465981865943279 0
ion Cu   0.403100151979343   0.518344080928552   0.471476811293283 0
ion Cu   0.906878595508949   0.513681052115800   0.467830259919674 0
ion Te   0.280874954332237   0.104513313929728   0.582778300442163 0
ion Te   0.780726997395925   0.104053043635480   0.583845686795934 0
ion Te   0.280587305216341   0.618823921089225   0.581403978743287 0
ion Te   0.779367779738416   0.600714244363804   0.585969164237515 0
ion Te   0.218550187362740   0.400470383962974   0.410803650944876 0
ion Te   0.715999345422388   0.401073234629973   0.414105326802031 0
ion Te   0.231378022647456   0.896384400402376   0.405297280990706 0
ion Te   0.718281127418935   0.896937347282492   0.417364193721352 0
ion Te   0.467379598753658   0.359173224861195   0.412990485004043 0
ion Te   0.968353536485920   0.354617554057755   0.410447380605948 0
ion Te   0.480107695713083   0.814240149387013   0.472947253791212 0
ion Te   0.972013531880347   0.849725024834181   0.411386467431236 0
ion Te   0.031280667995543   0.147770518649809   0.579468096673888 0
ion Te   0.529378428469655   0.148320564349645   0.585451503244889 0
ion Te   0.037380978121591   0.647933513846387   0.587006191176180 0
ion Te   0.518601027196587   0.663217943913287   0.581650460703106 0
ion O   0.310071861523819   0.072970389488939   0.484681091554145 0
ion O   0.800386921520447   0.074991027481099   0.483256978216406 0
ion O   0.295940970402234   0.578112917635644   0.483856111259133 0
ion O   0.801706338627078   0.572168268597914   0.485092051085994 0
ion O   0.267845920267817   0.298100582678192   0.434703936332059 0
ion O   0.763837131453785   0.298965512027677   0.440838841502971 0
ion O   0.265501362934342   0.795750653196306   0.441962071270319 0
ion O   0.766897407284346   0.794260667321917   0.439661932001333 0
ion O   0.398404642789901   0.184767361028797   0.587321917105322 0
ion O   0.900037862206069   0.183139383721317   0.585211796230769 0
ion O   0.391367096310981   0.691559406792232   0.568186469144689 0
ion O   0.903432300774430   0.681817384808367   0.588649697937431 0
ion O   0.482347545580883   0.044341901502845   0.564666767630246 0
ion O   0.983540946910856   0.046312053300706   0.550349709137767 0
ion O   0.479895738579220   0.552666306398688   0.554829062782748 0
ion O   0.986726521010825   0.548500384855546   0.550834300439573 0
ion O   0.348544909965452   0.438187939022472   0.409140318966194 0
ion O   0.848889223730580   0.433783786811194   0.408647748633675 0
ion O   0.354930597999522   0.931680275784430   0.406536683751600 0
ion O   0.843747891135438   0.933608652904238   0.405262463365233 0
ion O   0.149581959923572   0.067624165931069   0.583320111454246 0
ion O   0.649659668306273   0.069881010390376   0.591214873450971 0
ion O   0.147950058781401   0.565415604831997   0.590229790346887 0
ion O   0.652165113837215   0.567048024066205   0.594216087615405 0
ion O   0.444109787453873   0.326397797514275   0.511843027541974 0
ion O   0.946178201516765   0.324101984000421   0.510245150358957 0
ion O   0.531021359269746   0.790332697719858   0.569129021853380 0
ion O   0.946166405604102   0.824216734137975   0.511708142142655 0
ion O   0.195190106650756   0.425498553899251   0.511813086633239 0
ion O   0.691795423376432   0.430819864629418   0.513792879832283 0
ion O   0.196710047458520   0.930759898621993   0.502305897706779 0
ion O   0.699317254470101   0.925081828677253   0.518347820562669 0
ion O   0.016558646894278   0.456032296581179   0.439383304767636 0
ion O   0.514028359070232   0.460377478306925   0.443727086130591 0
ion O   0.014203040733472   0.953591010796310   0.437264289230268 0
ion O   0.501525907439568   0.924580153421028   0.490003001461185 0
ion O   0.231924813413323   0.205314099383387   0.553239585383343 0
ion O   0.732011390598827   0.206074090124573   0.558381041783574 0
ion O   0.208762709280095   0.709573954012429   0.565308611769934 0
ion O   0.735969263062778   0.702603122795732   0.554647412967775 0
ion O   0.053897378710988   0.177493001626808   0.479551385356137 0
ion O   0.552658326995202   0.175471121806407   0.484996073629278 0
ion O   0.057283902490995   0.683169244102051   0.487105470534012 0
ion O   0.552994649069795   0.670967553925898   0.477322162186673 0
ion O   0.099439525843390   0.319769789092855   0.405162000998903 0
ion O   0.597994875750970   0.321621194354931   0.410632094564584 0
ion O   0.097090087231708   0.809331279233982   0.403522457018347 0
ion O   0.590312260429246   0.809254405564539   0.412463865144548 0
ion-species GBRV/$ID_pbe.uspp
ion-width Ecut
ionic-minimize  \
	dirUpdateScheme      L-BFGS \
	linminMethod         DirUpdateRecommended \
	nIterations          0 \
	history              15 \
	knormThreshold       0.0001 \
	energyDiffThreshold  1e-06 \
	nEnergyDiff          2 \
	alphaTstart          1 \
	alphaTmin            1e-10 \
	updateTestStepSize   yes \
	alphaTreduceFactor   0.1 \
	alphaTincreaseFactor 3 \
	nAlphaAdjustMax      3 \
	wolfeEnergy          0.0001 \
	wolfeGradient        0.9 \
	fdTest               no
kpoint   0.000000000000   0.000000000000   0.000000000000  1.00000000000000
kpoint-folding 2 2 1 
latt-move-scale 1 1 1
latt-scale 1 1 1 
lattice Triclinic 27.7129 32.6528 33.5201 90 90.4153 90
lattice-minimize  \
	dirUpdateScheme      L-BFGS \
	linminMethod         DirUpdateRecommended \
	nIterations          0 \
	history              15 \
	knormThreshold       0 \
	energyDiffThreshold  1e-06 \
	nEnergyDiff          2 \
	alphaTstart          1 \
	alphaTmin            1e-10 \
	updateTestStepSize   yes \
	alphaTreduceFactor   0.1 \
	alphaTincreaseFactor 3 \
	nAlphaAdjustMax      3 \
	wolfeEnergy          0.0001 \
	wolfeGradient        0.9 \
	fdTest               no
lcao-params -1 1e-06 0.0073499
pcm-variant CANDLE
spintype no-spin
subspace-rotation-factor 1 yes
symmetries automatic
symmetry-threshold 0.0001



---------- Setting up symmetries ----------

Found 4 point-group symmetries of the bravais lattice
Found 1 space-group symmetries with basis
Applied RMS atom displacement 0 bohrs to make symmetries exact.

---------- Initializing the Grid ----------
R = 
[    27.7129          0  -0.242964  ]
[          0    32.6528          0  ]
[          0          0    33.5193  ]
unit cell volume = 30331.7
G =
[   0.226724         -0  0.0016434  ]
[          0   0.192424         -0  ]
[          0          0    0.18745  ]
Minimum fftbox size, Smin = [  128  148  152  ]
Chosen fftbox size, S = [  128  150  160  ]

---------- Initializing tighter grid for wavefunction operations ----------
R = 
[    27.7129          0  -0.242964  ]
[          0    32.6528          0  ]
[          0          0    33.5193  ]
unit cell volume = 30331.7
G =
[   0.226724         -0  0.0016434  ]
[          0   0.192424         -0  ]
[          0          0    0.18745  ]
Minimum fftbox size, Smin = [  112  132  136  ]
Chosen fftbox size, S = [  112  140  140  ]

---------- Exchange Correlation functional ----------
Initalized PBE GGA exchange.
Initalized PBE GGA correlation.

---------- Setting up pseudopotentials ----------
Width of ionic core gaussian charges (only for fluid interactions / plotting) set to 0.397384

Reading pseudopotential file '/home/guoxy/vasp/jdftx-1.5.0/build/pseudopotentials/GBRV/cu_pbe.uspp':
  Title: Cu.  Created by USPP 7.3.6 on 3-2-2014
  Reference state energy: -201.059491.  19 valence electrons in orbitals:
    |300>  occupation: 2  eigenvalue: -5.020764
    |310>  occupation: 6  eigenvalue: -3.445588
    |320>  occupation: 8  eigenvalue: -0.925168
    |400>  occupation: 2  eigenvalue: -0.567638
    |410>  occupation: 0  eigenvalue: -0.326154
  lMax: 2  lLocal: 3  QijEcut: 6
  6 projectors sampled on a log grid with 613 points:
    l: 0  eig: -5.020767  rCut: 1.4
    l: 0  eig: -0.567640  rCut: 1.4
    l: 1  eig: -3.445589  rCut: 1.55
    l: 1  eig: -0.326157  rCut: 1.55
    l: 2  eig: -0.925170  rCut: 1.5
    l: 2  eig: 1.500000  rCut: 1.5
  Partial core density with radius 0.8
  Transforming core density to a uniform radial grid of dG=0.02 with 1277 points.
  Transforming local potential to a uniform radial grid of dG=0.02 with 1277 points.
  Transforming nonlocal projectors to a uniform radial grid of dG=0.02 with 432 points.
  Transforming density augmentations to a uniform radial grid of dG=0.02 with 1277 points.
  Transforming atomic orbitals to a uniform radial grid of dG=0.02 with 432 points.
  Core radius for overlap checks: 1.55 bohrs.

Reading pseudopotential file '/home/guoxy/vasp/jdftx-1.5.0/build/pseudopotentials/GBRV/te_pbe.uspp':
  Title: Te.  Created by USPP 7.3.6 on 14-9-2013
  Reference state energy: -13.134220.  6 valence electrons in orbitals:
    |500>  occupation: 2  eigenvalue: -0.555231
    |510>  occupation: 4  eigenvalue: -0.218781
  lMax: 2  lLocal: 2  QijEcut: 5
  5 projectors sampled on a log grid with 723 points:
    l: 0  eig: -0.555229  rCut: 2.1
    l: 0  eig: 1.000000  rCut: 2.1
    l: 1  eig: -0.218780  rCut: 2.1
    l: 1  eig: 1.000000  rCut: 2.1
    l: 2  eig: 1.000000  rCut: 2.6
  Partial core density with radius 1.8
  Transforming core density to a uniform radial grid of dG=0.02 with 1277 points.
  Transforming local potential to a uniform radial grid of dG=0.02 with 1277 points.
  Transforming nonlocal projectors to a uniform radial grid of dG=0.02 with 432 points.
  Transforming density augmentations to a uniform radial grid of dG=0.02 with 1277 points.
  Transforming atomic orbitals to a uniform radial grid of dG=0.02 with 432 points.
  Core radius for overlap checks: 2.60 bohrs.

Reading pseudopotential file '/home/guoxy/vasp/jdftx-1.5.0/build/pseudopotentials/GBRV/o_pbe.uspp':
  Title: O.  Created by USPP 7.3.6 on 3-2-2014
  Reference state energy: -15.894388.  6 valence electrons in orbitals:
    |200>  occupation: 2  eigenvalue: -0.878823
    |210>  occupation: 4  eigenvalue: -0.332131
  lMax: 2  lLocal: 2  QijEcut: 6
  5 projectors sampled on a log grid with 511 points:
    l: 0  eig: -0.878823  rCut: 1.25
    l: 0  eig: 0.000000  rCut: 1.25
    l: 1  eig: -0.332132  rCut: 1.25
    l: 1  eig: 0.000000  rCut: 1.25
    l: 2  eig: 1.000000  rCut: 1.25
  Partial core density with radius 0.7
  Transforming core density to a uniform radial grid of dG=0.02 with 1277 points.
  Transforming local potential to a uniform radial grid of dG=0.02 with 1277 points.
  Transforming nonlocal projectors to a uniform radial grid of dG=0.02 with 432 points.
  Transforming density augmentations to a uniform radial grid of dG=0.02 with 1277 points.
  Transforming atomic orbitals to a uniform radial grid of dG=0.02 with 432 points.
  Core radius for overlap checks: 1.25 bohrs.

Initialized 3 species with 79 total atoms.

Folded 1 k-points by 2x2x1 to 4 k-points.

---------- Setting up k-points, bands, fillings ----------
No reducable k-points. 
Computing the number of bands and number of electrons
Calculating initial fillings.
nElectrons: 669.000000   nBands: 451   nStates: 4

----- Setting up reduced wavefunction bases (one per k-point) -----
average nbasis = 129578.250 , ideal nbasis = 129579.442

---------- Setting up coulomb interaction ----------
Fluid mode embedding: using embedded box, but periodic Coulomb kernel.
(Fluid response is responsible for (approximate) separation between periodic images.)
Setting up double-sized grid for truncated Coulomb potentials:
R = 
[    27.7129          0  -0.485927  ]
[          0    32.6528          0  ]
[          0          0    67.0385  ]
unit cell volume = 60663.5
G =
[   0.226724         -0  0.0016434  ]
[          0   0.192424         -0  ]
[          0          0   0.093725  ]
Chosen fftbox size, S = [  128  150  320  ]
Integer grid location selected as the embedding center:
   Grid: [  0  0  80  ]
   Lattice: [  0  0  0.5  ]
   Cartesian: [  -0.121482  0  16.7596  ]
Constructing Wigner-Seitz cell: 8 faces (6 quadrilaterals, 2 hexagons)
Range-separation parameter for embedded mesh potentials due to point charges: 0.588606 bohrs.

Initializing van der Waals corrections
	NOTE: vdW corrections apply only for interactions with fluid.
	Cu:  C6:  187.33 Eh-a0^6  R0: 2.952 a0
	Te:  C6:  550.54 Eh-a0^6  R0: 3.575 a0
	 O:  C6:   12.14 Eh-a0^6  R0: 2.536 a0

---------- Setting up ewald sum ----------
Optimum gaussian width for ewald sums = 7.567421 bohr.
Real space sum over 567 unit cells with max indices [  4  4  3  ]
Reciprocal space sum over 7905 terms with max indices [  7  8  15  ]

---------- Allocating electronic variables ----------
Initializing wave functions:  linear combination of atomic orbitals
Cu pseudo-atom occupations:   s ( 2 1 )  p ( 6 0 )  d ( 10 )
Te pseudo-atom occupations:   s ( 2 )  p ( 4 )
O pseudo-atom occupations:   s ( 2 )  p ( 4 )
	FillingsUpdate:  mu: -0.014349250  nElectrons: 669.000000
LCAOMinimize: Iter:   0  F: -3419.3196857536186144  |grad|_K:  2.386e-02  alpha:  1.000e+00
	FillingsUpdate:  mu: +2.473547723  nElectrons: 669.000000
LCAOMinimize: Iter:   1  F: -3565.4013645421182446  |grad|_K:  3.959e-02  alpha:  6.509e-01  linmin:  8.349e-03  cgtest: -6.506e-01  t[s]:    118.42
	FillingsUpdate:  mu: +2.082701655  nElectrons: 669.000000
LCAOMinimize: Iter:   2  F: -3625.5393041657421236  |grad|_K:  4.095e-02  alpha:  2.408e-01  linmin:  7.713e-03  cgtest: -8.682e-01  t[s]:    146.93
LCAOMinimize: 	Step increased F by 3.578535e+00, reducing alpha to 8.744755e-03.
	FillingsUpdate:  mu: +2.021839516  nElectrons: 669.000000
LCAOMinimize: Iter:   3  F: -3630.1921002509325263  |grad|_K:  4.448e-02  alpha:  8.745e-03  linmin: -5.045e-03  cgtest:  8.879e-01  t[s]:    218.24
LCAOMinimize: 	Predicted alpha/alphaT>3.000000, increasing alphaT to 2.623426e-02.
	FillingsUpdate:  mu: +1.286721930  nElectrons: 669.000000
LCAOMinimize: Iter:   4  F: -3722.4183477487890741  |grad|_K:  2.588e-02  alpha:  7.763e-02  linmin: -2.001e-02  cgtest: -4.465e-01  t[s]:    270.76
	FillingsUpdate:  mu: +1.076399452  nElectrons: 669.000000
LCAOMinimize: Iter:   5  F: -3737.0907471103937496  |grad|_K:  2.754e-02  alpha:  2.585e-02  linmin: -4.783e-03  cgtest:  6.066e-01  t[s]:    301.32
LCAOMinimize: 	Predicted alpha/alphaT>3.000000, increasing alphaT to 7.755569e-02.
	FillingsUpdate:  mu: +0.951204370  nElectrons: 669.000000
LCAOMinimize: Iter:   6  F: -3760.4832189637645570  |grad|_K:  2.986e-02  alpha:  5.888e-02  linmin:  3.371e-03  cgtest:  2.085e-01  t[s]:    371.22
	FillingsUpdate:  mu: +0.847598207  nElectrons: 669.000000
LCAOMinimize: Iter:   7  F: -3766.3890688475798925  |grad|_K:  2.369e-02  alpha:  2.744e-02  linmin:  1.423e-03  cgtest:  7.022e-01  t[s]:    419.39
LCAOMinimize: 	Predicted alpha/alphaT>3.000000, increasing alphaT to 8.230862e-02.
	FillingsUpdate:  mu: +0.819023950  nElectrons: 669.000000
LCAOMinimize: Iter:   8  F: -3781.8987780980100979  |grad|_K:  1.839e-02  alpha:  6.543e-02  linmin:  1.519e-03  cgtest: -3.231e-01  t[s]:    455.31
	FillingsUpdate:  mu: +0.768139130  nElectrons: 669.000000
LCAOMinimize: Iter:   9  F: -3788.2391010292662941  |grad|_K:  2.541e-02  alpha:  4.234e-02  linmin:  1.412e-03  cgtest:  5.617e-01  t[s]:    521.99
	FillingsUpdate:  mu: +0.947998839  nElectrons: 669.000000
LCAOMinimize: Iter:  10  F: -3796.9934086452667543  |grad|_K:  2.763e-02  alpha:  3.746e-02  linmin:  3.357e-04  cgtest:  3.957e-01  t[s]:    557.24
LCAOMinimize: 	Wrong curvature in test step, increasing alphaT to 1.123670e-01.
	FillingsUpdate:  mu: +0.926141936  nElectrons: 669.000000
LCAOMinimize: Iter:  11  F: -3823.9132061905534101  |grad|_K:  2.804e-02  alpha: -1.062e-01  linmin: -1.725e-02  cgtest:  5.924e-01  t[s]:    582.76
LCAOMinimize: 	Step increased F by 3.252213e+02, reducing alpha to 2.161782e-02.
	FillingsUpdate:  mu: +0.842082920  nElectrons: 669.000000
LCAOMinimize: Iter:  12  F: -3846.6684833360632183  |grad|_K:  2.258e-02  alpha:  2.162e-02  linmin: -4.612e-02  cgtest:  7.877e-01  t[s]:    643.48
LCAOMinimize: 	Predicted alpha/alphaT>3.000000, increasing alphaT to 6.485346e-02.
	FillingsUpdate:  mu: +0.540369958  nElectrons: 669.000000
LCAOMinimize: Iter:  13  F: -3876.7463108537131120  |grad|_K:  1.867e-02  alpha:  1.171e-01  linmin: -2.633e-02  cgtest: -4.505e-02  t[s]:    688.30
	FillingsUpdate:  mu: +0.468497781  nElectrons: 669.000000
LCAOMinimize: Iter:  14  F: -3898.3936959682509951  |grad|_K:  1.498e-02  alpha:  1.131e-01  linmin: -5.528e-03  cgtest: -3.726e-02  t[s]:    713.71
	FillingsUpdate:  mu: +0.404435630  nElectrons: 669.000000
LCAOMinimize: Iter:  15  F: -3909.1822668673357839  |grad|_K:  1.057e-02  alpha:  1.045e-01  linmin: -4.280e-03  cgtest: -3.921e-01  t[s]:    745.88
	FillingsUpdate:  mu: +0.405591452  nElectrons: 669.000000
LCAOMinimize: Iter:  16  F: -3909.4891332834072273  |grad|_K:  9.976e-03  alpha:  2.761e-03  linmin: -1.794e-02  cgtest:  9.866e-01  t[s]:    780.42
LCAOMinimize: Encountered beta<0, resetting CG.
LCAOMinimize: 	Predicted alpha/alphaT>3.000000, increasing alphaT to 8.283283e-03.
LCAOMinimize: 	Predicted alpha/alphaT>3.000000, increasing alphaT to 2.484985e-02.
	FillingsUpdate:  mu: +0.418568270  nElectrons: 669.000000
LCAOMinimize: Iter:  17  F: -3911.2648774118811161  |grad|_K:  7.914e-03  alpha:  4.590e-02  linmin:  3.362e-03  cgtest: -2.226e-01  t[s]:    821.33
	FillingsUpdate:  mu: +0.411252943  nElectrons: 669.000000
LCAOMinimize: Iter:  18  F: -3912.0058780617337106  |grad|_K:  6.830e-03  alpha:  2.388e-02  linmin: -4.397e-03  cgtest:  6.226e-01  t[s]:    847.38
	FillingsUpdate:  mu: +0.379276730  nElectrons: 669.000000
LCAOMinimize: Iter:  19  F: -3913.2582868930121549  |grad|_K:  6.865e-03  alpha:  6.047e-02  linmin: -6.050e-03  cgtest: -2.389e-01  t[s]:    879.07
LCAOMinimize: 	Wrong curvature in test step, increasing alphaT to 1.813990e-01.
	FillingsUpdate:  mu: +0.287216574  nElectrons: 669.000000
LCAOMinimize: Iter:  20  F: -3918.8786683768712464  |grad|_K:  7.389e-03  alpha: -2.947e-02  linmin: -1.202e-01  cgtest:  4.594e-01  t[s]:    913.26
	FillingsUpdate:  mu: -0.061922130  nElectrons: 669.000000
LCAOMinimize: Iter:  21  F: -3922.9887890327249806  |grad|_K:  5.677e-03  alpha:  5.855e-02  linmin:  1.872e-01  cgtest: -2.883e-01  t[s]:    947.74
LCAOMinimize: 	Bad step direction: g.d > 0.
LCAOMinimize: 	Undoing step.
LCAOMinimize: 	Step failed: resetting search direction.
	FillingsUpdate:  mu: -0.061922130  nElectrons: 669.000000
LCAOMinimize: Iter:  22  F: -3922.9887890327249806  |grad|_K:  5.677e-03  alpha:  0.000e+00
	FillingsUpdate:  mu: -0.019402393  nElectrons: 669.000000
LCAOMinimize: Iter:  23  F: -3923.7406810600800782  |grad|_K:  3.866e-03  alpha:  5.733e-02  linmin: -2.945e-02  cgtest:  2.181e-01  t[s]:    994.21
	FillingsUpdate:  mu: -0.000994359  nElectrons: 669.000000
LCAOMinimize: Iter:  24  F: -3924.0737437420229980  |grad|_K:  2.570e-03  alpha:  5.186e-02  linmin: -7.123e-03  cgtest: -2.406e-01  t[s]:   1024.29
	FillingsUpdate:  mu: +0.026753618  nElectrons: 669.000000
LCAOMinimize: Iter:  25  F: -3924.3503252680347941  |grad|_K:  2.047e-03  alpha:  9.702e-02  linmin: -8.174e-03  cgtest: -1.212e-01  t[s]:   1058.62
	FillingsUpdate:  mu: +0.029959364  nElectrons: 669.000000
LCAOMinimize: Iter:  26  F: -3924.5025779812549445  |grad|_K:  2.105e-03  alpha:  8.460e-02  linmin: -8.317e-04  cgtest: -5.536e-02  t[s]:   1094.03
	FillingsUpdate:  mu: +0.004558362  nElectrons: 669.000000
LCAOMinimize: Iter:  27  F: -3924.6975696081171918  |grad|_K:  1.675e-03  alpha:  1.108e-01  linmin:  1.138e-02  cgtest:  6.298e-02  t[s]:   1127.24
	FillingsUpdate:  mu: -0.037571690  nElectrons: 669.000000
LCAOMinimize: Iter:  28  F: -3924.7432183344812984  |grad|_K:  8.433e-04  alpha:  3.989e-02  linmin: -2.063e-02  cgtest:  5.338e-01  t[s]:   1151.15
LCAOMinimize: Encountered beta<0, resetting CG.
	FillingsUpdate:  mu: -0.040694917  nElectrons: 669.000000
LCAOMinimize: Iter:  29  F: -3924.7710023726554027  |grad|_K:  9.218e-04  alpha:  9.656e-02  linmin:  3.039e-03  cgtest:  6.604e-03  t[s]:   1182.38
	FillingsUpdate:  mu: -0.061991151  nElectrons: 669.000000
LCAOMinimize: Iter:  30  F: -3924.7889051800289053  |grad|_K:  3.921e-04  alpha:  5.142e-02  linmin: -3.208e-03  cgtest:  1.728e-02  t[s]:   1221.26
LCAOMinimize: None of the convergence criteria satisfied after 30 iterations.
----- createFluidSolver() ----- (Fluid-side solver setup)
   Initializing fluid molecule 'H2O'
     Initializing site 'O'
       Electron density: proportional to exp(-r/0.36935)*erfc((r-0.51523)/0.36823) with norm 6.826
       Charge density: gaussian nuclear width 0.478731 with net site charge 0.826
       Polarizability: cuspless exponential with width 0.32 and norm 3.73
       Hard sphere radius: 2.57003 bohrs
       Positions in reference frame:
         [ +0.000000 +0.000000 +0.000000 ]
     Initializing site 'H'
       Electron density: proportional to exp(-r/0.34641)*erfc((r-0)/0.390882) with norm 0.587
       Charge density: gaussian nuclear width 0.377945 with net site charge -0.413
       Polarizability: cuspless exponential with width 0.39 and norm 3.3
       Positions in reference frame:
         [ +0.000000 -1.441945 +1.122523 ]
         [ +0.000000 +1.441945 +1.122523 ]
     Net charge: 0   dipole magnitude: 0.927204
     Initializing spherical shell mfKernel with radius 2.61727 Bohr
     deltaS corrections:
       site 'O': -7.54299
       site 'H': -6.83917
   Initializing fluid molecule 'Na+'
     Initializing site 'Na'
       Electron density: proportional to exp(-r/0.19682)*erfc((r-0.71491)/0.41314) with norm 8.1383
       Charge density: gaussian nuclear width 0.365347 with net site charge -1
       Hard sphere radius: 1.86327 bohrs
       Positions in reference frame:
         [ +0.000000 +0.000000 +0.000000 ]
     Net charge: -1   dipole magnitude: 0
     Initializing gaussian mfKernel with width: 1.55004 Bohr
     deltaS corrections:
       site 'Na': -22.3555
   Initializing fluid molecule 'F-'
     Initializing site 'F'
       Electron density: proportional to exp(-r/0.38886)*erfc((r-0)/0.438782) with norm 8
       Charge density: gaussian nuclear width 0.374796 with net site charge 1
       Hard sphere radius: 2.39995 bohrs
       Positions in reference frame:
         [ +0.000000 +0.000000 +0.000000 ]
     Net charge: 1   dipole magnitude: 0
     Initializing gaussian mfKernel with width: 1.59012 Bohr
     deltaS corrections:
       site 'F': -9.04335

Correction to mu due to finite nuclear width = -0.010942
   Cavity determined by nc: 0.00142 and sigma: 0.707107
   Nonlocal vdW cavity from gaussian model electron density with norm = 8 and sigma = 0.993594 bohr
   Charge asymmetry in cavity with sensitivity pCavity = 36.5 e-bohr/Eh
   Electrostatic cavity expanded by eta = 1.46 bohrs
   Weighted density cavitation model constrained by Nbulk: 0.0049383 bohr^-3, Pvap: 3.14029 kPa, Rvdw: 2.61727 bohr and sigmaBulk: 4.62e-05 Eh/bohr^2 at T: 298 K.
   Weighted density dispersion model using vdW pair potentials with single solvent site with sqrtC6eff: 0.77 SI.


---- Citations for features of the code used in this run ----

   Software package:
      R. Sundararaman, K. Letchworth-Weaver, K.A. Schwarz, D. Gunceler, Y. Ozhabes and T.A. Arias, 'JDFTx: software for joint density-functional theory', SoftwareX 6, 278 (2017)

   gga-PBE exchange-correlation functional:
      J.P. Perdew, K. Burke and M. Ernzerhof, Phys. Rev. Lett. 77, 3865 (1996)

   Pseudopotentials:
      KF Garrity, JW Bennett, KM Rabe and D Vanderbilt, Comput. Mater. Sci. 81, 446 (2014)

   Truncated Coulomb potentials:
      R. Sundararaman and T.A. Arias, Phys. Rev. B 87, 165122 (2013)

   Van der Waals correction pair-potentials:
      S. Grimme, J. Comput. Chem. 27, 1787 (2006)

   Charge-asymmetric nonlocally-determined local-electric (CANDLE) solvation model:
      R. Sundararaman and W.A. Goddard III, J. Chem. Phys. 142, 064107 (2015)

   Total energy minimization with Auxiliary Hamiltonian:
      C. Freysoldt, S. Boeck, and J. Neugebauer, Phys. Rev. B 79, 241103(R) (2009)

This list may not be complete. Please suggest additional citations or
report any other bugs at https://github.com/shankar1729/jdftx/issues

Initialization completed successfully at t[s]:   1232.78

Fluid solver invoked on fresh (partially random / LCAO) wavefunctions
Running a vacuum solve first:

-------- Initial electronic minimization -----------
	FillingsUpdate:  mu: -0.061991118  nElectrons: 669.000000
ElecMinimize: Iter:   0  F: -3924.788905180013444  |grad|_K:  2.610e-04  alpha:  1.000e+00
	FillingsUpdate:  mu: -0.158345183  nElectrons: 669.000000
	SubspaceRotationAdjust: set factor to 1.01
ElecMinimize: Iter:   1  F: -3926.778610424464659  |grad|_K:  2.095e-04  alpha:  1.276e-01  linmin:  6.325e-06  t[s]:   1336.91
	FillingsUpdate:  mu: -0.061992258  nElectrons: 669.000000
	SubspaceRotationAdjust: set factor to 0.762
ElecMinimize: Iter:   2  F: -3928.574963739262785  |grad|_K:  2.220e-04  alpha:  1.699e-01  linmin: -1.554e-05  t[s]:   1448.21
	FillingsUpdate:  mu: -0.016359196  nElectrons: 669.000000
	SubspaceRotationAdjust: set factor to 0.397
ElecMinimize: Iter:   3  F: -3929.251950144884177  |grad|_K:  1.645e-04  alpha:  6.376e-02  linmin:  2.382e-05  t[s]:   1634.33
	FillingsUpdate:  mu: -0.014213556  nElectrons: 669.000000
	SubspaceRotationAdjust: set factor to 0.375
ElecMinimize: Iter:   4  F: -3929.815528729309335  |grad|_K:  1.050e-04  alpha:  1.125e-01  linmin: -1.378e-06  t[s]:   1781.34
	FillingsUpdate:  mu: -0.096236783  nElectrons: 669.000000
	SubspaceRotationAdjust: set factor to 0.404
ElecMinimize: Iter:   5  F: -3930.218334875485198  |grad|_K:  7.664e-05  alpha:  1.541e-01  linmin:  8.940e-07  t[s]:   1899.40
	FillingsUpdate:  mu: -0.096760160  nElectrons: 669.000000
	SubspaceRotationAdjust: set factor to 0.345
ElecMinimize: Iter:   6  F: -3930.444308445826664  |grad|_K:  6.472e-05  alpha:  1.662e-01  linmin:  7.589e-07  t[s]:   2049.64
	FillingsUpdate:  mu: -0.105128669  nElectrons: 669.000000
	SubspaceRotationAdjust: set factor to 0.282
ElecMinimize: Iter:   7  F: -3930.551096298450830  |grad|_K:  3.693e-05  alpha:  1.093e-01  linmin:  1.929e-08  t[s]:   2191.16
	FillingsUpdate:  mu: -0.127472548  nElectrons: 669.000000
	SubspaceRotationAdjust: set factor to 0.278
ElecMinimize: Iter:   8  F: -3930.611843842003964  |grad|_K:  3.498e-05  alpha:  1.906e-01  linmin:  6.120e-07  t[s]:   2315.47
	FillingsUpdate:  mu: -0.126765428  nElectrons: 669.000000
	SubspaceRotationAdjust: set factor to 0.246
ElecMinimize: Iter:   9  F: -3930.663286163322937  |grad|_K:  2.729e-05  alpha:  1.803e-01  linmin:  3.698e-07  t[s]:   2457.84
	FillingsUpdate:  mu: -0.120828626  nElectrons: 669.000000
	SubspaceRotationAdjust: set factor to 0.239
ElecMinimize: Iter:  10  F: -3930.685417693391628  |grad|_K:  1.685e-05  alpha:  1.272e-01  linmin: -2.071e-08  t[s]:   2598.84
	FillingsUpdate:  mu: -0.127449988  nElectrons: 669.000000
	SubspaceRotationAdjust: set factor to 0.236
ElecMinimize: Iter:  11  F: -3930.697865841909788  |grad|_K:  1.458e-05  alpha:  1.873e-01  linmin:  4.065e-07  t[s]:   2739.38
	FillingsUpdate:  mu: -0.124355132  nElectrons: 669.000000
	SubspaceRotationAdjust: set factor to 0.232
ElecMinimize: Iter:  12  F: -3930.706517983677259  |grad|_K:  1.184e-05  alpha:  1.739e-01  linmin: -5.535e-08  t[s]:   2857.91
	FillingsUpdate:  mu: -0.120367080  nElectrons: 669.000000
	SubspaceRotationAdjust: set factor to 0.237
ElecMinimize: Iter:  13  F: -3930.711968542339037  |grad|_K:  9.136e-06  alpha:  1.661e-01  linmin: -2.380e-07  t[s]:   2989.72
	FillingsUpdate:  mu: -0.124200657  nElectrons: 669.000000
	SubspaceRotationAdjust: set factor to 0.248
ElecMinimize: Iter:  14  F: -3930.715513172540795  |grad|_K:  7.445e-06  alpha:  1.813e-01  linmin:  1.678e-06  t[s]:   3123.96
	FillingsUpdate:  mu: -0.123309630  nElectrons: 669.000000
	SubspaceRotationAdjust: set factor to 0.249
ElecMinimize: Iter:  15  F: -3930.717829646571772  |grad|_K:  6.500e-06  alpha:  1.787e-01  linmin: -7.364e-08  t[s]:   3215.56
	FillingsUpdate:  mu: -0.122345064  nElectrons: 669.000000
	SubspaceRotationAdjust: set factor to 0.258
ElecMinimize: Iter:  16  F: -3930.719547720433638  |grad|_K:  5.316e-06  alpha:  1.737e-01  linmin:  5.958e-09  t[s]:   3345.82
	FillingsUpdate:  mu: -0.125394878  nElectrons: 669.000000
	SubspaceRotationAdjust: set factor to 0.274
ElecMinimize: Iter:  17  F: -3930.720819483944979  |grad|_K:  4.780e-06  alpha:  1.923e-01  linmin:  4.013e-07  t[s]:   3443.20
	FillingsUpdate:  mu: -0.125203476  nElectrons: 669.000000
	SubspaceRotationAdjust: set factor to 0.277
ElecMinimize: Iter:  18  F: -3930.721801912215597  |grad|_K:  4.031e-06  alpha:  1.839e-01  linmin:  1.321e-07  t[s]:   3540.49
	FillingsUpdate:  mu: -0.124636430  nElectrons: 669.000000
	SubspaceRotationAdjust: set factor to 0.276
ElecMinimize: Iter:  19  F: -3930.722390035696662  |grad|_K:  3.174e-06  alpha:  1.547e-01  linmin:  4.841e-08  t[s]:   3650.82
	FillingsUpdate:  mu: -0.125891927  nElectrons: 669.000000
	SubspaceRotationAdjust: set factor to 0.266
ElecMinimize: Iter:  20  F: -3930.722849131500425  |grad|_K:  2.943e-06  alpha:  1.947e-01  linmin:  2.735e-07  t[s]:   3731.36
	FillingsUpdate:  mu: -0.125385068  nElectrons: 669.000000
	SubspaceRotationAdjust: set factor to 0.266
ElecMinimize: Iter:  21  F: -3930.723187587337634  |grad|_K:  2.224e-06  alpha:  1.671e-01  linmin:  2.246e-08  t[s]:   3849.04
	FillingsUpdate:  mu: -0.124679195  nElectrons: 669.000000
	SubspaceRotationAdjust: set factor to 0.254
ElecMinimize: Iter:  22  F: -3930.723375981838217  |grad|_K:  1.763e-06  alpha:  1.626e-01  linmin:  3.502e-09  t[s]:   3970.37
	FillingsUpdate:  mu: -0.125091478  nElectrons: 669.000000
	SubspaceRotationAdjust: set factor to 0.244
ElecMinimize: Iter:  23  F: -3930.723501351721552  |grad|_K:  1.449e-06  alpha:  1.722e-01  linmin:  4.584e-08  t[s]:   4088.72
	FillingsUpdate:  mu: -0.125060301  nElectrons: 669.000000
	SubspaceRotationAdjust: set factor to 0.234
ElecMinimize: Iter:  24  F: -3930.723581195673887  |grad|_K:  1.145e-06  alpha:  1.624e-01  linmin:  5.572e-09  t[s]:   4223.35
	FillingsUpdate:  mu: -0.124857390  nElectrons: 669.000000
	SubspaceRotationAdjust: set factor to 0.232
ElecMinimize: Iter:  25  F: -3930.723638511469289  |grad|_K:  9.474e-07  alpha:  1.869e-01  linmin:  1.367e-08  t[s]:   4323.95
	FillingsUpdate:  mu: -0.125211994  nElectrons: 669.000000
	SubspaceRotationAdjust: set factor to 0.226
ElecMinimize: Iter:  26  F: -3930.723672634117975  |grad|_K:  7.183e-07  alpha:  1.624e-01  linmin:  1.783e-08  t[s]:   4453.94
	FillingsUpdate:  mu: -0.125269841  nElectrons: 669.000000
	SubspaceRotationAdjust: set factor to 0.212
ElecMinimize: Iter:  27  F: -3930.723691639640492  |grad|_K:  5.497e-07  alpha:  1.573e-01  linmin: -3.280e-09  t[s]:   4573.08
	FillingsUpdate:  mu: -0.125110535  nElectrons: 669.000000
	SubspaceRotationAdjust: set factor to 0.222
ElecMinimize: Iter:  28  F: -3930.723704548375736  |grad|_K:  4.548e-07  alpha:  1.824e-01  linmin: -1.310e-08  t[s]:   4644.40
	FillingsUpdate:  mu: -0.125188758  nElectrons: 669.000000
	SubspaceRotationAdjust: set factor to 0.217
ElecMinimize: Iter:  29  F: -3930.723713644465988  |grad|_K:  3.967e-07  alpha:  1.878e-01  linmin: -2.170e-09  t[s]:   4754.38
	FillingsUpdate:  mu: -0.125163905  nElectrons: 669.000000
	SubspaceRotationAdjust: set factor to 0.225
ElecMinimize: Iter:  30  F: -3930.723719621760665  |grad|_K:  2.972e-07  alpha:  1.622e-01  linmin: -3.953e-09  t[s]:   4850.33
	FillingsUpdate:  mu: -0.125046636  nElectrons: 669.000000
	SubspaceRotationAdjust: set factor to 0.234
ElecMinimize: Iter:  31  F: -3930.723723236319984  |grad|_K:  2.425e-07  alpha:  1.747e-01  linmin: -8.246e-09  t[s]:   4951.16
	FillingsUpdate:  mu: -0.125082872  nElectrons: 669.000000
	SubspaceRotationAdjust: set factor to 0.25
ElecMinimize: Iter:  32  F: -3930.723725863703294  |grad|_K:  2.149e-07  alpha:  1.908e-01  linmin:  1.598e-08  t[s]:   5071.58
	FillingsUpdate:  mu: -0.125089860  nElectrons: 669.000000
	SubspaceRotationAdjust: set factor to 0.258
ElecMinimize: Iter:  33  F: -3930.723727698925359  |grad|_K:  1.844e-07  alpha:  1.698e-01  linmin:  6.826e-09  t[s]:   5166.24
	FillingsUpdate:  mu: -0.125029761  nElectrons: 669.000000
	SubspaceRotationAdjust: set factor to 0.276
ElecMinimize: Iter:  34  F: -3930.723729305379038  |grad|_K:  1.639e-07  alpha:  2.017e-01  linmin: -5.646e-09  t[s]:   5293.72
	FillingsUpdate:  mu: -0.125068019  nElectrons: 669.000000
	SubspaceRotationAdjust: set factor to 0.288
ElecMinimize: Iter:  35  F: -3930.723730358578450  |grad|_K:  1.326e-07  alpha:  1.675e-01  linmin:  1.008e-08  t[s]:   5411.75
	FillingsUpdate:  mu: -0.125088463  nElectrons: 669.000000
	SubspaceRotationAdjust: set factor to 0.29
ElecMinimize: Iter:  36  F: -3930.723731048194622  |grad|_K:  1.200e-07  alpha:  1.676e-01  linmin:  1.538e-08  t[s]:   5487.22
	FillingsUpdate:  mu: -0.125047328  nElectrons: 669.000000
	SubspaceRotationAdjust: set factor to 0.309
ElecMinimize: Iter:  37  F: -3930.723731709963886  |grad|_K:  1.018e-07  alpha:  1.964e-01  linmin:  1.446e-08  t[s]:   5570.49
	FillingsUpdate:  mu: -0.125061882  nElectrons: 669.000000
	SubspaceRotationAdjust: set factor to 0.313
ElecMinimize: Iter:  38  F: -3930.723732125801689  |grad|_K:  8.709e-08  alpha:  1.712e-01  linmin:  1.188e-08  t[s]:   5645.23
	FillingsUpdate:  mu: -0.125066953  nElectrons: 669.000000
	SubspaceRotationAdjust: set factor to 0.284
ElecMinimize: Iter:  39  F: -3930.723732406109775  |grad|_K:  7.234e-08  alpha:  1.579e-01  linmin:  1.132e-08  t[s]:   5716.71
	FillingsUpdate:  mu: -0.125037062  nElectrons: 669.000000
	SubspaceRotationAdjust: set factor to 0.283
ElecMinimize: Iter:  40  F: -3930.723732603205008  |grad|_K:  5.674e-08  alpha:  1.609e-01  linmin:  2.803e-09  t[s]:   5801.45
	FillingsUpdate:  mu: -0.125040133  nElectrons: 669.000000
	SubspaceRotationAdjust: set factor to 0.28
ElecMinimize: Iter:  41  F: -3930.723732749984720  |grad|_K:  5.101e-08  alpha:  1.948e-01  linmin:  6.694e-09  t[s]:   5900.93
	FillingsUpdate:  mu: -0.125047552  nElectrons: 669.000000
	SubspaceRotationAdjust: set factor to 0.259
ElecMinimize: Iter:  42  F: -3930.723732843781818  |grad|_K:  3.876e-08  alpha:  1.539e-01  linmin: -7.993e-10  t[s]:   5965.58
	FillingsUpdate:  mu: -0.125038734  nElectrons: 669.000000
	SubspaceRotationAdjust: set factor to 0.253
ElecMinimize: Iter:  43  F: -3930.723732902290976  |grad|_K:  3.252e-08  alpha:  1.664e-01  linmin: -4.192e-10  t[s]:   6065.39
	FillingsUpdate:  mu: -0.125043760  nElectrons: 669.000000
	SubspaceRotationAdjust: set factor to 0.257
ElecMinimize: Iter:  44  F: -3930.723732947380540  |grad|_K:  2.658e-08  alpha:  1.821e-01  linmin:  8.481e-10  t[s]:   6163.79
	FillingsUpdate:  mu: -0.125050469  nElectrons: 669.000000
	SubspaceRotationAdjust: set factor to 0.26
ElecMinimize: Iter:  45  F: -3930.723732974602626  |grad|_K:  2.228e-08  alpha:  1.645e-01  linmin:  1.292e-08  t[s]:   6248.87
	FillingsUpdate:  mu: -0.125045701  nElectrons: 669.000000
	SubspaceRotationAdjust: set factor to 0.256
ElecMinimize: Iter:  46  F: -3930.723732996005310  |grad|_K:  1.902e-08  alpha:  1.843e-01  linmin: -3.602e-08  t[s]:   6329.81
	FillingsUpdate:  mu: -0.125046100  nElectrons: 669.000000
	SubspaceRotationAdjust: set factor to 0.282
ElecMinimize: Iter:  47  F: -3930.723733009655916  |grad|_K:  1.466e-08  alpha:  1.606e-01  linmin:  2.767e-08  t[s]:   6418.22
	FillingsUpdate:  mu: -0.125049475  nElectrons: 669.000000
	SubspaceRotationAdjust: set factor to 0.289
ElecMinimize: Iter:  48  F: -3930.723733018931398  |grad|_K:  1.346e-08  alpha:  1.841e-01  linmin: -1.031e-07  t[s]:   6511.63
	FillingsUpdate:  mu: -0.125047330  nElectrons: 669.000000
	SubspaceRotationAdjust: set factor to 0.296
ElecMinimize: Iter:  49  F: -3930.723733026393802  |grad|_K:  1.149e-08  alpha:  1.740e-01  linmin:  1.213e-08  t[s]:   6581.30
ElecMinimize: Converged (|Delta F|<1.000000e-08 for 2 iters).
Setting wave functions to eigenvectors of Hamiltonian
Vacuum energy after initial minimize, F = -3930.723733026393802

	Linear fluid (dielectric constant: 78.4, screening length: 5.74355 Bohr) occupying 0.785336 of unit cell:	Completed after 23 iterations at t[s]:   6600.61

-------- Electronic minimization -----------
	Linear fluid (dielectric constant: 78.4, screening length: 5.74355 Bohr) occupying 0.785336 of unit cell:	Completed after 0 iterations at t[s]:   6620.47
	FillingsUpdate:  mu: -0.185868544  nElectrons: 669.000000
ElecMinimize: Iter:   0  F: -3930.747403360993758  |grad|_K:  5.643e-06  alpha:  1.000e+00
	Linear fluid (dielectric constant: 78.4, screening length: 5.74355 Bohr) occupying 0.786533 of unit cell:	Completed after 18 iterations at t[s]:   6705.30
	Linear fluid (dielectric constant: 78.4, screening length: 5.74355 Bohr) occupying 0.786069 of unit cell:	Completed after 13 iterations at t[s]:   6739.83
	FillingsUpdate:  mu: -0.184077722  nElectrons: 669.000000
	SubspaceRotationAdjust: set factor to 0.271
ElecMinimize: Iter:   1  F: -3930.752113564496085  |grad|_K:  9.265e-06  alpha:  6.313e-01  linmin:  3.223e-07  t[s]:   6783.54
	Linear fluid (dielectric constant: 78.4, screening length: 5.74355 Bohr) occupying 0.788333 of unit cell:	Completed after 18 iterations at t[s]:   6814.04
	Linear fluid (dielectric constant: 78.4, screening length: 5.74355 Bohr) occupying 0.786507 of unit cell:	Completed after 17 iterations at t[s]:   6834.04
	FillingsUpdate:  mu: -0.182196669  nElectrons: 669.000000
	SubspaceRotationAdjust: set factor to 0.374
ElecMinimize: Iter:   2  F: -3930.754579573996125  |grad|_K:  6.196e-06  alpha:  1.242e-01  linmin:  4.956e-06  t[s]:   6877.11
	Linear fluid (dielectric constant: 78.4, screening length: 5.74355 Bohr) occupying 0.786742 of unit cell:	Completed after 10 iterations at t[s]:   6914.68
	Linear fluid (dielectric constant: 78.4, screening length: 5.74355 Bohr) occupying 0.787008 of unit cell:	Completed after 11 iterations at t[s]:   6949.29
	FillingsUpdate:  mu: -0.180884087  nElectrons: 669.000000
	SubspaceRotationAdjust: set factor to 0.407
ElecMinimize: Iter:   3  F: -3930.756942862224605  |grad|_K:  4.177e-06  alpha:  2.653e-01  linmin: -1.489e-06  t[s]:   6992.47
	Linear fluid (dielectric constant: 78.4, screening length: 5.74355 Bohr) occupying 0.787310 of unit cell:	Completed after 10 iterations at t[s]:   7026.52
	Linear fluid (dielectric constant: 78.4, screening length: 5.74355 Bohr) occupying 0.787209 of unit cell:	Completed after 8 iterations at t[s]:   7051.88
	FillingsUpdate:  mu: -0.179847649  nElectrons: 669.000000
	SubspaceRotationAdjust: set factor to 0.433
ElecMinimize: Iter:   4  F: -3930.757664758792089  |grad|_K:  4.534e-06  alpha:  1.763e-01  linmin:  1.821e-07  t[s]:   7072.47
	Linear fluid (dielectric constant: 78.4, screening length: 5.74355 Bohr) occupying 0.787503 of unit cell:	Completed after 11 iterations at t[s]:   7104.80
	Linear fluid (dielectric constant: 78.4, screening length: 5.74355 Bohr) occupying 0.787519 of unit cell:	Completed after 3 iterations at t[s]:   7135.74
	FillingsUpdate:  mu: -0.180115821  nElectrons: 669.000000
	SubspaceRotationAdjust: set factor to 0.316
ElecMinimize: Iter:   5  F: -3930.758561159767396  |grad|_K:  2.988e-06  alpha:  1.863e-01  linmin: -4.226e-07  t[s]:   7187.11
	Linear fluid (dielectric constant: 78.4, screening length: 5.74355 Bohr) occupying 0.787666 of unit cell:	Completed after 9 iterations at t[s]:   7217.98
	Linear fluid (dielectric constant: 78.4, screening length: 5.74355 Bohr) occupying 0.787666 of unit cell:	Completed after 0 iterations at t[s]:   7242.34
	FillingsUpdate:  mu: -0.180994982  nElectrons: 669.000000
	SubspaceRotationAdjust: set factor to 0.301
ElecMinimize: Iter:   6  F: -3930.758952120223512  |grad|_K:  2.711e-06  alpha:  1.868e-01  linmin: -5.374e-07  t[s]:   7262.96
	Linear fluid (dielectric constant: 78.4, screening length: 5.74355 Bohr) occupying 0.787803 of unit cell:	Completed after 9 iterations at t[s]:   7290.72
	Linear fluid (dielectric constant: 78.4, screening length: 5.74355 Bohr) occupying 0.787771 of unit cell:	Completed after 4 iterations at t[s]:   7322.11
	FillingsUpdate:  mu: -0.180588252  nElectrons: 669.000000
	SubspaceRotationAdjust: set factor to 0.306
ElecMinimize: Iter:   7  F: -3930.759198350340284  |grad|_K:  1.577e-06  alpha:  1.427e-01  linmin:  7.571e-07  t[s]:   7364.06
	Linear fluid (dielectric constant: 78.4, screening length: 5.74355 Bohr) occupying 0.787805 of unit cell:	Completed after 3 iterations at t[s]:   7398.86
	Linear fluid (dielectric constant: 78.4, screening length: 5.74355 Bohr) occupying 0.787830 of unit cell:	Completed after 3 iterations at t[s]:   7429.39
	FillingsUpdate:  mu: -0.180189306  nElectrons: 669.000000
	SubspaceRotationAdjust: set factor to 0.333
ElecMinimize: Iter:   8  F: -3930.759341265628336  |grad|_K:  1.700e-06  alpha:  2.461e-01  linmin:  5.316e-07  t[s]:   7470.99
	Linear fluid (dielectric constant: 78.4, screening length: 5.74355 Bohr) occupying 0.787898 of unit cell:	Completed after 8 iterations at t[s]:   7496.39
	Linear fluid (dielectric constant: 78.4, screening length: 5.74355 Bohr) occupying 0.787875 of unit cell:	Completed after 4 iterations at t[s]:   7513.63
	FillingsUpdate:  mu: -0.180449847  nElectrons: 669.000000
	SubspaceRotationAdjust: set factor to 0.284
ElecMinimize: Iter:   9  F: -3930.759450588435357  |grad|_K:  9.467e-07  alpha:  1.620e-01  linmin:  1.203e-06  t[s]:   7543.90
	Linear fluid (dielectric constant: 78.4, screening length: 5.74355 Bohr) occupying 0.787885 of unit cell:	Completed after 4 iterations at t[s]:   7577.03
	Linear fluid (dielectric constant: 78.4, screening length: 5.74355 Bohr) occupying 0.787887 of unit cell:	Completed after 3 iterations at t[s]:   7604.57
	FillingsUpdate:  mu: -0.180161553  nElectrons: 669.000000
	SubspaceRotationAdjust: set factor to 0.274
ElecMinimize: Iter:  10  F: -3930.759491499549767  |grad|_K:  8.476e-07  alpha:  1.960e-01  linmin:  1.937e-06  t[s]:   7639.03
	Linear fluid (dielectric constant: 78.4, screening length: 5.74355 Bohr) occupying 0.787893 of unit cell:	Completed after 3 iterations at t[s]:   7672.40
	Linear fluid (dielectric constant: 78.4, screening length: 5.74355 Bohr) occupying 0.787892 of unit cell:	Completed after 0 iterations at t[s]:   7693.58
	FillingsUpdate:  mu: -0.180275158  nElectrons: 669.000000
	SubspaceRotationAdjust: set factor to 0.282
ElecMinimize: Iter:  11  F: -3930.759519646614081  |grad|_K:  6.159e-07  alpha:  1.668e-01  linmin:  2.857e-05  t[s]:   7724.77
	Linear fluid (dielectric constant: 78.4, screening length: 5.74355 Bohr) occupying 0.787891 of unit cell:	Completed after 2 iterations at t[s]:   7762.67
	Linear fluid (dielectric constant: 78.4, screening length: 5.74355 Bohr) occupying 0.787891 of unit cell:	Completed after 0 iterations at t[s]:   7795.98
	FillingsUpdate:  mu: -0.180390883  nElectrons: 669.000000
	SubspaceRotationAdjust: set factor to 0.282
ElecMinimize: Iter:  12  F: -3930.759532566215057  |grad|_K:  5.375e-07  alpha:  1.541e-01  linmin: -2.385e-05  t[s]:   7840.30
	Linear fluid (dielectric constant: 78.4, screening length: 5.74355 Bohr) occupying 0.787889 of unit cell:	Completed after 3 iterations at t[s]:   7876.95
	Linear fluid (dielectric constant: 78.4, screening length: 5.74355 Bohr) occupying 0.787889 of unit cell:	Completed after 0 iterations at t[s]:   7906.84
	FillingsUpdate:  mu: -0.180358638  nElectrons: 669.000000
	SubspaceRotationAdjust: set factor to 0.279
ElecMinimize: Iter:  13  F: -3930.759543854449475  |grad|_K:  3.046e-07  alpha:  1.609e-01  linmin: -5.008e-05  t[s]:   7945.62
	Linear fluid (dielectric constant: 78.4, screening length: 5.74355 Bohr) occupying 0.787887 of unit cell:	Completed after 2 iterations at t[s]:   7980.44
	Linear fluid (dielectric constant: 78.4, screening length: 5.74355 Bohr) occupying 0.787886 of unit cell:	Completed after 0 iterations at t[s]:   8000.29
	FillingsUpdate:  mu: -0.180381048  nElectrons: 669.000000
	SubspaceRotationAdjust: set factor to 0.304
ElecMinimize: Iter:  14  F: -3930.759549676806728  |grad|_K:  2.528e-07  alpha:  2.473e-01  linmin: -7.794e-05  t[s]:   8021.22
	Linear fluid (dielectric constant: 78.4, screening length: 5.74355 Bohr) occupying 0.787881 of unit cell:	Completed after 1 iterations at t[s]:   8051.67
	Linear fluid (dielectric constant: 78.4, screening length: 5.74355 Bohr) occupying 0.787882 of unit cell:	Completed after 0 iterations at t[s]:   8080.30
	FillingsUpdate:  mu: -0.180438745  nElectrons: 669.000000
	SubspaceRotationAdjust: set factor to 0.336
ElecMinimize: Iter:  15  F: -3930.759552933991017  |grad|_K:  2.077e-07  alpha:  2.002e-01  linmin: -1.005e-06  t[s]:   8119.21
	Linear fluid (dielectric constant: 78.4, screening length: 5.74355 Bohr) occupying 0.787879 of unit cell:	Completed after 3 iterations at t[s]:   8152.92
	Linear fluid (dielectric constant: 78.4, screening length: 5.74355 Bohr) occupying 0.787879 of unit cell:	Completed after 0 iterations at t[s]:   8180.78
	FillingsUpdate:  mu: -0.180395128  nElectrons: 669.000000
	SubspaceRotationAdjust: set factor to 0.36
ElecMinimize: Iter:  16  F: -3930.759554689816468  |grad|_K:  2.045e-07  alpha:  1.736e-01  linmin:  1.088e-05  t[s]:   8213.18
	Linear fluid (dielectric constant: 78.4, screening length: 5.74355 Bohr) occupying 0.787876 of unit cell:	Completed after 2 iterations at t[s]:   8243.96
	Linear fluid (dielectric constant: 78.4, screening length: 5.74355 Bohr) occupying 0.787877 of unit cell:	Completed after 0 iterations at t[s]:   8269.43
	FillingsUpdate:  mu: -0.180426529  nElectrons: 669.000000
	SubspaceRotationAdjust: set factor to 0.323
ElecMinimize: Iter:  17  F: -3930.759556003277339  |grad|_K:  1.612e-07  alpha:  1.360e-01  linmin:  3.791e-05  t[s]:   8290.02
	Linear fluid (dielectric constant: 78.4, screening length: 5.74355 Bohr) occupying 0.787875 of unit cell:	Completed after 2 iterations at t[s]:   8313.82
	Linear fluid (dielectric constant: 78.4, screening length: 5.74355 Bohr) occupying 0.787875 of unit cell:	Completed after 0 iterations at t[s]:   8344.90
	FillingsUpdate:  mu: -0.180440441  nElectrons: 669.000000
	SubspaceRotationAdjust: set factor to 0.329
ElecMinimize: Iter:  18  F: -3930.759556636461184  |grad|_K:  1.118e-07  alpha:  1.173e-01  linmin: -2.482e-05  t[s]:   8386.76
	Linear fluid (dielectric constant: 78.4, screening length: 5.74355 Bohr) occupying 0.787875 of unit cell:	Completed after 0 iterations at t[s]:   8420.11
	Linear fluid (dielectric constant: 78.4, screening length: 5.74355 Bohr) occupying 0.787874 of unit cell:	Completed after 1 iterations at t[s]:   8448.11
	FillingsUpdate:  mu: -0.180431115  nElectrons: 669.000000
	SubspaceRotationAdjust: set factor to 0.357
ElecMinimize: Iter:  19  F: -3930.759557263181250  |grad|_K:  9.667e-08  alpha:  2.569e-01  linmin:  3.876e-05  t[s]:   8487.88
	Linear fluid (dielectric constant: 78.4, screening length: 5.74355 Bohr) occupying 0.787874 of unit cell:	Completed after 1 iterations at t[s]:   8522.24
	Linear fluid (dielectric constant: 78.4, screening length: 5.74355 Bohr) occupying 0.787874 of unit cell:	Completed after 0 iterations at t[s]:   8547.08
	FillingsUpdate:  mu: -0.180428917  nElectrons: 669.000000
	SubspaceRotationAdjust: set factor to 0.373
ElecMinimize: Iter:  20  F: -3930.759557506461533  |grad|_K:  6.578e-08  alpha:  1.570e-01  linmin: -1.097e-05  t[s]:   8569.41
	Linear fluid (dielectric constant: 78.4, screening length: 5.74355 Bohr) occupying 0.787874 of unit cell:	Completed after 0 iterations at t[s]:   8598.05
	Linear fluid (dielectric constant: 78.4, screening length: 5.74355 Bohr) occupying 0.787874 of unit cell:	Completed after 0 iterations at t[s]:   8628.99
	FillingsUpdate:  mu: -0.180429537  nElectrons: 669.000000
	SubspaceRotationAdjust: set factor to 0.416
ElecMinimize: Iter:  21  F: -3930.759557682737523  |grad|_K:  6.380e-08  alpha:  2.128e-01  linmin:  6.129e-06  t[s]:   8669.17
	Linear fluid (dielectric constant: 78.4, screening length: 5.74355 Bohr) occupying 0.787874 of unit cell:	Completed after 0 iterations at t[s]:   8705.70
	Linear fluid (dielectric constant: 78.4, screening length: 5.74355 Bohr) occupying 0.787874 of unit cell:	Completed after 0 iterations at t[s]:   8734.38
	FillingsUpdate:  mu: -0.180428922  nElectrons: 669.000000
	SubspaceRotationAdjust: set factor to 0.48
ElecMinimize: Iter:  22  F: -3930.759557851150930  |grad|_K:  5.327e-08  alpha:  1.848e-01  linmin: -5.472e-09  t[s]:   8776.17
	Linear fluid (dielectric constant: 78.4, screening length: 5.74355 Bohr) occupying 0.787874 of unit cell:	Completed after 1 iterations at t[s]:   8804.02
	Linear fluid (dielectric constant: 78.4, screening length: 5.74355 Bohr) occupying 0.787874 of unit cell:	Completed after 0 iterations at t[s]:   8821.42
ElecMinimize: 	Step increased F by 1.510571e-07, reducing alpha to 5.712141e-03.
	Linear fluid (dielectric constant: 78.4, screening length: 5.74355 Bohr) occupying 0.787874 of unit cell:	Completed after 0 iterations at t[s]:   8868.27
ElecMinimize: 	Step increased F by 1.493518e-07, reducing alpha to 5.712141e-04.
	Linear fluid (dielectric constant: 78.4, screening length: 5.74355 Bohr) occupying 0.787874 of unit cell:	Completed after 0 iterations at t[s]:   8919.13
ElecMinimize: 	Step increased F by 1.498497e-07, reducing alpha to 5.712141e-05.
ElecMinimize: 	Step failed to reduce F after 3 attempts. Quitting step.
ElecMinimize: 	Undoing step.
	Linear fluid (dielectric constant: 78.4, screening length: 5.74355 Bohr) occupying 0.787874 of unit cell:	Completed after 0 iterations at t[s]:   8969.20
ElecMinimize: 	Step failed: resetting search direction.
	FillingsUpdate:  mu: -0.180455562  nElectrons: 669.000000
	SubspaceRotationAdjust: set factor to 0.449
ElecMinimize: Iter:  23  F: -3930.759557701255744  |grad|_K:  9.507e-08  alpha:  5.712e-05
	Linear fluid (dielectric constant: 78.4, screening length: 5.74355 Bohr) occupying 0.787875 of unit cell:	Completed after 2 iterations at t[s]:   9020.13
	Linear fluid (dielectric constant: 78.4, screening length: 5.74355 Bohr) occupying 0.787874 of unit cell:	Completed after 0 iterations at t[s]:   9044.89
	FillingsUpdate:  mu: -0.180415359  nElectrons: 669.000000
	SubspaceRotationAdjust: set factor to 0.351
ElecMinimize: Iter:  24  F: -3930.759558034809743  |grad|_K:  1.492e-07  alpha:  7.699e-02  linmin:  2.766e-04  t[s]:   9082.68
	Linear fluid (dielectric constant: 78.4, screening length: 5.74355 Bohr) occupying 0.787875 of unit cell:	Completed after 0 iterations at t[s]:   9119.91
	Linear fluid (dielectric constant: 78.4, screening length: 5.74355 Bohr) occupying 0.787874 of unit cell:	Completed after 0 iterations at t[s]:   9149.47
	FillingsUpdate:  mu: -0.180415488  nElectrons: 669.000000
	SubspaceRotationAdjust: set factor to 0.431
ElecMinimize: Iter:  25  F: -3930.759558039049807  |grad|_K:  1.400e-07  alpha:  1.090e-02  linmin: -5.466e-09  t[s]:   9192.33
	Linear fluid (dielectric constant: 78.4, screening length: 5.74355 Bohr) occupying 0.787874 of unit cell:	Completed after 0 iterations at t[s]:   9230.81
	Linear fluid (dielectric constant: 78.4, screening length: 5.74355 Bohr) occupying 0.787874 of unit cell:	Completed after 0 iterations at t[s]:   9261.50
ElecMinimize: 	Step increased F by 3.783589e-08, reducing alpha to 5.535762e-04.
	Linear fluid (dielectric constant: 78.4, screening length: 5.74355 Bohr) occupying 0.787874 of unit cell:	Completed after 0 iterations at t[s]:   9304.93
ElecMinimize: 	Step increased F by 7.668132e-08, reducing alpha to 5.535762e-05.
	Linear fluid (dielectric constant: 78.4, screening length: 5.74355 Bohr) occupying 0.787874 of unit cell:	Completed after 0 iterations at t[s]:   9367.13
ElecMinimize: 	Step increased F by 8.071129e-08, reducing alpha to 5.535762e-06.
ElecMinimize: 	Step failed to reduce F after 3 attempts. Quitting step.
ElecMinimize: 	Undoing step.
	Linear fluid (dielectric constant: 78.4, screening length: 5.74355 Bohr) occupying 0.787874 of unit cell:	Completed after 0 iterations at t[s]:   9436.26
ElecMinimize: 	Step failed: resetting search direction.
	FillingsUpdate:  mu: -0.180419714  nElectrons: 669.000000
	SubspaceRotationAdjust: set factor to 0.502
ElecMinimize: Iter:  26  F: -3930.759557958268033  |grad|_K:  1.214e-07  alpha:  5.536e-06
	Linear fluid (dielectric constant: 78.4, screening length: 5.74355 Bohr) occupying 0.787874 of unit cell:	Completed after 0 iterations at t[s]:   9513.42
	Linear fluid (dielectric constant: 78.4, screening length: 5.74355 Bohr) occupying 0.787874 of unit cell:	Completed after 0 iterations at t[s]:   9544.07
	FillingsUpdate:  mu: -0.180421951  nElectrons: 669.000000
	SubspaceRotationAdjust: set factor to 0.523
ElecMinimize: Iter:  27  F: -3930.759557969576235  |grad|_K:  1.143e-07  alpha:  8.445e-03  linmin: -6.745e-04  t[s]:   9587.17
	Linear fluid (dielectric constant: 78.4, screening length: 5.74355 Bohr) occupying 0.787874 of unit cell:	Completed after 0 iterations at t[s]:   9612.68
ElecMinimize: 	Predicted alpha/alphaT>3.000000, increasing alphaT to 2.533430e-02.
	Linear fluid (dielectric constant: 78.4, screening length: 5.74355 Bohr) occupying 0.787874 of unit cell:	Completed after 1 iterations at t[s]:   9630.32
	Linear fluid (dielectric constant: 78.4, screening length: 5.74355 Bohr) occupying 0.787874 of unit cell:	Completed after 0 iterations at t[s]:   9652.19
ElecMinimize: 	Step increased F by 6.641221e-08, reducing alpha to 9.347208e-04.
	Linear fluid (dielectric constant: 78.4, screening length: 5.74355 Bohr) occupying 0.787874 of unit cell:	Completed after 0 iterations at t[s]:   9716.98
ElecMinimize: 	Step increased F by 3.763671e-08, reducing alpha to 9.347208e-05.
	Linear fluid (dielectric constant: 78.4, screening length: 5.74355 Bohr) occupying 0.787874 of unit cell:	Completed after 0 iterations at t[s]:   9780.86
ElecMinimize: 	Step increased F by 3.485138e-08, reducing alpha to 9.347208e-06.
ElecMinimize: 	Step failed to reduce F after 3 attempts. Quitting step.
ElecMinimize: 	Undoing step.
	Linear fluid (dielectric constant: 78.4, screening length: 5.74355 Bohr) occupying 0.787874 of unit cell:	Completed after 0 iterations at t[s]:   9839.89
ElecMinimize: 	Step failed: resetting search direction.
	FillingsUpdate:  mu: -0.180447906  nElectrons: 669.000000
	SubspaceRotationAdjust: set factor to 0.28
ElecMinimize: Iter:  28  F: -3930.759557934727582  |grad|_K:  5.475e-08  alpha:  9.347e-06
	Linear fluid (dielectric constant: 78.4, screening length: 5.74355 Bohr) occupying 0.787874 of unit cell:	Completed after 0 iterations at t[s]:   9894.45
ElecMinimize: 	Predicted alpha/alphaT>3.000000, increasing alphaT to 2.533430e-02.
	Linear fluid (dielectric constant: 78.4, screening length: 5.74355 Bohr) occupying 0.787874 of unit cell:	Completed after 0 iterations at t[s]:   9910.14
ElecMinimize: 	Predicted alpha/alphaT>3.000000, increasing alphaT to 7.600289e-02.
	Linear fluid (dielectric constant: 78.4, screening length: 5.74355 Bohr) occupying 0.787874 of unit cell:	Completed after 0 iterations at t[s]:   9939.09
ElecMinimize: 	Predicted alpha/alphaT>3.000000, increasing alphaT to 2.280087e-01.
	Linear fluid (dielectric constant: 78.4, screening length: 5.74355 Bohr) occupying 0.787875 of unit cell:	Completed after 2 iterations at t[s]:   9969.79
ElecMinimize: 	Step increased F by 5.802628e-06, reducing alpha to 7.536133e-02.
	Linear fluid (dielectric constant: 78.4, screening length: 5.74355 Bohr) occupying 0.787874 of unit cell:	Completed after 3 iterations at t[s]:  10036.97
ElecMinimize: 	Step increased F by 9.599444e-08, reducing alpha to 7.536133e-03.
	Linear fluid (dielectric constant: 78.4, screening length: 5.74355 Bohr) occupying 0.787874 of unit cell:	Completed after 0 iterations at t[s]:  10106.03
	FillingsUpdate:  mu: -0.180436121  nElectrons: 669.000000
	SubspaceRotationAdjust: set factor to 0.203
ElecMinimize: Iter:  29  F: -3930.759557941093590  |grad|_K:  8.275e-08  alpha:  7.536e-03  linmin:  1.647e-04  t[s]:  10147.02
ElecMinimize: 	Bad step direction: g.d > 0.
ElecMinimize: 	Undoing step.
	Linear fluid (dielectric constant: 78.4, screening length: 5.74355 Bohr) occupying 0.787874 of unit cell:	Completed after 0 iterations at t[s]:  10175.10
ElecMinimize: 	Step failed: resetting search direction.
	FillingsUpdate:  mu: -0.180436121  nElectrons: 669.000000
	SubspaceRotationAdjust: set factor to 0.302
ElecMinimize: Iter:  30  F: -3930.759557941094499  |grad|_K:  7.825e-08  alpha:  0.000e+00
ElecMinimize: Converged (|Delta F|<1.000000e-08 for 2 iters).
Setting wave functions to eigenvectors of Hamiltonian
Single-point solvation energy estimate, DeltaF = -0.035824914700697

# Ionic positions in lattice coordinates:
ion Cu   0.340473000435033   0.263622567052962   0.525243772786029 0
ion Cu   0.840863837170563   0.263268533378136   0.526523474913446 0
ion Cu   0.844906893927817   0.759238755514447   0.527971521559194 0
ion Cu   0.093660466971939   0.489769681117874   0.526804693619621 0
ion Cu   0.589972665182279   0.496992398306705   0.530023868820997 0
ion Cu   0.093447475107496   0.990438180931599   0.519660761753175 0
ion Cu   0.592550549854779   0.981392020149785   0.545331362094593 0
ion Cu   0.158392813890919   0.239852317423444   0.464330957441554 0
ion Cu   0.655310426034861   0.240420449805201   0.470341735030228 0
ion Cu   0.159464066398181   0.745986609398069   0.473640348206072 0
ion Cu   0.661439088750346   0.730067005944424   0.464773182182968 0
ion Cu   0.403379444774657  -0.003093632832837   0.483118231353690 0
ion Cu   0.903441085190322   0.011488288662870   0.465981865943279 0
ion Cu   0.403100151979343   0.518344080928552   0.471476811293283 0
ion Cu   0.906878595508949   0.513681052115800   0.467830259919674 0
ion Te   0.280874954332237   0.104513313929728   0.582778300442163 0
ion Te   0.780726997395925   0.104053043635480   0.583845686795934 0
ion Te   0.280587305216341   0.618823921089225   0.581403978743287 0
ion Te   0.779367779738416   0.600714244363804   0.585969164237515 0
ion Te   0.218550187362740   0.400470383962974   0.410803650944876 0
ion Te   0.715999345422388   0.401073234629973   0.414105326802031 0
ion Te   0.231378022647456   0.896384400402376   0.405297280990706 0
ion Te   0.718281127418935   0.896937347282492   0.417364193721352 0
ion Te   0.467379598753658   0.359173224861195   0.412990485004043 0
ion Te   0.968353536485920   0.354617554057755   0.410447380605948 0
ion Te   0.480107695713083   0.814240149387013   0.472947253791212 0
ion Te   0.972013531880347   0.849725024834181   0.411386467431236 0
ion Te   0.031280667995543   0.147770518649809   0.579468096673888 0
ion Te   0.529378428469655   0.148320564349645   0.585451503244889 0
ion Te   0.037380978121591   0.647933513846387   0.587006191176180 0
ion Te   0.518601027196587   0.663217943913287   0.581650460703106 0
ion O   0.310071861523819   0.072970389488939   0.484681091554145 0
ion O   0.800386921520447   0.074991027481099   0.483256978216406 0
ion O   0.295940970402234   0.578112917635644   0.483856111259133 0
ion O   0.801706338627078   0.572168268597914   0.485092051085994 0
ion O   0.267845920267817   0.298100582678192   0.434703936332059 0
ion O   0.763837131453785   0.298965512027677   0.440838841502971 0
ion O   0.265501362934342   0.795750653196306   0.441962071270319 0
ion O   0.766897407284346   0.794260667321917   0.439661932001333 0
ion O   0.398404642789901   0.184767361028797   0.587321917105322 0
ion O   0.900037862206069   0.183139383721317   0.585211796230769 0
ion O   0.391367096310981   0.691559406792232   0.568186469144689 0
ion O   0.903432300774430   0.681817384808367   0.588649697937431 0
ion O   0.482347545580883   0.044341901502845   0.564666767630246 0
ion O   0.983540946910856   0.046312053300706   0.550349709137767 0
ion O   0.479895738579220   0.552666306398688   0.554829062782748 0
ion O   0.986726521010825   0.548500384855546   0.550834300439573 0
ion O   0.348544909965452   0.438187939022472   0.409140318966194 0
ion O   0.848889223730580   0.433783786811194   0.408647748633675 0
ion O   0.354930597999522   0.931680275784430   0.406536683751600 0
ion O   0.843747891135438   0.933608652904238   0.405262463365233 0
ion O   0.149581959923572   0.067624165931069   0.583320111454246 0
ion O   0.649659668306273   0.069881010390376   0.591214873450971 0
ion O   0.147950058781401   0.565415604831997   0.590229790346887 0
ion O   0.652165113837215   0.567048024066205   0.594216087615405 0
ion O   0.444109787453873   0.326397797514275   0.511843027541974 0
ion O   0.946178201516765   0.324101984000421   0.510245150358957 0
ion O   0.531021359269746   0.790332697719858   0.569129021853380 0
ion O   0.946166405604102   0.824216734137975   0.511708142142655 0
ion O   0.195190106650756   0.425498553899251   0.511813086633239 0
ion O   0.691795423376432   0.430819864629418   0.513792879832283 0
ion O   0.196710047458520   0.930759898621993   0.502305897706779 0
ion O   0.699317254470101   0.925081828677253   0.518347820562669 0
ion O   0.016558646894278   0.456032296581179   0.439383304767636 0
ion O   0.514028359070232   0.460377478306925   0.443727086130591 0
ion O   0.014203040733472   0.953591010796310   0.437264289230268 0
ion O   0.501525907439568   0.924580153421028   0.490003001461185 0
ion O   0.231924813413323   0.205314099383387   0.553239585383343 0
ion O   0.732011390598827   0.206074090124573   0.558381041783574 0
ion O   0.208762709280095   0.709573954012429   0.565308611769934 0
ion O   0.735969263062778   0.702603122795732   0.554647412967775 0
ion O   0.053897378710988   0.177493001626808   0.479551385356137 0
ion O   0.552658326995202   0.175471121806407   0.484996073629278 0
ion O   0.057283902490995   0.683169244102051   0.487105470534012 0
ion O   0.552994649069795   0.670967553925898   0.477322162186673 0
ion O   0.099439525843390   0.319769789092855   0.405162000998903 0
ion O   0.597994875750970   0.321621194354931   0.410632094564584 0
ion O   0.097090087231708   0.809331279233982   0.403522457018347 0
ion O   0.590312260429246   0.809254405564539   0.412463865144548 0


# Forces in Lattice coordinates:
force Cu   0.100422354691744   0.017993404846081   0.020775506978225 0
force Cu   0.098923293444496   0.004528447402548   0.034810762606660 0
force Cu   0.022676756846870  -0.013093415691508  -0.032284653422280 0
force Cu  -0.002088416716575   0.021162988083823  -0.031855427764411 0
force Cu   0.034804690191653  -0.006746310381665  -0.048107650325539 0
force Cu  -0.004815191426779   0.031999626295889   0.010669445745039 0
force Cu   0.040416822699420   0.078106582405535   0.004167568204963 0
force Cu  -0.109035789670180  -0.008198435976572  -0.025156226554181 0
force Cu  -0.085139804259388  -0.005339511063969  -0.025546241570945 0
force Cu  -0.036850589349569   0.000881598490331  -0.004883760577775 0
force Cu   0.037191622304302   0.009241700126793  -0.008383347249717 0
force Cu  -0.005538515576209  -0.005452910080475   0.068234088059556 0
force Cu  -0.022859691441674  -0.004769391678536   0.003627023909324 0
force Cu  -0.026800156483709  -0.052113644210408  -0.010776671091717 0
force Cu  -0.014586621065810  -0.046611346059569  -0.010889806256293 0
force Te   0.244058746421016  -0.277389804614685   1.328992250385948 0
force Te   0.341768716127989  -0.314731466970961   1.251861091255417 0
force Te   0.134809589144441  -0.451037844656968   1.165202637697098 0
force Te   0.503086880183614  -0.296566278925877   1.184257696634198 0
force Te  -0.332090278903121   0.291695928317859  -1.275293434593111 0
force Te  -0.259411799581106   0.305530874268005  -1.247749639298911 0
force Te  -0.642764181578420   0.079157368637285  -1.196713758660332 0
force Te  -0.476499344573303   0.281590589259636  -1.141493515052600 0
force Te  -0.255946969904818  -0.293085213604449  -1.284398803867461 0
force Te  -0.309057414032367  -0.301755472858181  -1.238120378148915 0
force Te  -0.792476928528318  -0.312940236604341  -0.591021418727951 0
force Te  -0.365432069695057  -0.271875911226310  -1.270659769114242 0
force Te   0.275886488997237   0.312078820609287   1.273471975248679 0
force Te   0.294310286335771   0.304118872385366   1.217929083399216 0
force Te   0.213722016113412   0.261693079407801   1.026608803599611 0
force Te   0.401986849946228  -0.190621480221798   1.029578406474755 0
force O   0.248745795421626  -0.341614707256055  -1.078586251144049 0
force O   0.155054778564592  -0.298612636196192  -1.062891771170410 0
force O   0.113606350588576  -0.381547379100453  -1.011464853889347 0
force O   0.180212271550532  -0.269376274525604  -0.991082393907348 0
force O   0.170109239305797  -0.701638727195492   0.265916980948749 0
force O   0.160619720215505  -0.705900094227918   0.279318507254985 0
force O   0.240529034278060  -0.691260831922312   0.199408571358036 0
force O   0.199225399244391  -0.735428328900760   0.220164492283402 0
force O  -0.309337850001519   0.303140110631896  -0.003428101806399 0
force O  -0.278584396101379   0.294981180888132  -0.005095773234567 0
force O  -0.305325492999020   0.506132612760076  -0.116188388762758 0
force O  -0.295413584062905   0.278919515587467  -0.008468714068272 0
force O  -0.185262566876244  -0.726772712424747  -0.174387507331585 0
force O  -0.151963553018937  -0.706710385026007  -0.212154915212728 0
force O  -0.063902007615864  -0.406722150040176  -0.062427232448028 0
force O  -0.193529572031574  -0.627352638894882  -0.224722738739589 0
force O   0.288881763834473   0.337035172482779   0.010183314331664 0
force O   0.267490062631734   0.309318053805523   0.008128767083114 0
force O   0.725334537546585   0.339101976151182  -0.041140886715961 0
force O   0.440951823650509   0.287582284731104  -0.083962027022254 0
force O  -0.267536650544015  -0.321003393832055  -0.048344513142290 0
force O  -0.312489442819414  -0.307152425427217   0.011581855261657 0
force O   0.002823025099409  -0.283922615661711   0.032470073388815 0
force O  -0.515094886680814  -0.230443218228089   0.094728113060993 0
force O  -0.206316486477894  -0.347267420146949   1.041759679654220 0
force O  -0.193502724996438  -0.329902220609124   1.033002808973301 0
force O   0.290528943260342   0.018774756504897   0.870193330175372 0
force O  -0.238521820807940  -0.288945816165410   1.108873074497566 0
force O  -0.186622019123766   0.263155850177626   1.079813242603144 0
force O  -0.193329968744814   0.311836871183325   1.064492231194805 0
force O  -0.240839875152226   0.318585342068045   0.945783433258690 0
force O  -0.169776764448683   0.262586734302268   1.054812397720632 0
force O   0.184750289803673   0.704192990164426   0.241156417226276 0
force O   0.182622089522793   0.721792324707737   0.229153538707314 0
force O   0.177236827130022   0.716357434588357   0.189978835052758 0
force O   0.030418601115381   0.676794016477622   0.109491548955901 0
force O  -0.170561400187801   0.704535909415933  -0.303602426888372 0
force O  -0.167346701544562   0.731976667439074  -0.275142809793140 0
force O  -0.303276754747580   0.668788924524339   0.026058390185620 0
force O  -0.170982019481194   0.739964431699709  -0.243577620818261 0
force O   0.203573018646777   0.321622234875201  -1.058161571781483 0
force O   0.198191652623319   0.300684793320635  -1.053781911063773 0
force O   0.070329396304521   0.234315257629468  -0.838878557552420 0
force O   0.199055675960151   0.073833578651469  -0.830116184370226 0
force O   0.326226927016660  -0.282238096077533  -0.026324412899760 0
force O   0.266708644788340  -0.304449373349476  -0.008536241453255 0
force O   0.407074292369522  -0.171070411811148  -0.113149685892088 0
force O   0.390247106286104  -0.111649843093086  -0.408008391696983 0

# Energy components:
   A_diel =       -0.0545209718454201
   Eewald =    12374.1426493825620128
       EH =    15885.4782279253504385
     Eloc =   -33003.7435679990521749
      Enl =      612.2040122731502834
      Exc =     -580.7122746819094345
 Exc_core =       83.1063518291156811
       KE =      698.9048927470623767
-------------------------------------
     Etot =    -3930.6742294955683974
       TS =        0.0853284455258856
-------------------------------------
        F =    -3930.7595579410944993

IonicMinimize: Iter:   0  F: -3930.759557941094499  |grad|_K:  0.000e+00  t[s]:  10235.34
IonicMinimize: Converged (|grad|_K<1.000000e-04).

#--- Lowdin population analysis ---
# oxidation-state Cu +0.334 +0.334 +0.338 +0.336 +0.335 +0.333 +0.336 +0.333 +0.336 +0.308 +0.318 +0.325 +0.329 +0.330 +0.333
# oxidation-state Te +1.883 +1.882 +1.877 +1.882 +1.882 +1.877 +1.867 +1.881 +1.877 +1.882 +1.858 +1.883 +1.880 +1.875 +1.872 +1.868
# oxidation-state O -0.649 -0.650 -0.649 -0.637 -0.562 -0.553 -0.631 -0.561 -0.693 -0.693 -0.841 -0.689 -0.558 -0.553 -0.537 -0.529 -0.697 -0.691 -0.686 -0.693 -0.689 -0.693 -0.671 -0.685 -0.643 -0.645 -0.813 -0.641 -0.636 -0.648 -0.642 -0.652 -0.555 -0.556 -0.548 -0.510 -0.557 -0.560 -0.655 -0.539 -0.646 -0.652 -0.626 -0.650 -0.694 -0.695 -0.675 -0.685


Dumping 'NbTe2.fillings' ... done
Dumping 'NbTe2.wfns' ... done
Dumping 'NbTe2.fluidState' ... done
Dumping 'NbTe2.eigenvals' ... done
End date and time: Mon Aug  3 18:03:21 2020  (Duration: 0-2:50:52.45)
Done!
