
*************** JDFTx 1.5.0  ***************


*************** JDFTx 1.5.0  ***************

Start date and time: Sun Jul 12 19:55:30 2020
Executable jdftx_gpu with command-line: -i Charged.in -o Charged.out
Running on hosts (process indices):  amax (0-1)
Divided in process groups (process indices):  0 (0)  1 (1)
gpuInit: Found compatible cuda device 0 'Tesla K80'
gpuInit: Found compatible cuda device 1 'Tesla K80'
gpuInit: Selected device 0
Resource initialization completed at t[s]:     17.69
Run totals: 2 processes, 24 threads, 2 GPUs


Input parsed successfully to the following command list (including defaults):

basis kpoint-dependent
cache-projectors no
coords-type Lattice
core-overlap-check none
coulomb-interaction Slab 001
coulomb-truncation-embed 0 0 0.5
davidson-band-ratio 1.1
dump End State
dump-name NbTe2.$VAR
elec-cutoff 20 100
elec-eigen-algo Davidson
elec-ex-corr gga-PBE
elec-smearing Gauss 0.0073499
electronic-minimize  \
	dirUpdateScheme      FletcherReeves \
	linminMethod         DirUpdateRecommended \
	nIterations          500 \
	history              15 \
	knormThreshold       0 \
	energyDiffThreshold  1e-08 \
	nEnergyDiff          2 \
	alphaTstart          1 \
	alphaTmin            1e-10 \
	updateTestStepSize   yes \
	alphaTreduceFactor   0.1 \
	alphaTincreaseFactor 3 \
	nAlphaAdjustMax      3 \
	wolfeEnergy          0.0001 \
	wolfeGradient        0.9 \
	fdTest               no
exchange-regularization WignerSeitzTruncated
fluid LinearPCM 298.000000 1.013250
fluid-anion F- 1 MeanFieldLJ \
	epsBulk 1 \
	pMol 0 \
	epsInf 1 \
	Pvap 0 \
	sigmaBulk 0 \
	Rvdw 2.24877 \
	Res 0 \
	tauNuc 343133
fluid-cation Na+ 1 MeanFieldLJ \
	epsBulk 1 \
	pMol 0 \
	epsInf 1 \
	Pvap 0 \
	sigmaBulk 0 \
	Rvdw 2.19208 \
	Res 0 \
	tauNuc 343133
fluid-ex-corr lda-TF lda-PZ
fluid-gummel-loop 10 1.000000e-05
fluid-minimize  \
	dirUpdateScheme      PolakRibiere \
	linminMethod         DirUpdateRecommended \
	nIterations          400 \
	history              15 \
	knormThreshold       1e-11 \
	energyDiffThreshold  0 \
	nEnergyDiff          2 \
	alphaTstart          1 \
	alphaTmin            1e-10 \
	updateTestStepSize   yes \
	alphaTreduceFactor   0.1 \
	alphaTincreaseFactor 3 \
	nAlphaAdjustMax      6 \
	wolfeEnergy          0.0001 \
	wolfeGradient        0.9 \
	fdTest               no
fluid-solvent H2O 55.338 ScalarEOS \
	epsBulk 78.4 \
	pMol 0.92466 \
	epsInf 1.77 \
	Pvap 1.06736e-10 \
	sigmaBulk 4.62e-05 \
	Rvdw 2.61727 \
	Res 1.42 \
	tauNuc 343133 \
	poleEl 15 7 1
forces-output-coords Positions
initial-state NbTe2.$VAR
ion La   0.166666769943525   0.333333554048131   0.571544289585891 0
ion La   0.666666769943525   0.333333554048131   0.571544289585891 0
ion La   0.166666769943525   0.833333554048131   0.571544289585891 0
ion La   0.666666769943525   0.833333554048131   0.571544289585891 0
ion La   0.333333148871546   0.166666607125805   0.428455692944627 0
ion La   0.833333148871546   0.166666607125805   0.428455692944627 0
ion La   0.333333148871546   0.666666607125805   0.428455692944627 0
ion La   0.833333148871546   0.666666607125805   0.428455692944627 0
ion P   0.999999976045338   0.999999962257540   0.500000021933694 0
ion P   0.499999976045338   0.999999962257540   0.500000021933694 0
ion P   0.999999976045338   0.499999962257540   0.500000021933694 0
ion P   0.499999976045338   0.499999962257540   0.500000021933694 0
ion I   0.333333532887892   0.166666497821012   0.666581788230533 0
ion I   0.833333532887892   0.166666497821012   0.666581788230533 0
ion I   0.333333532887892   0.666666497821012   0.666581788230533 0
ion I   0.833333532887892   0.666666497821012   0.666581788230533 0
ion I   0.166666572251700   0.333333378747504   0.333418207305240 0
ion I   0.666666572251700   0.333333378747504   0.333418207305240 0
ion I   0.166666572251700   0.833333378747504   0.333418207305240 0
ion I   0.666666572251700   0.833333378747504   0.333418207305240 0
ion-species GBRV/$ID_pbe.uspp
ion-width Ecut
ionic-minimize  \
	dirUpdateScheme      L-BFGS \
	linminMethod         DirUpdateRecommended \
	nIterations          0 \
	history              15 \
	knormThreshold       0.0001 \
	energyDiffThreshold  1e-06 \
	nEnergyDiff          2 \
	alphaTstart          1 \
	alphaTmin            1e-10 \
	updateTestStepSize   yes \
	alphaTreduceFactor   0.1 \
	alphaTincreaseFactor 3 \
	nAlphaAdjustMax      3 \
	wolfeEnergy          0.0001 \
	wolfeGradient        0.9 \
	fdTest               no
kpoint   0.000000000000   0.000000000000   0.000000000000  1.00000000000000
kpoint-folding 4 4 1 
latt-move-scale 1 1 1
latt-scale 1 1 1 
lattice Triclinic 16.2489 16.2489 42.5261 90 90 120
lattice-minimize  \
	dirUpdateScheme      L-BFGS \
	linminMethod         DirUpdateRecommended \
	nIterations          0 \
	history              15 \
	knormThreshold       0 \
	energyDiffThreshold  1e-06 \
	nEnergyDiff          2 \
	alphaTstart          1 \
	alphaTmin            1e-10 \
	updateTestStepSize   yes \
	alphaTreduceFactor   0.1 \
	alphaTincreaseFactor 3 \
	nAlphaAdjustMax      3 \
	wolfeEnergy          0.0001 \
	wolfeGradient        0.9 \
	fdTest               no
lcao-params -1 1e-06 0.0073499
pcm-variant CANDLE
spintype no-spin
subspace-rotation-factor 1 yes
symmetries automatic
symmetry-threshold 0.0001
target-mu -0.24475 no




---------- Setting up symmetries ----------

Found 24 point-group symmetries of the bravais lattice
Found 48 space-group symmetries with basis
Applied RMS atom displacement 3.1337e-06 bohrs to make symmetries exact.

---------- Initializing the Grid ----------
R = 
[    16.2489   -8.12446          0  ]
[          0     14.072          0  ]
[          0          0    42.5261  ]
unit cell volume = 9723.77
G =
[   0.386684   0.223252         -0  ]
[          0   0.446503          0  ]
[          0         -0   0.147749  ]
Minimum fftbox size, Smin = [  76  76  192  ]
Chosen fftbox size, S = [  80  80  192  ]

---------- Initializing tighter grid for wavefunction operations ----------
R = 
[    16.2489   -8.12446          0  ]
[          0     14.072          0  ]
[          0          0    42.5261  ]
unit cell volume = 9723.77
G =
[   0.386684   0.223252         -0  ]
[          0   0.446503          0  ]
[          0         -0   0.147749  ]
Minimum fftbox size, Smin = [  68  68  172  ]
Chosen fftbox size, S = [  70  70  180  ]

---------- Exchange Correlation functional ----------
Initalized PBE GGA exchange.
Initalized PBE GGA correlation.

---------- Setting up pseudopotentials ----------
Width of ionic core gaussian charges (only for fluid interactions / plotting) set to 0.397384

Reading pseudopotential file '/home/guoxy/vasp/jdftx-1.5.0/build/pseudopotentials/GBRV/la_pbe.uspp':
  Title: La.  Created by USPP 7.3.6 on 14-9-2013
  Reference state energy: -51.063618.  11 valence electrons in orbitals:
    |500>  occupation: 2  eigenvalue: -1.451142
    |510>  occupation: 6  eigenvalue: -0.843691
    |520>  occupation: 1  eigenvalue: -0.130012
    |600>  occupation: 1.5  eigenvalue: -0.146765
    |610>  occupation: 0.5  eigenvalue: -0.059369
    |430>  occupation: 0  eigenvalue: -0.180348
  lMax: 3  lLocal: -1  QijEcut: 5
  8 projectors sampled on a log grid with 665 points:
    l: 0  eig: -1.451139  rCut: 1.7
    l: 0  eig: -0.146766  rCut: 1.7
    l: 1  eig: -0.843687  rCut: 1.9
    l: 1  eig: -0.059370  rCut: 1.9
    l: 2  eig: -0.130014  rCut: 2
    l: 2  eig: 1.000000  rCut: 2
    l: 3  eig: -0.180352  rCut: 2
    l: 3  eig: -1.000000  rCut: 2
  Partial core density with radius 1.3
  Transforming core density to a uniform radial grid of dG=0.02 with 1707 points.
  Transforming local potential to a uniform radial grid of dG=0.02 with 1707 points.
  Transforming nonlocal projectors to a uniform radial grid of dG=0.02 with 432 points.
  Transforming density augmentations to a uniform radial grid of dG=0.02 with 1707 points.
  Transforming atomic orbitals to a uniform radial grid of dG=0.02 with 432 points.
  Core radius for overlap checks: 2.00 bohrs.

Reading pseudopotential file '/home/guoxy/vasp/jdftx-1.5.0/build/pseudopotentials/GBRV/p_pbe.uspp':
  Title: P.  Created by USPP 7.3.6 on 11-6-15
  Reference state energy: -7.561951.  5 valence electrons in orbitals:
    |300>  occupation: 2  eigenvalue: -0.513368
    |310>  occupation: 3  eigenvalue: -0.202371
  lMax: 2  lLocal: 3  QijEcut: 5
  6 projectors sampled on a log grid with 631 points:
    l: 0  eig: -0.513363  rCut: 1.5
    l: 0  eig: 0.500000  rCut: 1.5
    l: 1  eig: -0.202372  rCut: 1.5
    l: 1  eig: 1.000000  rCut: 1.5
    l: 2  eig: -0.500000  rCut: 1.5
    l: 2  eig: 1.500000  rCut: 1.5
  Partial core density with radius 1.35
  Transforming core density to a uniform radial grid of dG=0.02 with 1707 points.
  Transforming local potential to a uniform radial grid of dG=0.02 with 1707 points.
  Transforming nonlocal projectors to a uniform radial grid of dG=0.02 with 432 points.
  Transforming density augmentations to a uniform radial grid of dG=0.02 with 1707 points.
  Transforming atomic orbitals to a uniform radial grid of dG=0.02 with 432 points.
  Core radius for overlap checks: 1.50 bohrs.

Reading pseudopotential file '/home/guoxy/vasp/jdftx-1.5.0/build/pseudopotentials/GBRV/i_pbe.uspp':
  Title: I.  Created by USPP 7.3.6 on 14-9-2013
  Reference state energy: -32.770235.  7 valence electrons in orbitals:
    |500>  occupation: 2  eigenvalue: -0.639712
    |510>  occupation: 5  eigenvalue: -0.260406
  lMax: 2  lLocal: 3  QijEcut: 5
  6 projectors sampled on a log grid with 725 points:
    l: 0  eig: -0.639710  rCut: 1.9
    l: 0  eig: 0.000000  rCut: 1.9
    l: 1  eig: -0.260404  rCut: 2
    l: 1  eig: 0.000000  rCut: 2
    l: 2  eig: -0.500000  rCut: 2.45
    l: 2  eig: 0.500000  rCut: 2.45
  Partial core density with radius 1.3
  Transforming core density to a uniform radial grid of dG=0.02 with 1707 points.
  Transforming local potential to a uniform radial grid of dG=0.02 with 1707 points.
  Transforming nonlocal projectors to a uniform radial grid of dG=0.02 with 432 points.
  Transforming density augmentations to a uniform radial grid of dG=0.02 with 1707 points.
  Transforming atomic orbitals to a uniform radial grid of dG=0.02 with 432 points.
  Core radius for overlap checks: 2.45 bohrs.

Initialized 3 species with 20 total atoms.

Folded 1 k-points by 4x4x1 to 16 k-points.

---------- Setting up k-points, bands, fillings ----------
Reduced to 4 k-points under symmetry. 
Computing the number of bands and number of electrons
Reading initial fillings from file NbTe2.fillings.
nElectrons: 164.000000   nBands: 208   nStates: 4

----- Setting up reduced wavefunction bases (one per k-point) -----
average nbasis = 41542.562 , ideal nbasis = 41540.690

---------- Setting up coulomb interaction ----------
Fluid mode embedding: using embedded box, but periodic Coulomb kernel.
(Fluid response is responsible for (approximate) separation between periodic images.)
Setting up double-sized grid for truncated Coulomb potentials:
R = 
[    16.2489   -8.12446          0  ]
[          0     14.072          0  ]
[          0          0    85.0522  ]
unit cell volume = 19447.5
G =
[   0.386684   0.223252         -0  ]
[          0   0.446503          0  ]
[          0         -0  0.0738745  ]
Chosen fftbox size, S = [  80  80  384  ]
Integer grid location selected as the embedding center:
   Grid: [  0  0  96  ]
   Lattice: [  0  0  0.5  ]
   Cartesian: [  0  0  21.263  ]
Constructing Wigner-Seitz cell: 8 faces (6 quadrilaterals, 2 hexagons)
Range-separation parameter for embedded mesh potentials due to point charges: 0.593728 bohrs.

Initializing van der Waals corrections
	NOTE: vdW corrections apply only for interactions with fluid.
	La:  C6:  815.23 Eh-a0^6  R0: 3.326 a0 (WARNING: beyond Grimme's data set)
	 P:  C6:  135.99 Eh-a0^6  R0: 3.222 a0
	 I:  C6:  546.38 Eh-a0^6  R0: 3.575 a0

---------- Setting up ewald sum ----------
Optimum gaussian width for ewald sums = 6.511684 bohr.
Real space sum over 845 unit cells with max indices [  6  6  2  ]
Reciprocal space sum over 5203 terms with max indices [  5  5  21  ]

---------- Allocating electronic variables ----------
Initializing wave functions:  reading from 'NbTe2.wfns'
----- createFluidSolver() ----- (Fluid-side solver setup)
   Initializing fluid molecule 'H2O'
     Initializing site 'O'
       Electron density: proportional to exp(-r/0.36935)*erfc((r-0.51523)/0.36823) with norm 6.826
       Charge density: gaussian nuclear width 0.478731 with net site charge 0.826
       Polarizability: cuspless exponential with width 0.32 and norm 3.73
       Hard sphere radius: 2.57003 bohrs
       Positions in reference frame:
         [ +0.000000 +0.000000 +0.000000 ]
     Initializing site 'H'
       Electron density: proportional to exp(-r/0.34641)*erfc((r-0)/0.390882) with norm 0.587
       Charge density: gaussian nuclear width 0.377945 with net site charge -0.413
       Polarizability: cuspless exponential with width 0.39 and norm 3.3
       Positions in reference frame:
         [ +0.000000 -1.441945 +1.122523 ]
         [ +0.000000 +1.441945 +1.122523 ]
     Net charge: 0   dipole magnitude: 0.927204
     Initializing spherical shell mfKernel with radius 2.61727 Bohr
     deltaS corrections:
       site 'O': -7.54299
       site 'H': -6.83917
   Initializing fluid molecule 'Na+'
     Initializing site 'Na'
       Electron density: proportional to exp(-r/0.19682)*erfc((r-0.71491)/0.41314) with norm 8.1383
       Charge density: gaussian nuclear width 0.365347 with net site charge -1
       Hard sphere radius: 1.86327 bohrs
       Positions in reference frame:
         [ +0.000000 +0.000000 +0.000000 ]
     Net charge: -1   dipole magnitude: 0
     Initializing gaussian mfKernel with width: 1.55004 Bohr
     deltaS corrections:
       site 'Na': -22.3555
   Initializing fluid molecule 'F-'
     Initializing site 'F'
       Electron density: proportional to exp(-r/0.38886)*erfc((r-0)/0.438782) with norm 8
       Charge density: gaussian nuclear width 0.374796 with net site charge 1
       Hard sphere radius: 2.39995 bohrs
       Positions in reference frame:
         [ +0.000000 +0.000000 +0.000000 ]
     Net charge: 1   dipole magnitude: 0
     Initializing gaussian mfKernel with width: 1.59012 Bohr
     deltaS corrections:
       site 'F': -9.04335

Correction to mu due to finite nuclear width = -0.00836717
   Cavity determined by nc: 0.00142 and sigma: 0.707107
   Nonlocal vdW cavity from gaussian model electron density with norm = 8 and sigma = 0.993594 bohr
   Charge asymmetry in cavity with sensitivity pCavity = 36.5 e-bohr/Eh
   Electrostatic cavity expanded by eta = 1.46 bohrs
   Weighted density cavitation model constrained by Nbulk: 0.0049383 bohr^-3, Pvap: 3.14029 kPa, Rvdw: 2.61727 bohr and sigmaBulk: 4.62e-05 Eh/bohr^2 at T: 298 K.
   Weighted density dispersion model using vdW pair potentials with single solvent site with sqrtC6eff: 0.77 SI.
Reading fluid state from 'NbTe2.fluidState'


---- Citations for features of the code used in this run ----

   Software package:
      R. Sundararaman, K. Letchworth-Weaver, K.A. Schwarz, D. Gunceler, Y. Ozhabes and T.A. Arias, 'JDFTx: software for joint density-functional theory', SoftwareX 6, 278 (2017)

   gga-PBE exchange-correlation functional:
      J.P. Perdew, K. Burke and M. Ernzerhof, Phys. Rev. Lett. 77, 3865 (1996)

   Pseudopotentials:
      KF Garrity, JW Bennett, KM Rabe and D Vanderbilt, Comput. Mater. Sci. 81, 446 (2014)

   Truncated Coulomb potentials:
      R. Sundararaman and T.A. Arias, Phys. Rev. B 87, 165122 (2013)

   Van der Waals correction pair-potentials:
      S. Grimme, J. Comput. Chem. 27, 1787 (2006)

   Charge-asymmetric nonlocally-determined local-electric (CANDLE) solvation model:
      R. Sundararaman and W.A. Goddard III, J. Chem. Phys. 142, 064107 (2015)

   Total energy minimization with Auxiliary Hamiltonian:
      C. Freysoldt, S. Boeck, and J. Neugebauer, Phys. Rev. B 79, 241103(R) (2009)

   Grand-canonical (fixed-potential) DFT:
      R. Sundararaman, W. A. Goddard III and T. A. Arias, J. Chem. Phys. 146, 114104 (2017)

This list may not be complete. Please suggest additional citations or
report any other bugs at https://github.com/shankar1729/jdftx/issues

Initialization completed successfully at t[s]:     38.67

Shifting auxilliary hamiltonian by -0.094128 to set nElectrons=164.000000
	Linear fluid (dielectric constant: 78.4, screening length: 5.74355 Bohr) occupying 0.705291 of unit cell:	Completed after 0 iterations at t[s]:     41.17

-------- Electronic minimization -----------
	Linear fluid (dielectric constant: 78.4, screening length: 5.74355 Bohr) occupying 0.705291 of unit cell:	Completed after 0 iterations at t[s]:     60.77
	FillingsUpdate:  mu: -0.244750400  nElectrons: 164.000000
ElecMinimize: Iter:   0  G: -335.496594948580253  |grad|_K:  1.483e-04  alpha:  1.000e+00
	Linear fluid (dielectric constant: 78.4, screening length: 5.74355 Bohr) occupying 0.708069 of unit cell:	Completed after 26 iterations at t[s]:     96.61
	Linear fluid (dielectric constant: 78.4, screening length: 5.74355 Bohr) occupying 0.705320 of unit cell:	Completed after 22 iterations at t[s]:    115.13
	FillingsUpdate:  mu: -0.244750400  nElectrons: 163.736195
	SubspaceRotationAdjust: set factor to 0.504
ElecMinimize: Iter:   1  G: -335.514953495312227  |grad|_K:  7.489e-05  alpha:  1.630e-02  linmin: -4.699e-02  t[s]:    122.17
	Linear fluid (dielectric constant: 78.4, screening length: 5.74355 Bohr) occupying 0.705389 of unit cell:	Completed after 14 iterations at t[s]:    126.27
	Linear fluid (dielectric constant: 78.4, screening length: 5.74355 Bohr) occupying 0.705427 of unit cell:	Completed after 14 iterations at t[s]:    130.61
	FillingsUpdate:  mu: -0.244750400  nElectrons: 163.436355
	SubspaceRotationAdjust: set factor to 0.29
ElecMinimize: Iter:   2  G: -335.522237458697987  |grad|_K:  3.555e-05  alpha:  2.528e-02  linmin: -1.327e-04  t[s]:    134.06
	Linear fluid (dielectric constant: 78.4, screening length: 5.74355 Bohr) occupying 0.705523 of unit cell:	Completed after 12 iterations at t[s]:    138.12
ElecMinimize: 	Predicted alpha/alphaT>3.000000, increasing alphaT to 7.585239e-02.
	Linear fluid (dielectric constant: 78.4, screening length: 5.74355 Bohr) occupying 0.705715 of unit cell:	Completed after 13 iterations at t[s]:    142.56
ElecMinimize: 	Predicted alpha/alphaT>3.000000, increasing alphaT to 2.275572e-01.
	Linear fluid (dielectric constant: 78.4, screening length: 5.74355 Bohr) occupying 0.706281 of unit cell:	Completed after 15 iterations at t[s]:    147.07
	Linear fluid (dielectric constant: 78.4, screening length: 5.74355 Bohr) occupying 0.706455 of unit cell:	Completed after 12 iterations at t[s]:    151.51
	FillingsUpdate:  mu: -0.244750400  nElectrons: 162.856261
	SubspaceRotationAdjust: set factor to 0.157
ElecMinimize: Iter:   3  G: -335.534457543839778  |grad|_K:  6.055e-05  alpha:  2.748e-01  linmin: -3.029e-04  t[s]:    155.13
	Linear fluid (dielectric constant: 78.4, screening length: 5.74355 Bohr) occupying 0.709840 of unit cell:	Completed after 15 iterations at t[s]:    159.22
	Linear fluid (dielectric constant: 78.4, screening length: 5.74355 Bohr) occupying 0.708410 of unit cell:	Completed after 15 iterations at t[s]:    163.49
	FillingsUpdate:  mu: -0.244750400  nElectrons: 162.369708
	SubspaceRotationAdjust: set factor to 0.111
	SubspaceRotationAdjust: resetting CG because factor has changed by 0.110548
	Linear fluid (dielectric constant: 78.4, screening length: 5.74355 Bohr) occupying 0.708410 of unit cell:	Completed after 0 iterations at t[s]:    169.22
ElecMinimize: 	State modified externally: resetting search direction.
ElecMinimize: Iter:   4  G: -335.556590757103322  |grad|_K:  2.424e-05  alpha:  1.558e-01
	Linear fluid (dielectric constant: 78.4, screening length: 5.74355 Bohr) occupying 0.708642 of unit cell:	Completed after 14 iterations at t[s]:    176.89
	Linear fluid (dielectric constant: 78.4, screening length: 5.74355 Bohr) occupying 0.708959 of unit cell:	Completed after 13 iterations at t[s]:    181.06
	FillingsUpdate:  mu: -0.244750400  nElectrons: 162.607456
	SubspaceRotationAdjust: set factor to 0.0417
ElecMinimize: Iter:   5  G: -335.563996101243447  |grad|_K:  1.272e-05  alpha:  3.690e-01  linmin:  1.267e-03  t[s]:    184.98
	Linear fluid (dielectric constant: 78.4, screening length: 5.74355 Bohr) occupying 0.709480 of unit cell:	Completed after 14 iterations at t[s]:    189.17
	Linear fluid (dielectric constant: 78.4, screening length: 5.74355 Bohr) occupying 0.709979 of unit cell:	Completed after 14 iterations at t[s]:    193.77
	FillingsUpdate:  mu: -0.244750400  nElectrons: 162.553227
	SubspaceRotationAdjust: set factor to 0.0529
ElecMinimize: Iter:   6  G: -335.567965692557948  |grad|_K:  5.808e-06  alpha:  7.240e-01  linmin: -1.689e-04  t[s]:    197.10
	Linear fluid (dielectric constant: 78.4, screening length: 5.74355 Bohr) occupying 0.710454 of unit cell:	Completed after 12 iterations at t[s]:    201.01
	Linear fluid (dielectric constant: 78.4, screening length: 5.74355 Bohr) occupying 0.710460 of unit cell:	Completed after 0 iterations at t[s]:    204.20
	FillingsUpdate:  mu: -0.244750400  nElectrons: 162.539773
	SubspaceRotationAdjust: set factor to 0.0653
ElecMinimize: Iter:   7  G: -335.568827430721626  |grad|_K:  3.711e-06  alpha:  7.337e-01  linmin: -3.950e-05  t[s]:    207.75
	Linear fluid (dielectric constant: 78.4, screening length: 5.74355 Bohr) occupying 0.710780 of unit cell:	Completed after 9 iterations at t[s]:    211.74
	Linear fluid (dielectric constant: 78.4, screening length: 5.74355 Bohr) occupying 0.710994 of unit cell:	Completed after 8 iterations at t[s]:    215.67
	FillingsUpdate:  mu: -0.244750400  nElectrons: 162.518722
	SubspaceRotationAdjust: set factor to 0.0844
ElecMinimize: Iter:   8  G: -335.569418870947743  |grad|_K:  3.527e-06  alpha:  1.237e+00  linmin: -2.362e-05  t[s]:    219.38
	Linear fluid (dielectric constant: 78.4, screening length: 5.74355 Bohr) occupying 0.711453 of unit cell:	Completed after 12 iterations at t[s]:    223.62
	Linear fluid (dielectric constant: 78.4, screening length: 5.74355 Bohr) occupying 0.711390 of unit cell:	Completed after 6 iterations at t[s]:    227.72
	FillingsUpdate:  mu: -0.244750400  nElectrons: 162.477511
	SubspaceRotationAdjust: set factor to 0.103
ElecMinimize: Iter:   9  G: -335.569875795934990  |grad|_K:  3.625e-06  alpha:  1.059e+00  linmin: -9.378e-06  t[s]:    231.25
	Linear fluid (dielectric constant: 78.4, screening length: 5.74355 Bohr) occupying 0.711742 of unit cell:	Completed after 11 iterations at t[s]:    235.02
	Linear fluid (dielectric constant: 78.4, screening length: 5.74355 Bohr) occupying 0.711954 of unit cell:	Completed after 11 iterations at t[s]:    239.08
	FillingsUpdate:  mu: -0.244750400  nElectrons: 162.427394
	SubspaceRotationAdjust: set factor to 0.115
ElecMinimize: Iter:  10  G: -335.570700227681982  |grad|_K:  4.009e-06  alpha:  1.793e+00  linmin: -7.285e-05  t[s]:    242.57
	Linear fluid (dielectric constant: 78.4, screening length: 5.74355 Bohr) occupying 0.712477 of unit cell:	Completed after 12 iterations at t[s]:    246.58
	Linear fluid (dielectric constant: 78.4, screening length: 5.74355 Bohr) occupying 0.712195 of unit cell:	Completed after 12 iterations at t[s]:    250.81
	FillingsUpdate:  mu: -0.244750400  nElectrons: 162.393129
	SubspaceRotationAdjust: set factor to 0.123
ElecMinimize: Iter:  11  G: -335.571111306281523  |grad|_K:  3.253e-06  alpha:  7.273e-01  linmin:  8.589e-06  t[s]:    254.58
	Linear fluid (dielectric constant: 78.4, screening length: 5.74355 Bohr) occupying 0.712364 of unit cell:	Completed after 11 iterations at t[s]:    258.62
	Linear fluid (dielectric constant: 78.4, screening length: 5.74355 Bohr) occupying 0.712405 of unit cell:	Completed after 3 iterations at t[s]:    262.25
	FillingsUpdate:  mu: -0.244750400  nElectrons: 162.375715
	SubspaceRotationAdjust: set factor to 0.129
ElecMinimize: Iter:  12  G: -335.571447068736632  |grad|_K:  1.939e-06  alpha:  9.174e-01  linmin: -1.847e-05  t[s]:    265.73
	Linear fluid (dielectric constant: 78.4, screening length: 5.74355 Bohr) occupying 0.712482 of unit cell:	Completed after 2 iterations at t[s]:    268.92
	Linear fluid (dielectric constant: 78.4, screening length: 5.74355 Bohr) occupying 0.712467 of unit cell:	Completed after 2 iterations at t[s]:    272.35
	FillingsUpdate:  mu: -0.244750400  nElectrons: 162.368309
	SubspaceRotationAdjust: set factor to 0.132
ElecMinimize: Iter:  13  G: -335.571543421175363  |grad|_K:  1.208e-06  alpha:  7.382e-01  linmin:  2.690e-06  t[s]:    275.88
	Linear fluid (dielectric constant: 78.4, screening length: 5.74355 Bohr) occupying 0.712492 of unit cell:	Completed after 3 iterations at t[s]:    278.94
	Linear fluid (dielectric constant: 78.4, screening length: 5.74355 Bohr) occupying 0.712492 of unit cell:	Completed after 0 iterations at t[s]:    282.09
	FillingsUpdate:  mu: -0.244750400  nElectrons: 162.365000
	SubspaceRotationAdjust: set factor to 0.141
ElecMinimize: Iter:  14  G: -335.571580365239015  |grad|_K:  6.899e-07  alpha:  7.305e-01  linmin: -1.601e-06  t[s]:    285.58
	Linear fluid (dielectric constant: 78.4, screening length: 5.74355 Bohr) occupying 0.712502 of unit cell:	Completed after 4 iterations at t[s]:    289.32
	Linear fluid (dielectric constant: 78.4, screening length: 5.74355 Bohr) occupying 0.712501 of unit cell:	Completed after 0 iterations at t[s]:    292.52
	FillingsUpdate:  mu: -0.244750400  nElectrons: 162.365806
	SubspaceRotationAdjust: set factor to 0.155
ElecMinimize: Iter:  15  G: -335.571591333535650  |grad|_K:  4.431e-07  alpha:  6.648e-01  linmin:  4.480e-05  t[s]:    296.05
	Linear fluid (dielectric constant: 78.4, screening length: 5.74355 Bohr) occupying 0.712506 of unit cell:	Completed after 2 iterations at t[s]:    299.24
	Linear fluid (dielectric constant: 78.4, screening length: 5.74355 Bohr) occupying 0.712507 of unit cell:	Completed after 0 iterations at t[s]:    302.53
	FillingsUpdate:  mu: -0.244750400  nElectrons: 162.364514
	SubspaceRotationAdjust: set factor to 0.198
ElecMinimize: Iter:  16  G: -335.571596355624820  |grad|_K:  2.816e-07  alpha:  7.430e-01  linmin: -1.583e-05  t[s]:    306.17
	Linear fluid (dielectric constant: 78.4, screening length: 5.74355 Bohr) occupying 0.712508 of unit cell:	Completed after 3 iterations at t[s]:    309.70
	Linear fluid (dielectric constant: 78.4, screening length: 5.74355 Bohr) occupying 0.712508 of unit cell:	Completed after 0 iterations at t[s]:    312.96
	FillingsUpdate:  mu: -0.244750400  nElectrons: 162.363117
	SubspaceRotationAdjust: set factor to 0.244
ElecMinimize: Iter:  17  G: -335.571598336625073  |grad|_K:  2.167e-07  alpha:  7.194e-01  linmin: -3.176e-05  t[s]:    316.62
	Linear fluid (dielectric constant: 78.4, screening length: 5.74355 Bohr) occupying 0.712507 of unit cell:	Completed after 3 iterations at t[s]:    320.24
	Linear fluid (dielectric constant: 78.4, screening length: 5.74355 Bohr) occupying 0.712507 of unit cell:	Completed after 0 iterations at t[s]:    323.61
	FillingsUpdate:  mu: -0.244750400  nElectrons: 162.364550
	SubspaceRotationAdjust: set factor to 0.242
ElecMinimize: Iter:  18  G: -335.571599584076694  |grad|_K:  1.769e-07  alpha:  7.572e-01  linmin: -4.835e-06  t[s]:    327.27
	Linear fluid (dielectric constant: 78.4, screening length: 5.74355 Bohr) occupying 0.712503 of unit cell:	Completed after 6 iterations at t[s]:    330.62
	Linear fluid (dielectric constant: 78.4, screening length: 5.74355 Bohr) occupying 0.712504 of unit cell:	Completed after 3 iterations at t[s]:    334.18
	FillingsUpdate:  mu: -0.244750400  nElectrons: 162.362816
	SubspaceRotationAdjust: set factor to 0.179
ElecMinimize: Iter:  19  G: -335.571600190355298  |grad|_K:  1.722e-07  alpha:  5.235e-01  linmin:  1.226e-04  t[s]:    337.91
	Linear fluid (dielectric constant: 78.4, screening length: 5.74355 Bohr) occupying 0.712501 of unit cell:	Completed after 6 iterations at t[s]:    341.38
	Linear fluid (dielectric constant: 78.4, screening length: 5.74355 Bohr) occupying 0.712502 of unit cell:	Completed after 3 iterations at t[s]:    345.07
	FillingsUpdate:  mu: -0.244750400  nElectrons: 162.363945
	SubspaceRotationAdjust: set factor to 0.103
ElecMinimize: Iter:  20  G: -335.571600458642365  |grad|_K:  1.282e-07  alpha:  3.060e-01  linmin:  6.174e-05  t[s]:    348.74
	Linear fluid (dielectric constant: 78.4, screening length: 5.74355 Bohr) occupying 0.712501 of unit cell:	Completed after 0 iterations at t[s]:    351.76
	Linear fluid (dielectric constant: 78.4, screening length: 5.74355 Bohr) occupying 0.712498 of unit cell:	Completed after 5 iterations at t[s]:    355.59
	FillingsUpdate:  mu: -0.244750400  nElectrons: 162.363025
	SubspaceRotationAdjust: set factor to 0.0639
ElecMinimize: Iter:  21  G: -335.571600608181313  |grad|_K:  1.191e-07  alpha:  7.108e-01  linmin:  3.581e-04  t[s]:    359.48
	Linear fluid (dielectric constant: 78.4, screening length: 5.74355 Bohr) occupying 0.712494 of unit cell:	Completed after 3 iterations at t[s]:    362.91
	Linear fluid (dielectric constant: 78.4, screening length: 5.74355 Bohr) occupying 0.712496 of unit cell:	Completed after 0 iterations at t[s]:    366.03
	FillingsUpdate:  mu: -0.244750400  nElectrons: 162.363518
	SubspaceRotationAdjust: set factor to 0.0901
ElecMinimize: Iter:  22  G: -335.571600698055647  |grad|_K:  7.316e-08  alpha:  3.747e-01  linmin:  4.171e-05  t[s]:    369.59
	Linear fluid (dielectric constant: 78.4, screening length: 5.74355 Bohr) occupying 0.712495 of unit cell:	Completed after 0 iterations at t[s]:    372.62
	Linear fluid (dielectric constant: 78.4, screening length: 5.74355 Bohr) occupying 0.712495 of unit cell:	Completed after 0 iterations at t[s]:    375.92
	FillingsUpdate:  mu: -0.244750400  nElectrons: 162.364050
	SubspaceRotationAdjust: set factor to 0.112
ElecMinimize: Iter:  23  G: -335.571600789298259  |grad|_K:  5.533e-08  alpha:  5.146e-01  linmin: -2.023e-07  t[s]:    379.55
	Linear fluid (dielectric constant: 78.4, screening length: 5.74355 Bohr) occupying 0.712494 of unit cell:	Completed after 3 iterations at t[s]:    382.89
	Linear fluid (dielectric constant: 78.4, screening length: 5.74355 Bohr) occupying 0.712494 of unit cell:	Completed after 0 iterations at t[s]:    386.21
	FillingsUpdate:  mu: -0.244750400  nElectrons: 162.364448
	SubspaceRotationAdjust: set factor to 0.108
ElecMinimize: Iter:  24  G: -335.571600812579220  |grad|_K:  5.584e-08  alpha:  3.033e-01  linmin:  2.290e-06  t[s]:    389.84
	Linear fluid (dielectric constant: 78.4, screening length: 5.74355 Bohr) occupying 0.712493 of unit cell:	Completed after 0 iterations at t[s]:    393.19
	Linear fluid (dielectric constant: 78.4, screening length: 5.74355 Bohr) occupying 0.712493 of unit cell:	Completed after 0 iterations at t[s]:    396.67
	FillingsUpdate:  mu: -0.244750400  nElectrons: 162.364640
	SubspaceRotationAdjust: set factor to 0.119
ElecMinimize: Iter:  25  G: -335.571600857250189  |grad|_K:  5.724e-08  alpha:  4.143e-01  linmin: -1.187e-07  t[s]:    400.39
	Linear fluid (dielectric constant: 78.4, screening length: 5.74355 Bohr) occupying 0.712492 of unit cell:	Completed after 3 iterations at t[s]:    403.85
	Linear fluid (dielectric constant: 78.4, screening length: 5.74355 Bohr) occupying 0.712492 of unit cell:	Completed after 0 iterations at t[s]:    406.90
	FillingsUpdate:  mu: -0.244750400  nElectrons: 162.364553
	SubspaceRotationAdjust: set factor to 0.122
ElecMinimize: Iter:  26  G: -335.571600874180604  |grad|_K:  4.847e-08  alpha:  2.317e-01  linmin:  1.000e-05  t[s]:    410.50
	Linear fluid (dielectric constant: 78.4, screening length: 5.74355 Bohr) occupying 0.712492 of unit cell:	Completed after 0 iterations at t[s]:    413.52
	Linear fluid (dielectric constant: 78.4, screening length: 5.74355 Bohr) occupying 0.712491 of unit cell:	Completed after 0 iterations at t[s]:    416.79
	FillingsUpdate:  mu: -0.244750400  nElectrons: 162.364626
	SubspaceRotationAdjust: set factor to 0.162
ElecMinimize: Iter:  27  G: -335.571600906375238  |grad|_K:  3.716e-08  alpha:  4.010e-01  linmin:  1.393e-07  t[s]:    420.41
	Linear fluid (dielectric constant: 78.4, screening length: 5.74355 Bohr) occupying 0.712490 of unit cell:	Completed after 0 iterations at t[s]:    423.54
	Linear fluid (dielectric constant: 78.4, screening length: 5.74355 Bohr) occupying 0.712490 of unit cell:	Completed after 0 iterations at t[s]:    426.79
	FillingsUpdate:  mu: -0.244750400  nElectrons: 162.364967
	SubspaceRotationAdjust: set factor to 0.202
ElecMinimize: Iter:  28  G: -335.571600935401477  |grad|_K:  3.822e-08  alpha:  6.066e-01  linmin: -2.356e-07  t[s]:    430.32
	Linear fluid (dielectric constant: 78.4, screening length: 5.74355 Bohr) occupying 0.712488 of unit cell:	Completed after 1 iterations at t[s]:    433.82
	Linear fluid (dielectric constant: 78.4, screening length: 5.74355 Bohr) occupying 0.712489 of unit cell:	Completed after 0 iterations at t[s]:    437.32
	FillingsUpdate:  mu: -0.244750400  nElectrons: 162.365344
	SubspaceRotationAdjust: set factor to 0.237
ElecMinimize: Iter:  29  G: -335.571600946524768  |grad|_K:  2.949e-08  alpha:  3.283e-01  linmin: -3.318e-05  t[s]:    441.27
	Linear fluid (dielectric constant: 78.4, screening length: 5.74355 Bohr) occupying 0.712489 of unit cell:	Completed after 0 iterations at t[s]:    444.08
	Linear fluid (dielectric constant: 78.4, screening length: 5.74355 Bohr) occupying 0.712488 of unit cell:	Completed after 0 iterations at t[s]:    447.22
	FillingsUpdate:  mu: -0.244750400  nElectrons: 162.365693
	SubspaceRotationAdjust: set factor to 0.267
ElecMinimize: Iter:  30  G: -335.571600956801774  |grad|_K:  2.712e-08  alpha:  4.758e-01  linmin:  1.051e-05  t[s]:    450.44
	Linear fluid (dielectric constant: 78.4, screening length: 5.74355 Bohr) occupying 0.712488 of unit cell:	Completed after 0 iterations at t[s]:    453.09
	Linear fluid (dielectric constant: 78.4, screening length: 5.74355 Bohr) occupying 0.712488 of unit cell:	Completed after 0 iterations at t[s]:    455.85
	FillingsUpdate:  mu: -0.244750400  nElectrons: 162.365970
	SubspaceRotationAdjust: set factor to 0.3
ElecMinimize: Iter:  31  G: -335.571600967973836  |grad|_K:  2.191e-08  alpha:  4.504e-01  linmin:  3.174e-07  t[s]:    459.04
	Linear fluid (dielectric constant: 78.4, screening length: 5.74355 Bohr) occupying 0.712488 of unit cell:	Completed after 1 iterations at t[s]:    461.74
	Linear fluid (dielectric constant: 78.4, screening length: 5.74355 Bohr) occupying 0.712488 of unit cell:	Completed after 0 iterations at t[s]:    464.48
ElecMinimize: 	Step increased G by 3.308065e-08, reducing alpha to 5.386484e-03.
	Linear fluid (dielectric constant: 78.4, screening length: 5.74355 Bohr) occupying 0.712488 of unit cell:	Completed after 0 iterations at t[s]:    470.07
ElecMinimize: 	Step increased G by 3.213444e-08, reducing alpha to 5.386484e-04.
	Linear fluid (dielectric constant: 78.4, screening length: 5.74355 Bohr) occupying 0.712488 of unit cell:	Completed after 0 iterations at t[s]:    475.57
ElecMinimize: 	Step increased G by 3.204957e-08, reducing alpha to 5.386484e-05.
ElecMinimize: 	Step failed to reduce G after 3 attempts. Quitting step.
ElecMinimize: 	Undoing step.
	Linear fluid (dielectric constant: 78.4, screening length: 5.74355 Bohr) occupying 0.712488 of unit cell:	Completed after 0 iterations at t[s]:    481.00
ElecMinimize: 	Step failed: resetting search direction.
	FillingsUpdate:  mu: -0.244750400  nElectrons: 162.365970
	SubspaceRotationAdjust: set factor to 0.188
ElecMinimize: Iter:  32  G: -335.571600935926767  |grad|_K:  6.638e-08  alpha:  5.386e-05
	Linear fluid (dielectric constant: 78.4, screening length: 5.74355 Bohr) occupying 0.712488 of unit cell:	Completed after 3 iterations at t[s]:    486.88
	Linear fluid (dielectric constant: 78.4, screening length: 5.74355 Bohr) occupying 0.712488 of unit cell:	Completed after 1 iterations at t[s]:    489.66
	FillingsUpdate:  mu: -0.244750400  nElectrons: 162.365360
	SubspaceRotationAdjust: set factor to 0.0888
ElecMinimize: Iter:  33  G: -335.571600969844440  |grad|_K:  4.920e-08  alpha:  1.916e-01  linmin:  3.982e-03  t[s]:    492.96
	Linear fluid (dielectric constant: 78.4, screening length: 5.74355 Bohr) occupying 0.712488 of unit cell:	Completed after 0 iterations at t[s]:    495.53
ElecMinimize: 	Predicted alpha/alphaT>3.000000, increasing alphaT to 5.749041e-01.
	Linear fluid (dielectric constant: 78.4, screening length: 5.74355 Bohr) occupying 0.712488 of unit cell:	Completed after 0 iterations at t[s]:    498.30
	Linear fluid (dielectric constant: 78.4, screening length: 5.74355 Bohr) occupying 0.712488 of unit cell:	Completed after 0 iterations at t[s]:    501.05
	FillingsUpdate:  mu: -0.244750400  nElectrons: 162.365361
	SubspaceRotationAdjust: set factor to 0.0617
ElecMinimize: Iter:  34  G: -335.571600987002626  |grad|_K:  3.384e-08  alpha:  5.115e-01  linmin: -2.726e-04  t[s]:    504.31
	Linear fluid (dielectric constant: 78.4, screening length: 5.74355 Bohr) occupying 0.712489 of unit cell:	Completed after 3 iterations at t[s]:    507.23
	Linear fluid (dielectric constant: 78.4, screening length: 5.74355 Bohr) occupying 0.712488 of unit cell:	Completed after 0 iterations at t[s]:    510.05
ElecMinimize: 	Step increased G by 8.607458e-09, reducing alpha to 1.294034e-02.
	Linear fluid (dielectric constant: 78.4, screening length: 5.74355 Bohr) occupying 0.712488 of unit cell:	Completed after 0 iterations at t[s]:    515.56
	FillingsUpdate:  mu: -0.244750400  nElectrons: 162.365371
	SubspaceRotationAdjust: set factor to 0.037
ElecMinimize: Iter:  35  G: -335.571600988286036  |grad|_K:  4.150e-08  alpha:  1.294e-02  linmin:  1.195e-03  t[s]:    518.70
ElecMinimize: 	Bad step direction: g.d > 0.
ElecMinimize: 	Undoing step.
	Linear fluid (dielectric constant: 78.4, screening length: 5.74355 Bohr) occupying 0.712488 of unit cell:	Completed after 0 iterations at t[s]:    521.24
ElecMinimize: 	Step failed: resetting search direction.
	FillingsUpdate:  mu: -0.244750400  nElectrons: 162.365371
	SubspaceRotationAdjust: set factor to 0.0455
ElecMinimize: Iter:  36  G: -335.571600988288708  |grad|_K:  3.680e-08  alpha:  0.000e+00
ElecMinimize: Converged (|Delta G|<1.000000e-08 for 2 iters).
Setting wave functions to eigenvectors of Hamiltonian

# Ionic positions in lattice coordinates:
ion La   0.166666666666667   0.333333333333332   0.571544298320630 0
ion La   0.666666666666667   0.333333333333332   0.571544298320630 0
ion La   0.166666666666667   0.833333333333332   0.571544298320630 0
ion La   0.666666666666667   0.833333333333332   0.571544298320630 0
ion La   0.333333333333333   0.166666666666665   0.428455701679365 0
ion La   0.833333333333333   0.166666666666665   0.428455701679365 0
ion La   0.333333333333333   0.666666666666665   0.428455701679365 0
ion La   0.833333333333333   0.666666666666665   0.428455701679365 0
ion P   1.000000000000000   0.999999999999999   0.499999999999997 0
ion P   0.500000000000000   0.999999999999999   0.499999999999997 0
ion P   1.000000000000000   0.499999999999999   0.499999999999997 0
ion P   0.500000000000000   0.499999999999999   0.499999999999997 0
ion I   0.333333333333333   0.166666666666665   0.666581790462644 0
ion I   0.833333333333333   0.166666666666665   0.666581790462644 0
ion I   0.333333333333333   0.666666666666665   0.666581790462644 0
ion I   0.833333333333333   0.666666666666665   0.666581790462644 0
ion I   0.166666666666667   0.333333333333332   0.333418209537351 0
ion I   0.666666666666667   0.333333333333332   0.333418209537351 0
ion I   0.166666666666667   0.833333333333332   0.333418209537351 0
ion I   0.666666666666667   0.833333333333332   0.333418209537351 0


# Forces in Lattice coordinates:
force La  -0.000000000000000   0.000000000000000   0.716345253337846 0
force La   0.000000000000000  -0.000000000000000   0.716345253337846 0
force La  -0.000000000000000  -0.000000000000000   0.716345253337846 0
force La   0.000000000000000   0.000000000000000   0.716345253337846 0
force La   0.000000000000000   0.000000000000000  -0.716345253338300 0
force La  -0.000000000000000   0.000000000000000  -0.716345253338300 0
force La   0.000000000000000  -0.000000000000000  -0.716345253338186 0
force La   0.000000000000000   0.000000000000000  -0.716345253338186 0
force P   0.000000000000000  -0.000000000000000  -0.000000000000000 0
force P   0.000000000000000   0.000000000000000  -0.000000000000000 0
force P   0.000000000000000   0.000000000000000   0.000000000000000 0
force P   0.000000000000000  -0.000000000000000  -0.000000000000000 0
force I   0.000000000000000  -0.000000000000000  -0.280291804673243 0
force I  -0.000000000000000   0.000000000000000  -0.280291804673242 0
force I   0.000000000000000  -0.000000000000000  -0.280291804673242 0
force I   0.000000000000000  -0.000000000000000  -0.280291804673356 0
force I   0.000000000000000   0.000000000000000   0.280291804673241 0
force I   0.000000000000000   0.000000000000000   0.280291804673468 0
force I  -0.000000000000000   0.000000000000000   0.280291804673127 0
force I  -0.000000000000000   0.000000000000000   0.280291804673582 0

# Energy components:
   A_diel =       -0.0439686783450803
   Eewald =     3082.3006558221304658
       EH =     3348.6530573964114410
     Eloc =    -6861.6816966927744943
      Enl =       20.3381826740032920
      Exc =     -402.3498373044903929
 Exc_core =      329.4700258799055064
       KE =      108.0066221362283727
  MuShift =        0.0136772247022298
-------------------------------------
     Etot =     -375.2932815422287831
       TS =        0.0173088971103843
-------------------------------------
        F =     -375.3105904393391938
      muN =      -39.7389894510505073
-------------------------------------
        G =     -335.5716009882887079

IonicMinimize: Iter:   0  G: -335.571600988288708  |grad|_K:  0.000e+00  t[s]:    526.70
IonicMinimize: Converged (|grad|_K<1.000000e-04).

#--- Lowdin population analysis ---
# oxidation-state La -0.204 -0.204 -0.204 -0.204 -0.204 -0.204 -0.204 -0.204
# oxidation-state P +0.066 +0.066 +0.066 +0.066
# oxidation-state I +0.422 +0.422 +0.422 +0.422 +0.422 +0.422 +0.422 +0.422


Dumping 'NbTe2.fillings' ... done
Dumping 'NbTe2.wfns' ... done
Dumping 'NbTe2.fluidState' ... done
Dumping 'NbTe2.eigenvals' ... done
End date and time: Sun Jul 12 20:04:18 2020  (Duration: 0-0:08:48.11)
Done!
