
*************** JDFTx 1.5.0  ***************

Start date and time: Sun Jul 12 14:44:55 2020
Executable jdftx_gpu with command-line: -i Neutral.in -o Neutral.out
Running on hosts (process indices):  amax (0-3)
Divided in process groups (process indices):  0 (0)  1 (1)  2 (2)  3 (3)
gpuInit: Found compatible cuda device 0 'Tesla K80'
gpuInit: Found compatible cuda device 1 'Tesla K80'
gpuInit: Found compatible cuda device 2 'Tesla K80'
gpuInit: Found compatible cuda device 3 'Tesla K80'
gpuInit: Selected device 0
Resource initialization completed at t[s]:     21.14
Run totals: 4 processes, 24 threads, 4 GPUs


Input parsed successfully to the following command list (including defaults):

basis kpoint-dependent
cache-projectors no
coords-type Lattice
core-overlap-check none
coulomb-interaction Slab 001
coulomb-truncation-embed 0 0 0.5
davidson-band-ratio 1.1
dump End State
dump-name NbTe2.$VAR
elec-cutoff 20 100
elec-eigen-algo Davidson
elec-ex-corr gga-PBE
elec-smearing Gauss 0.0073499
electronic-minimize  \
	dirUpdateScheme      FletcherReeves \
	linminMethod         DirUpdateRecommended \
	nIterations          500 \
	history              15 \
	knormThreshold       0 \
	energyDiffThreshold  1e-08 \
	nEnergyDiff          2 \
	alphaTstart          1 \
	alphaTmin            1e-10 \
	updateTestStepSize   yes \
	alphaTreduceFactor   0.1 \
	alphaTincreaseFactor 3 \
	nAlphaAdjustMax      3 \
	wolfeEnergy          0.0001 \
	wolfeGradient        0.9 \
	fdTest               no
exchange-regularization WignerSeitzTruncated
fluid LinearPCM 298.000000 1.013250
fluid-anion F- 1 MeanFieldLJ \
	epsBulk 1 \
	pMol 0 \
	epsInf 1 \
	Pvap 0 \
	sigmaBulk 0 \
	Rvdw 2.24877 \
	Res 0 \
	tauNuc 343133
fluid-cation Na+ 1 MeanFieldLJ \
	epsBulk 1 \
	pMol 0 \
	epsInf 1 \
	Pvap 0 \
	sigmaBulk 0 \
	Rvdw 2.19208 \
	Res 0 \
	tauNuc 343133
fluid-ex-corr lda-TF lda-PZ
fluid-gummel-loop 10 1.000000e-05
fluid-minimize  \
	dirUpdateScheme      PolakRibiere \
	linminMethod         DirUpdateRecommended \
	nIterations          400 \
	history              15 \
	knormThreshold       1e-11 \
	energyDiffThreshold  0 \
	nEnergyDiff          2 \
	alphaTstart          1 \
	alphaTmin            1e-10 \
	updateTestStepSize   yes \
	alphaTreduceFactor   0.1 \
	alphaTincreaseFactor 3 \
	nAlphaAdjustMax      6 \
	wolfeEnergy          0.0001 \
	wolfeGradient        0.9 \
	fdTest               no
fluid-solvent H2O 55.338 ScalarEOS \
	epsBulk 78.4 \
	pMol 0.92466 \
	epsInf 1.77 \
	Pvap 1.06736e-10 \
	sigmaBulk 4.62e-05 \
	Rvdw 2.61727 \
	Res 1.42 \
	tauNuc 343133 \
	poleEl 15 7 1
forces-output-coords Positions
initial-state NbTe2.$VAR
ion La   0.166666769943525   0.333333554048131   0.571544289585891 0
ion La   0.666666769943525   0.333333554048131   0.571544289585891 0
ion La   0.166666769943525   0.833333554048131   0.571544289585891 0
ion La   0.666666769943525   0.833333554048131   0.571544289585891 0
ion La   0.333333148871546   0.166666607125805   0.428455692944627 0
ion La   0.833333148871546   0.166666607125805   0.428455692944627 0
ion La   0.333333148871546   0.666666607125805   0.428455692944627 0
ion La   0.833333148871546   0.666666607125805   0.428455692944627 0
ion P   0.999999976045338   0.999999962257540   0.500000021933694 0
ion P   0.499999976045338   0.999999962257540   0.500000021933694 0
ion P   0.999999976045338   0.499999962257540   0.500000021933694 0
ion P   0.499999976045338   0.499999962257540   0.500000021933694 0
ion I   0.333333532887892   0.166666497821012   0.666581788230533 0
ion I   0.833333532887892   0.166666497821012   0.666581788230533 0
ion I   0.333333532887892   0.666666497821012   0.666581788230533 0
ion I   0.833333532887892   0.666666497821012   0.666581788230533 0
ion I   0.166666572251700   0.333333378747504   0.333418207305240 0
ion I   0.666666572251700   0.333333378747504   0.333418207305240 0
ion I   0.166666572251700   0.833333378747504   0.333418207305240 0
ion I   0.666666572251700   0.833333378747504   0.333418207305240 0
ion-species GBRV/$ID_pbe.uspp
ion-width Ecut
ionic-minimize  \
	dirUpdateScheme      L-BFGS \
	linminMethod         DirUpdateRecommended \
	nIterations          0 \
	history              15 \
	knormThreshold       0.0001 \
	energyDiffThreshold  1e-06 \
	nEnergyDiff          2 \
	alphaTstart          1 \
	alphaTmin            1e-10 \
	updateTestStepSize   yes \
	alphaTreduceFactor   0.1 \
	alphaTincreaseFactor 3 \
	nAlphaAdjustMax      3 \
	wolfeEnergy          0.0001 \
	wolfeGradient        0.9 \
	fdTest               no
kpoint   0.000000000000   0.000000000000   0.000000000000  1.00000000000000
kpoint-folding 4 4 1 
latt-move-scale 1 1 1
latt-scale 1 1 1 
lattice Triclinic 16.2489 16.2489 42.5261 90 90 120
lattice-minimize  \
	dirUpdateScheme      L-BFGS \
	linminMethod         DirUpdateRecommended \
	nIterations          0 \
	history              15 \
	knormThreshold       0 \
	energyDiffThreshold  1e-06 \
	nEnergyDiff          2 \
	alphaTstart          1 \
	alphaTmin            1e-10 \
	updateTestStepSize   yes \
	alphaTreduceFactor   0.1 \
	alphaTincreaseFactor 3 \
	nAlphaAdjustMax      3 \
	wolfeEnergy          0.0001 \
	wolfeGradient        0.9 \
	fdTest               no
lcao-params -1 1e-06 0.0073499
pcm-variant CANDLE
spintype no-spin
subspace-rotation-factor 1 yes
symmetries automatic
symmetry-threshold 0.0001



---------- Setting up symmetries ----------

Found 24 point-group symmetries of the bravais lattice
Found 48 space-group symmetries with basis
Applied RMS atom displacement 3.1337e-06 bohrs to make symmetries exact.

---------- Initializing the Grid ----------
R = 
[    16.2489   -8.12446          0  ]
[          0     14.072          0  ]
[          0          0    42.5261  ]
unit cell volume = 9723.77
G =
[   0.386684   0.223252         -0  ]
[          0   0.446503          0  ]
[          0         -0   0.147749  ]
Minimum fftbox size, Smin = [  76  76  192  ]
Chosen fftbox size, S = [  80  80  192  ]

---------- Initializing tighter grid for wavefunction operations ----------
R = 
[    16.2489   -8.12446          0  ]
[          0     14.072          0  ]
[          0          0    42.5261  ]
unit cell volume = 9723.77
G =
[   0.386684   0.223252         -0  ]
[          0   0.446503          0  ]
[          0         -0   0.147749  ]
Minimum fftbox size, Smin = [  68  68  172  ]
Chosen fftbox size, S = [  70  70  180  ]

---------- Exchange Correlation functional ----------
Initalized PBE GGA exchange.
Initalized PBE GGA correlation.

---------- Setting up pseudopotentials ----------
Width of ionic core gaussian charges (only for fluid interactions / plotting) set to 0.397384

Reading pseudopotential file '/home/guoxy/vasp/jdftx-1.5.0/build/pseudopotentials/GBRV/la_pbe.uspp':
  Title: La.  Created by USPP 7.3.6 on 14-9-2013
  Reference state energy: -51.063618.  11 valence electrons in orbitals:
    |500>  occupation: 2  eigenvalue: -1.451142
    |510>  occupation: 6  eigenvalue: -0.843691
    |520>  occupation: 1  eigenvalue: -0.130012
    |600>  occupation: 1.5  eigenvalue: -0.146765
    |610>  occupation: 0.5  eigenvalue: -0.059369
    |430>  occupation: 0  eigenvalue: -0.180348
  lMax: 3  lLocal: -1  QijEcut: 5
  8 projectors sampled on a log grid with 665 points:
    l: 0  eig: -1.451139  rCut: 1.7
    l: 0  eig: -0.146766  rCut: 1.7
    l: 1  eig: -0.843687  rCut: 1.9
    l: 1  eig: -0.059370  rCut: 1.9
    l: 2  eig: -0.130014  rCut: 2
    l: 2  eig: 1.000000  rCut: 2
    l: 3  eig: -0.180352  rCut: 2
    l: 3  eig: -1.000000  rCut: 2
  Partial core density with radius 1.3
  Transforming core density to a uniform radial grid of dG=0.02 with 1707 points.
  Transforming local potential to a uniform radial grid of dG=0.02 with 1707 points.
  Transforming nonlocal projectors to a uniform radial grid of dG=0.02 with 432 points.
  Transforming density augmentations to a uniform radial grid of dG=0.02 with 1707 points.
  Transforming atomic orbitals to a uniform radial grid of dG=0.02 with 432 points.
  Core radius for overlap checks: 2.00 bohrs.

Reading pseudopotential file '/home/guoxy/vasp/jdftx-1.5.0/build/pseudopotentials/GBRV/p_pbe.uspp':
  Title: P.  Created by USPP 7.3.6 on 11-6-15
  Reference state energy: -7.561951.  5 valence electrons in orbitals:
    |300>  occupation: 2  eigenvalue: -0.513368
    |310>  occupation: 3  eigenvalue: -0.202371
  lMax: 2  lLocal: 3  QijEcut: 5
  6 projectors sampled on a log grid with 631 points:
    l: 0  eig: -0.513363  rCut: 1.5
    l: 0  eig: 0.500000  rCut: 1.5
    l: 1  eig: -0.202372  rCut: 1.5
    l: 1  eig: 1.000000  rCut: 1.5
    l: 2  eig: -0.500000  rCut: 1.5
    l: 2  eig: 1.500000  rCut: 1.5
  Partial core density with radius 1.35
  Transforming core density to a uniform radial grid of dG=0.02 with 1707 points.
  Transforming local potential to a uniform radial grid of dG=0.02 with 1707 points.
  Transforming nonlocal projectors to a uniform radial grid of dG=0.02 with 432 points.
  Transforming density augmentations to a uniform radial grid of dG=0.02 with 1707 points.
  Transforming atomic orbitals to a uniform radial grid of dG=0.02 with 432 points.
  Core radius for overlap checks: 1.50 bohrs.

Reading pseudopotential file '/home/guoxy/vasp/jdftx-1.5.0/build/pseudopotentials/GBRV/i_pbe.uspp':
  Title: I.  Created by USPP 7.3.6 on 14-9-2013
  Reference state energy: -32.770235.  7 valence electrons in orbitals:
    |500>  occupation: 2  eigenvalue: -0.639712
    |510>  occupation: 5  eigenvalue: -0.260406
  lMax: 2  lLocal: 3  QijEcut: 5
  6 projectors sampled on a log grid with 725 points:
    l: 0  eig: -0.639710  rCut: 1.9
    l: 0  eig: 0.000000  rCut: 1.9
    l: 1  eig: -0.260404  rCut: 2
    l: 1  eig: 0.000000  rCut: 2
    l: 2  eig: -0.500000  rCut: 2.45
    l: 2  eig: 0.500000  rCut: 2.45
  Partial core density with radius 1.3
  Transforming core density to a uniform radial grid of dG=0.02 with 1707 points.
  Transforming local potential to a uniform radial grid of dG=0.02 with 1707 points.
  Transforming nonlocal projectors to a uniform radial grid of dG=0.02 with 432 points.
  Transforming density augmentations to a uniform radial grid of dG=0.02 with 1707 points.
  Transforming atomic orbitals to a uniform radial grid of dG=0.02 with 432 points.
  Core radius for overlap checks: 2.45 bohrs.

Initialized 3 species with 20 total atoms.

Folded 1 k-points by 4x4x1 to 16 k-points.

---------- Setting up k-points, bands, fillings ----------
Reduced to 4 k-points under symmetry. 
Computing the number of bands and number of electrons
Calculating initial fillings.
nElectrons: 164.000000   nBands: 208   nStates: 4

----- Setting up reduced wavefunction bases (one per k-point) -----
average nbasis = 41542.562 , ideal nbasis = 41540.690

---------- Setting up coulomb interaction ----------
Fluid mode embedding: using embedded box, but periodic Coulomb kernel.
(Fluid response is responsible for (approximate) separation between periodic images.)
Setting up double-sized grid for truncated Coulomb potentials:
R = 
[    16.2489   -8.12446          0  ]
[          0     14.072          0  ]
[          0          0    85.0522  ]
unit cell volume = 19447.5
G =
[   0.386684   0.223252         -0  ]
[          0   0.446503          0  ]
[          0         -0  0.0738745  ]
Chosen fftbox size, S = [  80  80  384  ]
Integer grid location selected as the embedding center:
   Grid: [  0  0  96  ]
   Lattice: [  0  0  0.5  ]
   Cartesian: [  0  0  21.263  ]
Constructing Wigner-Seitz cell: 8 faces (6 quadrilaterals, 2 hexagons)
Range-separation parameter for embedded mesh potentials due to point charges: 0.593728 bohrs.

Initializing van der Waals corrections
	NOTE: vdW corrections apply only for interactions with fluid.
	La:  C6:  815.23 Eh-a0^6  R0: 3.326 a0 (WARNING: beyond Grimme's data set)
	 P:  C6:  135.99 Eh-a0^6  R0: 3.222 a0
	 I:  C6:  546.38 Eh-a0^6  R0: 3.575 a0

---------- Setting up ewald sum ----------
Optimum gaussian width for ewald sums = 6.511684 bohr.
Real space sum over 845 unit cells with max indices [  6  6  2  ]
Reciprocal space sum over 5203 terms with max indices [  5  5  21  ]

---------- Allocating electronic variables ----------
Initializing wave functions:  linear combination of atomic orbitals
La pseudo-atom occupations:   s ( 2 0 )  p ( 6 0 )  d ( 0 )  f ( 3 )
P pseudo-atom occupations:   s ( 2 )  p ( 3 )
I pseudo-atom occupations:   s ( 2 )  p ( 5 )
	FillingsUpdate:  mu: -1.585221821  nElectrons: 164.000000
LCAOMinimize: Iter:   0  F: -354.3138855600886359  |grad|_K:  2.609e-02  alpha:  1.000e+00
	FillingsUpdate:  mu: -0.946056532  nElectrons: 164.000000
LCAOMinimize: Iter:   1  F: -365.4507809337790150  |grad|_K:  1.783e-02  alpha:  1.104e-01  linmin: -1.636e-01  cgtest:  1.000e+00  t[s]:     83.74
LCAOMinimize: Encountered beta<0, resetting CG.
	FillingsUpdate:  mu: -0.294557158  nElectrons: 164.000000
LCAOMinimize: Iter:   2  F: -373.6694197856895698  |grad|_K:  6.469e-03  alpha:  2.527e-01  linmin: -2.152e-01  cgtest:  1.091e+00  t[s]:    120.00
LCAOMinimize: Encountered beta<0, resetting CG.
	FillingsUpdate:  mu: -0.037862319  nElectrons: 164.000000
LCAOMinimize: Iter:   3  F: -375.2507838559387210  |grad|_K:  1.702e-03  alpha:  4.395e-01  linmin:  3.616e-02  cgtest:  3.675e-02  t[s]:    142.94
	FillingsUpdate:  mu: -0.095876174  nElectrons: 164.000000
LCAOMinimize: Iter:   4  F: -375.4222428684557258  |grad|_K:  5.223e-04  alpha:  6.915e-01  linmin: -1.585e-02  cgtest: -3.531e-01  t[s]:    146.37
	FillingsUpdate:  mu: -0.083639944  nElectrons: 164.000000
LCAOMinimize: Iter:   5  F: -375.4269944562017258  |grad|_K:  2.891e-04  alpha:  1.162e-01  linmin: -9.487e-02  cgtest:  9.427e-01  t[s]:    149.74
LCAOMinimize: Encountered beta<0, resetting CG.
	FillingsUpdate:  mu: -0.067405344  nElectrons: 164.000000
LCAOMinimize: Iter:   6  F: -375.4289418988923330  |grad|_K:  8.873e-05  alpha:  2.736e-01  linmin:  4.155e-02  cgtest: -1.604e-01  t[s]:    153.09
	FillingsUpdate:  mu: -0.068113339  nElectrons: 164.000000
LCAOMinimize: Iter:   7  F: -375.4292786672206717  |grad|_K:  4.985e-05  alpha:  5.344e-01  linmin:  7.379e-03  cgtest:  1.882e-01  t[s]:    156.46
	FillingsUpdate:  mu: -0.070011486  nElectrons: 164.000000
LCAOMinimize: Iter:   8  F: -375.4293639699936875  |grad|_K:  1.751e-05  alpha:  3.998e-01  linmin: -5.368e-04  cgtest:  2.711e-02  t[s]:    159.85
	FillingsUpdate:  mu: -0.069265834  nElectrons: 164.000000
LCAOMinimize: Iter:   9  F: -375.4293708857259730  |grad|_K:  3.568e-06  alpha:  2.578e-01  linmin: -2.811e-05  cgtest: -8.848e-03  t[s]:    163.18
	FillingsUpdate:  mu: -0.069210275  nElectrons: 164.000000
LCAOMinimize: Iter:  10  F: -375.4293715580258777  |grad|_K:  1.611e-06  alpha:  6.047e-01  linmin:  4.755e-04  cgtest: -7.911e-04  t[s]:    166.56
	FillingsUpdate:  mu: -0.069294446  nElectrons: 164.000000
LCAOMinimize: Iter:  11  F: -375.4293716386198412  |grad|_K:  6.361e-07  alpha:  3.558e-01  linmin:  3.810e-05  cgtest:  2.563e-03  t[s]:    169.95
LCAOMinimize: Converged (|Delta F|<1.000000e-06 for 2 iters).
----- createFluidSolver() ----- (Fluid-side solver setup)
   Initializing fluid molecule 'H2O'
     Initializing site 'O'
       Electron density: proportional to exp(-r/0.36935)*erfc((r-0.51523)/0.36823) with norm 6.826
       Charge density: gaussian nuclear width 0.478731 with net site charge 0.826
       Polarizability: cuspless exponential with width 0.32 and norm 3.73
       Hard sphere radius: 2.57003 bohrs
       Positions in reference frame:
         [ +0.000000 +0.000000 +0.000000 ]
     Initializing site 'H'
       Electron density: proportional to exp(-r/0.34641)*erfc((r-0)/0.390882) with norm 0.587
       Charge density: gaussian nuclear width 0.377945 with net site charge -0.413
       Polarizability: cuspless exponential with width 0.39 and norm 3.3
       Positions in reference frame:
         [ +0.000000 -1.441945 +1.122523 ]
         [ +0.000000 +1.441945 +1.122523 ]
     Net charge: 0   dipole magnitude: 0.927204
     Initializing spherical shell mfKernel with radius 2.61727 Bohr
     deltaS corrections:
       site 'O': -7.54299
       site 'H': -6.83917
   Initializing fluid molecule 'Na+'
     Initializing site 'Na'
       Electron density: proportional to exp(-r/0.19682)*erfc((r-0.71491)/0.41314) with norm 8.1383
       Charge density: gaussian nuclear width 0.365347 with net site charge -1
       Hard sphere radius: 1.86327 bohrs
       Positions in reference frame:
         [ +0.000000 +0.000000 +0.000000 ]
     Net charge: -1   dipole magnitude: 0
     Initializing gaussian mfKernel with width: 1.55004 Bohr
     deltaS corrections:
       site 'Na': -22.3555
   Initializing fluid molecule 'F-'
     Initializing site 'F'
       Electron density: proportional to exp(-r/0.38886)*erfc((r-0)/0.438782) with norm 8
       Charge density: gaussian nuclear width 0.374796 with net site charge 1
       Hard sphere radius: 2.39995 bohrs
       Positions in reference frame:
         [ +0.000000 +0.000000 +0.000000 ]
     Net charge: 1   dipole magnitude: 0
     Initializing gaussian mfKernel with width: 1.59012 Bohr
     deltaS corrections:
       site 'F': -9.04335

Correction to mu due to finite nuclear width = -0.00836717
   Cavity determined by nc: 0.00142 and sigma: 0.707107
   Nonlocal vdW cavity from gaussian model electron density with norm = 8 and sigma = 0.993594 bohr
   Charge asymmetry in cavity with sensitivity pCavity = 36.5 e-bohr/Eh
   Electrostatic cavity expanded by eta = 1.46 bohrs
   Weighted density cavitation model constrained by Nbulk: 0.0049383 bohr^-3, Pvap: 3.14029 kPa, Rvdw: 2.61727 bohr and sigmaBulk: 4.62e-05 Eh/bohr^2 at T: 298 K.
   Weighted density dispersion model using vdW pair potentials with single solvent site with sqrtC6eff: 0.77 SI.


---- Citations for features of the code used in this run ----

   Software package:
      R. Sundararaman, K. Letchworth-Weaver, K.A. Schwarz, D. Gunceler, Y. Ozhabes and T.A. Arias, 'JDFTx: software for joint density-functional theory', SoftwareX 6, 278 (2017)

   gga-PBE exchange-correlation functional:
      J.P. Perdew, K. Burke and M. Ernzerhof, Phys. Rev. Lett. 77, 3865 (1996)

   Pseudopotentials:
      KF Garrity, JW Bennett, KM Rabe and D Vanderbilt, Comput. Mater. Sci. 81, 446 (2014)

   Truncated Coulomb potentials:
      R. Sundararaman and T.A. Arias, Phys. Rev. B 87, 165122 (2013)

   Van der Waals correction pair-potentials:
      S. Grimme, J. Comput. Chem. 27, 1787 (2006)

   Charge-asymmetric nonlocally-determined local-electric (CANDLE) solvation model:
      R. Sundararaman and W.A. Goddard III, J. Chem. Phys. 142, 064107 (2015)

   Total energy minimization with Auxiliary Hamiltonian:
      C. Freysoldt, S. Boeck, and J. Neugebauer, Phys. Rev. B 79, 241103(R) (2009)

This list may not be complete. Please suggest additional citations or
report any other bugs at https://github.com/shankar1729/jdftx/issues

Initialization completed successfully at t[s]:    171.88

Fluid solver invoked on fresh (partially random / LCAO) wavefunctions
Running a vacuum solve first:

-------- Initial electronic minimization -----------
	FillingsUpdate:  mu: -0.069294446  nElectrons: 164.000000
ElecMinimize: Iter:   0  F: -375.429371638622399  |grad|_K:  7.118e-05  alpha:  1.000e+00
	FillingsUpdate:  mu: -0.027139924  nElectrons: 164.000000
	SubspaceRotationAdjust: set factor to 1
ElecMinimize: Iter:   1  F: -375.586469590035620  |grad|_K:  4.103e-05  alpha:  8.956e-01  linmin: -8.780e-07  t[s]:    179.42
	FillingsUpdate:  mu: -0.070042730  nElectrons: 164.000000
	SubspaceRotationAdjust: set factor to 0.704
ElecMinimize: Iter:   2  F: -375.619685106409747  |grad|_K:  2.811e-05  alpha:  5.824e-01  linmin: -7.551e-07  t[s]:    184.11
	FillingsUpdate:  mu: -0.041486749  nElectrons: 164.000000
	SubspaceRotationAdjust: set factor to 0.425
ElecMinimize: Iter:   3  F: -375.630994204663637  |grad|_K:  1.482e-05  alpha:  4.030e-01  linmin:  8.097e-06  t[s]:    188.87
	FillingsUpdate:  mu: -0.044925873  nElectrons: 164.000000
	SubspaceRotationAdjust: set factor to 0.52
ElecMinimize: Iter:   4  F: -375.637420890619239  |grad|_K:  8.522e-06  alpha:  8.528e-01  linmin:  2.206e-05  t[s]:    193.48
	FillingsUpdate:  mu: -0.052962406  nElectrons: 164.000000
	SubspaceRotationAdjust: set factor to 0.532
ElecMinimize: Iter:   5  F: -375.639124222780254  |grad|_K:  5.319e-06  alpha:  6.863e-01  linmin:  4.366e-07  t[s]:    198.14
	FillingsUpdate:  mu: -0.049854442  nElectrons: 164.000000
	SubspaceRotationAdjust: set factor to 0.618
ElecMinimize: Iter:   6  F: -375.639813620690290  |grad|_K:  3.165e-06  alpha:  7.038e-01  linmin:  3.801e-06  t[s]:    202.83
	FillingsUpdate:  mu: -0.048794703  nElectrons: 164.000000
	SubspaceRotationAdjust: set factor to 0.717
ElecMinimize: Iter:   7  F: -375.640065752715657  |grad|_K:  2.066e-06  alpha:  7.283e-01  linmin:  6.748e-06  t[s]:    207.44
	FillingsUpdate:  mu: -0.050575585  nElectrons: 164.000000
	SubspaceRotationAdjust: set factor to 0.625
ElecMinimize: Iter:   8  F: -375.640166516145939  |grad|_K:  1.393e-06  alpha:  6.830e-01  linmin:  7.260e-06  t[s]:    212.17
	FillingsUpdate:  mu: -0.049657136  nElectrons: 164.000000
	SubspaceRotationAdjust: set factor to 0.512
ElecMinimize: Iter:   9  F: -375.640205299287743  |grad|_K:  8.488e-07  alpha:  5.793e-01  linmin:  9.213e-07  t[s]:    216.67
	FillingsUpdate:  mu: -0.050116809  nElectrons: 164.000000
	SubspaceRotationAdjust: set factor to 0.542
ElecMinimize: Iter:  10  F: -375.640225846305270  |grad|_K:  6.382e-07  alpha:  8.265e-01  linmin:  3.666e-06  t[s]:    221.28
	FillingsUpdate:  mu: -0.050238392  nElectrons: 164.000000
	SubspaceRotationAdjust: set factor to 0.6
ElecMinimize: Iter:  11  F: -375.640236509741044  |grad|_K:  4.914e-07  alpha:  7.609e-01  linmin:  1.014e-06  t[s]:    225.97
	FillingsUpdate:  mu: -0.049875470  nElectrons: 164.000000
	SubspaceRotationAdjust: set factor to 0.607
ElecMinimize: Iter:  12  F: -375.640242943620763  |grad|_K:  3.849e-07  alpha:  7.708e-01  linmin:  7.367e-07  t[s]:    230.63
	FillingsUpdate:  mu: -0.050132895  nElectrons: 164.000000
	SubspaceRotationAdjust: set factor to 0.597
ElecMinimize: Iter:  13  F: -375.640247333370553  |grad|_K:  2.929e-07  alpha:  8.568e-01  linmin:  7.867e-07  t[s]:    235.16
	FillingsUpdate:  mu: -0.050138089  nElectrons: 164.000000
	SubspaceRotationAdjust: set factor to 0.644
ElecMinimize: Iter:  14  F: -375.640249995778618  |grad|_K:  2.561e-07  alpha:  8.973e-01  linmin:  7.766e-07  t[s]:    239.74
	FillingsUpdate:  mu: -0.049966646  nElectrons: 164.000000
	SubspaceRotationAdjust: set factor to 0.679
ElecMinimize: Iter:  15  F: -375.640251780532196  |grad|_K:  2.176e-07  alpha:  7.865e-01  linmin:  6.821e-07  t[s]:    244.46
	FillingsUpdate:  mu: -0.050059376  nElectrons: 164.000000
	SubspaceRotationAdjust: set factor to 0.714
ElecMinimize: Iter:  16  F: -375.640253095508342  |grad|_K:  1.619e-07  alpha:  8.030e-01  linmin:  3.708e-07  t[s]:    249.16
	FillingsUpdate:  mu: -0.050025964  nElectrons: 164.000000
	SubspaceRotationAdjust: set factor to 0.753
ElecMinimize: Iter:  17  F: -375.640253878706517  |grad|_K:  1.311e-07  alpha:  8.636e-01  linmin:  1.417e-07  t[s]:    253.90
	FillingsUpdate:  mu: -0.050036267  nElectrons: 164.000000
	SubspaceRotationAdjust: set factor to 0.806
ElecMinimize: Iter:  18  F: -375.640254292612099  |grad|_K:  1.012e-07  alpha:  6.958e-01  linmin: -7.888e-09  t[s]:    258.62
	FillingsUpdate:  mu: -0.050065479  nElectrons: 164.000000
	SubspaceRotationAdjust: set factor to 0.845
ElecMinimize: Iter:  19  F: -375.640254595169836  |grad|_K:  8.622e-08  alpha:  8.527e-01  linmin: -1.082e-07  t[s]:    263.28
	FillingsUpdate:  mu: -0.050019871  nElectrons: 164.000000
	SubspaceRotationAdjust: set factor to 0.856
ElecMinimize: Iter:  20  F: -375.640254817986602  |grad|_K:  7.655e-08  alpha:  8.648e-01  linmin:  2.983e-08  t[s]:    267.94
	FillingsUpdate:  mu: -0.050085156  nElectrons: 164.000000
	SubspaceRotationAdjust: set factor to 0.746
ElecMinimize: Iter:  21  F: -375.640254952391444  |grad|_K:  6.461e-08  alpha:  6.620e-01  linmin:  4.646e-08  t[s]:    283.13
	FillingsUpdate:  mu: -0.050032001  nElectrons: 164.000000
	SubspaceRotationAdjust: set factor to 0.663
ElecMinimize: Iter:  22  F: -375.640255047842857  |grad|_K:  4.507e-08  alpha:  6.603e-01  linmin:  2.807e-08  t[s]:    289.19
	FillingsUpdate:  mu: -0.050047293  nElectrons: 164.000000
	SubspaceRotationAdjust: set factor to 0.722
ElecMinimize: Iter:  23  F: -375.640255099295189  |grad|_K:  3.588e-08  alpha:  7.315e-01  linmin:  9.519e-09  t[s]:    296.93
	FillingsUpdate:  mu: -0.050050514  nElectrons: 164.000000
	SubspaceRotationAdjust: set factor to 0.798
ElecMinimize: Iter:  24  F: -375.640255130365802  |grad|_K:  2.581e-08  alpha:  6.968e-01  linmin:  3.725e-08  t[s]:    304.34
	FillingsUpdate:  mu: -0.050039618  nElectrons: 164.000000
	SubspaceRotationAdjust: set factor to 0.814
ElecMinimize: Iter:  25  F: -375.640255146569018  |grad|_K:  1.819e-08  alpha:  7.022e-01  linmin:  3.018e-08  t[s]:    311.13
	FillingsUpdate:  mu: -0.050053400  nElectrons: 164.000000
	SubspaceRotationAdjust: set factor to 0.717
ElecMinimize: Iter:  26  F: -375.640255153724638  |grad|_K:  1.375e-08  alpha:  6.246e-01  linmin: -3.773e-08  t[s]:    318.61
	FillingsUpdate:  mu: -0.050043529  nElectrons: 164.000000
	SubspaceRotationAdjust: set factor to 0.667
ElecMinimize: Iter:  27  F: -375.640255157363526  |grad|_K:  8.375e-09  alpha:  5.553e-01  linmin:  4.727e-08  t[s]:    325.90
ElecMinimize: Converged (|Delta F|<1.000000e-08 for 2 iters).
Setting wave functions to eigenvectors of Hamiltonian
Vacuum energy after initial minimize, F = -375.640255157363526

	Linear fluid (dielectric constant: 78.4, screening length: 5.74355 Bohr) occupying 0.704715 of unit cell:	Completed after 17 iterations at t[s]:    330.21

-------- Electronic minimization -----------
	Linear fluid (dielectric constant: 78.4, screening length: 5.74355 Bohr) occupying 0.704715 of unit cell:	Completed after 0 iterations at t[s]:    333.36
	FillingsUpdate:  mu: -0.152598276  nElectrons: 164.000000
ElecMinimize: Iter:   0  F: -375.635566305507155  |grad|_K:  1.450e-06  alpha:  1.000e+00
	Linear fluid (dielectric constant: 78.4, screening length: 5.74355 Bohr) occupying 0.705133 of unit cell:	Completed after 12 iterations at t[s]:    340.77
	Linear fluid (dielectric constant: 78.4, screening length: 5.74355 Bohr) occupying 0.705091 of unit cell:	Completed after 6 iterations at t[s]:    345.34
	FillingsUpdate:  mu: -0.149374963  nElectrons: 164.000000
	SubspaceRotationAdjust: set factor to 0.459
ElecMinimize: Iter:   1  F: -375.635631607798246  |grad|_K:  1.191e-06  alpha:  8.982e-01  linmin: -7.883e-07  t[s]:    348.30
	Linear fluid (dielectric constant: 78.4, screening length: 5.74355 Bohr) occupying 0.705387 of unit cell:	Completed after 11 iterations at t[s]:    352.86
	Linear fluid (dielectric constant: 78.4, screening length: 5.74355 Bohr) occupying 0.705247 of unit cell:	Completed after 11 iterations at t[s]:    357.93
	FillingsUpdate:  mu: -0.150731474  nElectrons: 164.000000
	SubspaceRotationAdjust: set factor to 0.24
ElecMinimize: Iter:   2  F: -375.635654909420168  |grad|_K:  3.611e-07  alpha:  4.695e-01  linmin:  2.501e-07  t[s]:    361.62
	Linear fluid (dielectric constant: 78.4, screening length: 5.74355 Bohr) occupying 0.705268 of unit cell:	Completed after 3 iterations at t[s]:    364.69
	Linear fluid (dielectric constant: 78.4, screening length: 5.74355 Bohr) occupying 0.705285 of unit cell:	Completed after 2 iterations at t[s]:    368.60
	FillingsUpdate:  mu: -0.150669506  nElectrons: 164.000000
	SubspaceRotationAdjust: set factor to 0.266
ElecMinimize: Iter:   3  F: -375.635658779081325  |grad|_K:  1.969e-07  alpha:  8.525e-01  linmin: -1.544e-06  t[s]:    371.63
	Linear fluid (dielectric constant: 78.4, screening length: 5.74355 Bohr) occupying 0.705300 of unit cell:	Completed after 2 iterations at t[s]:    374.71
	Linear fluid (dielectric constant: 78.4, screening length: 5.74355 Bohr) occupying 0.705300 of unit cell:	Completed after 0 iterations at t[s]:    378.43
	FillingsUpdate:  mu: -0.150640790  nElectrons: 164.000000
	SubspaceRotationAdjust: set factor to 0.301
ElecMinimize: Iter:   4  F: -375.635659933920010  |grad|_K:  1.162e-07  alpha:  8.503e-01  linmin: -9.395e-07  t[s]:    381.68
	Linear fluid (dielectric constant: 78.4, screening length: 5.74355 Bohr) occupying 0.705303 of unit cell:	Completed after 2 iterations at t[s]:    384.51
	Linear fluid (dielectric constant: 78.4, screening length: 5.74355 Bohr) occupying 0.705303 of unit cell:	Completed after 0 iterations at t[s]:    388.37
	FillingsUpdate:  mu: -0.150617371  nElectrons: 164.000000
	SubspaceRotationAdjust: set factor to 0.364
ElecMinimize: Iter:   5  F: -375.635660337701665  |grad|_K:  7.014e-08  alpha:  8.604e-01  linmin: -1.732e-05  t[s]:    391.43
	Linear fluid (dielectric constant: 78.4, screening length: 5.74355 Bohr) occupying 0.705302 of unit cell:	Completed after 0 iterations at t[s]:    394.21
	Linear fluid (dielectric constant: 78.4, screening length: 5.74355 Bohr) occupying 0.705302 of unit cell:	Completed after 0 iterations at t[s]:    397.90
	FillingsUpdate:  mu: -0.150617583  nElectrons: 164.000000
	SubspaceRotationAdjust: set factor to 0.477
ElecMinimize: Iter:   6  F: -375.635660463516729  |grad|_K:  4.673e-08  alpha:  7.244e-01  linmin:  1.578e-08  t[s]:    400.70
	Linear fluid (dielectric constant: 78.4, screening length: 5.74355 Bohr) occupying 0.705299 of unit cell:	Completed after 1 iterations at t[s]:    403.62
	Linear fluid (dielectric constant: 78.4, screening length: 5.74355 Bohr) occupying 0.705299 of unit cell:	Completed after 0 iterations at t[s]:    407.16
	FillingsUpdate:  mu: -0.150622850  nElectrons: 164.000000
	SubspaceRotationAdjust: set factor to 0.641
ElecMinimize: Iter:   7  F: -375.635660506989041  |grad|_K:  2.913e-08  alpha:  6.166e-01  linmin: -1.725e-05  t[s]:    409.80
	Linear fluid (dielectric constant: 78.4, screening length: 5.74355 Bohr) occupying 0.705296 of unit cell:	Completed after 0 iterations at t[s]:    412.88
	Linear fluid (dielectric constant: 78.4, screening length: 5.74355 Bohr) occupying 0.705295 of unit cell:	Completed after 0 iterations at t[s]:    416.56
	FillingsUpdate:  mu: -0.150622765  nElectrons: 164.000000
	SubspaceRotationAdjust: set factor to 0.817
ElecMinimize: Iter:   8  F: -375.635660531591213  |grad|_K:  2.035e-08  alpha:  7.144e-01  linmin:  2.513e-08  t[s]:    419.81
	Linear fluid (dielectric constant: 78.4, screening length: 5.74355 Bohr) occupying 0.705292 of unit cell:	Completed after 0 iterations at t[s]:    422.62
	Linear fluid (dielectric constant: 78.4, screening length: 5.74355 Bohr) occupying 0.705292 of unit cell:	Completed after 0 iterations at t[s]:    426.18
	FillingsUpdate:  mu: -0.150622669  nElectrons: 164.000000
	SubspaceRotationAdjust: set factor to 0.83
ElecMinimize: Iter:   9  F: -375.635660542318931  |grad|_K:  1.282e-08  alpha:  7.492e-01  linmin:  1.276e-07  t[s]:    429.60
	Linear fluid (dielectric constant: 78.4, screening length: 5.74355 Bohr) occupying 0.705290 of unit cell:	Completed after 0 iterations at t[s]:    432.39
	Linear fluid (dielectric constant: 78.4, screening length: 5.74355 Bohr) occupying 0.705291 of unit cell:	Completed after 0 iterations at t[s]:    435.88
	FillingsUpdate:  mu: -0.150622609  nElectrons: 164.000000
	SubspaceRotationAdjust: set factor to 0.921
ElecMinimize: Iter:  10  F: -375.635660545622557  |grad|_K:  9.492e-09  alpha:  5.806e-01  linmin: -1.276e-08  t[s]:    438.90
	Linear fluid (dielectric constant: 78.4, screening length: 5.74355 Bohr) occupying 0.705290 of unit cell:	Completed after 0 iterations at t[s]:    441.37
	Linear fluid (dielectric constant: 78.4, screening length: 5.74355 Bohr) occupying 0.705290 of unit cell:	Completed after 0 iterations at t[s]:    444.85
	FillingsUpdate:  mu: -0.150622513  nElectrons: 164.000000
	SubspaceRotationAdjust: set factor to 1.17
ElecMinimize: Iter:  11  F: -375.635660548212513  |grad|_K:  6.116e-09  alpha:  8.219e-01  linmin: -5.204e-07  t[s]:    448.00
ElecMinimize: Converged (|Delta F|<1.000000e-08 for 2 iters).
Setting wave functions to eigenvectors of Hamiltonian
Single-point solvation energy estimate, DeltaF = +0.004594609151013

# Ionic positions in lattice coordinates:
ion La   0.166666666666667   0.333333333333332   0.571544298320630 0
ion La   0.666666666666667   0.333333333333332   0.571544298320630 0
ion La   0.166666666666667   0.833333333333332   0.571544298320630 0
ion La   0.666666666666667   0.833333333333332   0.571544298320630 0
ion La   0.333333333333333   0.166666666666665   0.428455701679365 0
ion La   0.833333333333333   0.166666666666665   0.428455701679365 0
ion La   0.333333333333333   0.666666666666665   0.428455701679365 0
ion La   0.833333333333333   0.666666666666665   0.428455701679365 0
ion P   1.000000000000000   0.999999999999999   0.499999999999997 0
ion P   0.500000000000000   0.999999999999999   0.499999999999997 0
ion P   1.000000000000000   0.499999999999999   0.499999999999997 0
ion P   0.500000000000000   0.499999999999999   0.499999999999997 0
ion I   0.333333333333333   0.166666666666665   0.666581790462644 0
ion I   0.833333333333333   0.166666666666665   0.666581790462644 0
ion I   0.333333333333333   0.666666666666665   0.666581790462644 0
ion I   0.833333333333333   0.666666666666665   0.666581790462644 0
ion I   0.166666666666667   0.333333333333332   0.333418209537351 0
ion I   0.666666666666667   0.333333333333332   0.333418209537351 0
ion I   0.166666666666667   0.833333333333332   0.333418209537351 0
ion I   0.666666666666667   0.833333333333332   0.333418209537351 0


# Forces in Lattice coordinates:
force La  -0.000000000000000   0.000000000000000   0.009648879078996 0
force La  -0.000000000000000   0.000000000000000   0.009648879078996 0
force La  -0.000000000000000   0.000000000000000   0.009648879079109 0
force La  -0.000000000000000  -0.000000000000000   0.009648879078996 0
force La  -0.000000000000000  -0.000000000000000  -0.009648879079564 0
force La   0.000000000000000  -0.000000000000000  -0.009648879079451 0
force La   0.000000000000000  -0.000000000000000  -0.009648879079564 0
force La   0.000000000000000   0.000000000000000  -0.009648879079565 0
force P  -0.000000000000000  -0.000000000000000  -0.000000000000000 0
force P   0.000000000000000  -0.000000000000000  -0.000000000000000 0
force P  -0.000000000000000   0.000000000000000  -0.000000000000000 0
force P  -0.000000000000000   0.000000000000000   0.000000000000000 0
force I  -0.000000000000000   0.000000000000000   0.075842616693726 0
force I  -0.000000000000000  -0.000000000000000   0.075842616694067 0
force I  -0.000000000000000   0.000000000000000   0.075842616694067 0
force I   0.000000000000000   0.000000000000000   0.075842616693953 0
force I   0.000000000000000   0.000000000000000  -0.075842616693840 0
force I   0.000000000000000   0.000000000000000  -0.075842616693840 0
force I   0.000000000000000   0.000000000000000  -0.075842616694067 0
force I  -0.000000000000000   0.000000000000000  -0.075842616693840 0

# Energy components:
   A_diel =        0.0044987798790555
   Eewald =     3082.3006558221304658
       EH =     3397.2618327086979662
     Eloc =    -6910.6291871906532833
      Enl =       20.4338974615129843
      Exc =     -402.7729045179150944
 Exc_core =      329.4700258799055064
       KE =      108.3141090593299509
-------------------------------------
     Etot =     -375.6170719971127596
       TS =        0.0185885510997548
-------------------------------------
        F =     -375.6356605482125133

IonicMinimize: Iter:   0  F: -375.635660548212513  |grad|_K:  0.000e+00  t[s]:    450.38
IonicMinimize: Converged (|grad|_K<1.000000e-04).

#--- Lowdin population analysis ---
# oxidation-state La -0.272 -0.272 -0.272 -0.272 -0.272 -0.272 -0.272 -0.272
# oxidation-state P +0.106 +0.106 +0.106 +0.106
# oxidation-state I +0.255 +0.255 +0.255 +0.255 +0.255 +0.255 +0.255 +0.255


Dumping 'NbTe2.fillings' ... done
Dumping 'NbTe2.wfns' ... done
Dumping 'NbTe2.fluidState' ... done
Dumping 'NbTe2.eigenvals' ... done
End date and time: Sun Jul 12 14:52:26 2020  (Duration: 0-0:07:31.36)
Done!
