
*************** JDFTx 1.5.0  ***************

Start date and time: Wed Jul  8 05:51:47 2020
Executable jdftx_gpu with command-line: -i Neutral.in -o Neutral.out
Running on hosts (process indices):  amax (0)
Divided in process groups (process indices):  0 (0)
gpuInit: Found compatible cuda device 0 'Tesla K80'
gpuInit: Selected device 0
Resource initialization completed at t[s]:     10.50
Run totals: 1 processes, 24 threads, 1 GPUs


Input parsed successfully to the following command list (including defaults):

basis kpoint-dependent
cache-projectors no
coords-type Lattice
core-overlap-check none
coulomb-interaction Slab 001
coulomb-truncation-embed 0 0 0.5
davidson-band-ratio 1.1
dump End State
dump-name NbTe2.$VAR
elec-cutoff 20 100
elec-eigen-algo Davidson
elec-ex-corr gga-PBE
elec-smearing Gauss 0.0073499
electronic-minimize  \
	dirUpdateScheme      FletcherReeves \
	linminMethod         DirUpdateRecommended \
	nIterations          100 \
	history              15 \
	knormThreshold       0 \
	energyDiffThreshold  1e-08 \
	nEnergyDiff          2 \
	alphaTstart          1 \
	alphaTmin            1e-10 \
	updateTestStepSize   yes \
	alphaTreduceFactor   0.1 \
	alphaTincreaseFactor 3 \
	nAlphaAdjustMax      3 \
	wolfeEnergy          0.0001 \
	wolfeGradient        0.9 \
	fdTest               no
electronic-scf  \
	nIterations	500 \
	energyDiffThreshold	1e-08 \
	residualThreshold	1e-07 \
	mixFraction	0.5 \
	qMetric	0.8 \
	history	10 \
	nEigSteps	2 \
	eigDiffThreshold	1e-08 \
	mixedVariable	Density \
	qKerker	0.8 \
	qKappa	-1 \
	verbose	no \
	mixFractionMag	1.5
exchange-regularization WignerSeitzTruncated
fluid LinearPCM 298.000000 1.013250
fluid-anion F- 1 MeanFieldLJ \
	epsBulk 1 \
	pMol 0 \
	epsInf 1 \
	Pvap 0 \
	sigmaBulk 0 \
	Rvdw 2.24877 \
	Res 0 \
	tauNuc 343133
fluid-cation Na+ 1 MeanFieldLJ \
	epsBulk 1 \
	pMol 0 \
	epsInf 1 \
	Pvap 0 \
	sigmaBulk 0 \
	Rvdw 2.19208 \
	Res 0 \
	tauNuc 343133
fluid-ex-corr lda-TF lda-PZ
fluid-gummel-loop 10 1.000000e-05
fluid-minimize  \
	dirUpdateScheme      PolakRibiere \
	linminMethod         DirUpdateRecommended \
	nIterations          400 \
	history              15 \
	knormThreshold       1e-11 \
	energyDiffThreshold  0 \
	nEnergyDiff          2 \
	alphaTstart          1 \
	alphaTmin            1e-10 \
	updateTestStepSize   yes \
	alphaTreduceFactor   0.1 \
	alphaTincreaseFactor 3 \
	nAlphaAdjustMax      6 \
	wolfeEnergy          0.0001 \
	wolfeGradient        0.9 \
	fdTest               no
fluid-solvent H2O 55.338 ScalarEOS \
	epsBulk 78.4 \
	pMol 0.92466 \
	epsInf 1.77 \
	Pvap 1.06736e-10 \
	sigmaBulk 4.62e-05 \
	Rvdw 2.61727 \
	Res 1.42 \
	tauNuc 343133 \
	poleEl 15 7 1
forces-output-coords Positions
initial-state NbTe2.$VAR
ion Li   0.328087908673709   0.328238393524093   0.496679362007931 0
ion Li   0.833787379915045   0.334561035070424   0.500255731809158 0
ion Li   0.332936331005182   0.835299670870813   0.501166901495502 0
ion Li   0.834672989301240   0.836017085684041   0.493705813032318 0
ion Ni   0.160608658971037   0.167970311066617   0.497123905829785 0
ion Ni   0.677562024623841   0.144615321295242   0.489750310430481 0
ion Ni   0.170726717635757   0.667486381780888   0.502503228204713 0
ion Ni   0.669262764859861   0.666569079146050   0.503972318460457 0
ion P   0.499160517241644   0.495581076113711   0.580972296402753 0
ion P   0.002212804077982   0.500317535234672   0.442177202749780 0
ion P   0.000609628532331   0.500045493125138   0.562500105852589 0
ion P   0.503401984753853   0.493466177359525   0.460472663951979 0
ion P   0.495923034575188   0.003677613780253   0.557345985020529 0
ion P   0.005693719622795   0.996039594043345   0.430678717424397 0
ion P   0.995401632176709   0.000455846154232   0.550900134919594 0
ion P   0.500339294894630   0.996439043583194   0.437311547529180 0
ion S   0.007552177976791   0.327740063246201   0.588727621594193 0
ion S   0.317396115796724   0.163352416331323   0.583536062163311 0
ion S   0.013432101783751   0.164618298517614   0.409457049697186 0
ion S   0.159823987759906   0.321822738432834   0.412950068904550 0
ion S   0.326230656979590   0.013598968564934   0.406713249049454 0
ion S   0.152963200816951   0.021044010946093   0.582330855987747 0
ion S   0.813474209619453   0.160800837671300   0.575261868515313 0
ion S   0.519841645294987   0.159204124293471   0.413410885735197 0
ion S   0.658031780443843   0.322127377835113   0.421577411114875 0
ion S   0.836176471660172   0.004680722501950   0.397359667518738 0
ion S   0.651570710946397   0.032820970410785   0.582966415681015 0
ion S   0.011335199526946   0.824662495453777   0.581094404235429 0
ion S   0.317310353419697   0.675224632710858   0.588190746015649 0
ion S   0.022751785614081   0.658134382533860   0.413860168778894 0
ion S   0.173216326424552   0.822397369048725   0.409819189669278 0
ion S   0.326084964240760   0.513568042665301   0.425217841517431 0
ion S   0.162043131861138   0.513371712227338   0.591622424321327 0
ion S   0.515837204779521   0.826715385464461   0.588536620202764 0
ion S   0.823446847785091   0.668722000458177   0.585077048298089 0
ion S   0.519290125943521   0.655260386230769   0.426172256546562 0
ion S   0.664601555203895   0.819613249443950   0.413801419668328 0
ion S   0.822640473805216   0.516586076027889   0.416836720898180 0
ion S   0.660891101456193   0.523585148151105   0.590743776765349 0
ion-species GBRV/$ID_pbe.uspp
ion-width Ecut
ionic-minimize  \
	dirUpdateScheme      L-BFGS \
	linminMethod         DirUpdateRecommended \
	nIterations          0 \
	history              15 \
	knormThreshold       0.0001 \
	energyDiffThreshold  1e-06 \
	nEnergyDiff          2 \
	alphaTstart          1 \
	alphaTmin            1e-10 \
	updateTestStepSize   yes \
	alphaTreduceFactor   0.1 \
	alphaTincreaseFactor 3 \
	nAlphaAdjustMax      3 \
	wolfeEnergy          0.0001 \
	wolfeGradient        0.9 \
	fdTest               no
kpoint   0.000000000000   0.000000000000   0.000000000000  1.00000000000000
kpoint-folding 3 3 1 
latt-move-scale 1 1 1
latt-scale 1 1 1 
lattice Triclinic 21.9941 22.0864 34.3361 90 90 60.1379
lattice-minimize  \
	dirUpdateScheme      L-BFGS \
	linminMethod         DirUpdateRecommended \
	nIterations          0 \
	history              15 \
	knormThreshold       0 \
	energyDiffThreshold  1e-06 \
	nEnergyDiff          2 \
	alphaTstart          1 \
	alphaTmin            1e-10 \
	updateTestStepSize   yes \
	alphaTreduceFactor   0.1 \
	alphaTincreaseFactor 3 \
	nAlphaAdjustMax      3 \
	wolfeEnergy          0.0001 \
	wolfeGradient        0.9 \
	fdTest               no
lcao-params -1 1e-06 0.0073499
pcm-variant CANDLE
spintype no-spin
subspace-rotation-factor 1 yes
symmetries automatic
symmetry-threshold 0.0001



---------- Setting up symmetries ----------

Found 8 point-group symmetries of the bravais lattice
Found 1 space-group symmetries with basis
Applied RMS atom displacement 0 bohrs to make symmetries exact.

---------- Initializing the Grid ----------
R = 
[    21.9941    10.9971          0  ]
[          0    19.1539          0  ]
[          0          0    34.3361  ]
unit cell volume = 14464.9
G =
[   0.285675  -0.164019          0  ]
[          0   0.328037          0  ]
[          0          0    0.18299  ]
Minimum fftbox size, Smin = [  100  100  156  ]
Chosen fftbox size, S = [  100  100  160  ]

---------- Initializing tighter grid for wavefunction operations ----------
R = 
[    21.9941    10.9971          0  ]
[          0    19.1539          0  ]
[          0          0    34.3361  ]
unit cell volume = 14464.9
G =
[   0.285675  -0.164019          0  ]
[          0   0.328037          0  ]
[          0          0    0.18299  ]
Minimum fftbox size, Smin = [  92  92  140  ]
Chosen fftbox size, S = [  96  96  140  ]

---------- Exchange Correlation functional ----------
Initalized PBE GGA exchange.
Initalized PBE GGA correlation.

---------- Setting up pseudopotentials ----------
Width of ionic core gaussian charges (only for fluid interactions / plotting) set to 0.397384

Reading pseudopotential file '/home/guoxy/vasp/jdftx-1.5.0/build/pseudopotentials/GBRV/li_pbe.uspp':
  Title: Li.  Created by USPP 7.3.6 on 8-4-15
  Reference state energy: -7.100502.  3 valence electrons in orbitals:
    |100>  occupation: 2  eigenvalue: -2.033252
    |200>  occupation: 0.55  eigenvalue: -0.187138
    |210>  occupation: 0  eigenvalue: -0.114272
  lMax: 1  lLocal: 2  QijEcut: 6
  5 projectors sampled on a log grid with 541 points:
    l: 0  eig: -2.033252  rCut: 1.3
    l: 0  eig: -0.187138  rCut: 1.3
    l: 0  eig: 1.000000  rCut: 1.3
    l: 1  eig: -0.114273  rCut: 2.001
    l: 1  eig: 1.000000  rCut: 2.001
  Transforming local potential to a uniform radial grid of dG=0.02 with 1605 points.
  Transforming nonlocal projectors to a uniform radial grid of dG=0.02 with 432 points.
  Transforming density augmentations to a uniform radial grid of dG=0.02 with 1605 points.
  Transforming atomic orbitals to a uniform radial grid of dG=0.02 with 432 points.
  Core radius for overlap checks: 2.00 bohrs.

Reading pseudopotential file '/home/guoxy/vasp/jdftx-1.5.0/build/pseudopotentials/GBRV/ni_pbe.uspp':
  Title: Ni.  Created by USPP 7.3.6 on 1-4-15
  Reference state energy: -170.398381.  18 valence electrons in orbitals:
    |300>  occupation: 2  eigenvalue: -4.804705
    |310>  occupation: 6  eigenvalue: -3.347751
    |320>  occupation: 8  eigenvalue: -1.042415
    |400>  occupation: 0  eigenvalue: -0.795539
    |410>  occupation: 0  eigenvalue: -0.551375
  lMax: 2  lLocal: 3  QijEcut: 6.5
  6 projectors sampled on a log grid with 611 points:
    l: 0  eig: -4.804708  rCut: 1.44
    l: 0  eig: -0.795541  rCut: 1.44
    l: 1  eig: -3.347753  rCut: 1.55
    l: 1  eig: 0.500000  rCut: 1.55
    l: 2  eig: -1.042418  rCut: 1.5
    l: 2  eig: -0.450000  rCut: 1.5
  Partial core density with radius 0.65
  Transforming core density to a uniform radial grid of dG=0.02 with 1605 points.
  Transforming local potential to a uniform radial grid of dG=0.02 with 1605 points.
  Transforming nonlocal projectors to a uniform radial grid of dG=0.02 with 432 points.
  Transforming density augmentations to a uniform radial grid of dG=0.02 with 1605 points.
  Transforming atomic orbitals to a uniform radial grid of dG=0.02 with 432 points.
  Core radius for overlap checks: 1.55 bohrs.

Reading pseudopotential file '/home/guoxy/vasp/jdftx-1.5.0/build/pseudopotentials/GBRV/p_pbe.uspp':
  Title: P.  Created by USPP 7.3.6 on 11-6-15
  Reference state energy: -7.561951.  5 valence electrons in orbitals:
    |300>  occupation: 2  eigenvalue: -0.513368
    |310>  occupation: 3  eigenvalue: -0.202371
  lMax: 2  lLocal: 3  QijEcut: 5
  6 projectors sampled on a log grid with 631 points:
    l: 0  eig: -0.513363  rCut: 1.5
    l: 0  eig: 0.500000  rCut: 1.5
    l: 1  eig: -0.202372  rCut: 1.5
    l: 1  eig: 1.000000  rCut: 1.5
    l: 2  eig: -0.500000  rCut: 1.5
    l: 2  eig: 1.500000  rCut: 1.5
  Partial core density with radius 1.35
  Transforming core density to a uniform radial grid of dG=0.02 with 1605 points.
  Transforming local potential to a uniform radial grid of dG=0.02 with 1605 points.
  Transforming nonlocal projectors to a uniform radial grid of dG=0.02 with 432 points.
  Transforming density augmentations to a uniform radial grid of dG=0.02 with 1605 points.
  Transforming atomic orbitals to a uniform radial grid of dG=0.02 with 432 points.
  Core radius for overlap checks: 1.50 bohrs.

Reading pseudopotential file '/home/guoxy/vasp/jdftx-1.5.0/build/pseudopotentials/GBRV/s_pbe.uspp':
  Title: S.  Created by USPP 7.3.6 on 1-4-15
  Reference state energy: -11.898476.  6 valence electrons in orbitals:
    |300>  occupation: 2  eigenvalue: -0.634167
    |310>  occupation: 4  eigenvalue: -0.257568
  lMax: 2  lLocal: 3  QijEcut: 6
  6 projectors sampled on a log grid with 635 points:
    l: 0  eig: -0.634161  rCut: 1.5
    l: 0  eig: 1.500000  rCut: 1.5
    l: 1  eig: -0.257567  rCut: 1.5
    l: 1  eig: 1.500000  rCut: 1.5
    l: 2  eig: -1.000000  rCut: 1.5
    l: 2  eig: 1.500000  rCut: 1.5
  Partial core density with radius 1.15
  Transforming core density to a uniform radial grid of dG=0.02 with 1605 points.
  Transforming local potential to a uniform radial grid of dG=0.02 with 1605 points.
  Transforming nonlocal projectors to a uniform radial grid of dG=0.02 with 432 points.
  Transforming density augmentations to a uniform radial grid of dG=0.02 with 1605 points.
  Transforming atomic orbitals to a uniform radial grid of dG=0.02 with 432 points.
  Core radius for overlap checks: 1.50 bohrs.

Initialized 4 species with 39 total atoms.

Folded 1 k-points by 3x3x1 to 9 k-points.

---------- Setting up k-points, bands, fillings ----------
Adding inversion symmetry to k-mesh for non-inversion-symmetric unit cell.
Reduced to 5 k-points under symmetry. 
Computing the number of bands and number of electrons
Calculating initial fillings.
nElectrons: 262.000000   nBands: 196   nStates: 5

----- Setting up reduced wavefunction bases (one per k-point) -----
average nbasis = 61788.111 , ideal nbasis = 61795.097

---------- Setting up coulomb interaction ----------
Fluid mode embedding: using embedded box, but periodic Coulomb kernel.
(Fluid response is responsible for (approximate) separation between periodic images.)
Setting up double-sized grid for truncated Coulomb potentials:
R = 
[    21.9941    10.9971          0  ]
[          0    19.1539          0  ]
[          0          0    68.6723  ]
unit cell volume = 28929.8
G =
[   0.285675  -0.164019          0  ]
[          0   0.328037          0  ]
[          0          0  0.0914952  ]
Chosen fftbox size, S = [  100  100  320  ]
Integer grid location selected as the embedding center:
   Grid: [  0  0  80  ]
   Lattice: [  0  0  0.5  ]
   Cartesian: [  0  0  17.1681  ]
Constructing Wigner-Seitz cell: 8 faces (6 quadrilaterals, 2 hexagons)
Range-separation parameter for embedded mesh potentials due to point charges: 0.592887 bohrs.

Initializing van der Waals corrections
	NOTE: vdW corrections apply only for interactions with fluid.
	Li:  C6:   27.93 Eh-a0^6  R0: 1.559 a0
	Ni:  C6:  187.33 Eh-a0^6  R0: 2.952 a0
	 P:  C6:  135.99 Eh-a0^6  R0: 3.222 a0
	 S:  C6:   96.61 Eh-a0^6  R0: 3.180 a0

---------- Setting up ewald sum ----------
Optimum gaussian width for ewald sums = 6.650398 bohr.
Real space sum over 605 unit cells with max indices [  5  5  2  ]
Reciprocal space sum over 6825 terms with max indices [  6  7  17  ]

---------- Allocating electronic variables ----------
Initializing wave functions:  linear combination of atomic orbitals
Li pseudo-atom occupations:   s ( 2 1 )  p ( 0 )
Ni pseudo-atom occupations:   s ( 2 0 )  p ( 6 0 )  d ( 10 )
P pseudo-atom occupations:   s ( 2 )  p ( 3 )
S pseudo-atom occupations:   s ( 2 )  p ( 4 )
	FillingsUpdate:  mu: -0.366523635  nElectrons: 262.000000
LCAOMinimize: Iter:   0  F: -884.2649701845122081  |grad|_K:  2.894e-02  alpha:  1.000e+00
	FillingsUpdate:  mu: +0.783502972  nElectrons: 262.000000
LCAOMinimize: Iter:   1  F: -942.3258827541126266  |grad|_K:  2.953e-02  alpha:  7.068e-01  linmin:  1.362e-02  cgtest: -1.094e+00  t[s]:     58.89
LCAOMinimize: 	Step increased F by 5.398397e-01, reducing alpha to 1.778859e-02.
	FillingsUpdate:  mu: +0.747241698  nElectrons: 262.000000
LCAOMinimize: Iter:   2  F: -943.5692136989312075  |grad|_K:  2.580e-02  alpha:  1.779e-02  linmin: -2.087e-02  cgtest:  9.723e-01  t[s]:     87.36
LCAOMinimize: Encountered beta<0, resetting CG.
LCAOMinimize: 	Predicted alpha/alphaT>3.000000, increasing alphaT to 5.336576e-02.
LCAOMinimize: 	Predicted alpha/alphaT>3.000000, increasing alphaT to 1.600973e-01.
	FillingsUpdate:  mu: +0.668754006  nElectrons: 262.000000
LCAOMinimize: Iter:   3  F: -953.3320875241429349  |grad|_K:  3.481e-02  alpha:  1.471e-01  linmin:  6.456e-03  cgtest: -2.804e-01  t[s]:    113.84
	FillingsUpdate:  mu: +0.498293826  nElectrons: 262.000000
LCAOMinimize: Iter:   4  F: -967.2448284300347723  |grad|_K:  3.343e-02  alpha:  4.679e-02  linmin: -4.207e-02  cgtest:  9.218e-01  t[s]:    130.89
LCAOMinimize: 	Predicted alpha/alphaT>3.000000, increasing alphaT to 1.403741e-01.
	FillingsUpdate:  mu: +0.315460563  nElectrons: 262.000000
LCAOMinimize: Iter:   5  F: -983.1041772857184924  |grad|_K:  2.503e-02  alpha:  1.375e-01  linmin: -2.166e-02  cgtest: -2.854e-01  t[s]:    151.87
	FillingsUpdate:  mu: +0.047861123  nElectrons: 262.000000
LCAOMinimize: Iter:   6  F: -995.2807776116812875  |grad|_K:  1.609e-02  alpha:  1.513e-01  linmin: -4.945e-02  cgtest:  4.260e-01  t[s]:    168.35
	FillingsUpdate:  mu: +0.034270253  nElectrons: 262.000000
LCAOMinimize: Iter:   7  F: -995.9839172407708929  |grad|_K:  1.529e-02  alpha:  1.068e-02  linmin: -1.180e-01  cgtest:  9.223e-01  t[s]:    185.24
LCAOMinimize: 	Wrong curvature in test step, increasing alphaT to 3.203006e-02.
	FillingsUpdate:  mu: +0.026095602  nElectrons: 262.000000
LCAOMinimize: Iter:   8  F: -996.4895058688986182  |grad|_K:  1.469e-02  alpha: -1.254e+00  linmin: -1.528e-01  cgtest:  9.431e-01  t[s]:    201.22
	FillingsUpdate:  mu: -0.108662338  nElectrons: 262.000000
LCAOMinimize: Iter:   9  F: -1001.2330440349531955  |grad|_K:  4.335e-03  alpha:  1.069e-01  linmin: -1.705e-01  cgtest:  8.001e-02  t[s]:    217.75
	FillingsUpdate:  mu: -0.163963573  nElectrons: 262.000000
LCAOMinimize: Iter:  10  F: -1001.3598446236056816  |grad|_K:  3.525e-03  alpha:  4.781e-02  linmin: -3.501e-02  cgtest:  4.233e-01  t[s]:    234.07
	FillingsUpdate:  mu: -0.197077532  nElectrons: 262.000000
LCAOMinimize: Iter:  11  F: -1001.4551623819137376  |grad|_K:  3.264e-03  alpha:  7.236e-02  linmin: -8.934e-03  cgtest: -1.565e-01  t[s]:    250.23
	FillingsUpdate:  mu: -0.179535479  nElectrons: 262.000000
LCAOMinimize: Iter:  12  F: -1001.6106380493574761  |grad|_K:  4.211e-03  alpha:  1.516e-01  linmin:  9.079e-03  cgtest: -2.631e-01  t[s]:    266.82
	FillingsUpdate:  mu: -0.173878763  nElectrons: 262.000000
LCAOMinimize: Iter:  13  F: -1001.6599681969209996  |grad|_K:  2.068e-03  alpha:  2.911e-02  linmin: -1.846e-02  cgtest:  7.733e-01  t[s]:    283.99
LCAOMinimize: Encountered beta<0, resetting CG.
	FillingsUpdate:  mu: -0.165081870  nElectrons: 262.000000
LCAOMinimize: Iter:  14  F: -1001.6818332017658122  |grad|_K:  1.860e-03  alpha:  5.081e-02  linmin: -1.979e-02  cgtest:  2.626e-02  t[s]:    300.55
	FillingsUpdate:  mu: -0.158539062  nElectrons: 262.000000
LCAOMinimize: Iter:  15  F: -1001.7094718104967797  |grad|_K:  6.964e-04  alpha:  7.736e-02  linmin:  1.261e-02  cgtest: -2.611e-01  t[s]:    317.98
	FillingsUpdate:  mu: -0.161029603  nElectrons: 262.000000
LCAOMinimize: Iter:  16  F: -1001.7118941986004756  |grad|_K:  5.869e-04  alpha:  5.432e-02  linmin: -1.616e-05  cgtest:  1.342e-01  t[s]:    334.40
	FillingsUpdate:  mu: -0.168461708  nElectrons: 262.000000
LCAOMinimize: Iter:  17  F: -1001.7156041606998542  |grad|_K:  4.051e-04  alpha:  1.100e-01  linmin: -3.976e-03  cgtest: -7.096e-02  t[s]:    351.55
	FillingsUpdate:  mu: -0.169710959  nElectrons: 262.000000
LCAOMinimize: Iter:  18  F: -1001.7165870860343375  |grad|_K:  3.376e-04  alpha:  6.014e-02  linmin: -3.764e-04  cgtest: -3.941e-02  t[s]:    368.39
	FillingsUpdate:  mu: -0.165664773  nElectrons: 262.000000
LCAOMinimize: Iter:  19  F: -1001.7176014875446981  |grad|_K:  1.970e-04  alpha:  9.172e-02  linmin:  1.232e-03  cgtest:  2.039e-02  t[s]:    385.11
	FillingsUpdate:  mu: -0.163470651  nElectrons: 262.000000
LCAOMinimize: Iter:  20  F: -1001.7180078160331504  |grad|_K:  2.578e-04  alpha:  1.085e-01  linmin:  1.623e-04  cgtest:  9.915e-03  t[s]:    401.96
	FillingsUpdate:  mu: -0.162025052  nElectrons: 262.000000
LCAOMinimize: Iter:  21  F: -1001.7184360545186337  |grad|_K:  1.378e-04  alpha:  6.639e-02  linmin: -8.091e-05  cgtest:  1.260e-02  t[s]:    418.42
	FillingsUpdate:  mu: -0.163237816  nElectrons: 262.000000
LCAOMinimize: Iter:  22  F: -1001.7185219020933573  |grad|_K:  8.697e-05  alpha:  4.648e-02  linmin:  5.861e-05  cgtest:  3.322e-03  t[s]:    435.50
	FillingsUpdate:  mu: -0.164539954  nElectrons: 262.000000
LCAOMinimize: Iter:  23  F: -1001.7185665148167573  |grad|_K:  3.175e-05  alpha:  6.082e-02  linmin:  1.000e-04  cgtest: -6.526e-03  t[s]:    452.03
	FillingsUpdate:  mu: -0.164688246  nElectrons: 262.000000
LCAOMinimize: Iter:  24  F: -1001.7185763369403730  |grad|_K:  4.025e-05  alpha:  1.004e-01  linmin: -2.004e-05  cgtest: -8.681e-04  t[s]:    469.33
	FillingsUpdate:  mu: -0.164726914  nElectrons: 262.000000
LCAOMinimize: Iter:  25  F: -1001.7185874351579287  |grad|_K:  1.936e-05  alpha:  7.058e-02  linmin:  7.528e-06  cgtest: -2.044e-03  t[s]:    485.88
	FillingsUpdate:  mu: -0.164377162  nElectrons: 262.000000
LCAOMinimize: Iter:  26  F: -1001.7185908250179409  |grad|_K:  1.688e-05  alpha:  9.321e-02  linmin: -2.663e-05  cgtest:  2.758e-04  t[s]:    502.78
	FillingsUpdate:  mu: -0.164320134  nElectrons: 262.000000
LCAOMinimize: Iter:  27  F: -1001.7185923960068976  |grad|_K:  9.600e-06  alpha:  5.684e-02  linmin: -1.118e-05  cgtest:  1.257e-03  t[s]:    519.91
	FillingsUpdate:  mu: -0.164449296  nElectrons: 262.000000
LCAOMinimize: Iter:  28  F: -1001.7185936914005424  |grad|_K:  8.410e-06  alpha:  1.448e-01  linmin: -1.398e-05  cgtest:  5.080e-04  t[s]:    536.54
	FillingsUpdate:  mu: -0.164519010  nElectrons: 262.000000
LCAOMinimize: Iter:  29  F: -1001.7185940609671206  |grad|_K:  6.651e-06  alpha:  5.384e-02  linmin: -3.551e-05  cgtest:  1.161e-04  t[s]:    553.01
	FillingsUpdate:  mu: -0.164532963  nElectrons: 262.000000
LCAOMinimize: Iter:  30  F: -1001.7185945267195848  |grad|_K:  3.347e-06  alpha:  1.085e-01  linmin: -1.533e-05  cgtest: -8.538e-04  t[s]:    569.51
LCAOMinimize: Converged (|Delta F|<1.000000e-06 for 2 iters).
----- createFluidSolver() ----- (Fluid-side solver setup)
   Initializing fluid molecule 'H2O'
     Initializing site 'O'
       Electron density: proportional to exp(-r/0.36935)*erfc((r-0.51523)/0.36823) with norm 6.826
       Charge density: gaussian nuclear width 0.478731 with net site charge 0.826
       Polarizability: cuspless exponential with width 0.32 and norm 3.73
       Hard sphere radius: 2.57003 bohrs
       Positions in reference frame:
         [ +0.000000 +0.000000 +0.000000 ]
     Initializing site 'H'
       Electron density: proportional to exp(-r/0.34641)*erfc((r-0)/0.390882) with norm 0.587
       Charge density: gaussian nuclear width 0.377945 with net site charge -0.413
       Polarizability: cuspless exponential with width 0.39 and norm 3.3
       Positions in reference frame:
         [ +0.000000 -1.441945 +1.122523 ]
         [ +0.000000 +1.441945 +1.122523 ]
     Net charge: 0   dipole magnitude: 0.927204
     Initializing spherical shell mfKernel with radius 2.61727 Bohr
     deltaS corrections:
       site 'O': -7.54299
       site 'H': -6.83917
   Initializing fluid molecule 'Na+'
     Initializing site 'Na'
       Electron density: proportional to exp(-r/0.19682)*erfc((r-0.71491)/0.41314) with norm 8.1383
       Charge density: gaussian nuclear width 0.365347 with net site charge -1
       Hard sphere radius: 1.86327 bohrs
       Positions in reference frame:
         [ +0.000000 +0.000000 +0.000000 ]
     Net charge: -1   dipole magnitude: 0
     Initializing gaussian mfKernel with width: 1.55004 Bohr
     deltaS corrections:
       site 'Na': -22.3555
   Initializing fluid molecule 'F-'
     Initializing site 'F'
       Electron density: proportional to exp(-r/0.38886)*erfc((r-0)/0.438782) with norm 8
       Charge density: gaussian nuclear width 0.374796 with net site charge 1
       Hard sphere radius: 2.39995 bohrs
       Positions in reference frame:
         [ +0.000000 +0.000000 +0.000000 ]
     Net charge: 1   dipole magnitude: 0
     Initializing gaussian mfKernel with width: 1.59012 Bohr
     deltaS corrections:
       site 'F': -9.04335

Correction to mu due to finite nuclear width = -0.00898578
   Cavity determined by nc: 0.00142 and sigma: 0.707107
   Nonlocal vdW cavity from gaussian model electron density with norm = 8 and sigma = 0.993594 bohr
   Charge asymmetry in cavity with sensitivity pCavity = 36.5 e-bohr/Eh
   Electrostatic cavity expanded by eta = 1.46 bohrs
   Weighted density cavitation model constrained by Nbulk: 0.0049383 bohr^-3, Pvap: 3.14029 kPa, Rvdw: 2.61727 bohr and sigmaBulk: 4.62e-05 Eh/bohr^2 at T: 298 K.
   Weighted density dispersion model using vdW pair potentials with single solvent site with sqrtC6eff: 0.77 SI.


---- Citations for features of the code used in this run ----

   Software package:
      R. Sundararaman, K. Letchworth-Weaver, K.A. Schwarz, D. Gunceler, Y. Ozhabes and T.A. Arias, 'JDFTx: software for joint density-functional theory', SoftwareX 6, 278 (2017)

   gga-PBE exchange-correlation functional:
      J.P. Perdew, K. Burke and M. Ernzerhof, Phys. Rev. Lett. 77, 3865 (1996)

   Pseudopotentials:
      KF Garrity, JW Bennett, KM Rabe and D Vanderbilt, Comput. Mater. Sci. 81, 446 (2014)

   Truncated Coulomb potentials:
      R. Sundararaman and T.A. Arias, Phys. Rev. B 87, 165122 (2013)

   Van der Waals correction pair-potentials:
      S. Grimme, J. Comput. Chem. 27, 1787 (2006)

   Charge-asymmetric nonlocally-determined local-electric (CANDLE) solvation model:
      R. Sundararaman and W.A. Goddard III, J. Chem. Phys. 142, 064107 (2015)

This list may not be complete. Please suggest additional citations or
report any other bugs at https://github.com/shankar1729/jdftx/issues

Initialization completed successfully at t[s]:    573.74

Fluid solver invoked on fresh (partially random / LCAO) wavefunctions
Running a vacuum solve first:

-------- Initial electronic minimization -----------
Will mix electronic density at each iteration.
	FillingsUpdate:  mu: -0.164532963  nElectrons: 262.000000
	FillingsUpdate:  mu: -0.180067786  nElectrons: 262.000000
SCF: Cycle:  0   F: -1001.323136767646133   dF: +3.955e-01   |Residual|: 1.122e+00   |deigs|: 5.617e-02  t[s]:    625.39
	FillingsUpdate:  mu: -0.219811154  nElectrons: 262.000000
SCF: Cycle:  1   F: -997.857829799786828   dF: +3.465e+00   |Residual|: 1.950e+00   |deigs|: 7.923e-02  t[s]:    665.65
	FillingsUpdate:  mu: -0.189963123  nElectrons: 262.000000
SCF: Cycle:  2   F: -1003.849872891217274   dF: -5.992e+00   |Residual|: 3.115e-01   |deigs|: 6.706e-02  t[s]:    705.87
	FillingsUpdate:  mu: -0.172977482  nElectrons: 262.000000
SCF: Cycle:  3   F: -988.622175720823407   dF: +1.523e+01   |Residual|: 2.314e+00   |deigs|: 1.924e-02  t[s]:    746.33
	FillingsUpdate:  mu: -0.177734307  nElectrons: 262.000000
SCF: Cycle:  4   F: -1003.912818424353532   dF: -1.529e+01   |Residual|: 2.628e-01   |deigs|: 1.541e-02  t[s]:    786.97
	FillingsUpdate:  mu: -0.180098350  nElectrons: 262.000000
SCF: Cycle:  5   F: -1003.234890965758041   dF: +6.779e-01   |Residual|: 6.120e-01   |deigs|: 6.191e-03  t[s]:    827.71
	FillingsUpdate:  mu: -0.175782819  nElectrons: 262.000000
SCF: Cycle:  6   F: -1004.006384317166066   dF: -7.715e-01   |Residual|: 1.600e-01   |deigs|: 6.645e-03  t[s]:    868.54
	FillingsUpdate:  mu: -0.172021368  nElectrons: 262.000000
SCF: Cycle:  7   F: -1004.001029992163012   dF: +5.354e-03   |Residual|: 1.740e-01   |deigs|: 3.350e-03  t[s]:    909.15
	FillingsUpdate:  mu: -0.169092754  nElectrons: 262.000000
SCF: Cycle:  8   F: -1004.064516199835907   dF: -6.349e-02   |Residual|: 6.920e-02   |deigs|: 2.591e-03  t[s]:    949.99
	FillingsUpdate:  mu: -0.166645991  nElectrons: 262.000000
SCF: Cycle:  9   F: -1004.069295599972406   dF: -4.779e-03   |Residual|: 4.960e-02   |deigs|: 3.346e-03  t[s]:    989.59
	FillingsUpdate:  mu: -0.158517051  nElectrons: 262.000000
SCF: Cycle: 10   F: -1004.076866145993904   dF: -7.571e-03   |Residual|: 3.413e-02   |deigs|: 7.167e-03  t[s]:   1030.11
	FillingsUpdate:  mu: -0.154575377  nElectrons: 262.000000
SCF: Cycle: 11   F: -1004.079577296081879   dF: -2.711e-03   |Residual|: 1.515e-02   |deigs|: 4.109e-03  t[s]:   1069.75
	FillingsUpdate:  mu: -0.153833676  nElectrons: 262.000000
SCF: Cycle: 12   F: -1004.079720378370212   dF: -1.431e-04   |Residual|: 1.190e-02   |deigs|: 7.722e-04  t[s]:   1110.72
	FillingsUpdate:  mu: -0.148618416  nElectrons: 262.000000
SCF: Cycle: 13   F: -1004.079649345956796   dF: +7.103e-05   |Residual|: 1.092e-02   |deigs|: 5.121e-03  t[s]:   1151.80
	FillingsUpdate:  mu: -0.145415556  nElectrons: 262.000000
SCF: Cycle: 14   F: -1004.080001214382150   dF: -3.519e-04   |Residual|: 9.635e-03   |deigs|: 3.082e-03  t[s]:   1193.04
	FillingsUpdate:  mu: -0.143884742  nElectrons: 262.000000
SCF: Cycle: 15   F: -1004.080156657692783   dF: -1.554e-04   |Residual|: 3.712e-03   |deigs|: 1.665e-03  t[s]:   1233.55
	FillingsUpdate:  mu: -0.140301289  nElectrons: 262.000000
SCF: Cycle: 16   F: -1004.080167560976861   dF: -1.090e-05   |Residual|: 2.723e-03   |deigs|: 3.820e-03  t[s]:   1273.89
	FillingsUpdate:  mu: -0.137320139  nElectrons: 262.000000
SCF: Cycle: 17   F: -1004.080179506448985   dF: -1.195e-05   |Residual|: 4.150e-03   |deigs|: 2.978e-03  t[s]:   1315.35
	FillingsUpdate:  mu: -0.135650868  nElectrons: 262.000000
SCF: Cycle: 18   F: -1004.080224733718978   dF: -4.523e-05   |Residual|: 2.059e-03   |deigs|: 1.652e-03  t[s]:   1356.04
	FillingsUpdate:  mu: -0.134462100  nElectrons: 262.000000
SCF: Cycle: 19   F: -1004.080187320486289   dF: +3.741e-05   |Residual|: 4.876e-03   |deigs|: 1.178e-03  t[s]:   1396.33
	FillingsUpdate:  mu: -0.134206774  nElectrons: 262.000000
SCF: Cycle: 20   F: -1004.080226031376469   dF: -3.871e-05   |Residual|: 2.899e-03   |deigs|: 2.813e-04  t[s]:   1437.37
	FillingsUpdate:  mu: -0.133448724  nElectrons: 262.000000
SCF: Cycle: 21   F: -1004.080246268047063   dF: -2.024e-05   |Residual|: 9.591e-04   |deigs|: 8.083e-04  t[s]:   1477.80
	FillingsUpdate:  mu: -0.133284117  nElectrons: 262.000000
SCF: Cycle: 22   F: -1004.080249085847299   dF: -2.818e-06   |Residual|: 3.441e-04   |deigs|: 2.360e-04  t[s]:   1518.53
	FillingsUpdate:  mu: -0.133150692  nElectrons: 262.000000
SCF: Cycle: 23   F: -1004.080250288201000   dF: -1.202e-06   |Residual|: 2.257e-04   |deigs|: 2.563e-04  t[s]:   1559.44
	FillingsUpdate:  mu: -0.133139138  nElectrons: 262.000000
SCF: Cycle: 24   F: -1004.080251211915083   dF: -9.237e-07   |Residual|: 1.652e-04   |deigs|: 1.019e-04  t[s]:   1599.85
	FillingsUpdate:  mu: -0.133140467  nElectrons: 262.000000
SCF: Cycle: 25   F: -1004.080251962324496   dF: -7.504e-07   |Residual|: 1.103e-04   |deigs|: 3.593e-05  t[s]:   1640.74
	FillingsUpdate:  mu: -0.133142143  nElectrons: 262.000000
SCF: Cycle: 26   F: -1004.080252604962652   dF: -6.426e-07   |Residual|: 4.258e-05   |deigs|: 2.564e-05  t[s]:   1681.69
	FillingsUpdate:  mu: -0.133132110  nElectrons: 262.000000
SCF: Cycle: 27   F: -1004.080253138470425   dF: -5.335e-07   |Residual|: 4.413e-05   |deigs|: 3.890e-05  t[s]:   1721.75
	FillingsUpdate:  mu: -0.133123405  nElectrons: 262.000000
SCF: Cycle: 28   F: -1004.080253595926138   dF: -4.575e-07   |Residual|: 2.439e-05   |deigs|: 3.773e-05  t[s]:   1761.87
	FillingsUpdate:  mu: -0.133115709  nElectrons: 262.000000
SCF: Cycle: 29   F: -1004.080253984365072   dF: -3.884e-07   |Residual|: 1.317e-05   |deigs|: 1.820e-05  t[s]:   1801.99
	FillingsUpdate:  mu: -0.133116279  nElectrons: 262.000000
SCF: Cycle: 30   F: -1004.080254320185873   dF: -3.358e-07   |Residual|: 1.218e-05   |deigs|: 1.271e-05  t[s]:   1843.30
	FillingsUpdate:  mu: -0.133114014  nElectrons: 262.000000
SCF: Cycle: 31   F: -1004.080254601996330   dF: -2.818e-07   |Residual|: 2.451e-05   |deigs|: 8.382e-06  t[s]:   1884.11
	FillingsUpdate:  mu: -0.133114093  nElectrons: 262.000000
SCF: Cycle: 32   F: -1004.080254845156787   dF: -2.432e-07   |Residual|: 2.110e-05   |deigs|: 8.652e-06  t[s]:   1924.85
	FillingsUpdate:  mu: -0.133117778  nElectrons: 262.000000
SCF: Cycle: 33   F: -1004.080255053593987   dF: -2.084e-07   |Residual|: 3.335e-05   |deigs|: 1.278e-05  t[s]:   1966.36
	FillingsUpdate:  mu: -0.133117577  nElectrons: 262.000000
SCF: Cycle: 34   F: -1004.080255230737748   dF: -1.771e-07   |Residual|: 3.672e-05   |deigs|: 4.464e-06  t[s]:   2007.41
	FillingsUpdate:  mu: -0.133116816  nElectrons: 262.000000
SCF: Cycle: 35   F: -1004.080255383086978   dF: -1.523e-07   |Residual|: 5.048e-05   |deigs|: 5.418e-06  t[s]:   2048.09
	FillingsUpdate:  mu: -0.133116056  nElectrons: 262.000000
SCF: Cycle: 36   F: -1004.080255514700298   dF: -1.316e-07   |Residual|: 4.650e-05   |deigs|: 4.343e-06  t[s]:   2088.95
	FillingsUpdate:  mu: -0.133119237  nElectrons: 262.000000
SCF: Cycle: 37   F: -1004.080255626848384   dF: -1.121e-07   |Residual|: 3.820e-05   |deigs|: 1.332e-05  t[s]:   2129.46
	FillingsUpdate:  mu: -0.133120010  nElectrons: 262.000000
SCF: Cycle: 38   F: -1004.080255721226763   dF: -9.438e-08   |Residual|: 3.536e-05   |deigs|: 4.671e-06  t[s]:   2170.16
	FillingsUpdate:  mu: -0.133120531  nElectrons: 262.000000
SCF: Cycle: 39   F: -1004.080255804169497   dF: -8.294e-08   |Residual|: 3.311e-05   |deigs|: 6.948e-06  t[s]:   2230.64
	FillingsUpdate:  mu: -0.133122327  nElectrons: 262.000000
SCF: Cycle: 40   F: -1004.080255875310058   dF: -7.114e-08   |Residual|: 3.272e-05   |deigs|: 5.937e-06  t[s]:   2271.76
	FillingsUpdate:  mu: -0.133122934  nElectrons: 262.000000
SCF: Cycle: 41   F: -1004.080255934043976   dF: -5.873e-08   |Residual|: 2.790e-05   |deigs|: 4.598e-06  t[s]:   2313.12
	FillingsUpdate:  mu: -0.133123701  nElectrons: 262.000000
SCF: Cycle: 42   F: -1004.080255984029463   dF: -4.999e-08   |Residual|: 2.628e-05   |deigs|: 2.202e-06  t[s]:   2354.81
	FillingsUpdate:  mu: -0.133124647  nElectrons: 262.000000
SCF: Cycle: 43   F: -1004.080256026053462   dF: -4.202e-08   |Residual|: 3.242e-05   |deigs|: 2.916e-06  t[s]:   2396.14
	FillingsUpdate:  mu: -0.133125407  nElectrons: 262.000000
SCF: Cycle: 44   F: -1004.080256063065463   dF: -3.701e-08   |Residual|: 1.737e-05   |deigs|: 2.109e-06  t[s]:   2437.85
	FillingsUpdate:  mu: -0.133124056  nElectrons: 262.000000
SCF: Cycle: 45   F: -1004.080256093758862   dF: -3.069e-08   |Residual|: 1.098e-05   |deigs|: 2.874e-06  t[s]:   2479.01
	FillingsUpdate:  mu: -0.133124784  nElectrons: 262.000000
SCF: Cycle: 46   F: -1004.080256120272111   dF: -2.651e-08   |Residual|: 7.868e-06   |deigs|: 2.461e-06  t[s]:   2519.35
	FillingsUpdate:  mu: -0.133123786  nElectrons: 262.000000
SCF: Cycle: 47   F: -1004.080256143099405   dF: -2.283e-08   |Residual|: 2.935e-06   |deigs|: 3.032e-06  t[s]:   2559.41
	FillingsUpdate:  mu: -0.133123877  nElectrons: 262.000000
SCF: Cycle: 48   F: -1004.080256162814749   dF: -1.972e-08   |Residual|: 1.397e-06   |deigs|: 1.676e-06  t[s]:   2599.55
	FillingsUpdate:  mu: -0.133124411  nElectrons: 262.000000
SCF: Cycle: 49   F: -1004.080256179875391   dF: -1.706e-08   |Residual|: 2.099e-06   |deigs|: 3.680e-06  t[s]:   2639.17
	FillingsUpdate:  mu: -0.133124412  nElectrons: 262.000000
SCF: Cycle: 50   F: -1004.080256194337949   dF: -1.446e-08   |Residual|: 2.363e-06   |deigs|: 1.498e-06  t[s]:   2678.41
	FillingsUpdate:  mu: -0.133124882  nElectrons: 262.000000
SCF: Cycle: 51   F: -1004.080256206573040   dF: -1.224e-08   |Residual|: 1.999e-06   |deigs|: 2.757e-06  t[s]:   2718.87
	FillingsUpdate:  mu: -0.133125042  nElectrons: 262.000000
SCF: Cycle: 52   F: -1004.080256217100214   dF: -1.053e-08   |Residual|: 1.094e-06   |deigs|: 2.411e-06  t[s]:   2759.49
	FillingsUpdate:  mu: -0.133125354  nElectrons: 262.000000
SCF: Cycle: 53   F: -1004.080256226097617   dF: -8.997e-09   |Residual|: 9.642e-07   |deigs|: 2.811e-06  t[s]:   2799.79
	FillingsUpdate:  mu: -0.133125643  nElectrons: 262.000000
SCF: Cycle: 54   F: -1004.080256233766249   dF: -7.669e-09   |Residual|: 8.268e-07   |deigs|: 2.235e-06  t[s]:   2839.59
SCF: Converged (|Delta E|<1.000000e-08 for 2 iters).

Vacuum energy after initial minimize, F = -1004.080256233766249

	FillingsUpdate:  mu: -0.133125643  nElectrons: 262.000000
	Linear fluid (dielectric constant: 78.4, screening length: 5.74355 Bohr) occupying 0.756757 of unit cell:	Completed after 21 iterations at t[s]:   2847.42

-------- Electronic minimization -----------
Will mix electronic density at each iteration.
	FillingsUpdate:  mu: -0.133125643  nElectrons: 262.000000
	Linear fluid (dielectric constant: 78.4, screening length: 5.74355 Bohr) occupying 0.756757 of unit cell:	Completed after 0 iterations at t[s]:   2853.44
	FillingsUpdate:  mu: -0.200453894  nElectrons: 262.000000
	Linear fluid (dielectric constant: 78.4, screening length: 5.74355 Bohr) occupying 0.757281 of unit cell:	Completed after 16 iterations at t[s]:   2902.56
SCF: Cycle:  0   F: -1004.067412243424542   dF: +2.533e-04   |Residual|: 1.081e-02   |deigs|: 8.285e-05  t[s]:   2903.66
	Linear fluid (dielectric constant: 78.4, screening length: 5.74355 Bohr) occupying 0.756733 of unit cell:	Completed after 16 iterations at t[s]:   2905.45
	FillingsUpdate:  mu: -0.199761424  nElectrons: 262.000000
	Linear fluid (dielectric constant: 78.4, screening length: 5.74355 Bohr) occupying 0.757259 of unit cell:	Completed after 15 iterations at t[s]:   2948.58
SCF: Cycle:  1   F: -1004.060679194336672   dF: +6.733e-03   |Residual|: 5.831e-02   |deigs|: 8.135e-04  t[s]:   2949.58
	Linear fluid (dielectric constant: 78.4, screening length: 5.74355 Bohr) occupying 0.756739 of unit cell:	Completed after 16 iterations at t[s]:   2951.38
	FillingsUpdate:  mu: -0.199898989  nElectrons: 262.000000
	Linear fluid (dielectric constant: 78.4, screening length: 5.74355 Bohr) occupying 0.757261 of unit cell:	Completed after 14 iterations at t[s]:   2993.60
SCF: Cycle:  2   F: -1004.067647375074330   dF: -6.968e-03   |Residual|: 1.135e-02   |deigs|: 6.067e-04  t[s]:   2994.70
	Linear fluid (dielectric constant: 78.4, screening length: 5.74355 Bohr) occupying 0.756755 of unit cell:	Completed after 14 iterations at t[s]:   2996.38
	FillingsUpdate:  mu: -0.200206716  nElectrons: 262.000000
	Linear fluid (dielectric constant: 78.4, screening length: 5.74355 Bohr) occupying 0.757265 of unit cell:	Completed after 14 iterations at t[s]:   3039.17
SCF: Cycle:  3   F: -1004.067147615804856   dF: +4.998e-04   |Residual|: 1.873e-02   |deigs|: 3.670e-04  t[s]:   3040.29
	Linear fluid (dielectric constant: 78.4, screening length: 5.74355 Bohr) occupying 0.756770 of unit cell:	Completed after 14 iterations at t[s]:   3042.00
	FillingsUpdate:  mu: -0.200063302  nElectrons: 262.000000
	Linear fluid (dielectric constant: 78.4, screening length: 5.74355 Bohr) occupying 0.757260 of unit cell:	Completed after 14 iterations at t[s]:   3084.39
SCF: Cycle:  4   F: -1004.067530900303836   dF: -3.833e-04   |Residual|: 1.370e-02   |deigs|: 3.168e-04  t[s]:   3085.65
	Linear fluid (dielectric constant: 78.4, screening length: 5.74355 Bohr) occupying 0.756781 of unit cell:	Completed after 14 iterations at t[s]:   3087.33
	FillingsUpdate:  mu: -0.199828311  nElectrons: 262.000000
	Linear fluid (dielectric constant: 78.4, screening length: 5.74355 Bohr) occupying 0.757252 of unit cell:	Completed after 11 iterations at t[s]:   3129.30
SCF: Cycle:  5   F: -1004.067932291701482   dF: -4.014e-04   |Residual|: 1.811e-03   |deigs|: 2.491e-04  t[s]:   3130.51
	Linear fluid (dielectric constant: 78.4, screening length: 5.74355 Bohr) occupying 0.756830 of unit cell:	Completed after 10 iterations at t[s]:   3131.93
	FillingsUpdate:  mu: -0.199674196  nElectrons: 262.000000
	Linear fluid (dielectric constant: 78.4, screening length: 5.74355 Bohr) occupying 0.757246 of unit cell:	Completed after 12 iterations at t[s]:   3174.39
SCF: Cycle:  6   F: -1004.067813847913499   dF: +1.184e-04   |Residual|: 7.587e-03   |deigs|: 1.585e-04  t[s]:   3175.41
	Linear fluid (dielectric constant: 78.4, screening length: 5.74355 Bohr) occupying 0.756879 of unit cell:	Completed after 12 iterations at t[s]:   3176.95
	FillingsUpdate:  mu: -0.199597985  nElectrons: 262.000000
	Linear fluid (dielectric constant: 78.4, screening length: 5.74355 Bohr) occupying 0.757243 of unit cell:	Completed after 10 iterations at t[s]:   3219.58
SCF: Cycle:  7   F: -1004.067939801520538   dF: -1.260e-04   |Residual|: 8.348e-04   |deigs|: 1.235e-04  t[s]:   3220.60
	Linear fluid (dielectric constant: 78.4, screening length: 5.74355 Bohr) occupying 0.756985 of unit cell:	Completed after 9 iterations at t[s]:   3221.88
	FillingsUpdate:  mu: -0.199465112  nElectrons: 262.000000
	Linear fluid (dielectric constant: 78.4, screening length: 5.74355 Bohr) occupying 0.757240 of unit cell:	Completed after 10 iterations at t[s]:   3264.15
SCF: Cycle:  8   F: -1004.067940205661444   dF: -4.041e-07   |Residual|: 7.865e-04   |deigs|: 1.320e-04  t[s]:   3265.48
	Linear fluid (dielectric constant: 78.4, screening length: 5.74355 Bohr) occupying 0.757081 of unit cell:	Completed after 8 iterations at t[s]:   3266.80
	FillingsUpdate:  mu: -0.199355050  nElectrons: 262.000000
	Linear fluid (dielectric constant: 78.4, screening length: 5.74355 Bohr) occupying 0.757237 of unit cell:	Completed after 8 iterations at t[s]:   3308.92
SCF: Cycle:  9   F: -1004.067941097656103   dF: -8.920e-07   |Residual|: 6.391e-04   |deigs|: 1.058e-04  t[s]:   3310.00
	Linear fluid (dielectric constant: 78.4, screening length: 5.74355 Bohr) occupying 0.757182 of unit cell:	Completed after 4 iterations at t[s]:   3310.90
	FillingsUpdate:  mu: -0.199259408  nElectrons: 262.000000
	Linear fluid (dielectric constant: 78.4, screening length: 5.74355 Bohr) occupying 0.757235 of unit cell:	Completed after 5 iterations at t[s]:   3352.73
SCF: Cycle: 10   F: -1004.067937989525376   dF: +3.108e-06   |Residual|: 1.237e-03   |deigs|: 9.545e-05  t[s]:   3353.75
	Linear fluid (dielectric constant: 78.4, screening length: 5.74355 Bohr) occupying 0.757212 of unit cell:	Completed after 4 iterations at t[s]:   3354.67
	FillingsUpdate:  mu: -0.199267658  nElectrons: 262.000000
	Linear fluid (dielectric constant: 78.4, screening length: 5.74355 Bohr) occupying 0.757237 of unit cell:	Completed after 4 iterations at t[s]:   3396.22
SCF: Cycle: 11   F: -1004.067941868181151   dF: -3.879e-06   |Residual|: 5.695e-04   |deigs|: 1.931e-05  t[s]:   3397.41
	Linear fluid (dielectric constant: 78.4, screening length: 5.74355 Bohr) occupying 0.757292 of unit cell:	Completed after 3 iterations at t[s]:   3398.25
	FillingsUpdate:  mu: -0.199252737  nElectrons: 262.000000
	Linear fluid (dielectric constant: 78.4, screening length: 5.74355 Bohr) occupying 0.757240 of unit cell:	Completed after 4 iterations at t[s]:   3439.18
SCF: Cycle: 12   F: -1004.067934782045199   dF: +7.086e-06   |Residual|: 1.888e-03   |deigs|: 7.650e-05  t[s]:   3440.13
	Linear fluid (dielectric constant: 78.4, screening length: 5.74355 Bohr) occupying 0.757302 of unit cell:	Completed after 3 iterations at t[s]:   3440.93
	FillingsUpdate:  mu: -0.199234266  nElectrons: 262.000000
	Linear fluid (dielectric constant: 78.4, screening length: 5.74355 Bohr) occupying 0.757239 of unit cell:	Completed after 5 iterations at t[s]:   3481.22
SCF: Cycle: 13   F: -1004.067941348468366   dF: -6.566e-06   |Residual|: 4.229e-04   |deigs|: 2.907e-05  t[s]:   3482.40
	Linear fluid (dielectric constant: 78.4, screening length: 5.74355 Bohr) occupying 0.757299 of unit cell:	Completed after 3 iterations at t[s]:   3483.21
	FillingsUpdate:  mu: -0.199235799  nElectrons: 262.000000
	Linear fluid (dielectric constant: 78.4, screening length: 5.74355 Bohr) occupying 0.757238 of unit cell:	Completed after 3 iterations at t[s]:   3524.32
SCF: Cycle: 14   F: -1004.067941886240419   dF: -5.378e-07   |Residual|: 4.705e-04   |deigs|: 2.369e-05  t[s]:   3525.52
	Linear fluid (dielectric constant: 78.4, screening length: 5.74355 Bohr) occupying 0.757321 of unit cell:	Completed after 3 iterations at t[s]:   3526.40
	FillingsUpdate:  mu: -0.199229474  nElectrons: 262.000000
	Linear fluid (dielectric constant: 78.4, screening length: 5.74355 Bohr) occupying 0.757239 of unit cell:	Completed after 3 iterations at t[s]:   3568.15
SCF: Cycle: 15   F: -1004.067942104179224   dF: -2.179e-07   |Residual|: 4.699e-04   |deigs|: 6.337e-05  t[s]:   3569.27
	Linear fluid (dielectric constant: 78.4, screening length: 5.74355 Bohr) occupying 0.757313 of unit cell:	Completed after 3 iterations at t[s]:   3570.09
	FillingsUpdate:  mu: -0.199243647  nElectrons: 262.000000
	Linear fluid (dielectric constant: 78.4, screening length: 5.74355 Bohr) occupying 0.757239 of unit cell:	Completed after 4 iterations at t[s]:   3612.12
SCF: Cycle: 16   F: -1004.067938340345904   dF: +3.764e-06   |Residual|: 1.273e-03   |deigs|: 2.286e-05  t[s]:   3613.25
	Linear fluid (dielectric constant: 78.4, screening length: 5.74355 Bohr) occupying 0.757295 of unit cell:	Completed after 3 iterations at t[s]:   3614.09
	FillingsUpdate:  mu: -0.199227376  nElectrons: 262.000000
	Linear fluid (dielectric constant: 78.4, screening length: 5.74355 Bohr) occupying 0.757236 of unit cell:	Completed after 3 iterations at t[s]:   3654.94
SCF: Cycle: 17   F: -1004.067939887270654   dF: -1.547e-06   |Residual|: 9.364e-04   |deigs|: 5.766e-05  t[s]:   3656.16
	Linear fluid (dielectric constant: 78.4, screening length: 5.74355 Bohr) occupying 0.757299 of unit cell:	Completed after 3 iterations at t[s]:   3656.98
	FillingsUpdate:  mu: -0.199224941  nElectrons: 262.000000
	Linear fluid (dielectric constant: 78.4, screening length: 5.74355 Bohr) occupying 0.757237 of unit cell:	Completed after 3 iterations at t[s]:   3698.45
SCF: Cycle: 18   F: -1004.067941579975582   dF: -1.693e-06   |Residual|: 6.371e-04   |deigs|: 1.660e-05  t[s]:   3699.53
	Linear fluid (dielectric constant: 78.4, screening length: 5.74355 Bohr) occupying 0.757279 of unit cell:	Completed after 3 iterations at t[s]:   3700.35
	FillingsUpdate:  mu: -0.199232461  nElectrons: 262.000000
	Linear fluid (dielectric constant: 78.4, screening length: 5.74355 Bohr) occupying 0.757236 of unit cell:	Completed after 3 iterations at t[s]:   3742.17
SCF: Cycle: 19   F: -1004.067940049980621   dF: +1.530e-06   |Residual|: 1.021e-03   |deigs|: 5.622e-05  t[s]:   3743.17
	Linear fluid (dielectric constant: 78.4, screening length: 5.74355 Bohr) occupying 0.757255 of unit cell:	Completed after 4 iterations at t[s]:   3744.06
	FillingsUpdate:  mu: -0.199241869  nElectrons: 262.000000
	Linear fluid (dielectric constant: 78.4, screening length: 5.74355 Bohr) occupying 0.757235 of unit cell:	Completed after 2 iterations at t[s]:   3784.48
SCF: Cycle: 20   F: -1004.067942375545158   dF: -2.326e-06   |Residual|: 3.551e-04   |deigs|: 5.387e-05  t[s]:   3785.55
	Linear fluid (dielectric constant: 78.4, screening length: 5.74355 Bohr) occupying 0.757270 of unit cell:	Completed after 2 iterations at t[s]:   3786.27
	FillingsUpdate:  mu: -0.199245579  nElectrons: 262.000000
	Linear fluid (dielectric constant: 78.4, screening length: 5.74355 Bohr) occupying 0.757236 of unit cell:	Completed after 3 iterations at t[s]:   3826.28
SCF: Cycle: 21   F: -1004.067941746625934   dF: +6.289e-07   |Residual|: 6.061e-04   |deigs|: 1.717e-05  t[s]:   3827.40
	Linear fluid (dielectric constant: 78.4, screening length: 5.74355 Bohr) occupying 0.757242 of unit cell:	Completed after 3 iterations at t[s]:   3828.21
	FillingsUpdate:  mu: -0.199250030  nElectrons: 262.000000
	Linear fluid (dielectric constant: 78.4, screening length: 5.74355 Bohr) occupying 0.757234 of unit cell:	Completed after 4 iterations at t[s]:   3868.99
SCF: Cycle: 22   F: -1004.067940525323479   dF: +1.221e-06   |Residual|: 8.203e-04   |deigs|: 6.891e-05  t[s]:   3870.15
	Linear fluid (dielectric constant: 78.4, screening length: 5.74355 Bohr) occupying 0.757244 of unit cell:	Completed after 3 iterations at t[s]:   3870.93
	FillingsUpdate:  mu: -0.199236932  nElectrons: 262.000000
	Linear fluid (dielectric constant: 78.4, screening length: 5.74355 Bohr) occupying 0.757233 of unit cell:	Completed after 3 iterations at t[s]:   3912.36
SCF: Cycle: 23   F: -1004.067942345596862   dF: -1.820e-06   |Residual|: 4.148e-04   |deigs|: 3.215e-05  t[s]:   3913.39
	Linear fluid (dielectric constant: 78.4, screening length: 5.74355 Bohr) occupying 0.757238 of unit cell:	Completed after 2 iterations at t[s]:   3914.08
	FillingsUpdate:  mu: -0.199237259  nElectrons: 262.000000
	Linear fluid (dielectric constant: 78.4, screening length: 5.74355 Bohr) occupying 0.757233 of unit cell:	Completed after 1 iterations at t[s]:   3954.74
SCF: Cycle: 24   F: -1004.067942735364227   dF: -3.898e-07   |Residual|: 1.409e-04   |deigs|: 3.819e-05  t[s]:   3955.99
	Linear fluid (dielectric constant: 78.4, screening length: 5.74355 Bohr) occupying 0.757233 of unit cell:	Completed after 0 iterations at t[s]:   3956.49
	FillingsUpdate:  mu: -0.199243149  nElectrons: 262.000000
	Linear fluid (dielectric constant: 78.4, screening length: 5.74355 Bohr) occupying 0.757233 of unit cell:	Completed after 4 iterations at t[s]:   3997.82
SCF: Cycle: 25   F: -1004.067934892516519   dF: +7.843e-06   |Residual|: 1.720e-03   |deigs|: 6.164e-05  t[s]:   3998.80
	Linear fluid (dielectric constant: 78.4, screening length: 5.74355 Bohr) occupying 0.757228 of unit cell:	Completed after 3 iterations at t[s]:   3999.56
	FillingsUpdate:  mu: -0.199240927  nElectrons: 262.000000
	Linear fluid (dielectric constant: 78.4, screening length: 5.74355 Bohr) occupying 0.757232 of unit cell:	Completed after 3 iterations at t[s]:   4039.19
SCF: Cycle: 26   F: -1004.067939483632017   dF: -4.591e-06   |Residual|: 9.005e-04   |deigs|: 3.526e-05  t[s]:   4040.29
	Linear fluid (dielectric constant: 78.4, screening length: 5.74355 Bohr) occupying 0.757229 of unit cell:	Completed after 4 iterations at t[s]:   4041.22
	FillingsUpdate:  mu: -0.199243829  nElectrons: 262.000000
	Linear fluid (dielectric constant: 78.4, screening length: 5.74355 Bohr) occupying 0.757232 of unit cell:	Completed after 2 iterations at t[s]:   4082.07
SCF: Cycle: 27   F: -1004.067941975685244   dF: -2.492e-06   |Residual|: 6.441e-04   |deigs|: 9.371e-06  t[s]:   4083.15
	Linear fluid (dielectric constant: 78.4, screening length: 5.74355 Bohr) occupying 0.757228 of unit cell:	Completed after 3 iterations at t[s]:   4083.98
	FillingsUpdate:  mu: -0.199242389  nElectrons: 262.000000
	Linear fluid (dielectric constant: 78.4, screening length: 5.74355 Bohr) occupying 0.757232 of unit cell:	Completed after 2 iterations at t[s]:   4123.22
SCF: Cycle: 28   F: -1004.067942442400749   dF: -4.667e-07   |Residual|: 4.133e-04   |deigs|: 1.759e-05  t[s]:   4124.27
	Linear fluid (dielectric constant: 78.4, screening length: 5.74355 Bohr) occupying 0.757225 of unit cell:	Completed after 3 iterations at t[s]:   4125.06
	FillingsUpdate:  mu: -0.199242157  nElectrons: 262.000000
	Linear fluid (dielectric constant: 78.4, screening length: 5.74355 Bohr) occupying 0.757232 of unit cell:	Completed after 2 iterations at t[s]:   4165.43
SCF: Cycle: 29   F: -1004.067942300620189   dF: +1.418e-07   |Residual|: 4.797e-04   |deigs|: 5.566e-05  t[s]:   4166.65
	Linear fluid (dielectric constant: 78.4, screening length: 5.74355 Bohr) occupying 0.757222 of unit cell:	Completed after 3 iterations at t[s]:   4167.51
	FillingsUpdate:  mu: -0.199243043  nElectrons: 262.000000
	Linear fluid (dielectric constant: 78.4, screening length: 5.74355 Bohr) occupying 0.757232 of unit cell:	Completed after 2 iterations at t[s]:   4207.53
SCF: Cycle: 30   F: -1004.067942291836061   dF: +8.784e-09   |Residual|: 4.915e-04   |deigs|: 3.980e-06  t[s]:   4208.60
	Linear fluid (dielectric constant: 78.4, screening length: 5.74355 Bohr) occupying 0.757225 of unit cell:	Completed after 3 iterations at t[s]:   4209.40
	FillingsUpdate:  mu: -0.199242533  nElectrons: 262.000000
	Linear fluid (dielectric constant: 78.4, screening length: 5.74355 Bohr) occupying 0.757232 of unit cell:	Completed after 2 iterations at t[s]:   4250.30
SCF: Cycle: 31   F: -1004.067942450237979   dF: -1.584e-07   |Residual|: 4.027e-04   |deigs|: 7.663e-06  t[s]:   4251.34
	Linear fluid (dielectric constant: 78.4, screening length: 5.74355 Bohr) occupying 0.757226 of unit cell:	Completed after 3 iterations at t[s]:   4252.14
	FillingsUpdate:  mu: -0.199242408  nElectrons: 262.000000
	Linear fluid (dielectric constant: 78.4, screening length: 5.74355 Bohr) occupying 0.757232 of unit cell:	Completed after 2 iterations at t[s]:   4292.79
SCF: Cycle: 32   F: -1004.067942433350709   dF: +1.689e-08   |Residual|: 4.029e-04   |deigs|: 2.482e-06  t[s]:   4293.90
	Linear fluid (dielectric constant: 78.4, screening length: 5.74355 Bohr) occupying 0.757227 of unit cell:	Completed after 3 iterations at t[s]:   4294.75
	FillingsUpdate:  mu: -0.199242009  nElectrons: 262.000000
	Linear fluid (dielectric constant: 78.4, screening length: 5.74355 Bohr) occupying 0.757232 of unit cell:	Completed after 2 iterations at t[s]:   4360.44
SCF: Cycle: 33   F: -1004.067942560382448   dF: -1.270e-07   |Residual|: 3.249e-04   |deigs|: 2.740e-05  t[s]:   4361.49
	Linear fluid (dielectric constant: 78.4, screening length: 5.74355 Bohr) occupying 0.757230 of unit cell:	Completed after 3 iterations at t[s]:   4362.86
	FillingsUpdate:  mu: -0.199241946  nElectrons: 262.000000
	Linear fluid (dielectric constant: 78.4, screening length: 5.74355 Bohr) occupying 0.757232 of unit cell:	Completed after 2 iterations at t[s]:   4404.59
SCF: Cycle: 34   F: -1004.067942706771646   dF: -1.464e-07   |Residual|: 1.966e-04   |deigs|: 7.107e-06  t[s]:   4405.78
	Linear fluid (dielectric constant: 78.4, screening length: 5.74355 Bohr) occupying 0.757232 of unit cell:	Completed after 2 iterations at t[s]:   4406.50
	FillingsUpdate:  mu: -0.199238289  nElectrons: 262.000000
	Linear fluid (dielectric constant: 78.4, screening length: 5.74355 Bohr) occupying 0.757232 of unit cell:	Completed after 3 iterations at t[s]:   4448.14
SCF: Cycle: 35   F: -1004.067938690754204   dF: +4.016e-06   |Residual|: 1.268e-03   |deigs|: 1.664e-05  t[s]:   4449.18
	Linear fluid (dielectric constant: 78.4, screening length: 5.74355 Bohr) occupying 0.757231 of unit cell:	Completed after 3 iterations at t[s]:   4450.00
	FillingsUpdate:  mu: -0.199241726  nElectrons: 262.000000
	Linear fluid (dielectric constant: 78.4, screening length: 5.74355 Bohr) occupying 0.757232 of unit cell:	Completed after 3 iterations at t[s]:   4489.64
SCF: Cycle: 36   F: -1004.067941089263172   dF: -2.399e-06   |Residual|: 6.031e-04   |deigs|: 1.995e-05  t[s]:   4490.83
	Linear fluid (dielectric constant: 78.4, screening length: 5.74355 Bohr) occupying 0.757230 of unit cell:	Completed after 3 iterations at t[s]:   4491.64
	FillingsUpdate:  mu: -0.199238077  nElectrons: 262.000000
	Linear fluid (dielectric constant: 78.4, screening length: 5.74355 Bohr) occupying 0.757232 of unit cell:	Completed after 2 iterations at t[s]:   4532.09
SCF: Cycle: 37   F: -1004.067942510108423   dF: -1.421e-06   |Residual|: 3.794e-04   |deigs|: 1.149e-05  t[s]:   4533.06
	Linear fluid (dielectric constant: 78.4, screening length: 5.74355 Bohr) occupying 0.757230 of unit cell:	Completed after 3 iterations at t[s]:   4533.89
	FillingsUpdate:  mu: -0.199242860  nElectrons: 262.000000
	Linear fluid (dielectric constant: 78.4, screening length: 5.74355 Bohr) occupying 0.757232 of unit cell:	Completed after 1 iterations at t[s]:   4573.59
SCF: Cycle: 38   F: -1004.067942742745913   dF: -2.326e-07   |Residual|: 1.660e-04   |deigs|: 7.090e-06  t[s]:   4574.70
	Linear fluid (dielectric constant: 78.4, screening length: 5.74355 Bohr) occupying 0.757231 of unit cell:	Completed after 1 iterations at t[s]:   4575.40
	FillingsUpdate:  mu: -0.199239761  nElectrons: 262.000000
	Linear fluid (dielectric constant: 78.4, screening length: 5.74355 Bohr) occupying 0.757232 of unit cell:	Completed after 6 iterations at t[s]:   4617.62
SCF: Cycle: 39   F: -1004.067930141362467   dF: +1.260e-05   |Residual|: 2.181e-03   |deigs|: 2.528e-05  t[s]:   4618.89
	Linear fluid (dielectric constant: 78.4, screening length: 5.74355 Bohr) occupying 0.757230 of unit cell:	Completed after 2 iterations at t[s]:   4619.64
	FillingsUpdate:  mu: -0.199245149  nElectrons: 262.000000
	Linear fluid (dielectric constant: 78.4, screening length: 5.74355 Bohr) occupying 0.757232 of unit cell:	Completed after 6 iterations at t[s]:   4660.26
SCF: Cycle: 40   F: -1004.067939361036451   dF: -9.220e-06   |Residual|: 6.803e-04   |deigs|: 3.042e-05  t[s]:   4661.50
	Linear fluid (dielectric constant: 78.4, screening length: 5.74355 Bohr) occupying 0.757230 of unit cell:	Completed after 4 iterations at t[s]:   4662.46
	FillingsUpdate:  mu: -0.199239872  nElectrons: 262.000000
	Linear fluid (dielectric constant: 78.4, screening length: 5.74355 Bohr) occupying 0.757232 of unit cell:	Completed after 2 iterations at t[s]:   4702.52
SCF: Cycle: 41   F: -1004.067940740922836   dF: -1.380e-06   |Residual|: 9.446e-04   |deigs|: 1.412e-05  t[s]:   4703.62
	Linear fluid (dielectric constant: 78.4, screening length: 5.74355 Bohr) occupying 0.757230 of unit cell:	Completed after 3 iterations at t[s]:   4704.42
	FillingsUpdate:  mu: -0.199243809  nElectrons: 262.000000
	Linear fluid (dielectric constant: 78.4, screening length: 5.74355 Bohr) occupying 0.757232 of unit cell:	Completed after 0 iterations at t[s]:   4744.83
SCF: Cycle: 42   F: -1004.067942820935855   dF: -2.080e-06   |Residual|: 1.497e-04   |deigs|: 1.052e-05  t[s]:   4745.89
	Linear fluid (dielectric constant: 78.4, screening length: 5.74355 Bohr) occupying 0.757230 of unit cell:	Completed after 0 iterations at t[s]:   4746.36
	FillingsUpdate:  mu: -0.199243810  nElectrons: 262.000000
	Linear fluid (dielectric constant: 78.4, screening length: 5.74355 Bohr) occupying 0.757232 of unit cell:	Completed after 0 iterations at t[s]:   4780.06
SCF: Cycle: 43   F: -1004.067942821407769   dF: -4.719e-10   |Residual|: 1.467e-04   |deigs|: 1.080e-06  t[s]:   4781.11
	Linear fluid (dielectric constant: 78.4, screening length: 5.74355 Bohr) occupying 0.757230 of unit cell:	Completed after 0 iterations at t[s]:   4781.58
	FillingsUpdate:  mu: -0.199243812  nElectrons: 262.000000
	Linear fluid (dielectric constant: 78.4, screening length: 5.74355 Bohr) occupying 0.757232 of unit cell:	Completed after 0 iterations at t[s]:   4821.00
SCF: Cycle: 44   F: -1004.067942821517704   dF: -1.099e-10   |Residual|: 1.466e-04   |deigs|: 5.674e-07  t[s]:   4822.05
SCF: Converged (|Delta E|<1.000000e-08 for 2 iters).

Single-point solvation energy estimate, DeltaF = +0.012313412248545

# Ionic positions in lattice coordinates:
ion Li   0.328087908673709   0.328238393524093   0.496679362007931 0
ion Li   0.833787379915045   0.334561035070424   0.500255731809158 0
ion Li   0.332936331005182   0.835299670870813   0.501166901495502 0
ion Li   0.834672989301240   0.836017085684041   0.493705813032318 0
ion Ni   0.160608658971037   0.167970311066617   0.497123905829785 0
ion Ni   0.677562024623841   0.144615321295242   0.489750310430481 0
ion Ni   0.170726717635757   0.667486381780888   0.502503228204713 0
ion Ni   0.669262764859861   0.666569079146050   0.503972318460457 0
ion P   0.499160517241644   0.495581076113711   0.580972296402753 0
ion P   0.002212804077982   0.500317535234672   0.442177202749780 0
ion P   0.000609628532331   0.500045493125138   0.562500105852589 0
ion P   0.503401984753853   0.493466177359525   0.460472663951979 0
ion P   0.495923034575188   0.003677613780253   0.557345985020529 0
ion P   0.005693719622795   0.996039594043345   0.430678717424397 0
ion P   0.995401632176709   0.000455846154232   0.550900134919594 0
ion P   0.500339294894630   0.996439043583194   0.437311547529180 0
ion S   0.007552177976791   0.327740063246201   0.588727621594193 0
ion S   0.317396115796724   0.163352416331323   0.583536062163311 0
ion S   0.013432101783751   0.164618298517614   0.409457049697186 0
ion S   0.159823987759906   0.321822738432834   0.412950068904550 0
ion S   0.326230656979590   0.013598968564934   0.406713249049454 0
ion S   0.152963200816951   0.021044010946093   0.582330855987747 0
ion S   0.813474209619453   0.160800837671300   0.575261868515313 0
ion S   0.519841645294987   0.159204124293471   0.413410885735197 0
ion S   0.658031780443843   0.322127377835113   0.421577411114875 0
ion S   0.836176471660172   0.004680722501950   0.397359667518738 0
ion S   0.651570710946397   0.032820970410785   0.582966415681015 0
ion S   0.011335199526946   0.824662495453777   0.581094404235429 0
ion S   0.317310353419697   0.675224632710858   0.588190746015649 0
ion S   0.022751785614081   0.658134382533860   0.413860168778894 0
ion S   0.173216326424552   0.822397369048725   0.409819189669278 0
ion S   0.326084964240760   0.513568042665301   0.425217841517431 0
ion S   0.162043131861138   0.513371712227338   0.591622424321327 0
ion S   0.515837204779521   0.826715385464461   0.588536620202764 0
ion S   0.823446847785091   0.668722000458177   0.585077048298089 0
ion S   0.519290125943521   0.655260386230769   0.426172256546562 0
ion S   0.664601555203895   0.819613249443950   0.413801419668328 0
ion S   0.822640473805216   0.516586076027889   0.416836720898180 0
ion S   0.660891101456193   0.523585148151105   0.590743776765349 0


# Forces in Lattice coordinates:
force Li  -0.014036892089572  -0.009242027178320  -0.009237774833581 0
force Li  -0.004869775310331   0.005590182501003   0.004617290409079 0
force Li   0.002023301334108  -0.002028544727646   0.005585178849175 0
force Li  -0.000346894085864   0.011500724145287   0.006285904994527 0
force Ni   0.002196356148192   0.005201651601660   0.003719068710356 0
force Ni   0.005575783614312  -0.009867948002660  -0.004527246778122 0
force Ni  -0.008850805245038   0.002916709639345   0.026610141603571 0
force Ni  -0.006769624669940   0.004262622866750  -0.020354206156452 0
force P  -0.032855097613647  -0.063903332800221   0.026575051518626 0
force P  -0.040147209427458  -0.027880572905439   0.027901219372871 0
force P  -0.029853510251690   0.045496963511607  -0.049476971752231 0
force P   0.001543672365408   0.041598087313534   0.029801521393994 0
force P  -0.000158631681345  -0.033532681288071  -0.029065066169045 0
force P  -0.025958563485926   0.009374897572050   0.046131405258807 0
force P  -0.012536589789974   0.003322458274916  -0.014007922936384 0
force P   0.078440626755820   0.057070636506947   0.054420267523292 0
force S  -0.000046423481554  -0.065422533539718  -0.021402088072969 0
force S  -0.043670552874719   0.025060545458435  -0.017845143846844 0
force S   0.041384728846031   0.040949898865115   0.016164367559846 0
force S   0.028111511437692  -0.030339739185709   0.012687968981830 0
force S  -0.095431874624041  -0.025075571786964   0.019085281494775 0
force S   0.049667275676143   0.035454326876832  -0.015350769121584 0
force S   0.002040623940915   0.014070716046901   0.001123008857311 0
force S   0.001208592846091   0.027460808734090  -0.027623753594136 0
force S   0.037260591073181  -0.023986765411068  -0.025668879914361 0
force S  -0.030400196608054  -0.010946413247829  -0.020724912150458 0
force S   0.023965951714779   0.007305983750042   0.014960507224964 0
force S  -0.019516935335675  -0.032555490498542   0.002769430774291 0
force S  -0.013330835672945   0.019298867393674  -0.020726726900250 0
force S   0.021996745842485   0.041907166122011   0.008198152769090 0
force S   0.010929053822795  -0.066603722308094   0.027527599288392 0
force S  -0.029186827485413  -0.026707773683791  -0.011811347113108 0
force S   0.087952120320090   0.060300932863797  -0.017838628237916 0
force S  -0.015025001988546  -0.020709875356375   0.009569951495635 0
force S   0.002169252253818  -0.002233996577691   0.025170456988779 0
force S  -0.008532030545434   0.001479135377662  -0.034701677724180 0
force S   0.001489909693671  -0.017541281764375  -0.021247052490855 0
force S  -0.006494609575829  -0.010777652561860  -0.012169108674135 0
force S   0.038221002140198   0.018869383714903   0.020301259573487 0

# Energy components:
   A_diel =        0.0119686437231856
   Eewald =     3981.0634467963859606
       EH =     4843.1787486579059987
     Eloc =   -10034.5138297435332788
      Enl =      146.0397020413785469
      Exc =     -198.8601143146482571
 Exc_core =       51.2007886332376572
       KE =      207.8501020233372003
-------------------------------------
     Etot =    -1004.0291872622118490
       TS =        0.0387555593058979
-------------------------------------
        F =    -1004.0679428215177040

IonicMinimize: Iter:   0  F: -1004.067942821517704  |grad|_K:  0.000e+00  t[s]:   4828.69
IonicMinimize: Converged (|grad|_K<1.000000e-04).

#--- Lowdin population analysis ---
# oxidation-state Li -0.380 -0.482 -0.497 -0.464
# oxidation-state Ni -0.347 -0.408 -0.376 -0.422
# oxidation-state P +0.366 +0.735 +0.750 +0.757 +0.730 +0.760 +0.738 +0.742
# oxidation-state S -0.005 +0.022 +0.025 +0.042 -0.019 +0.046 +0.071 +0.090 +0.042 -0.023 +0.060 +0.056 +0.038 +0.025 -0.013 +0.070 -0.021 +0.027 +0.042 +0.056 +0.017 +0.037 +0.063


Dumping 'NbTe2.fillings' ... done
Dumping 'NbTe2.wfns' ... done
Dumping 'NbTe2.fluidState' ... done
Dumping 'NbTe2.eigenvals' ... done
End date and time: Wed Jul  8 07:12:19 2020  (Duration: 0-1:20:32.13)
Done!
