
*************** JDFTx 1.5.0  ***************

Start date and time: Tue Jul 21 12:12:36 2020
Executable jdftx_gpu with command-line: -i Neutral.in -o Neutral.out
Running on hosts (process indices):  amax (0-5)
Divided in process groups (process indices):  0 (0)  1 (1)  2 (2)  3 (3)  4 (4)  5 (5)
gpuInit: Found compatible cuda device 0 'Tesla K80'
gpuInit: Found compatible cuda device 1 'Tesla K80'
gpuInit: Found compatible cuda device 2 'Tesla K80'
gpuInit: Found compatible cuda device 3 'Tesla K80'
gpuInit: Found compatible cuda device 4 'Tesla K80'
gpuInit: Found compatible cuda device 5 'Tesla K80'
gpuInit: Selected device 0
Resource initialization completed at t[s]:     10.91
Run totals: 6 processes, 24 threads, 6 GPUs


Input parsed successfully to the following command list (including defaults):

basis kpoint-dependent
cache-projectors no
coords-type Lattice
core-overlap-check none
coulomb-interaction Slab 001
coulomb-truncation-embed 0 0 0.5
davidson-band-ratio 1.1
dump End State
dump-name NbTe2.$VAR
elec-cutoff 20 100
elec-eigen-algo Davidson
elec-ex-corr gga-PBE
elec-smearing Gauss 0.0073499
electronic-minimize  \
	dirUpdateScheme      FletcherReeves \
	linminMethod         DirUpdateRecommended \
	nIterations          500 \
	history              15 \
	knormThreshold       0 \
	energyDiffThreshold  1e-08 \
	nEnergyDiff          2 \
	alphaTstart          1 \
	alphaTmin            1e-10 \
	updateTestStepSize   yes \
	alphaTreduceFactor   0.1 \
	alphaTincreaseFactor 3 \
	nAlphaAdjustMax      3 \
	wolfeEnergy          0.0001 \
	wolfeGradient        0.9 \
	fdTest               no
exchange-regularization WignerSeitzTruncated
fluid LinearPCM 298.000000 1.013250
fluid-anion F- 1 MeanFieldLJ \
	epsBulk 1 \
	pMol 0 \
	epsInf 1 \
	Pvap 0 \
	sigmaBulk 0 \
	Rvdw 2.24877 \
	Res 0 \
	tauNuc 343133
fluid-cation Na+ 1 MeanFieldLJ \
	epsBulk 1 \
	pMol 0 \
	epsInf 1 \
	Pvap 0 \
	sigmaBulk 0 \
	Rvdw 2.19208 \
	Res 0 \
	tauNuc 343133
fluid-ex-corr lda-TF lda-PZ
fluid-gummel-loop 10 1.000000e-05
fluid-minimize  \
	dirUpdateScheme      PolakRibiere \
	linminMethod         DirUpdateRecommended \
	nIterations          400 \
	history              15 \
	knormThreshold       1e-11 \
	energyDiffThreshold  0 \
	nEnergyDiff          2 \
	alphaTstart          1 \
	alphaTmin            1e-10 \
	updateTestStepSize   yes \
	alphaTreduceFactor   0.1 \
	alphaTincreaseFactor 3 \
	nAlphaAdjustMax      6 \
	wolfeEnergy          0.0001 \
	wolfeGradient        0.9 \
	fdTest               no
fluid-solvent H2O 55.338 ScalarEOS \
	epsBulk 78.4 \
	pMol 0.92466 \
	epsInf 1.77 \
	Pvap 1.06736e-10 \
	sigmaBulk 4.62e-05 \
	Rvdw 2.61727 \
	Res 1.42 \
	tauNuc 343133 \
	poleEl 15 7 1
forces-output-coords Positions
initial-state NbTe2.$VAR
ion Ag   0.188233979133280   0.128977244193884   0.534169711027974 0
ion Ag   0.024205752912658   0.294490807933890   0.535285691117068 0
ion Ag   0.521563951133282   0.128977244193884   0.534169711027974 0
ion Ag   0.357545757912662   0.294490807933890   0.535285691117068 0
ion Ag   0.854893982133278   0.128977244193884   0.534169711027974 0
ion Ag   0.690875729912656   0.294490807933890   0.535285691117068 0
ion Ag   0.188233977133280   0.462317248193884   0.534169711027974 0
ion Ag   0.024205748912658   0.627820846933887   0.535285691117068 0
ion Ag   0.521563949133282   0.462317248193884   0.534169711027974 0
ion Ag   0.357545745912661   0.627820846933887   0.535285691117068 0
ion Ag   0.854893980133278   0.462317248193884   0.534169711027974 0
ion Ag   0.690875747912657   0.627820846933887   0.535285691117068 0
ion Ag   0.188234000133279   0.795647257193878   0.534169711027974 0
ion Ag   0.024205755912655   0.961160791933885   0.535285691117068 0
ion Ag   0.521563972133280   0.795647257193878   0.534169711027974 0
ion Ag   0.357545782912661   0.961160791933885   0.535285691117068 0
ion Ag   0.854894002133279   0.795647257193878   0.534169711027974 0
ion Ag   0.690875754912662   0.961160791933885   0.535285691117068 0
ion H   0.178600013616157   0.282246932495686   0.551318212458028 0
ion H   0.226573852135157  -0.001171245472859   0.441987118374842 0
ion H   0.511940039616158   0.282246932495686   0.551318212458028 0
ion H   0.559903839135156  -0.001171245472859   0.441987118374842 0
ion H   0.845270011616160   0.282246932495686   0.551318212458028 0
ion H   0.893243894135156  -0.001171245472859   0.441987118374842 0
ion H   0.178600010616160   0.615586936495686   0.551318212458028 0
ion H   0.226573861135162   0.332168777527139   0.441987118374842 0
ion H   0.511940037616158   0.615586936495686   0.551318212458028 0
ion H   0.559903833135155   0.332168777527139   0.441987118374842 0
ion H   0.845270009616160   0.615586936495686   0.551318212458028 0
ion H   0.893243889135160   0.332168777527139   0.441987118374842 0
ion H   0.178599994616159   0.948917004495688   0.551318212458028 0
ion H   0.226573854135157   0.665498787527144   0.441987118374842 0
ion H   0.511940050616163   0.948917004495688   0.551318212458028 0
ion H   0.559903797135159   0.665498787527144   0.441987118374842 0
ion H   0.845269964616159   0.948917004495688   0.551318212458028 0
ion H   0.893243853135157   0.665498787527144   0.441987118374842 0
ion O   0.141681914878104   0.245770325348981   0.575159102416564 0
ion O   0.052087053564701   0.099311842858295   0.517951308837620 0
ion O   0.235257390039235   0.007585916770317   0.498234236921605 0
ion O   0.324570031720703   0.157908201871815   0.541684632846302 0
ion O   0.475011886878106   0.245770325348981   0.575159102416564 0
ion O   0.385417062564702   0.099311842858295   0.517951308837620 0
ion O   0.568597373039230   0.007585916770317   0.498234236921605 0
ion O   0.657900062720706   0.157908201871815   0.541684632846302 0
ion O   0.808351942878103   0.245770325348981   0.575159102416564 0
ion O   0.718757118564705   0.099311842858295   0.517951308837620 0
ion O   0.901927345039231   0.007585916770317   0.498234236921605 0
ion O   0.991240118720704   0.157908201871815   0.541684632846302 0
ion O   0.141681916878105   0.579110299348979   0.575159102416564 0
ion O   0.052087057564701   0.432651852858295   0.517951308837620 0
ion O   0.235257397039233   0.340915936770315   0.498234236921605 0
ion O   0.324570027720703   0.491248219871809   0.541684632846302 0
ion O   0.475011888878106   0.579110299348979   0.575159102416564 0
ion O   0.385417058564701   0.432651852858295   0.517951308837620 0
ion O   0.568597394039235   0.340915936770315   0.498234236921605 0
ion O   0.657900058720706   0.491248219871809   0.541684632846302 0
ion O   0.808351944878104   0.579110299348979   0.575159102416564 0
ion O   0.718757114564705   0.432651852858295   0.517951308837620 0
ion O   0.901927366039229   0.340915936770315   0.498234236921605 0
ion O   0.991240113720700   0.491248219871809   0.541684632846302 0
ion O   0.141681929878102   0.912440367348981   0.575159102416564 0
ion O   0.052087050564704   0.765981862858293   0.517951308837620 0
ion O   0.235257399039233   0.674255910770320   0.498234236921605 0
ion O   0.324570025720703   0.824578199871810   0.541684632846302 0
ion O   0.475011902878100   0.912440367348981   0.575159102416564 0
ion O   0.385417081564707   0.765981862858293   0.517951308837620 0
ion O   0.568597396039235   0.674255910770320   0.498234236921605 0
ion O   0.657900026720703   0.824578199871810   0.541684632846302 0
ion O   0.808351899878103   0.912440367348981   0.575159102416564 0
ion O   0.718757078564702   0.765981862858293   0.517951308837620 0
ion O   0.901927310039232   0.674255910770320   0.498234236921605 0
ion O   0.991240082720701   0.824578199871810   0.541684632846302 0
ion-species GBRV/$ID_pbe.uspp
ion-width Ecut
ionic-minimize  \
	dirUpdateScheme      L-BFGS \
	linminMethod         DirUpdateRecommended \
	nIterations          0 \
	history              15 \
	knormThreshold       0.0001 \
	energyDiffThreshold  1e-06 \
	nEnergyDiff          2 \
	alphaTstart          1 \
	alphaTmin            1e-10 \
	updateTestStepSize   yes \
	alphaTreduceFactor   0.1 \
	alphaTincreaseFactor 3 \
	nAlphaAdjustMax      3 \
	wolfeEnergy          0.0001 \
	wolfeGradient        0.9 \
	fdTest               no
kpoint   0.000000000000   0.000000000000   0.000000000000  1.00000000000000
kpoint-folding 3 3 1 
latt-move-scale 1 1 1
latt-scale 1 1 1 
lattice Triclinic 30.7407 31.0514 31.843 90 90 80.8351
lattice-minimize  \
	dirUpdateScheme      L-BFGS \
	linminMethod         DirUpdateRecommended \
	nIterations          0 \
	history              15 \
	knormThreshold       0 \
	energyDiffThreshold  1e-06 \
	nEnergyDiff          2 \
	alphaTstart          1 \
	alphaTmin            1e-10 \
	updateTestStepSize   yes \
	alphaTreduceFactor   0.1 \
	alphaTincreaseFactor 3 \
	nAlphaAdjustMax      3 \
	wolfeEnergy          0.0001 \
	wolfeGradient        0.9 \
	fdTest               no
lcao-params -1 1e-06 0.0073499
pcm-variant CANDLE
spintype no-spin
subspace-rotation-factor 1 yes
symmetries automatic
symmetry-threshold 0.0001



---------- Setting up symmetries ----------

Found 4 point-group symmetries of the bravais lattice
Found 9 space-group symmetries with basis
Applied RMS atom displacement 0.000119111 bohrs to make symmetries exact.

---------- Initializing the Grid ----------
R = 
[    30.7407    4.94576          0  ]
[          0     30.655          0  ]
[          0          0     31.843  ]
unit cell volume = 30007.5
G =
[   0.204393 -0.0329759          0  ]
[          0   0.204964          0  ]
[          0          0   0.197318  ]
Minimum fftbox size, Smin = [  140  140  144  ]
Chosen fftbox size, S = [  140  140  144  ]

---------- Initializing tighter grid for wavefunction operations ----------
R = 
[    30.7407    4.94576          0  ]
[          0     30.655          0  ]
[          0          0     31.843  ]
unit cell volume = 30007.5
G =
[   0.204393 -0.0329759          0  ]
[          0   0.204964          0  ]
[          0          0   0.197318  ]
Minimum fftbox size, Smin = [  124  128  132  ]
Chosen fftbox size, S = [  126  128  140  ]

---------- Exchange Correlation functional ----------
Initalized PBE GGA exchange.
Initalized PBE GGA correlation.

---------- Setting up pseudopotentials ----------
Width of ionic core gaussian charges (only for fluid interactions / plotting) set to 0.397384

Reading pseudopotential file '/home/guoxy/vasp/jdftx-1.5.0/build/pseudopotentials/GBRV/ag_pbe.uspp':
  Title: Ag.  Created by USPP 7.3.6 on 1-4-15
  Reference state energy: -147.606242.  19 valence electrons in orbitals:
    |400>  occupation: 2  eigenvalue: -3.637437
    |410>  occupation: 6  eigenvalue: -2.297267
    |420>  occupation: 10  eigenvalue: -0.417763
    |500>  occupation: 0.5  eigenvalue: -0.283525
    |510>  occupation: 0  eigenvalue: -0.122889
  lMax: 2  lLocal: 0  QijEcut: 5.5
  6 projectors sampled on a log grid with 717 points:
    l: 0  eig: -0.283528  rCut: 1.5
    l: 0  eig: -3.637440  rCut: 1.5
    l: 1  eig: -0.122892  rCut: 1.5
    l: 1  eig: -2.297267  rCut: 1.5
    l: 2  eig: -0.417762  rCut: 1.7
    l: 2  eig: -1.000000  rCut: 1.7
  Partial core density with radius 1.2
  Transforming core density to a uniform radial grid of dG=0.02 with 1313 points.
  Transforming local potential to a uniform radial grid of dG=0.02 with 1313 points.
  Transforming nonlocal projectors to a uniform radial grid of dG=0.02 with 432 points.
  Transforming density augmentations to a uniform radial grid of dG=0.02 with 1313 points.
  Transforming atomic orbitals to a uniform radial grid of dG=0.02 with 432 points.
  Core radius for overlap checks: 1.70 bohrs.

Reading pseudopotential file '/home/guoxy/vasp/jdftx-1.5.0/build/pseudopotentials/GBRV/h_pbe.uspp':
  Title: H.  Created by USPP 7.3.6 on 2-4-15
  Reference state energy: -0.458849.  1 valence electrons in orbitals:
    |100>  occupation: 1  eigenvalue: -0.238595
  lMax: 0  lLocal: 1  QijEcut: 6
  2 projectors sampled on a log grid with 395 points:
    l: 0  eig: -0.238595  rCut: 1.2
    l: 0  eig: 1.000000  rCut: 1.2
  Transforming local potential to a uniform radial grid of dG=0.02 with 1313 points.
  Transforming nonlocal projectors to a uniform radial grid of dG=0.02 with 432 points.
  Transforming density augmentations to a uniform radial grid of dG=0.02 with 1313 points.
  Transforming atomic orbitals to a uniform radial grid of dG=0.02 with 432 points.
  Core radius for overlap checks: 1.20 bohrs.

Reading pseudopotential file '/home/guoxy/vasp/jdftx-1.5.0/build/pseudopotentials/GBRV/o_pbe.uspp':
  Title: O.  Created by USPP 7.3.6 on 3-2-2014
  Reference state energy: -15.894388.  6 valence electrons in orbitals:
    |200>  occupation: 2  eigenvalue: -0.878823
    |210>  occupation: 4  eigenvalue: -0.332131
  lMax: 2  lLocal: 2  QijEcut: 6
  5 projectors sampled on a log grid with 511 points:
    l: 0  eig: -0.878823  rCut: 1.25
    l: 0  eig: 0.000000  rCut: 1.25
    l: 1  eig: -0.332132  rCut: 1.25
    l: 1  eig: 0.000000  rCut: 1.25
    l: 2  eig: 1.000000  rCut: 1.25
  Partial core density with radius 0.7
  Transforming core density to a uniform radial grid of dG=0.02 with 1313 points.
  Transforming local potential to a uniform radial grid of dG=0.02 with 1313 points.
  Transforming nonlocal projectors to a uniform radial grid of dG=0.02 with 432 points.
  Transforming density augmentations to a uniform radial grid of dG=0.02 with 1313 points.
  Transforming atomic orbitals to a uniform radial grid of dG=0.02 with 432 points.
  Core radius for overlap checks: 1.25 bohrs.

Initialized 3 species with 72 total atoms.

Folded 1 k-points by 3x3x1 to 9 k-points.

---------- Setting up k-points, bands, fillings ----------
Adding inversion symmetry to k-mesh for non-inversion-symmetric unit cell.
Reduced to 5 k-points under symmetry. 
Computing the number of bands and number of electrons
Calculating initial fillings.
nElectrons: 576.000000   nBands: 396   nStates: 5

----- Setting up reduced wavefunction bases (one per k-point) -----
average nbasis = 128171.000 , ideal nbasis = 128194.371

---------- Setting up coulomb interaction ----------
Fluid mode embedding: using embedded box, but periodic Coulomb kernel.
(Fluid response is responsible for (approximate) separation between periodic images.)
Setting up double-sized grid for truncated Coulomb potentials:
R = 
[    30.7407    4.94576          0  ]
[          0     30.655          0  ]
[          0          0     63.686  ]
unit cell volume = 60015
G =
[   0.204393 -0.0329759          0  ]
[          0   0.204964          0  ]
[          0          0  0.0986588  ]
Chosen fftbox size, S = [  140  140  288  ]
Integer grid location selected as the embedding center:
   Grid: [  0  0  72  ]
   Lattice: [  0  0  0.5  ]
   Cartesian: [  0  0  15.9215  ]
Constructing Wigner-Seitz cell: 8 faces (6 quadrilaterals, 2 hexagons)
Range-separation parameter for embedded mesh potentials due to point charges: 0.594137 bohrs.

Initializing van der Waals corrections
	NOTE: vdW corrections apply only for interactions with fluid.
	Ag:  C6:  427.91 Eh-a0^6  R0: 3.097 a0
	 H:  C6:    2.43 Eh-a0^6  R0: 1.892 a0
	 O:  C6:   12.14 Eh-a0^6  R0: 2.536 a0

---------- Setting up ewald sum ----------
Optimum gaussian width for ewald sums = 7.657870 bohr.
Real space sum over 567 unit cells with max indices [  4  4  3  ]
Reciprocal space sum over 8381 terms with max indices [  8  8  14  ]

---------- Allocating electronic variables ----------
Initializing wave functions:  linear combination of atomic orbitals
Ag pseudo-atom occupations:   s ( 2 1 )  p ( 6 0 )  d ( 10 )
H pseudo-atom occupations:   s ( 1 )
O pseudo-atom occupations:   s ( 2 )  p ( 4 )
	FillingsUpdate:  mu: +0.045210383  nElectrons: 576.000000
LCAOMinimize: Iter:   0  F: -3237.1298200256310338  |grad|_K:  6.026e-03  alpha:  1.000e+00
	FillingsUpdate:  mu: -0.089519315  nElectrons: 576.000000
LCAOMinimize: Iter:   1  F: -3241.7681265823352987  |grad|_K:  3.113e-03  alpha:  2.616e-01  linmin:  4.834e-02  cgtest: -1.242e-01  t[s]:     59.81
	FillingsUpdate:  mu: -0.162162256  nElectrons: 576.000000
LCAOMinimize: Iter:   2  F: -3242.4510960669322230  |grad|_K:  1.273e-03  alpha:  1.917e-01  linmin:  3.541e-03  cgtest:  5.835e-01  t[s]:     76.36
LCAOMinimize: Encountered beta<0, resetting CG.
	FillingsUpdate:  mu: -0.134602768  nElectrons: 576.000000
LCAOMinimize: Iter:   3  F: -3242.5912729961160039  |grad|_K:  5.201e-04  alpha:  2.299e-01  linmin:  6.753e-02  cgtest: -3.082e-01  t[s]:     92.80
	FillingsUpdate:  mu: -0.135218979  nElectrons: 576.000000
LCAOMinimize: Iter:   4  F: -3242.6042820003772249  |grad|_K:  3.331e-04  alpha:  1.841e-01  linmin: -2.308e-03  cgtest:  6.749e-01  t[s]:    109.58
LCAOMinimize: Encountered beta<0, resetting CG.
	FillingsUpdate:  mu: -0.146653003  nElectrons: 576.000000
LCAOMinimize: Iter:   5  F: -3242.6120738893891939  |grad|_K:  1.136e-04  alpha:  1.784e-01  linmin: -1.365e-02  cgtest:  2.557e-02  t[s]:    125.93
	FillingsUpdate:  mu: -0.144855591  nElectrons: 576.000000
LCAOMinimize: Iter:   6  F: -3242.6137425663728209  |grad|_K:  7.637e-05  alpha:  3.298e-01  linmin:  1.634e-02  cgtest: -7.121e-02  t[s]:    142.44
	FillingsUpdate:  mu: -0.145132995  nElectrons: 576.000000
LCAOMinimize: Iter:   7  F: -3242.6145947893105586  |grad|_K:  1.770e-05  alpha:  3.897e-01  linmin:  3.760e-03  cgtest:  3.914e-01  t[s]:    159.12
LCAOMinimize: Encountered beta<0, resetting CG.
	FillingsUpdate:  mu: -0.144807262  nElectrons: 576.000000
LCAOMinimize: Iter:   8  F: -3242.6146269856176332  |grad|_K:  5.538e-06  alpha:  2.607e-01  linmin:  1.127e-06  cgtest:  6.225e-04  t[s]:    176.03
	FillingsUpdate:  mu: -0.145015421  nElectrons: 576.000000
LCAOMinimize: Iter:   9  F: -3242.6146323768352886  |grad|_K:  3.764e-06  alpha:  4.459e-01  linmin: -1.337e-04  cgtest: -5.188e-04  t[s]:    192.74
	FillingsUpdate:  mu: -0.144946303  nElectrons: 576.000000
LCAOMinimize: Iter:  10  F: -3242.6146335371531677  |grad|_K:  1.432e-06  alpha:  2.075e-01  linmin: -3.102e-04  cgtest:  3.462e-04  t[s]:    209.54
	FillingsUpdate:  mu: -0.144976042  nElectrons: 576.000000
LCAOMinimize: Iter:  11  F: -3242.6146338099688364  |grad|_K:  4.264e-07  alpha:  3.375e-01  linmin:  3.655e-04  cgtest: -3.084e-03  t[s]:    226.13
	FillingsUpdate:  mu: -0.144964150  nElectrons: 576.000000
LCAOMinimize: Iter:  12  F: -3242.6146338537396332  |grad|_K:  1.868e-07  alpha:  6.126e-01  linmin:  3.601e-04  cgtest: -1.173e-03  t[s]:    242.89
LCAOMinimize: Converged (|Delta F|<1.000000e-06 for 2 iters).
----- createFluidSolver() ----- (Fluid-side solver setup)
   Initializing fluid molecule 'H2O'
     Initializing site 'O'
       Electron density: proportional to exp(-r/0.36935)*erfc((r-0.51523)/0.36823) with norm 6.826
       Charge density: gaussian nuclear width 0.478731 with net site charge 0.826
       Polarizability: cuspless exponential with width 0.32 and norm 3.73
       Hard sphere radius: 2.57003 bohrs
       Positions in reference frame:
         [ +0.000000 +0.000000 +0.000000 ]
     Initializing site 'H'
       Electron density: proportional to exp(-r/0.34641)*erfc((r-0)/0.390882) with norm 0.587
       Charge density: gaussian nuclear width 0.377945 with net site charge -0.413
       Polarizability: cuspless exponential with width 0.39 and norm 3.3
       Positions in reference frame:
         [ +0.000000 -1.441945 +1.122523 ]
         [ +0.000000 +1.441945 +1.122523 ]
     Net charge: 0   dipole magnitude: 0.927204
     Initializing spherical shell mfKernel with radius 2.61727 Bohr
     deltaS corrections:
       site 'O': -7.54299
       site 'H': -6.83917
   Initializing fluid molecule 'Na+'
     Initializing site 'Na'
       Electron density: proportional to exp(-r/0.19682)*erfc((r-0.71491)/0.41314) with norm 8.1383
       Charge density: gaussian nuclear width 0.365347 with net site charge -1
       Hard sphere radius: 1.86327 bohrs
       Positions in reference frame:
         [ +0.000000 +0.000000 +0.000000 ]
     Net charge: -1   dipole magnitude: 0
     Initializing gaussian mfKernel with width: 1.55004 Bohr
     deltaS corrections:
       site 'Na': -22.3555
   Initializing fluid molecule 'F-'
     Initializing site 'F'
       Electron density: proportional to exp(-r/0.38886)*erfc((r-0)/0.438782) with norm 8
       Charge density: gaussian nuclear width 0.374796 with net site charge 1
       Hard sphere radius: 2.39995 bohrs
       Positions in reference frame:
         [ +0.000000 +0.000000 +0.000000 ]
     Net charge: 1   dipole magnitude: 0
     Initializing gaussian mfKernel with width: 1.59012 Bohr
     deltaS corrections:
       site 'F': -9.04335

Correction to mu due to finite nuclear width = -0.00952274
   Cavity determined by nc: 0.00142 and sigma: 0.707107
   Nonlocal vdW cavity from gaussian model electron density with norm = 8 and sigma = 0.993594 bohr
   Charge asymmetry in cavity with sensitivity pCavity = 36.5 e-bohr/Eh
   Electrostatic cavity expanded by eta = 1.46 bohrs
   Weighted density cavitation model constrained by Nbulk: 0.0049383 bohr^-3, Pvap: 3.14029 kPa, Rvdw: 2.61727 bohr and sigmaBulk: 4.62e-05 Eh/bohr^2 at T: 298 K.
   Weighted density dispersion model using vdW pair potentials with single solvent site with sqrtC6eff: 0.77 SI.


---- Citations for features of the code used in this run ----

   Software package:
      R. Sundararaman, K. Letchworth-Weaver, K.A. Schwarz, D. Gunceler, Y. Ozhabes and T.A. Arias, 'JDFTx: software for joint density-functional theory', SoftwareX 6, 278 (2017)

   gga-PBE exchange-correlation functional:
      J.P. Perdew, K. Burke and M. Ernzerhof, Phys. Rev. Lett. 77, 3865 (1996)

   Pseudopotentials:
      KF Garrity, JW Bennett, KM Rabe and D Vanderbilt, Comput. Mater. Sci. 81, 446 (2014)

   Truncated Coulomb potentials:
      R. Sundararaman and T.A. Arias, Phys. Rev. B 87, 165122 (2013)

   Van der Waals correction pair-potentials:
      S. Grimme, J. Comput. Chem. 27, 1787 (2006)

   Charge-asymmetric nonlocally-determined local-electric (CANDLE) solvation model:
      R. Sundararaman and W.A. Goddard III, J. Chem. Phys. 142, 064107 (2015)

   Total energy minimization with Auxiliary Hamiltonian:
      C. Freysoldt, S. Boeck, and J. Neugebauer, Phys. Rev. B 79, 241103(R) (2009)

This list may not be complete. Please suggest additional citations or
report any other bugs at https://github.com/shankar1729/jdftx/issues

Initialization completed successfully at t[s]:    248.52

Fluid solver invoked on fresh (partially random / LCAO) wavefunctions
Running a vacuum solve first:

-------- Initial electronic minimization -----------
	FillingsUpdate:  mu: -0.144964150  nElectrons: 576.000000
ElecMinimize: Iter:   0  F: -3242.614633853750092  |grad|_K:  1.157e-04  alpha:  1.000e+00
	FillingsUpdate:  mu: -0.135281360  nElectrons: 576.000000
	SubspaceRotationAdjust: set factor to 1
ElecMinimize: Iter:   1  F: -3244.160117181365422  |grad|_K:  5.338e-05  alpha:  4.526e-01  linmin:  1.909e-05  t[s]:    298.58
	FillingsUpdate:  mu: -0.139899915  nElectrons: 576.000000
	SubspaceRotationAdjust: set factor to 0.952
ElecMinimize: Iter:   2  F: -3244.427763175417567  |grad|_K:  3.213e-05  alpha:  3.723e-01  linmin: -3.475e-05  t[s]:    331.58
	FillingsUpdate:  mu: -0.131329250  nElectrons: 576.000000
	SubspaceRotationAdjust: set factor to 0.966
ElecMinimize: Iter:   3  F: -3244.537732834418421  |grad|_K:  1.682e-05  alpha:  4.165e-01  linmin:  3.217e-05  t[s]:    365.14
	FillingsUpdate:  mu: -0.133792222  nElectrons: 576.000000
	SubspaceRotationAdjust: set factor to 0.895
ElecMinimize: Iter:   4  F: -3244.568291420107016  |grad|_K:  1.035e-05  alpha:  4.283e-01  linmin:  3.044e-05  t[s]:    397.75
	FillingsUpdate:  mu: -0.135578501  nElectrons: 576.000000
	SubspaceRotationAdjust: set factor to 0.761
ElecMinimize: Iter:   5  F: -3244.579087870924468  |grad|_K:  6.863e-06  alpha:  3.984e-01  linmin:  7.721e-07  t[s]:    430.61
	FillingsUpdate:  mu: -0.131618675  nElectrons: 576.000000
	SubspaceRotationAdjust: set factor to 0.56
ElecMinimize: Iter:   6  F: -3244.583052144263547  |grad|_K:  4.882e-06  alpha:  3.304e-01  linmin:  1.252e-05  t[s]:    463.54
	FillingsUpdate:  mu: -0.134746538  nElectrons: 576.000000
	SubspaceRotationAdjust: set factor to 0.544
ElecMinimize: Iter:   7  F: -3244.585384777028594  |grad|_K:  2.671e-06  alpha:  3.864e-01  linmin:  4.089e-06  t[s]:    496.46
	FillingsUpdate:  mu: -0.135367190  nElectrons: 576.000000
	SubspaceRotationAdjust: set factor to 0.561
ElecMinimize: Iter:   8  F: -3244.586307250309801  |grad|_K:  1.993e-06  alpha:  5.099e-01  linmin:  5.765e-06  t[s]:    529.15
	FillingsUpdate:  mu: -0.134799366  nElectrons: 576.000000
	SubspaceRotationAdjust: set factor to 0.573
ElecMinimize: Iter:   9  F: -3244.586663890299405  |grad|_K:  1.273e-06  alpha:  3.537e-01  linmin: -1.981e-07  t[s]:    562.26
	FillingsUpdate:  mu: -0.134791403  nElectrons: 576.000000
	SubspaceRotationAdjust: set factor to 0.601
ElecMinimize: Iter:  10  F: -3244.586859914238630  |grad|_K:  8.504e-07  alpha:  4.760e-01  linmin:  2.870e-06  t[s]:    594.91
	FillingsUpdate:  mu: -0.135025629  nElectrons: 576.000000
	SubspaceRotationAdjust: set factor to 0.634
ElecMinimize: Iter:  11  F: -3244.586939324937703  |grad|_K:  5.770e-07  alpha:  4.329e-01  linmin:  8.903e-07  t[s]:    632.49
	FillingsUpdate:  mu: -0.134927074  nElectrons: 576.000000
	SubspaceRotationAdjust: set factor to 0.678
ElecMinimize: Iter:  12  F: -3244.586975169565449  |grad|_K:  3.920e-07  alpha:  4.241e-01  linmin:  7.236e-07  t[s]:    671.01
	FillingsUpdate:  mu: -0.134828667  nElectrons: 576.000000
	SubspaceRotationAdjust: set factor to 0.646
ElecMinimize: Iter:  13  F: -3244.586991229246905  |grad|_K:  2.681e-07  alpha:  4.117e-01  linmin:  4.346e-07  t[s]:    709.99
	FillingsUpdate:  mu: -0.134951143  nElectrons: 576.000000
	SubspaceRotationAdjust: set factor to 0.628
ElecMinimize: Iter:  14  F: -3244.586998585335095  |grad|_K:  1.804e-07  alpha:  4.032e-01  linmin:  3.939e-07  t[s]:    750.13
	FillingsUpdate:  mu: -0.134914621  nElectrons: 576.000000
	SubspaceRotationAdjust: set factor to 0.652
ElecMinimize: Iter:  15  F: -3244.587002182488959  |grad|_K:  1.199e-07  alpha:  4.358e-01  linmin:  3.462e-07  t[s]:    789.90
	FillingsUpdate:  mu: -0.134880326  nElectrons: 576.000000
	SubspaceRotationAdjust: set factor to 0.671
ElecMinimize: Iter:  16  F: -3244.587003793140866  |grad|_K:  8.440e-08  alpha:  4.416e-01  linmin:  1.368e-07  t[s]:    826.83
	FillingsUpdate:  mu: -0.134923730  nElectrons: 576.000000
	SubspaceRotationAdjust: set factor to 0.656
ElecMinimize: Iter:  17  F: -3244.587004561079993  |grad|_K:  5.934e-08  alpha:  4.247e-01  linmin:  1.033e-07  t[s]:    863.97
	FillingsUpdate:  mu: -0.134907136  nElectrons: 576.000000
	SubspaceRotationAdjust: set factor to 0.626
ElecMinimize: Iter:  18  F: -3244.587004918517323  |grad|_K:  4.120e-08  alpha:  3.998e-01  linmin:  5.121e-08  t[s]:    902.03
	FillingsUpdate:  mu: -0.134900174  nElectrons: 576.000000
	SubspaceRotationAdjust: set factor to 0.675
ElecMinimize: Iter:  19  F: -3244.587005106618562  |grad|_K:  2.701e-08  alpha:  4.363e-01  linmin:  8.065e-08  t[s]:    938.31
	FillingsUpdate:  mu: -0.134907261  nElectrons: 576.000000
	SubspaceRotationAdjust: set factor to 0.701
ElecMinimize: Iter:  20  F: -3244.587005184100235  |grad|_K:  1.939e-08  alpha:  4.185e-01  linmin:  2.160e-08  t[s]:    974.39
	FillingsUpdate:  mu: -0.134904280  nElectrons: 576.000000
	SubspaceRotationAdjust: set factor to 0.693
ElecMinimize: Iter:  21  F: -3244.587005224456789  |grad|_K:  1.287e-08  alpha:  4.232e-01  linmin:  2.038e-08  t[s]:   1011.19
	FillingsUpdate:  mu: -0.134904512  nElectrons: 576.000000
	SubspaceRotationAdjust: set factor to 0.725
ElecMinimize: Iter:  22  F: -3244.587005243531166  |grad|_K:  9.716e-09  alpha:  4.546e-01  linmin:  6.104e-08  t[s]:   1047.88
	FillingsUpdate:  mu: -0.134903719  nElectrons: 576.000000
	SubspaceRotationAdjust: set factor to 0.754
ElecMinimize: Iter:  23  F: -3244.587005252533800  |grad|_K:  6.656e-09  alpha:  3.755e-01  linmin:  2.100e-08  t[s]:   1084.35
	FillingsUpdate:  mu: -0.134904872  nElectrons: 576.000000
	SubspaceRotationAdjust: set factor to 0.78
ElecMinimize: Iter:  24  F: -3244.587005257445526  |grad|_K:  4.433e-09  alpha:  4.329e-01  linmin: -1.653e-07  t[s]:   1120.14
ElecMinimize: Converged (|Delta F|<1.000000e-08 for 2 iters).
Setting wave functions to eigenvectors of Hamiltonian
Vacuum energy after initial minimize, F = -3244.587005257445526

	Linear fluid (dielectric constant: 78.4, screening length: 5.74355 Bohr) occupying 0.821347 of unit cell:	Completed after 17 iterations at t[s]:   1130.24

-------- Electronic minimization -----------
	Linear fluid (dielectric constant: 78.4, screening length: 5.74355 Bohr) occupying 0.821347 of unit cell:	Completed after 0 iterations at t[s]:   1139.58
	FillingsUpdate:  mu: -0.177865210  nElectrons: 576.000000
ElecMinimize: Iter:   0  F: -3244.620058547112876  |grad|_K:  8.718e-06  alpha:  1.000e+00
	Linear fluid (dielectric constant: 78.4, screening length: 5.74355 Bohr) occupying 0.822833 of unit cell:	Completed after 17 iterations at t[s]:   1174.35
	Linear fluid (dielectric constant: 78.4, screening length: 5.74355 Bohr) occupying 0.822372 of unit cell:	Completed after 12 iterations at t[s]:   1188.82
	FillingsUpdate:  mu: -0.173366131  nElectrons: 576.000000
	SubspaceRotationAdjust: set factor to 0.828
ElecMinimize: Iter:   1  F: -3244.632741291437014  |grad|_K:  6.146e-06  alpha:  6.678e-01  linmin: -2.411e-06  t[s]:   1203.30
	Linear fluid (dielectric constant: 78.4, screening length: 5.74355 Bohr) occupying 0.823029 of unit cell:	Completed after 12 iterations at t[s]:   1218.43
	Linear fluid (dielectric constant: 78.4, screening length: 5.74355 Bohr) occupying 0.822796 of unit cell:	Completed after 10 iterations at t[s]:   1232.81
	FillingsUpdate:  mu: -0.174640703  nElectrons: 576.000000
	SubspaceRotationAdjust: set factor to 0.802
ElecMinimize: Iter:   2  F: -3244.636711405127244  |grad|_K:  3.478e-06  alpha:  4.165e-01  linmin:  1.587e-06  t[s]:   1248.08
	Linear fluid (dielectric constant: 78.4, screening length: 5.74355 Bohr) occupying 0.822963 of unit cell:	Completed after 8 iterations at t[s]:   1265.69
	Linear fluid (dielectric constant: 78.4, screening length: 5.74355 Bohr) occupying 0.822937 of unit cell:	Completed after 3 iterations at t[s]:   1279.09
	FillingsUpdate:  mu: -0.173518582  nElectrons: 576.000000
	SubspaceRotationAdjust: set factor to 0.664
ElecMinimize: Iter:   3  F: -3244.637789457244253  |grad|_K:  2.007e-06  alpha:  3.511e-01  linmin:  6.710e-07  t[s]:   1293.03
	Linear fluid (dielectric constant: 78.4, screening length: 5.74355 Bohr) occupying 0.823001 of unit cell:	Completed after 7 iterations at t[s]:   1308.69
	Linear fluid (dielectric constant: 78.4, screening length: 5.74355 Bohr) occupying 0.822991 of unit cell:	Completed after 3 iterations at t[s]:   1322.03
	FillingsUpdate:  mu: -0.174258067  nElectrons: 576.000000
	SubspaceRotationAdjust: set factor to 0.496
ElecMinimize: Iter:   4  F: -3244.638090569834276  |grad|_K:  1.152e-06  alpha:  2.946e-01  linmin: -2.613e-06  t[s]:   1335.86
	Linear fluid (dielectric constant: 78.4, screening length: 5.74355 Bohr) occupying 0.823002 of unit cell:	Completed after 4 iterations at t[s]:   1350.05
	Linear fluid (dielectric constant: 78.4, screening length: 5.74355 Bohr) occupying 0.823008 of unit cell:	Completed after 2 iterations at t[s]:   1362.56
	FillingsUpdate:  mu: -0.174044418  nElectrons: 576.000000
	SubspaceRotationAdjust: set factor to 0.499
ElecMinimize: Iter:   5  F: -3244.638239509246432  |grad|_K:  5.739e-07  alpha:  4.408e-01  linmin: -7.046e-06  t[s]:   1377.02
	Linear fluid (dielectric constant: 78.4, screening length: 5.74355 Bohr) occupying 0.823008 of unit cell:	Completed after 2 iterations at t[s]:   1393.60
	Linear fluid (dielectric constant: 78.4, screening length: 5.74355 Bohr) occupying 0.823009 of unit cell:	Completed after 1 iterations at t[s]:   1406.45
	FillingsUpdate:  mu: -0.174081886  nElectrons: 576.000000
	SubspaceRotationAdjust: set factor to 0.514
ElecMinimize: Iter:   6  F: -3244.638284984094753  |grad|_K:  3.862e-07  alpha:  5.416e-01  linmin: -2.335e-05  t[s]:   1420.71
	Linear fluid (dielectric constant: 78.4, screening length: 5.74355 Bohr) occupying 0.823008 of unit cell:	Completed after 3 iterations at t[s]:   1435.43
	Linear fluid (dielectric constant: 78.4, screening length: 5.74355 Bohr) occupying 0.823008 of unit cell:	Completed after 1 iterations at t[s]:   1447.88
	FillingsUpdate:  mu: -0.174158703  nElectrons: 576.000000
	SubspaceRotationAdjust: set factor to 0.505
ElecMinimize: Iter:   7  F: -3244.638301040023180  |grad|_K:  2.819e-07  alpha:  4.137e-01  linmin:  2.173e-05  t[s]:   1462.89
	Linear fluid (dielectric constant: 78.4, screening length: 5.74355 Bohr) occupying 0.823006 of unit cell:	Completed after 2 iterations at t[s]:   1479.40
	Linear fluid (dielectric constant: 78.4, screening length: 5.74355 Bohr) occupying 0.823006 of unit cell:	Completed after 0 iterations at t[s]:   1491.88
	FillingsUpdate:  mu: -0.174128282  nElectrons: 576.000000
	SubspaceRotationAdjust: set factor to 0.526
ElecMinimize: Iter:   8  F: -3244.638309112205661  |grad|_K:  1.690e-07  alpha:  4.085e-01  linmin: -1.028e-05  t[s]:   1506.16
	Linear fluid (dielectric constant: 78.4, screening length: 5.74355 Bohr) occupying 0.823005 of unit cell:	Completed after 1 iterations at t[s]:   1520.07
	Linear fluid (dielectric constant: 78.4, screening length: 5.74355 Bohr) occupying 0.823005 of unit cell:	Completed after 0 iterations at t[s]:   1532.24
	FillingsUpdate:  mu: -0.174139244  nElectrons: 576.000000
	SubspaceRotationAdjust: set factor to 0.627
ElecMinimize: Iter:   9  F: -3244.638312865186435  |grad|_K:  9.999e-08  alpha:  5.115e-01  linmin: -1.803e-05  t[s]:   1546.30
	Linear fluid (dielectric constant: 78.4, screening length: 5.74355 Bohr) occupying 0.823006 of unit cell:	Completed after 1 iterations at t[s]:   1559.48
	Linear fluid (dielectric constant: 78.4, screening length: 5.74355 Bohr) occupying 0.823005 of unit cell:	Completed after 0 iterations at t[s]:   1572.03
	FillingsUpdate:  mu: -0.174158413  nElectrons: 576.000000
	SubspaceRotationAdjust: set factor to 0.643
ElecMinimize: Iter:  10  F: -3244.638313900850790  |grad|_K:  9.417e-08  alpha:  4.104e-01  linmin: -1.139e-05  t[s]:   1586.34
	Linear fluid (dielectric constant: 78.4, screening length: 5.74355 Bohr) occupying 0.823005 of unit cell:	Completed after 2 iterations at t[s]:   1600.16
	Linear fluid (dielectric constant: 78.4, screening length: 5.74355 Bohr) occupying 0.823005 of unit cell:	Completed after 0 iterations at t[s]:   1614.52
	FillingsUpdate:  mu: -0.174117740  nElectrons: 576.000000
	SubspaceRotationAdjust: set factor to 0.596
ElecMinimize: Iter:  11  F: -3244.638314613845068  |grad|_K:  5.883e-08  alpha:  3.013e-01  linmin:  9.899e-06  t[s]:   1628.35
	Linear fluid (dielectric constant: 78.4, screening length: 5.74355 Bohr) occupying 0.823005 of unit cell:	Completed after 0 iterations at t[s]:   1642.35
	Linear fluid (dielectric constant: 78.4, screening length: 5.74355 Bohr) occupying 0.823005 of unit cell:	Completed after 0 iterations at t[s]:   1654.79
	FillingsUpdate:  mu: -0.174116009  nElectrons: 576.000000
	SubspaceRotationAdjust: set factor to 0.685
ElecMinimize: Iter:  12  F: -3244.638314941902991  |grad|_K:  4.357e-08  alpha:  3.967e-01  linmin:  1.660e-07  t[s]:   1668.85
	Linear fluid (dielectric constant: 78.4, screening length: 5.74355 Bohr) occupying 0.823005 of unit cell:	Completed after 1 iterations at t[s]:   1682.35
	Linear fluid (dielectric constant: 78.4, screening length: 5.74355 Bohr) occupying 0.823005 of unit cell:	Completed after 0 iterations at t[s]:   1695.23
	FillingsUpdate:  mu: -0.174143317  nElectrons: 576.000000
	SubspaceRotationAdjust: set factor to 0.653
ElecMinimize: Iter:  13  F: -3244.638314991434527  |grad|_K:  2.914e-08  alpha:  2.239e-01  linmin: -1.639e-05  t[s]:   1710.01
	Linear fluid (dielectric constant: 78.4, screening length: 5.74355 Bohr) occupying 0.823005 of unit cell:	Completed after 0 iterations at t[s]:   1723.14
	Linear fluid (dielectric constant: 78.4, screening length: 5.74355 Bohr) occupying 0.823005 of unit cell:	Completed after 0 iterations at t[s]:   1736.26
	FillingsUpdate:  mu: -0.174143142  nElectrons: 576.000000
	SubspaceRotationAdjust: set factor to 0.708
ElecMinimize: Iter:  14  F: -3244.638315069459622  |grad|_K:  2.477e-08  alpha:  3.093e-01  linmin:  1.236e-08  t[s]:   1750.57
	Linear fluid (dielectric constant: 78.4, screening length: 5.74355 Bohr) occupying 0.823005 of unit cell:	Completed after 0 iterations at t[s]:   1764.42
	Linear fluid (dielectric constant: 78.4, screening length: 5.74355 Bohr) occupying 0.823005 of unit cell:	Completed after 0 iterations at t[s]:   1776.96
	FillingsUpdate:  mu: -0.174144241  nElectrons: 576.000000
	SubspaceRotationAdjust: set factor to 0.776
ElecMinimize: Iter:  15  F: -3244.638315129846433  |grad|_K:  2.038e-08  alpha:  3.878e-01  linmin:  9.381e-08  t[s]:   1791.20
	Linear fluid (dielectric constant: 78.4, screening length: 5.74355 Bohr) occupying 0.823006 of unit cell:	Completed after 0 iterations at t[s]:   1804.29
	Linear fluid (dielectric constant: 78.4, screening length: 5.74355 Bohr) occupying 0.823006 of unit cell:	Completed after 0 iterations at t[s]:   1816.90
	FillingsUpdate:  mu: -0.174145597  nElectrons: 576.000000
	SubspaceRotationAdjust: set factor to 0.878
ElecMinimize: Iter:  16  F: -3244.638315161437276  |grad|_K:  1.648e-08  alpha:  2.996e-01  linmin:  1.802e-08  t[s]:   1830.89
	Linear fluid (dielectric constant: 78.4, screening length: 5.74355 Bohr) occupying 0.823006 of unit cell:	Completed after 0 iterations at t[s]:   1844.13
	Linear fluid (dielectric constant: 78.4, screening length: 5.74355 Bohr) occupying 0.823006 of unit cell:	Completed after 0 iterations at t[s]:   1857.15
	FillingsUpdate:  mu: -0.174147366  nElectrons: 576.000000
	SubspaceRotationAdjust: set factor to 1.01
ElecMinimize: Iter:  17  F: -3244.638315185109150  |grad|_K:  1.322e-08  alpha:  3.423e-01  linmin: -8.379e-08  t[s]:   1871.25
	Linear fluid (dielectric constant: 78.4, screening length: 5.74355 Bohr) occupying 0.823006 of unit cell:	Completed after 2 iterations at t[s]:   1887.04
	Linear fluid (dielectric constant: 78.4, screening length: 5.74355 Bohr) occupying 0.823006 of unit cell:	Completed after 0 iterations at t[s]:   1899.85
ElecMinimize: 	Step increased F by 1.466005e-07, reducing alpha to 2.035400e-03.
	Linear fluid (dielectric constant: 78.4, screening length: 5.74355 Bohr) occupying 0.823006 of unit cell:	Completed after 0 iterations at t[s]:   1923.44
ElecMinimize: 	Step increased F by 1.430849e-07, reducing alpha to 2.035400e-04.
	Linear fluid (dielectric constant: 78.4, screening length: 5.74355 Bohr) occupying 0.823006 of unit cell:	Completed after 0 iterations at t[s]:   1948.05
ElecMinimize: 	Step increased F by 1.426938e-07, reducing alpha to 2.035400e-05.
ElecMinimize: 	Step failed to reduce F after 3 attempts. Quitting step.
ElecMinimize: 	Undoing step.
	Linear fluid (dielectric constant: 78.4, screening length: 5.74355 Bohr) occupying 0.823006 of unit cell:	Completed after 0 iterations at t[s]:   1972.99
ElecMinimize: 	Step failed: resetting search direction.
	FillingsUpdate:  mu: -0.174101992  nElectrons: 576.000000
	SubspaceRotationAdjust: set factor to 0.799
ElecMinimize: Iter:  18  F: -3244.638315042377144  |grad|_K:  5.167e-08  alpha:  2.035e-05
	Linear fluid (dielectric constant: 78.4, screening length: 5.74355 Bohr) occupying 0.823006 of unit cell:	Completed after 2 iterations at t[s]:   2003.89
	Linear fluid (dielectric constant: 78.4, screening length: 5.74355 Bohr) occupying 0.823006 of unit cell:	Completed after 0 iterations at t[s]:   2016.48
	FillingsUpdate:  mu: -0.174164972  nElectrons: 576.000000
	SubspaceRotationAdjust: set factor to 0.438
ElecMinimize: Iter:  19  F: -3244.638315208363565  |grad|_K:  4.708e-08  alpha:  1.568e-01  linmin:  2.767e-04  t[s]:   2031.31
	Linear fluid (dielectric constant: 78.4, screening length: 5.74355 Bohr) occupying 0.823006 of unit cell:	Completed after 0 iterations at t[s]:   2045.85
	Linear fluid (dielectric constant: 78.4, screening length: 5.74355 Bohr) occupying 0.823005 of unit cell:	Completed after 0 iterations at t[s]:   2058.25
ElecMinimize: 	Step increased F by 3.955392e-09, reducing alpha to 4.194588e-02.
	Linear fluid (dielectric constant: 78.4, screening length: 5.74355 Bohr) occupying 0.823006 of unit cell:	Completed after 0 iterations at t[s]:   2082.08
ElecMinimize: 	Step increased F by 2.895058e-08, reducing alpha to 4.194588e-03.
	Linear fluid (dielectric constant: 78.4, screening length: 5.74355 Bohr) occupying 0.823006 of unit cell:	Completed after 0 iterations at t[s]:   2106.64
ElecMinimize: 	Step increased F by 3.667310e-08, reducing alpha to 4.194588e-04.
ElecMinimize: 	Step failed to reduce F after 3 attempts. Quitting step.
ElecMinimize: 	Undoing step.
	Linear fluid (dielectric constant: 78.4, screening length: 5.74355 Bohr) occupying 0.823006 of unit cell:	Completed after 0 iterations at t[s]:   2131.59
ElecMinimize: 	Step failed: resetting search direction.
	FillingsUpdate:  mu: -0.174160547  nElectrons: 576.000000
	SubspaceRotationAdjust: set factor to 0.377
ElecMinimize: Iter:  20  F: -3244.638315171563590  |grad|_K:  3.300e-08  alpha:  4.195e-04
	Linear fluid (dielectric constant: 78.4, screening length: 5.74355 Bohr) occupying 0.823006 of unit cell:	Completed after 0 iterations at t[s]:   2160.66
ElecMinimize: 	Predicted alpha/alphaT>3.000000, increasing alphaT to 4.705073e-01.
	Linear fluid (dielectric constant: 78.4, screening length: 5.74355 Bohr) occupying 0.823006 of unit cell:	Completed after 2 iterations at t[s]:   2173.77
	Linear fluid (dielectric constant: 78.4, screening length: 5.74355 Bohr) occupying 0.823006 of unit cell:	Completed after 0 iterations at t[s]:   2185.86
	FillingsUpdate:  mu: -0.174098391  nElectrons: 576.000000
	SubspaceRotationAdjust: set factor to 0.261
ElecMinimize: Iter:  21  F: -3244.638315219411652  |grad|_K:  4.511e-08  alpha:  1.283e-01  linmin:  3.389e-04  t[s]:   2200.08
ElecMinimize: 	Bad step direction: g.d > 0.
ElecMinimize: 	Undoing step.
	Linear fluid (dielectric constant: 78.4, screening length: 5.74355 Bohr) occupying 0.823006 of unit cell:	Completed after 0 iterations at t[s]:   2214.16
ElecMinimize: 	Step failed: resetting search direction.
	FillingsUpdate:  mu: -0.174098391  nElectrons: 576.000000
	SubspaceRotationAdjust: set factor to 0.359
ElecMinimize: Iter:  22  F: -3244.638315219413471  |grad|_K:  4.185e-08  alpha:  0.000e+00
	Linear fluid (dielectric constant: 78.4, screening length: 5.74355 Bohr) occupying 0.823006 of unit cell:	Completed after 0 iterations at t[s]:   2244.06
ElecMinimize: 	Predicted alpha/alphaT>3.000000, increasing alphaT to 3.848641e-01.
	Linear fluid (dielectric constant: 78.4, screening length: 5.74355 Bohr) occupying 0.823006 of unit cell:	Completed after 1 iterations at t[s]:   2256.90
	Linear fluid (dielectric constant: 78.4, screening length: 5.74355 Bohr) occupying 0.823006 of unit cell:	Completed after 0 iterations at t[s]:   2269.17
ElecMinimize: 	Step increased F by 2.588376e-08, reducing alpha to 1.227483e-02.
	Linear fluid (dielectric constant: 78.4, screening length: 5.74355 Bohr) occupying 0.823006 of unit cell:	Completed after 0 iterations at t[s]:   2294.00
	FillingsUpdate:  mu: -0.174152620  nElectrons: 576.000000
	SubspaceRotationAdjust: set factor to 0.225
ElecMinimize: Iter:  23  F: -3244.638315245904323  |grad|_K:  2.622e-08  alpha:  1.227e-02  linmin:  5.554e-04  t[s]:   2308.15
	Linear fluid (dielectric constant: 78.4, screening length: 5.74355 Bohr) occupying 0.823006 of unit cell:	Completed after 0 iterations at t[s]:   2322.28
ElecMinimize: 	Predicted alpha/alphaT>3.000000, increasing alphaT to 3.682449e-02.
	Linear fluid (dielectric constant: 78.4, screening length: 5.74355 Bohr) occupying 0.823006 of unit cell:	Completed after 0 iterations at t[s]:   2335.08
ElecMinimize: 	Predicted alpha/alphaT>3.000000, increasing alphaT to 1.104735e-01.
	Linear fluid (dielectric constant: 78.4, screening length: 5.74355 Bohr) occupying 0.823006 of unit cell:	Completed after 0 iterations at t[s]:   2347.65
ElecMinimize: 	Predicted alpha/alphaT>3.000000, increasing alphaT to 3.314204e-01.
	Linear fluid (dielectric constant: 78.4, screening length: 5.74355 Bohr) occupying 0.823005 of unit cell:	Completed after 2 iterations at t[s]:   2360.95
ElecMinimize: 	Step increased F by 4.651602e-07, reducing alpha to 1.461988e-01.
	Linear fluid (dielectric constant: 78.4, screening length: 5.74355 Bohr) occupying 0.823006 of unit cell:	Completed after 0 iterations at t[s]:   2385.32
	FillingsUpdate:  mu: -0.174114454  nElectrons: 576.000000
	SubspaceRotationAdjust: set factor to 0.176
ElecMinimize: Iter:  24  F: -3244.638315264006906  |grad|_K:  4.613e-08  alpha:  1.462e-01  linmin:  1.066e-04  t[s]:   2399.21
	Linear fluid (dielectric constant: 78.4, screening length: 5.74355 Bohr) occupying 0.823006 of unit cell:	Completed after 0 iterations at t[s]:   2413.34
	Linear fluid (dielectric constant: 78.4, screening length: 5.74355 Bohr) occupying 0.823006 of unit cell:	Completed after 0 iterations at t[s]:   2425.26
	FillingsUpdate:  mu: -0.174114415  nElectrons: 576.000000
	SubspaceRotationAdjust: set factor to 0.245
ElecMinimize: Iter:  25  F: -3244.638315275901277  |grad|_K:  4.135e-08  alpha:  1.559e-01  linmin: -1.025e-07  t[s]:   2439.73
	Linear fluid (dielectric constant: 78.4, screening length: 5.74355 Bohr) occupying 0.823006 of unit cell:	Completed after 2 iterations at t[s]:   2453.45
	Linear fluid (dielectric constant: 78.4, screening length: 5.74355 Bohr) occupying 0.823006 of unit cell:	Completed after 0 iterations at t[s]:   2465.71
ElecMinimize: 	Step increased F by 1.209546e-07, reducing alpha to 3.347721e-03.
	Linear fluid (dielectric constant: 78.4, screening length: 5.74355 Bohr) occupying 0.823006 of unit cell:	Completed after 0 iterations at t[s]:   2489.15
ElecMinimize: 	Step increased F by 1.114086e-07, reducing alpha to 3.347721e-04.
	Linear fluid (dielectric constant: 78.4, screening length: 5.74355 Bohr) occupying 0.823006 of unit cell:	Completed after 0 iterations at t[s]:   2512.86
ElecMinimize: 	Step increased F by 1.105277e-07, reducing alpha to 3.347721e-05.
ElecMinimize: 	Step failed to reduce F after 3 attempts. Quitting step.
ElecMinimize: 	Undoing step.
	Linear fluid (dielectric constant: 78.4, screening length: 5.74355 Bohr) occupying 0.823006 of unit cell:	Completed after 0 iterations at t[s]:   2538.37
ElecMinimize: 	Step failed: resetting search direction.
	FillingsUpdate:  mu: -0.174135680  nElectrons: 576.000000
	SubspaceRotationAdjust: set factor to 0.203
ElecMinimize: Iter:  26  F: -3244.638315165311269  |grad|_K:  1.404e-08  alpha:  3.348e-05
	Linear fluid (dielectric constant: 78.4, screening length: 5.74355 Bohr) occupying 0.823006 of unit cell:	Completed after 0 iterations at t[s]:   2566.06
	Linear fluid (dielectric constant: 78.4, screening length: 5.74355 Bohr) occupying 0.823006 of unit cell:	Completed after 0 iterations at t[s]:   2578.80
	FillingsUpdate:  mu: -0.174136062  nElectrons: 576.000000
	SubspaceRotationAdjust: set factor to 0.244
ElecMinimize: Iter:  27  F: -3244.638315185356078  |grad|_K:  6.329e-09  alpha:  4.000e-01  linmin:  1.760e-06  t[s]:   2593.60
	Linear fluid (dielectric constant: 78.4, screening length: 5.74355 Bohr) occupying 0.823006 of unit cell:	Completed after 0 iterations at t[s]:   2606.29
	Linear fluid (dielectric constant: 78.4, screening length: 5.74355 Bohr) occupying 0.823006 of unit cell:	Completed after 0 iterations at t[s]:   2619.15
	FillingsUpdate:  mu: -0.174136403  nElectrons: 576.000000
	SubspaceRotationAdjust: set factor to 0.304
ElecMinimize: Iter:  28  F: -3244.638315191218226  |grad|_K:  5.089e-09  alpha:  5.700e-01  linmin: -2.515e-06  t[s]:   2633.11
	Linear fluid (dielectric constant: 78.4, screening length: 5.74355 Bohr) occupying 0.823005 of unit cell:	Completed after 0 iterations at t[s]:   2648.88
	Linear fluid (dielectric constant: 78.4, screening length: 5.74355 Bohr) occupying 0.823005 of unit cell:	Completed after 0 iterations at t[s]:   2661.19
	FillingsUpdate:  mu: -0.174136822  nElectrons: 576.000000
	SubspaceRotationAdjust: set factor to 0.381
ElecMinimize: Iter:  29  F: -3244.638315195640644  |grad|_K:  5.118e-09  alpha:  6.447e-01  linmin:  3.897e-08  t[s]:   2675.31
ElecMinimize: Converged (|Delta F|<1.000000e-08 for 2 iters).
Setting wave functions to eigenvectors of Hamiltonian
Single-point solvation energy estimate, DeltaF = -0.051309938195118

# Ionic positions in lattice coordinates:
ion Ag   0.188230643688835   0.128980583193882   0.534169711027974 0
ion Ag   0.024209086357103   0.294490815600554   0.535285691117068 0
ion Ag   0.521563977022169   0.128980583193882   0.534169711027974 0
ion Ag   0.357542419690437   0.294490815600554   0.535285691117068 0
ion Ag   0.854897310355502   0.128980583193882   0.534169711027974 0
ion Ag   0.690875753023770   0.294490815600554   0.535285691117068 0
ion Ag   0.188230643688835   0.462313916527215   0.534169711027974 0
ion Ag   0.024209086357103   0.627824148933887   0.535285691117068 0
ion Ag   0.521563977022169   0.462313916527215   0.534169711027974 0
ion Ag   0.357542419690437   0.627824148933887   0.535285691117068 0
ion Ag   0.854897310355502   0.462313916527215   0.534169711027974 0
ion Ag   0.690875753023770   0.627824148933887   0.535285691117068 0
ion Ag   0.188230643688835   0.795647249860549   0.534169711027974 0
ion Ag   0.024209086357103   0.961157482267221   0.535285691117068 0
ion Ag   0.521563977022169   0.795647249860549   0.534169711027974 0
ion Ag   0.357542419690437   0.961157482267221   0.535285691117068 0
ion Ag   0.854897310355502   0.795647249860549   0.534169711027974 0
ion Ag   0.690875753023770   0.961157482267221   0.535285691117068 0
ion H   0.178603348060604   0.282250291162354   0.551318212458028 0
ion H   0.226573852579602  -0.001167893472858   0.441987118374842 0
ion H   0.511936681393937   0.282250291162354   0.551318212458028 0
ion H   0.559907185912935  -0.001167893472858   0.441987118374842 0
ion H   0.845270014727270   0.282250291162354   0.551318212458028 0
ion H   0.893240519246269  -0.001167893472858   0.441987118374842 0
ion H   0.178603348060604   0.615583624495687   0.551318212458028 0
ion H   0.226573852579602   0.332165439860475   0.441987118374842 0
ion H   0.511936681393937   0.615583624495687   0.551318212458028 0
ion H   0.559907185912935   0.332165439860475   0.441987118374842 0
ion H   0.845270014727270   0.615583624495687   0.551318212458028 0
ion H   0.893240519246269   0.332165439860475   0.441987118374842 0
ion H   0.178603348060604   0.948916957829020   0.551318212458028 0
ion H   0.226573852579602   0.665498773193808   0.441987118374842 0
ion H   0.511936681393937   0.948916957829020   0.551318212458028 0
ion H   0.559907185912935   0.665498773193808   0.441987118374842 0
ion H   0.845270014727270   0.948916957829020   0.551318212458028 0
ion H   0.893240519246269   0.665498773193808   0.441987118374842 0
ion O   0.141681914211437   0.245773664015647   0.575159102416564 0
ion O   0.052087075120259   0.099315186191628   0.517951308837620 0
ion O   0.235260707817010   0.007585921436984   0.498234236921605 0
ion O   0.324570060942926   0.157911540538478   0.541684632846302 0
ion O   0.475015247544770   0.245773664015647   0.575159102416564 0
ion O   0.385420408453592   0.099315186191628   0.517951308837620 0
ion O   0.568594041150344   0.007585921436984   0.498234236921605 0
ion O   0.657903394276259   0.157911540538478   0.541684632846302 0
ion O   0.808348580878104   0.245773664015647   0.575159102416564 0
ion O   0.718753741786925   0.099315186191628   0.517951308837620 0
ion O   0.901927374483677   0.007585921436984   0.498234236921605 0
ion O   0.991236727609592   0.157911540538478   0.541684632846302 0
ion O   0.141681914211437   0.579106997348980   0.575159102416564 0
ion O   0.052087075120259   0.432648519524961   0.517951308837620 0
ion O   0.235260707817010   0.340919254770317   0.498234236921605 0
ion O   0.324570060942926   0.491244873871811   0.541684632846302 0
ion O   0.475015247544770   0.579106997348980   0.575159102416564 0
ion O   0.385420408453592   0.432648519524961   0.517951308837620 0
ion O   0.568594041150344   0.340919254770317   0.498234236921605 0
ion O   0.657903394276259   0.491244873871811   0.541684632846302 0
ion O   0.808348580878104   0.579106997348980   0.575159102416564 0
ion O   0.718753741786925   0.432648519524961   0.517951308837620 0
ion O   0.901927374483677   0.340919254770317   0.498234236921605 0
ion O   0.991236727609592   0.491244873871811   0.541684632846302 0
ion O   0.141681914211437   0.912440330682313   0.575159102416564 0
ion O   0.052087075120259   0.765981852858294   0.517951308837620 0
ion O   0.235260707817010   0.674252588103651   0.498234236921605 0
ion O   0.324570060942926   0.824578207205145   0.541684632846302 0
ion O   0.475015247544770   0.912440330682313   0.575159102416564 0
ion O   0.385420408453592   0.765981852858294   0.517951308837620 0
ion O   0.568594041150344   0.674252588103651   0.498234236921605 0
ion O   0.657903394276259   0.824578207205145   0.541684632846302 0
ion O   0.808348580878104   0.912440330682313   0.575159102416564 0
ion O   0.718753741786925   0.765981852858294   0.517951308837620 0
ion O   0.901927374483677   0.674252588103651   0.498234236921605 0
ion O   0.991236727609592   0.824578207205145   0.541684632846302 0


# Forces in Lattice coordinates:
force Ag   0.015146490762066  -0.107095074826805  -0.088127080784154 0
force Ag  -0.098396193497721   0.025163463242217  -0.081476192847478 0
force Ag   0.015146490762067  -0.107095074826804  -0.088127080784151 0
force Ag  -0.098396193497720   0.025163463242217  -0.081476192847471 0
force Ag   0.015146490762066  -0.107095074826805  -0.088127080784151 0
force Ag  -0.098396193497721   0.025163463242217  -0.081476192847478 0
force Ag   0.015146490762065  -0.107095074826806  -0.088127080784154 0
force Ag  -0.098396193497725   0.025163463242222  -0.081476192847478 0
force Ag   0.015146490762066  -0.107095074826805  -0.088127080784154 0
force Ag  -0.098396193497723   0.025163463242224  -0.081476192847478 0
force Ag   0.015146490762066  -0.107095074826805  -0.088127080784151 0
force Ag  -0.098396193497721   0.025163463242221  -0.081476192847478 0
force Ag   0.015146490762065  -0.107095074826805  -0.088127080784154 0
force Ag  -0.098396193497723   0.025163463242222  -0.081476192847478 0
force Ag   0.015146490762064  -0.107095074826805  -0.088127080784151 0
force Ag  -0.098396193497723   0.025163463242219  -0.081476192847478 0
force Ag   0.015146490762067  -0.107095074826803  -0.088127080784154 0
force Ag  -0.098396193497725   0.025163463242217  -0.081476192847478 0
force H   0.142349041669895   0.152290297725862  -0.146015427919999 0
force H  -0.028100104623558  -0.035347926530583  -0.339860438756061 0
force H   0.142349041669902   0.152290297725869  -0.146015427920001 0
force H  -0.028100104623558  -0.035347926530583  -0.339860438756061 0
force H   0.142349041669902   0.152290297725862  -0.146015427919999 0
force H  -0.028100104623558  -0.035347926530577  -0.339860438756090 0
force H   0.142349041669909   0.152290297725869  -0.146015427919999 0
force H  -0.028100104623560  -0.035347926530583  -0.339860438756118 0
force H   0.142349041669902   0.152290297725855  -0.146015427919999 0
force H  -0.028100104623558  -0.035347926530579  -0.339860438756090 0
force H   0.142349041669895   0.152290297725862  -0.146015427919999 0
force H  -0.028100104623562  -0.035347926530583  -0.339860438756090 0
force H   0.142349041669909   0.152290297725862  -0.146015427919997 0
force H  -0.028100104623564  -0.035347926530579  -0.339860438756090 0
force H   0.142349041669902   0.152290297725855  -0.146015427919999 0
force H  -0.028100104623560  -0.035347926530579  -0.339860438756033 0
force H   0.142349041669895   0.152290297725862  -0.146015427919997 0
force H  -0.028100104623562  -0.035347926530579  -0.339860438756090 0
force O  -0.065682860655548  -0.080831020971958   0.218434625220070 0
force O   0.108466702740611  -0.101080163389874  -0.037182796002542 0
force O   0.019990646569311   0.035455174848873   0.391353923089152 0
force O  -0.093685222130421   0.111224841435455   0.083839854663003 0
force O  -0.065682860655548  -0.080831020971969   0.218434625219956 0
force O   0.108466702740621  -0.101080163389877  -0.037182796002570 0
force O   0.019990646569325   0.035455174848858   0.391353923089099 0
force O  -0.093685222130421   0.111224841435469   0.083839854663017 0
force O  -0.065682860655555  -0.080831020971958   0.218434625219952 0
force O   0.108466702740621  -0.101080163389877  -0.037182796002542 0
force O   0.019990646569339   0.035455174848859   0.391353923089067 0
force O  -0.093685222130411   0.111224841435465   0.083839854663015 0
force O  -0.065682860655555  -0.080831020971971   0.218434625220066 0
force O   0.108466702740607  -0.101080163389867  -0.037182796002540 0
force O   0.019990646569325   0.035455174848873   0.391353923089095 0
force O  -0.093685222130418   0.111224841435469   0.083839854663017 0
force O  -0.065682860655546  -0.080831020971971   0.218434625220066 0
force O   0.108466702740607  -0.101080163389877  -0.037182796002512 0
force O   0.019990646569311   0.035455174848858   0.391353923089152 0
force O  -0.093685222130421   0.111224841435476   0.083839854663001 0
force O  -0.065682860655553  -0.080831020971955   0.218434625220127 0
force O   0.108466702740611  -0.101080163389877  -0.037182796002542 0
force O   0.019990646569311   0.035455174848858   0.391353923089152 0
force O  -0.093685222130414   0.111224841435476   0.083839854663003 0
force O  -0.065682860655539  -0.080831020971942   0.218434625220070 0
force O   0.108466702740614  -0.101080163389874  -0.037182796002513 0
force O   0.019990646569325   0.035455174848859   0.391353923089095 0
force O  -0.093685222130414   0.111224841435476   0.083839854663003 0
force O  -0.065682860655548  -0.080831020971955   0.218434625220070 0
force O   0.108466702740607  -0.101080163389874  -0.037182796002513 0
force O   0.019990646569311   0.035455174848858   0.391353923089095 0
force O  -0.093685222130421   0.111224841435469   0.083839854663015 0
force O  -0.065682860655526  -0.080831020971956   0.218434625220070 0
force O   0.108466702740614  -0.101080163389867  -0.037182796002513 0
force O   0.019990646569325   0.035455174848858   0.391353923089149 0
force O  -0.093685222130421   0.111224841435465   0.083839854663001 0

# Energy components:
   A_diel =       -0.0824686327188512
   Eewald =     8488.7426297617093951
       EH =    11331.4190086955695733
     Eloc =   -23704.1447980506854947
      Enl =      154.4090541709302897
      Exc =     -396.5927299607326404
 Exc_core =        6.0888498679616632
       KE =      875.6049968097918281
-------------------------------------
     Etot =    -3244.5554573381755290
       TS =        0.0828578574649390
-------------------------------------
        F =    -3244.6383151956406437

IonicMinimize: Iter:   0  F: -3244.638315195640644  |grad|_K:  0.000e+00  t[s]:   2688.21
IonicMinimize: Converged (|grad|_K<1.000000e-04).

#--- Lowdin population analysis ---
# oxidation-state Ag +0.328 +0.312 +0.328 +0.312 +0.328 +0.312 +0.328 +0.312 +0.328 +0.312 +0.328 +0.312 +0.328 +0.312 +0.328 +0.312 +0.328 +0.312
# oxidation-state H +0.383 +0.439 +0.383 +0.439 +0.383 +0.439 +0.383 +0.439 +0.383 +0.439 +0.383 +0.439 +0.383 +0.439 +0.383 +0.439 +0.383 +0.439
# oxidation-state O -0.561 -0.087 -0.572 -0.084 -0.561 -0.087 -0.572 -0.084 -0.561 -0.087 -0.572 -0.084 -0.561 -0.087 -0.572 -0.084 -0.561 -0.087 -0.572 -0.084 -0.561 -0.087 -0.572 -0.084 -0.561 -0.087 -0.572 -0.084 -0.561 -0.087 -0.572 -0.084 -0.561 -0.087 -0.572 -0.084


Dumping 'NbTe2.fillings' ... done
Dumping 'NbTe2.wfns' ... done
Dumping 'NbTe2.fluidState' ... done
Dumping 'NbTe2.eigenvals' ... done
End date and time: Tue Jul 21 12:57:38 2020  (Duration: 0-0:45:02.27)
Done!
