
*************** JDFTx 1.5.0  ***************

Start date and time: Mon Jan 25 20:10:10 2021
Executable jdftx_gpu with command-line: -i Charged.in -o Charged.out
Running on hosts (process indices):  amax (0-6)
Divided in process groups (process indices):  0 (0)  1 (1)  2 (2)  3 (3)  4 (4)  5 (5)  6 (6)
gpuInit: Found compatible cuda device 0 'Tesla K80'
gpuInit: Found compatible cuda device 1 'Tesla K80'
gpuInit: Found compatible cuda device 2 'Tesla K80'
gpuInit: Found compatible cuda device 3 'Tesla K80'
gpuInit: Found compatible cuda device 4 'Tesla K80'
gpuInit: Found compatible cuda device 5 'Tesla K80'
gpuInit: Found compatible cuda device 6 'Tesla K80'
gpuInit: Selected device 0
Resource initialization completed at t[s]:      3.15
Run totals: 7 processes, 24 threads, 7 GPUs


Input parsed successfully to the following command list (including defaults):

basis kpoint-dependent
cache-projectors no
coords-type Lattice
core-overlap-check none
coulomb-interaction Slab 001
coulomb-truncation-embed 0.5 0.5 0.5
davidson-band-ratio 1.1
dump End State
dump-name NbTe2.$VAR
elec-cutoff 20
elec-eigen-algo Davidson
elec-ex-corr gga-PBE
elec-initial-charge -2.000000
elec-initial-magnetization 5.000000 no
elec-smearing Gauss 0.0073499
electronic-minimize  \
	dirUpdateScheme      FletcherReeves \
	linminMethod         DirUpdateRecommended \
	nIterations          200 \
	history              15 \
	knormThreshold       0 \
	energyDiffThreshold  1e-08 \
	nEnergyDiff          2 \
	alphaTstart          1 \
	alphaTmin            1e-10 \
	updateTestStepSize   yes \
	alphaTreduceFactor   0.1 \
	alphaTincreaseFactor 3 \
	nAlphaAdjustMax      3 \
	wolfeEnergy          0.0001 \
	wolfeGradient        0.9 \
	fdTest               no
exchange-regularization WignerSeitzTruncated
fluid LinearPCM 298.000000 1.013250
fluid-anion F- 1 MeanFieldLJ \
	epsBulk 1 \
	pMol 0 \
	epsInf 1 \
	Pvap 0 \
	sigmaBulk 0 \
	Rvdw 2.24877 \
	Res 0 \
	tauNuc 343133
fluid-cation Na+ 1 MeanFieldLJ \
	epsBulk 1 \
	pMol 0 \
	epsInf 1 \
	Pvap 0 \
	sigmaBulk 0 \
	Rvdw 2.19208 \
	Res 0 \
	tauNuc 343133
fluid-ex-corr lda-TF lda-PZ
fluid-gummel-loop 10 1.000000e-05
fluid-minimize  \
	dirUpdateScheme      PolakRibiere \
	linminMethod         DirUpdateRecommended \
	nIterations          400 \
	history              15 \
	knormThreshold       1e-11 \
	energyDiffThreshold  0 \
	nEnergyDiff          2 \
	alphaTstart          1 \
	alphaTmin            1e-10 \
	updateTestStepSize   yes \
	alphaTreduceFactor   0.1 \
	alphaTincreaseFactor 3 \
	nAlphaAdjustMax      6 \
	wolfeEnergy          0.0001 \
	wolfeGradient        0.9 \
	fdTest               no
fluid-solvent H2O 55.338 ScalarEOS \
	epsBulk 78.4 \
	pMol 0.92466 \
	epsInf 1.77 \
	Pvap 1.06736e-10 \
	sigmaBulk 4.62e-05 \
	Rvdw 2.61727 \
	Res 1.42 \
	tauNuc 343133 \
	poleEl 15 7 1
forces-output-coords Positions
initial-state NbTe2.$VAR
ion B   0.166670001000000   0.083329999999997   0.500000000000000 1
ion B   0.416670013000001   0.083329999999997   0.500000000000000 1
ion B   0.666670035999999   0.083329999999997   0.500000000000000 1
ion B   0.916669964999997   0.083329999999997   0.500000000000000 1
ion B   0.166669992999999   0.333330009000001   0.500000000000000 1
ion B   0.416670005000000   0.333330009000001   0.500000000000000 1
ion B   0.666670005000000   0.333330009000001   0.500000000000000 1
ion B   0.916669980999998   0.333330009000001   0.500000000000000 1
ion B   0.166670009999997   0.583330017999998   0.500000000000000 1
ion B   0.416670021999998   0.583330017999998   0.500000000000000 1
ion B   0.666670046000000   0.583330017999998   0.500000000000000 1
ion B   0.916669998000003   0.583330017999998   0.500000000000000 1
ion B   0.166669990999999   0.833330027999999   0.500000000000000 1
ion B   0.416670013999997   0.833330027999999   0.500000000000000 1
ion B   0.666670037999999   0.833330027999999   0.500000000000000 1
ion B   0.916670013999997   0.833330027999999   0.500000000000000 1
ion N   0.083329997000000   0.166669994999999   0.500000000000000 1
ion N   0.333330021000002   0.166669994999999   0.500000000000000 1
ion N   0.583329997000000   0.166669994999999   0.500000000000000 1
ion N   0.833330021000002   0.166669994999999   0.500000000000000 1
ion N   0.083329997000000   0.416670017999998   0.500000000000000 1
ion N   0.333330019999998   0.416670017999998   0.500000000000000 1
ion N   0.583329997000000   0.416670017999998   0.500000000000000 1
ion N   0.833329997000000   0.416670017999998   0.500000000000000 1
ion N   0.083329988999999   0.666670027000002   0.500000000000000 1
ion N   0.333330013000001   0.666670027000002   0.500000000000000 1
ion N   0.583329988999999   0.666670027000002   0.500000000000000 1
ion N   0.833330013000001   0.666670027000002   0.500000000000000 1
ion N   0.083330005999997   0.916670035999999   0.500000000000000 1
ion N   0.333330029000003   0.916670035999999   0.500000000000000 1
ion N   0.583330005999997   0.916670035999999   0.500000000000000 1
ion N   0.833330029000003   0.916670035999999   0.500000000000000 1
ion-species GBRV/$ID_pbe.uspp
ion-width Ecut
ionic-minimize  \
	dirUpdateScheme      L-BFGS \
	linminMethod         DirUpdateRecommended \
	nIterations          500 \
	history              15 \
	knormThreshold       0.0001 \
	energyDiffThreshold  1e-06 \
	nEnergyDiff          2 \
	alphaTstart          1 \
	alphaTmin            1e-10 \
	updateTestStepSize   yes \
	alphaTreduceFactor   0.1 \
	alphaTincreaseFactor 3 \
	nAlphaAdjustMax      3 \
	wolfeEnergy          0.0001 \
	wolfeGradient        0.9 \
	fdTest               no
kpoint   0.000000000000   0.000000000000   0.000000000000  1.00000000000000
kpoint-folding 6 6 1 
latt-move-scale 1 1 1
latt-scale 1.88973 1.88973 1.88973 
lattice Triclinic 10.0123 10.0123 15 90 90 120
lattice-minimize  \
	dirUpdateScheme      L-BFGS \
	linminMethod         DirUpdateRecommended \
	nIterations          0 \
	history              15 \
	knormThreshold       0 \
	energyDiffThreshold  1e-06 \
	nEnergyDiff          2 \
	alphaTstart          1 \
	alphaTmin            1e-10 \
	updateTestStepSize   yes \
	alphaTreduceFactor   0.1 \
	alphaTincreaseFactor 3 \
	nAlphaAdjustMax      3 \
	wolfeEnergy          0.0001 \
	wolfeGradient        0.9 \
	fdTest               no
lcao-params -1 1e-06 0.0073499
pcm-variant CANDLE
spintype z-spin
subspace-rotation-factor 1 yes
symmetries automatic
symmetry-threshold 0.0001



---------- Setting up symmetries ----------

Found 24 point-group symmetries of the bravais lattice
Found 64 space-group symmetries with basis
Applied RMS atom displacement 3.8962e-07 bohrs to make symmetries exact.

---------- Initializing the Grid ----------
R = 
[    18.9205   -9.46025          0  ]
[          0    16.3856          0  ]
[          0          0    28.3459  ]
unit cell volume = 8787.92
G =
[   0.332083   0.191728         -0  ]
[          0   0.383457          0  ]
[          0         -0   0.221661  ]
Minimum fftbox size, Smin = [  80  80  116  ]
Chosen fftbox size, S = [  80  80  120  ]

---------- Exchange Correlation functional ----------
Initalized PBE GGA exchange.
Initalized PBE GGA correlation.

---------- Setting up pseudopotentials ----------
Width of ionic core gaussian charges (only for fluid interactions / plotting) set to 0.397384

Reading pseudopotential file '/home/guoxy/vasp/jdftx-1.5.0/build/pseudopotentials/GBRV/b_pbe.uspp':
  Title: B.  Created by USPP 7.3.6 on 8-4-15
  Reference state energy: -2.950027.  3 valence electrons in orbitals:
    |200>  occupation: 2  eigenvalue: -0.346865
    |210>  occupation: 1  eigenvalue: -0.132618
  lMax: 1  lLocal: 2  QijEcut: 6
  4 projectors sampled on a log grid with 559 points:
    l: 0  eig: -0.346865  rCut: 1.25
    l: 0  eig: -0.500000  rCut: 1.25
    l: 1  eig: -0.346865  rCut: 1.25
    l: 1  eig: -1.000000  rCut: 1.25
  Partial core density with radius 0.9
  Transforming core density to a uniform radial grid of dG=0.02 with 1491 points.
  Transforming local potential to a uniform radial grid of dG=0.02 with 1491 points.
  Transforming nonlocal projectors to a uniform radial grid of dG=0.02 with 432 points.
  Transforming density augmentations to a uniform radial grid of dG=0.02 with 1491 points.
  Transforming atomic orbitals to a uniform radial grid of dG=0.02 with 432 points.
  Core radius for overlap checks: 1.25 bohrs.

Reading pseudopotential file '/home/guoxy/vasp/jdftx-1.5.0/build/pseudopotentials/GBRV/n_pbe.uspp':
  Title: N.  Created by USPP 7.3.6 on 3-2-2014
  Reference state energy: -9.763716.  5 valence electrons in orbitals:
    |200>  occupation: 2  eigenvalue: -0.681964
    |210>  occupation: 3  eigenvalue: -0.260726
  lMax: 1  lLocal: 2  QijEcut: 6
  4 projectors sampled on a log grid with 491 points:
    l: 0  eig: -0.681964  rCut: 1.15
    l: 0  eig: 0.000000  rCut: 1.15
    l: 1  eig: -0.260729  rCut: 1.2
    l: 1  eig: 0.500000  rCut: 1.2
  Partial core density with radius 0.8
  Transforming core density to a uniform radial grid of dG=0.02 with 1491 points.
  Transforming local potential to a uniform radial grid of dG=0.02 with 1491 points.
  Transforming nonlocal projectors to a uniform radial grid of dG=0.02 with 432 points.
  Transforming density augmentations to a uniform radial grid of dG=0.02 with 1491 points.
  Transforming atomic orbitals to a uniform radial grid of dG=0.02 with 432 points.
  Core radius for overlap checks: 1.20 bohrs.

Initialized 2 species with 32 total atoms.

Folded 1 k-points by 6x6x1 to 36 k-points.

---------- Setting up k-points, bands, fillings ----------
Adding inversion symmetry to k-mesh for non-inversion-symmetric unit cell.
Reduced to 13 k-points under symmetry. 
Computing the number of bands and number of electrons
Calculating initial fillings.
nElectrons: 126.000000   nBands: 128   nStates: 26

----- Setting up reduced wavefunction bases (one per k-point) -----
average nbasis = 37544.417 , ideal nbasis = 37542.666

---------- Setting up coulomb interaction ----------
Fluid mode embedding: using embedded box, but periodic Coulomb kernel.
(Fluid response is responsible for (approximate) separation between periodic images.)
Setting up double-sized grid for truncated Coulomb potentials:
R = 
[    18.9205   -9.46025          0  ]
[          0    16.3856          0  ]
[          0          0    56.6918  ]
unit cell volume = 17575.8
G =
[   0.332083   0.191728         -0  ]
[          0   0.383457          0  ]
[          0         -0   0.110831  ]
Chosen fftbox size, S = [  80  80  240  ]
Integer grid location selected as the embedding center:
   Grid: [  40  40  60  ]
   Lattice: [  0.5  0.5  0.5  ]
   Cartesian: [  4.73013  8.19282  14.1729  ]
Constructing Wigner-Seitz cell: 8 faces (6 quadrilaterals, 2 hexagons)
Range-separation parameter for embedded mesh potentials due to point charges: 0.613524 bohrs.

Initializing van der Waals corrections
	NOTE: vdW corrections apply only for interactions with fluid.
	 B:  C6:   54.29 Eh-a0^6  R0: 2.806 a0
	 N:  C6:   21.33 Eh-a0^6  R0: 2.640 a0

---------- Setting up ewald sum ----------
Optimum gaussian width for ewald sums = 5.821351 bohr.
Real space sum over 605 unit cells with max indices [  5  5  2  ]
Reciprocal space sum over 5577 terms with max indices [  6  6  16  ]

---------- Allocating electronic variables ----------
Initializing wave functions:  linear combination of atomic orbitals
B pseudo-atom occupations:   s ( 2 )  p ( 1 )
N pseudo-atom occupations:   s ( 2 )  p ( 3 )
	FillingsUpdate:  mu: -0.726985434  nElectrons: 126.000000  magneticMoment: [ Abs: 1.17047  Tot: +1.14499 ]
LCAOMinimize: Iter:   0  F: -203.5301558105392132  |grad|_K:  3.518e-03  alpha:  1.000e+00
	FillingsUpdate:  mu: -0.572590035  nElectrons: 126.000000  magneticMoment: [ Abs: 1.35673  Tot: +1.31125 ]
LCAOMinimize: Iter:   1  F: -204.4930340718486832  |grad|_K:  3.834e-04  alpha:  4.300e-01  linmin:  5.520e-01  cgtest: -1.059e+00  t[s]:     79.95
LCAOMinimize: 	Bad step direction: g.d > 0.
LCAOMinimize: 	Undoing step.
LCAOMinimize: 	Step failed: resetting search direction.
	FillingsUpdate:  mu: -0.572590035  nElectrons: 126.000000  magneticMoment: [ Abs: 1.35673  Tot: +1.31125 ]
LCAOMinimize: Iter:   2  F: -204.4930340718486832  |grad|_K:  3.834e-04  alpha:  0.000e+00
	FillingsUpdate:  mu: -0.588533741  nElectrons: 126.000000  magneticMoment: [ Abs: 1.15582  Tot: +1.05161 ]
LCAOMinimize: Iter:   3  F: -204.5063052816191203  |grad|_K:  5.610e-05  alpha:  4.170e-01  linmin:  1.111e-02  cgtest: -7.463e-02  t[s]:    121.29
LCAOMinimize: 	Predicted alpha/alphaT>3.000000, increasing alphaT to 1.251123e+00.
	FillingsUpdate:  mu: -0.588409096  nElectrons: 126.000000  magneticMoment: [ Abs: 0.48707  Tot: +0.11508 ]
LCAOMinimize: Iter:   4  F: -204.5075506254757443  |grad|_K:  2.800e-05  alpha:  1.949e+00  linmin:  1.168e-01  cgtest: -1.437e-01  t[s]:    153.98
	FillingsUpdate:  mu: -0.587676588  nElectrons: 126.000000  magneticMoment: [ Abs: 0.10788  Tot: -0.07654 ]
LCAOMinimize: Iter:   5  F: -204.5077633859582988  |grad|_K:  1.816e-05  alpha:  1.456e+00  linmin: -5.797e-04  cgtest:  2.909e-01  t[s]:    179.00
	FillingsUpdate:  mu: -0.588431825  nElectrons: 126.000000  magneticMoment: [ Abs: 0.07480  Tot: -0.06502 ]
LCAOMinimize: Iter:   6  F: -204.5078017849029379  |grad|_K:  6.406e-06  alpha:  5.360e-01  linmin: -2.021e-03  cgtest: -1.042e-02  t[s]:    204.59
	FillingsUpdate:  mu: -0.588254167  nElectrons: 126.000000  magneticMoment: [ Abs: 0.04403  Tot: -0.02894 ]
LCAOMinimize: Iter:   7  F: -204.5078107697978567  |grad|_K:  1.813e-06  alpha:  1.009e+00  linmin:  9.128e-05  cgtest: -1.124e-02  t[s]:    229.52
	FillingsUpdate:  mu: -0.588342801  nElectrons: 126.000000  magneticMoment: [ Abs: 0.02884  Tot: -0.01464 ]
LCAOMinimize: Iter:   8  F: -204.5078116698992972  |grad|_K:  1.669e-06  alpha:  1.266e+00  linmin: -9.868e-05  cgtest:  8.991e-04  t[s]:    254.68
	FillingsUpdate:  mu: -0.588274516  nElectrons: 126.000000  magneticMoment: [ Abs: 0.01113  Tot: -0.00333 ]
LCAOMinimize: Iter:   9  F: -204.5078121903471526  |grad|_K:  7.470e-07  alpha:  8.633e-01  linmin:  4.968e-05  cgtest: -7.335e-04  t[s]:    279.71
LCAOMinimize: Converged (|Delta F|<1.000000e-06 for 2 iters).
----- createFluidSolver() ----- (Fluid-side solver setup)
   Initializing fluid molecule 'H2O'
     Initializing site 'O'
       Electron density: proportional to exp(-r/0.36935)*erfc((r-0.51523)/0.36823) with norm 6.826
       Charge density: gaussian nuclear width 0.478731 with net site charge 0.826
       Polarizability: cuspless exponential with width 0.32 and norm 3.73
       Hard sphere radius: 2.57003 bohrs
       Positions in reference frame:
         [ +0.000000 +0.000000 +0.000000 ]
     Initializing site 'H'
       Electron density: proportional to exp(-r/0.34641)*erfc((r-0)/0.390882) with norm 0.587
       Charge density: gaussian nuclear width 0.377945 with net site charge -0.413
       Polarizability: cuspless exponential with width 0.39 and norm 3.3
       Positions in reference frame:
         [ +0.000000 -1.441945 +1.122523 ]
         [ +0.000000 +1.441945 +1.122523 ]
     Net charge: 0   dipole magnitude: 0.927204
     Initializing spherical shell mfKernel with radius 2.61727 Bohr
     deltaS corrections:
       site 'O': -7.54299
       site 'H': -6.83917
   Initializing fluid molecule 'Na+'
     Initializing site 'Na'
       Electron density: proportional to exp(-r/0.19682)*erfc((r-0.71491)/0.41314) with norm 8.1383
       Charge density: gaussian nuclear width 0.365347 with net site charge -1
       Hard sphere radius: 1.86327 bohrs
       Positions in reference frame:
         [ +0.000000 +0.000000 +0.000000 ]
     Net charge: -1   dipole magnitude: 0
     Initializing gaussian mfKernel with width: 1.55004 Bohr
     deltaS corrections:
       site 'Na': -22.3555
   Initializing fluid molecule 'F-'
     Initializing site 'F'
       Electron density: proportional to exp(-r/0.38886)*erfc((r-0)/0.438782) with norm 8
       Charge density: gaussian nuclear width 0.374796 with net site charge 1
       Hard sphere radius: 2.39995 bohrs
       Positions in reference frame:
         [ +0.000000 +0.000000 +0.000000 ]
     Net charge: 1   dipole magnitude: 0
     Initializing gaussian mfKernel with width: 1.59012 Bohr
     deltaS corrections:
       site 'F': -9.04335

Correction to mu due to finite nuclear width = -0.00722593
   Cavity determined by nc: 0.00142 and sigma: 0.707107
   Nonlocal vdW cavity from gaussian model electron density with norm = 8 and sigma = 0.993594 bohr
   Charge asymmetry in cavity with sensitivity pCavity = 36.5 e-bohr/Eh
   Electrostatic cavity expanded by eta = 1.46 bohrs
   Weighted density cavitation model constrained by Nbulk: 0.0049383 bohr^-3, Pvap: 3.14029 kPa, Rvdw: 2.61727 bohr and sigmaBulk: 4.62e-05 Eh/bohr^2 at T: 298 K.
   Weighted density dispersion model using vdW pair potentials with single solvent site with sqrtC6eff: 0.77 SI.


---- Citations for features of the code used in this run ----

   Software package:
      R. Sundararaman, K. Letchworth-Weaver, K.A. Schwarz, D. Gunceler, Y. Ozhabes and T.A. Arias, 'JDFTx: software for joint density-functional theory', SoftwareX 6, 278 (2017)

   gga-PBE exchange-correlation functional:
      J.P. Perdew, K. Burke and M. Ernzerhof, Phys. Rev. Lett. 77, 3865 (1996)

   Pseudopotentials:
      KF Garrity, JW Bennett, KM Rabe and D Vanderbilt, Comput. Mater. Sci. 81, 446 (2014)

   Truncated Coulomb potentials:
      R. Sundararaman and T.A. Arias, Phys. Rev. B 87, 165122 (2013)

   Van der Waals correction pair-potentials:
      S. Grimme, J. Comput. Chem. 27, 1787 (2006)

   Charge-asymmetric nonlocally-determined local-electric (CANDLE) solvation model:
      R. Sundararaman and W.A. Goddard III, J. Chem. Phys. 142, 064107 (2015)

   Total energy minimization with Auxiliary Hamiltonian:
      C. Freysoldt, S. Boeck, and J. Neugebauer, Phys. Rev. B 79, 241103(R) (2009)

This list may not be complete. Please suggest additional citations or
report any other bugs at https://github.com/shankar1729/jdftx/issues

Initialization completed successfully at t[s]:    282.85

Fluid solver invoked on fresh (partially random / LCAO) wavefunctions
Running a vacuum solve first:

-------- Initial electronic minimization -----------
	FillingsUpdate:  mu: -0.588274516  nElectrons: 126.000000  magneticMoment: [ Abs: 0.01113  Tot: -0.00333 ]
ElecMinimize: Iter:   0  F: -204.507812190346755  |grad|_K:  1.298e-04  alpha:  1.000e+00
	FillingsUpdate:  mu: -0.509550564  nElectrons: 126.000000  magneticMoment: [ Abs: 0.00712  Tot: -0.00289 ]
	SubspaceRotationAdjust: set factor to 1
ElecMinimize: Iter:   1  F: -206.068185319409565  |grad|_K:  3.605e-05  alpha:  7.417e-01  linmin:  1.309e-05  t[s]:    330.40
	FillingsUpdate:  mu: -0.481682046  nElectrons: 126.000000  magneticMoment: [ Abs: 0.00434  Tot: -0.00238 ]
	SubspaceRotationAdjust: set factor to 0.718
ElecMinimize: Iter:   2  F: -206.199398312491951  |grad|_K:  1.652e-05  alpha:  8.059e-01  linmin: -6.483e-05  t[s]:    358.42
	FillingsUpdate:  mu: -0.492908028  nElectrons: 126.000000  magneticMoment: [ Abs: 0.00280  Tot: -0.00179 ]
	SubspaceRotationAdjust: set factor to 0.559
ElecMinimize: Iter:   3  F: -206.221230488384492  |grad|_K:  8.207e-06  alpha:  6.330e-01  linmin:  9.367e-06  t[s]:    387.03
	FillingsUpdate:  mu: -0.489704972  nElectrons: 126.000000  magneticMoment: [ Abs: 0.00187  Tot: -0.00137 ]
	SubspaceRotationAdjust: set factor to 0.664
ElecMinimize: Iter:   4  F: -206.227322470971046  |grad|_K:  3.175e-06  alpha:  7.246e-01  linmin:  2.238e-05  t[s]:    415.36
	FillingsUpdate:  mu: -0.488504130  nElectrons: 126.000000  magneticMoment: [ Abs: 0.00146  Tot: -0.00111 ]
	SubspaceRotationAdjust: set factor to 0.81
ElecMinimize: Iter:   5  F: -206.228290800786397  |grad|_K:  1.583e-06  alpha:  7.699e-01  linmin:  1.948e-05  t[s]:    443.32
	FillingsUpdate:  mu: -0.488940971  nElectrons: 126.000000  magneticMoment: [ Abs: 0.00111  Tot: -0.00084 ]
	SubspaceRotationAdjust: set factor to 1.12
ElecMinimize: Iter:   6  F: -206.228540765020682  |grad|_K:  8.037e-07  alpha:  8.008e-01  linmin:  7.491e-06  t[s]:    471.64
	FillingsUpdate:  mu: -0.488722595  nElectrons: 126.000000  magneticMoment: [ Abs: 0.00087  Tot: -0.00064 ]
	SubspaceRotationAdjust: set factor to 1.31
ElecMinimize: Iter:   7  F: -206.228590348688755  |grad|_K:  3.486e-07  alpha:  6.158e-01  linmin:  9.950e-07  t[s]:    500.16
	FillingsUpdate:  mu: -0.488712758  nElectrons: 126.000000  magneticMoment: [ Abs: 0.00061  Tot: -0.00043 ]
	SubspaceRotationAdjust: set factor to 1.31
ElecMinimize: Iter:   8  F: -206.228600795936131  |grad|_K:  1.778e-07  alpha:  6.880e-01  linmin:  1.217e-06  t[s]:    528.80
	FillingsUpdate:  mu: -0.488795066  nElectrons: 126.000000  magneticMoment: [ Abs: 0.00037  Tot: -0.00025 ]
	SubspaceRotationAdjust: set factor to 1.63
ElecMinimize: Iter:   9  F: -206.228603569079212  |grad|_K:  1.081e-07  alpha:  7.033e-01  linmin:  1.519e-06  t[s]:    557.85
	FillingsUpdate:  mu: -0.488764467  nElectrons: 126.000000  magneticMoment: [ Abs: 0.00021  Tot: -0.00013 ]
	SubspaceRotationAdjust: set factor to 1.51
ElecMinimize: Iter:  10  F: -206.228604393705922  |grad|_K:  5.364e-08  alpha:  5.679e-01  linmin:  2.525e-07  t[s]:    586.14
	FillingsUpdate:  mu: -0.488783343  nElectrons: 126.000000  magneticMoment: [ Abs: 0.00011  Tot: -0.00007 ]
	SubspaceRotationAdjust: set factor to 1.6
ElecMinimize: Iter:  11  F: -206.228604604402989  |grad|_K:  2.662e-08  alpha:  5.856e-01  linmin:  2.980e-07  t[s]:    615.01
	FillingsUpdate:  mu: -0.488779431  nElectrons: 126.000000  magneticMoment: [ Abs: 0.00006  Tot: -0.00004 ]
	SubspaceRotationAdjust: set factor to 1.91
ElecMinimize: Iter:  12  F: -206.228604659042475  |grad|_K:  1.185e-08  alpha:  6.176e-01  linmin:  4.152e-07  t[s]:    643.74
	FillingsUpdate:  mu: -0.488777865  nElectrons: 126.000000  magneticMoment: [ Abs: 0.00003  Tot: -0.00002 ]
	SubspaceRotationAdjust: set factor to 1.99
ElecMinimize: Iter:  13  F: -206.228604669995235  |grad|_K:  6.191e-09  alpha:  6.221e-01  linmin: -7.017e-08  t[s]:    673.80
	FillingsUpdate:  mu: -0.488780183  nElectrons: 126.000000  magneticMoment: [ Abs: 0.00002  Tot: -0.00001 ]
	SubspaceRotationAdjust: set factor to 1.68
ElecMinimize: Iter:  14  F: -206.228604672641410  |grad|_K:  3.529e-09  alpha:  5.478e-01  linmin: -3.003e-07  t[s]:    702.84
	FillingsUpdate:  mu: -0.488778307  nElectrons: 126.000000  magneticMoment: [ Abs: 0.00001  Tot: -0.00001 ]
	SubspaceRotationAdjust: set factor to 1.45
ElecMinimize: Iter:  15  F: -206.228604673436536  |grad|_K:  2.066e-09  alpha:  5.051e-01  linmin:  1.204e-07  t[s]:    731.44
ElecMinimize: Converged (|Delta F|<1.000000e-08 for 2 iters).
Setting wave functions to eigenvectors of Hamiltonian
Vacuum energy after initial minimize, F = -206.228604673436536

	Linear fluid (dielectric constant: 78.4, screening length: 5.74355 Bohr) occupying 0.814129 of unit cell:	Completed after 13 iterations at t[s]:    742.17

-------- Electronic minimization -----------
	Linear fluid (dielectric constant: 78.4, screening length: 5.74355 Bohr) occupying 0.814129 of unit cell:	Completed after 0 iterations at t[s]:    751.81
	FillingsUpdate:  mu: -0.288511437  nElectrons: 126.000000  magneticMoment: [ Abs: 0.00001  Tot: -0.00000 ]
ElecMinimize: Iter:   0  F: -206.392885480061238  |grad|_K:  2.946e-06  alpha:  1.000e+00
	Linear fluid (dielectric constant: 78.4, screening length: 5.74355 Bohr) occupying 0.815190 of unit cell:	Completed after 9 iterations at t[s]:    775.29
	Linear fluid (dielectric constant: 78.4, screening length: 5.74355 Bohr) occupying 0.814747 of unit cell:	Completed after 9 iterations at t[s]:    788.09
	FillingsUpdate:  mu: -0.283995150  nElectrons: 126.000000  magneticMoment: [ Abs: 0.00001  Tot: -0.00000 ]
	SubspaceRotationAdjust: set factor to 0.87
ElecMinimize: Iter:   1  F: -206.393504688129980  |grad|_K:  1.616e-06  alpha:  5.773e-01  linmin:  7.360e-07  t[s]:    801.82
	Linear fluid (dielectric constant: 78.4, screening length: 5.74355 Bohr) occupying 0.815000 of unit cell:	Completed after 7 iterations at t[s]:    811.46
	Linear fluid (dielectric constant: 78.4, screening length: 5.74355 Bohr) occupying 0.814968 of unit cell:	Completed after 2 iterations at t[s]:    823.11
	FillingsUpdate:  mu: -0.284071418  nElectrons: 126.000000  magneticMoment: [ Abs: 0.00002  Tot: -0.00000 ]
	SubspaceRotationAdjust: set factor to 0.642
ElecMinimize: Iter:   2  F: -206.393668593707588  |grad|_K:  6.063e-07  alpha:  5.035e-01  linmin:  3.975e-07  t[s]:    835.85
	Linear fluid (dielectric constant: 78.4, screening length: 5.74355 Bohr) occupying 0.815033 of unit cell:	Completed after 2 iterations at t[s]:    844.69
	Linear fluid (dielectric constant: 78.4, screening length: 5.74355 Bohr) occupying 0.815092 of unit cell:	Completed after 4 iterations at t[s]:    856.44
	FillingsUpdate:  mu: -0.283792992  nElectrons: 126.000000  magneticMoment: [ Abs: 0.00001  Tot: -0.00000 ]
	SubspaceRotationAdjust: set factor to 0.984
ElecMinimize: Iter:   3  F: -206.393712779154697  |grad|_K:  2.828e-07  alpha:  9.706e-01  linmin:  8.269e-06  t[s]:    869.20
	Linear fluid (dielectric constant: 78.4, screening length: 5.74355 Bohr) occupying 0.815112 of unit cell:	Completed after 2 iterations at t[s]:    878.22
	Linear fluid (dielectric constant: 78.4, screening length: 5.74355 Bohr) occupying 0.815107 of unit cell:	Completed after 2 iterations at t[s]:    889.69
	FillingsUpdate:  mu: -0.283743105  nElectrons: 126.000000  magneticMoment: [ Abs: 0.00001  Tot: -0.00000 ]
	SubspaceRotationAdjust: set factor to 1.47
ElecMinimize: Iter:   4  F: -206.393719812699885  |grad|_K:  9.865e-08  alpha:  7.126e-01  linmin:  1.029e-07  t[s]:    902.49
	Linear fluid (dielectric constant: 78.4, screening length: 5.74355 Bohr) occupying 0.815098 of unit cell:	Completed after 2 iterations at t[s]:    911.46
	Linear fluid (dielectric constant: 78.4, screening length: 5.74355 Bohr) occupying 0.815098 of unit cell:	Completed after 0 iterations at t[s]:    922.36
	FillingsUpdate:  mu: -0.283733767  nElectrons: 126.000000  magneticMoment: [ Abs: 0.00000  Tot: -0.00000 ]
	SubspaceRotationAdjust: set factor to 1.39
ElecMinimize: Iter:   5  F: -206.393720745185931  |grad|_K:  3.957e-08  alpha:  7.656e-01  linmin: -5.865e-07  t[s]:    935.64
	Linear fluid (dielectric constant: 78.4, screening length: 5.74355 Bohr) occupying 0.815092 of unit cell:	Completed after 2 iterations at t[s]:    944.11
	Linear fluid (dielectric constant: 78.4, screening length: 5.74355 Bohr) occupying 0.815093 of unit cell:	Completed after 0 iterations at t[s]:    956.60
	FillingsUpdate:  mu: -0.283786400  nElectrons: 126.000000  magneticMoment: [ Abs: 0.00000  Tot: -0.00000 ]
	SubspaceRotationAdjust: set factor to 0.946
ElecMinimize: Iter:   6  F: -206.393720866616746  |grad|_K:  2.958e-08  alpha:  5.914e-01  linmin:  1.148e-05  t[s]:    970.38
	Linear fluid (dielectric constant: 78.4, screening length: 5.74355 Bohr) occupying 0.815092 of unit cell:	Completed after 1 iterations at t[s]:    980.27
	Linear fluid (dielectric constant: 78.4, screening length: 5.74355 Bohr) occupying 0.815093 of unit cell:	Completed after 0 iterations at t[s]:    992.21
	FillingsUpdate:  mu: -0.283762823  nElectrons: 126.000000  magneticMoment: [ Abs: 0.00000  Tot: -0.00000 ]
	SubspaceRotationAdjust: set factor to 0.666
ElecMinimize: Iter:   7  F: -206.393720895512104  |grad|_K:  1.276e-08  alpha:  3.695e-01  linmin:  4.688e-08  t[s]:   1006.30
	Linear fluid (dielectric constant: 78.4, screening length: 5.74355 Bohr) occupying 0.815092 of unit cell:	Completed after 0 iterations at t[s]:   1015.45
	Linear fluid (dielectric constant: 78.4, screening length: 5.74355 Bohr) occupying 0.815092 of unit cell:	Completed after 0 iterations at t[s]:   1026.12
	FillingsUpdate:  mu: -0.283762132  nElectrons: 126.000000  magneticMoment: [ Abs: 0.00000  Tot: -0.00000 ]
	SubspaceRotationAdjust: set factor to 1.04
ElecMinimize: Iter:   8  F: -206.393720913683353  |grad|_K:  6.607e-09  alpha:  8.957e-01  linmin:  2.276e-07  t[s]:   1039.09
	Linear fluid (dielectric constant: 78.4, screening length: 5.74355 Bohr) occupying 0.815092 of unit cell:	Completed after 2 iterations at t[s]:   1048.00
	Linear fluid (dielectric constant: 78.4, screening length: 5.74355 Bohr) occupying 0.815092 of unit cell:	Completed after 0 iterations at t[s]:   1058.74
ElecMinimize: 	Step increased F by 1.212263e-08, reducing alpha to 1.106570e-02.
	Linear fluid (dielectric constant: 78.4, screening length: 5.74355 Bohr) occupying 0.815092 of unit cell:	Completed after 0 iterations at t[s]:   1078.88
ElecMinimize: 	Step increased F by 1.035943e-08, reducing alpha to 1.106570e-03.
	Linear fluid (dielectric constant: 78.4, screening length: 5.74355 Bohr) occupying 0.815092 of unit cell:	Completed after 0 iterations at t[s]:   1099.18
ElecMinimize: 	Step increased F by 1.020388e-08, reducing alpha to 1.106570e-04.
ElecMinimize: 	Step failed to reduce F after 3 attempts. Quitting step.
ElecMinimize: 	Undoing step.
	Linear fluid (dielectric constant: 78.4, screening length: 5.74355 Bohr) occupying 0.815092 of unit cell:	Completed after 0 iterations at t[s]:   1120.10
ElecMinimize: 	Step failed: resetting search direction.
	FillingsUpdate:  mu: -0.283793663  nElectrons: 126.000000  magneticMoment: [ Abs: 0.00000  Tot: -0.00000 ]
	SubspaceRotationAdjust: set factor to 0.943
ElecMinimize: Iter:   9  F: -206.393720903481068  |grad|_K:  1.956e-08  alpha:  1.107e-04
	Linear fluid (dielectric constant: 78.4, screening length: 5.74355 Bohr) occupying 0.815094 of unit cell:	Completed after 1 iterations at t[s]:   1142.09
	Linear fluid (dielectric constant: 78.4, screening length: 5.74355 Bohr) occupying 0.815093 of unit cell:	Completed after 2 iterations at t[s]:   1153.74
	FillingsUpdate:  mu: -0.283774780  nElectrons: 126.000000  magneticMoment: [ Abs: 0.00000  Tot: -0.00000 ]
	SubspaceRotationAdjust: set factor to 0.403
ElecMinimize: Iter:  10  F: -206.393720904440784  |grad|_K:  5.105e-09  alpha:  2.731e-01  linmin:  3.351e-05  t[s]:   1167.03
	Linear fluid (dielectric constant: 78.4, screening length: 5.74355 Bohr) occupying 0.815093 of unit cell:	Completed after 0 iterations at t[s]:   1175.52
ElecMinimize: 	Predicted alpha/alphaT>3.000000, increasing alphaT to 8.192451e-01.
	Linear fluid (dielectric constant: 78.4, screening length: 5.74355 Bohr) occupying 0.815093 of unit cell:	Completed after 0 iterations at t[s]:   1185.97
	Linear fluid (dielectric constant: 78.4, screening length: 5.74355 Bohr) occupying 0.815093 of unit cell:	Completed after 0 iterations at t[s]:   1196.62
	FillingsUpdate:  mu: -0.283774088  nElectrons: 126.000000  magneticMoment: [ Abs: 0.00000  Tot: -0.00000 ]
	SubspaceRotationAdjust: set factor to 0.647
ElecMinimize: Iter:  11  F: -206.393720907658377  |grad|_K:  3.001e-09  alpha:  1.179e+00  linmin: -1.146e-07  t[s]:   1209.32
ElecMinimize: Converged (|Delta F|<1.000000e-08 for 2 iters).
Setting wave functions to eigenvectors of Hamiltonian
Single-point solvation energy estimate, DeltaF = -0.165116234221841

# Ionic positions in lattice coordinates:
ion B   0.166670009390625   0.083330014890624   0.500000000000000 1
ion B   0.416670009390625   0.083330014890624   0.500000000000000 1
ion B   0.666670009390625   0.083330014890624   0.500000000000000 1
ion B   0.916670009390625   0.083330014890624   0.500000000000000 1
ion B   0.166670009390625   0.333330014890624   0.500000000000000 1
ion B   0.416670009390625   0.333330014890624   0.500000000000000 1
ion B   0.666670009390625   0.333330014890624   0.500000000000000 1
ion B   0.916670009390625   0.333330014890624   0.500000000000000 1
ion B   0.166670009390625   0.583330014890624   0.500000000000000 1
ion B   0.416670009390625   0.583330014890624   0.500000000000000 1
ion B   0.666670009390625   0.583330014890624   0.500000000000000 1
ion B   0.916670009390625   0.583330014890624   0.500000000000000 1
ion B   0.166670009390625   0.833330014890624   0.500000000000000 1
ion B   0.416670009390625   0.833330014890624   0.500000000000000 1
ion B   0.666670009390625   0.833330014890624   0.500000000000000 1
ion B   0.916670009390625   0.833330014890624   0.500000000000000 1
ion N   0.083330006421875   0.166670017859374   0.500000000000000 1
ion N   0.333330006421875   0.166670017859374   0.500000000000000 1
ion N   0.583330006421875   0.166670017859374   0.500000000000000 1
ion N   0.833330006421875   0.166670017859374   0.500000000000000 1
ion N   0.083330006421875   0.416670017859374   0.500000000000000 1
ion N   0.333330006421875   0.416670017859374   0.500000000000000 1
ion N   0.583330006421875   0.416670017859374   0.500000000000000 1
ion N   0.833330006421875   0.416670017859374   0.500000000000000 1
ion N   0.083330006421875   0.666670017859374   0.500000000000000 1
ion N   0.333330006421875   0.666670017859374   0.500000000000000 1
ion N   0.583330006421875   0.666670017859374   0.500000000000000 1
ion N   0.833330006421875   0.666670017859374   0.500000000000000 1
ion N   0.083330006421875   0.916670017859374   0.500000000000000 1
ion N   0.333330006421875   0.916670017859374   0.500000000000000 1
ion N   0.583330006421875   0.916670017859374   0.500000000000000 1
ion N   0.833330006421875   0.916670017859374   0.500000000000000 1


# Forces in Lattice coordinates:
force B  -0.001554851752128   0.001554851752128  -0.000000000000000 1
force B  -0.001554851752128   0.001554851752128  -0.000000000000000 1
force B  -0.001554851752128   0.001554851752128  -0.000000000000000 1
force B  -0.001554851752128   0.001554851752128  -0.000000000000000 1
force B  -0.001554851752128   0.001554851752128  -0.000000000000000 1
force B  -0.001554851752128   0.001554851752128  -0.000000000000000 1
force B  -0.001554851752128   0.001554851752128   0.000000000000000 1
force B  -0.001554851752128   0.001554851752128   0.000000000000000 1
force B  -0.001554851752128   0.001554851752128  -0.000000000000000 1
force B  -0.001554851752128   0.001554851752128   0.000000000000000 1
force B  -0.001554851752128   0.001554851752128  -0.000000000000000 1
force B  -0.001554851752128   0.001554851752128   0.000000000000000 1
force B  -0.001554851752128   0.001554851752128   0.000000000000000 1
force B  -0.001554851752128   0.001554851752128   0.000000000000000 1
force B  -0.001554851752128   0.001554851752128   0.000000000000000 1
force B  -0.001554851752128   0.001554851752128  -0.000000000000000 1
force N   0.001571925759830  -0.001571925759830  -0.000000000000000 1
force N   0.001571925759830  -0.001571925759830  -0.000000000000000 1
force N   0.001571925759830  -0.001571925759830   0.000000000000000 1
force N   0.001571925759830  -0.001571925759830  -0.000000000000000 1
force N   0.001571925759830  -0.001571925759830  -0.000000000000000 1
force N   0.001571925759830  -0.001571925759830   0.000000000000000 1
force N   0.001571925759830  -0.001571925759830   0.000000000000000 1
force N   0.001571925759830  -0.001571925759830   0.000000000000000 1
force N   0.001571925759830  -0.001571925759830   0.000000000000000 1
force N   0.001571925759830  -0.001571925759830  -0.000000000000000 1
force N   0.001571925759830  -0.001571925759830   0.000000000000000 1
force N   0.001571925759830  -0.001571925759830   0.000000000000000 1
force N   0.001571925759830  -0.001571925759830  -0.000000000000000 1
force N   0.001571925759830  -0.001571925759830  -0.000000000000000 1
force N   0.001571925759830  -0.001571925759830   0.000000000000000 1
force N   0.001571925759830  -0.001571925759830  -0.000000000000000 1

# Energy components:
   A_diel =       -0.1803900487851138
   Eewald =     1248.1722017259053246
       EH =     1377.7854608407055821
     Eloc =    -2921.0442883469095250
      Enl =       30.1465844067252000
      Exc =      -67.1342327336879521
 Exc_core =        6.8944935515921957
       KE =      118.9701115275775294
  MuShift =        0.0144518502307635
-------------------------------------
     Etot =     -206.3756072266461956
       TS =        0.0181136810121865
-------------------------------------
        F =     -206.3937209076583770

IonicMinimize: Iter:   0  F: -206.393720907658377  |grad|_K:  5.509e-05  t[s]:   1215.89
IonicMinimize: Converged (|grad|_K<1.000000e-04).

#--- Lowdin population analysis ---
# oxidation-state B +0.543 +0.543 +0.543 +0.543 +0.543 +0.543 +0.543 +0.543 +0.543 +0.543 +0.543 +0.543 +0.543 +0.543 +0.543 +0.543
# magnetic-moments B +0.000 +0.000 +0.000 +0.000 +0.000 +0.000 +0.000 +0.000 +0.000 +0.000 +0.000 +0.000 +0.000 +0.000 +0.000 +0.000
# oxidation-state N -0.339 -0.339 -0.339 -0.339 -0.339 -0.339 -0.339 -0.339 -0.339 -0.339 -0.339 -0.339 -0.339 -0.339 -0.339 -0.339
# magnetic-moments N -0.000 -0.000 -0.000 -0.000 -0.000 -0.000 -0.000 -0.000 -0.000 -0.000 -0.000 -0.000 -0.000 -0.000 -0.000 -0.000


Dumping 'NbTe2.fillings' ... done
Dumping 'NbTe2.wfns' ... done
Dumping 'NbTe2.fluidState' ... done
Dumping 'NbTe2.ionpos' ... done
Dumping 'NbTe2.eigenvals' ... done
End date and time: Mon Jan 25 20:30:28 2021  (Duration: 0-0:20:18.79)
Done!
