
*************** JDFTx 1.5.0  ***************

Start date and time: Wed Feb 24 01:29:07 2021
Executable jdftx_gpu with command-line: -i Charged.in -o Charged.out
Running on hosts (process indices):  amax (0-6)
Divided in process groups (process indices):  0 (0)  1 (1)  2 (2)  3 (3)  4 (4)  5 (5)  6 (6)
gpuInit: Found compatible cuda device 0 'Tesla K80'
gpuInit: Found compatible cuda device 1 'Tesla K80'
gpuInit: Found compatible cuda device 2 'Tesla K80'
gpuInit: Found compatible cuda device 3 'Tesla K80'
gpuInit: Found compatible cuda device 4 'Tesla K80'
gpuInit: Found compatible cuda device 5 'Tesla K80'
gpuInit: Found compatible cuda device 6 'Tesla K80'
gpuInit: Selected device 0
Resource initialization completed at t[s]:      3.73
Run totals: 7 processes, 24 threads, 7 GPUs


Input parsed successfully to the following command list (including defaults):

basis kpoint-dependent
cache-projectors no
coords-type Lattice
core-overlap-check none
coulomb-interaction Slab 001
coulomb-truncation-embed 0.5 0.5 0.5
davidson-band-ratio 1.1
dump End State
dump-name NbTe2.$VAR
elec-cutoff 20
elec-eigen-algo Davidson
elec-ex-corr gga-PBE
elec-initial-charge -1.000000
elec-initial-magnetization 10.000000 no
elec-smearing Gauss 0.0073499
electronic-minimize  \
	dirUpdateScheme      FletcherReeves \
	linminMethod         DirUpdateRecommended \
	nIterations          200 \
	history              15 \
	knormThreshold       0 \
	energyDiffThreshold  1e-08 \
	nEnergyDiff          2 \
	alphaTstart          1 \
	alphaTmin            1e-10 \
	updateTestStepSize   yes \
	alphaTreduceFactor   0.1 \
	alphaTincreaseFactor 3 \
	nAlphaAdjustMax      3 \
	wolfeEnergy          0.0001 \
	wolfeGradient        0.9 \
	fdTest               no
exchange-regularization WignerSeitzTruncated
fluid LinearPCM 298.000000 1.013250
fluid-anion F- 1 MeanFieldLJ \
	epsBulk 1 \
	pMol 0 \
	epsInf 1 \
	Pvap 0 \
	sigmaBulk 0 \
	Rvdw 2.24877 \
	Res 0 \
	tauNuc 343133
fluid-cation Na+ 1 MeanFieldLJ \
	epsBulk 1 \
	pMol 0 \
	epsInf 1 \
	Pvap 0 \
	sigmaBulk 0 \
	Rvdw 2.19208 \
	Res 0 \
	tauNuc 343133
fluid-ex-corr lda-TF lda-PZ
fluid-gummel-loop 10 1.000000e-05
fluid-minimize  \
	dirUpdateScheme      PolakRibiere \
	linminMethod         DirUpdateRecommended \
	nIterations          400 \
	history              15 \
	knormThreshold       1e-11 \
	energyDiffThreshold  0 \
	nEnergyDiff          2 \
	alphaTstart          1 \
	alphaTmin            1e-10 \
	updateTestStepSize   yes \
	alphaTreduceFactor   0.1 \
	alphaTincreaseFactor 3 \
	nAlphaAdjustMax      6 \
	wolfeEnergy          0.0001 \
	wolfeGradient        0.9 \
	fdTest               no
fluid-solvent H2O 55.338 ScalarEOS \
	epsBulk 78.4 \
	pMol 0.92466 \
	epsInf 1.77 \
	Pvap 1.06736e-10 \
	sigmaBulk 4.62e-05 \
	Rvdw 2.61727 \
	Res 1.42 \
	tauNuc 343133 \
	poleEl 15 7 1
forces-output-coords Positions
initial-state NbTe2.$VAR
ion Zr   0.125000000000000   0.000000000000000   0.597211559543416 1
ion Zr   0.000000000000000   0.125000000000000   0.402785097123251 1
ion Zr   0.375000000000000   0.000000000000000   0.597211559543416 1
ion Zr   0.250000000000000   0.125000000000000   0.402785097123251 1
ion Zr   0.625000000000000   0.000000000000000   0.597211559543416 1
ion Zr   0.500000000000000   0.125000000000000   0.402785097123251 1
ion Zr   0.875000000000000   0.000000000000000   0.597211559543416 1
ion Zr   0.750000000000000   0.125000000000000   0.402785097123251 1
ion Zr   0.125000000000000   0.250000000000000   0.597211559543416 1
ion Zr   0.000000000000000   0.375000000000000   0.402785097123251 1
ion Zr   0.375000000000000   0.250000000000000   0.597211559543416 1
ion Zr   0.250000000000000   0.375000000000000   0.402785097123251 1
ion Zr   0.625000000000000   0.250000000000000   0.597211559543416 1
ion Zr   0.500000000000000   0.375000000000000   0.402785097123251 1
ion Zr   0.875000000000000   0.250000000000000   0.597211559543416 1
ion Zr   0.750000000000000   0.375000000000000   0.402785097123251 1
ion Zr   0.125000000000000   0.500000000000000   0.597211559543416 1
ion Zr   0.000000000000000   0.625000000000000   0.402785097123251 1
ion Zr   0.375000000000000   0.500000000000000   0.597211559543416 1
ion Zr   0.250000000000000   0.625000000000000   0.402785097123251 1
ion Zr   0.625000000000000   0.500000000000000   0.597211559543416 1
ion Zr   0.500000000000000   0.625000000000000   0.402785097123251 1
ion Zr   0.875000000000000   0.500000000000000   0.597211559543416 1
ion Zr   0.750000000000000   0.625000000000000   0.402785097123251 1
ion Zr   0.125000000000000   0.750000000000000   0.597211559543416 1
ion Zr   0.000000000000000   0.875000000000000   0.402785097123251 1
ion Zr   0.375000000000000   0.750000000000000   0.597211559543416 1
ion Zr   0.250000000000000   0.875000000000000   0.402785097123251 1
ion Zr   0.625000000000000   0.750000000000000   0.597211559543416 1
ion Zr   0.500000000000000   0.875000000000000   0.402785097123251 1
ion Zr   0.875000000000000   0.750000000000000   0.597211559543416 1
ion Zr   0.750000000000000   0.875000000000000   0.402785097123251 1
ion Si   0.125000000000000   0.125000000000000   0.499998328333333 1
ion Si   0.000000000000000   0.000000000000000   0.499998328333333 1
ion Si   0.375000000000000   0.125000000000000   0.499998328333333 1
ion Si   0.250000000000000   0.000000000000000   0.499998328333333 1
ion Si   0.625000000000000   0.125000000000000   0.499998328333333 1
ion Si   0.500000000000000   0.000000000000000   0.499998328333333 1
ion Si   0.875000000000000   0.125000000000000   0.499998328333333 1
ion Si   0.750000000000000   0.000000000000000   0.499998328333333 1
ion Si   0.125000000000000   0.375000000000000   0.499998328333333 1
ion Si   0.000000000000000   0.250000000000000   0.499998328333333 1
ion Si   0.375000000000000   0.375000000000000   0.499998328333333 1
ion Si   0.250000000000000   0.250000000000000   0.499998328333333 1
ion Si   0.625000000000000   0.375000000000000   0.499998328333333 1
ion Si   0.500000000000000   0.250000000000000   0.499998328333333 1
ion Si   0.875000000000000   0.375000000000000   0.499998328333333 1
ion Si   0.750000000000000   0.250000000000000   0.499998328333333 1
ion Si   0.125000000000000   0.625000000000000   0.499998328333333 1
ion Si   0.000000000000000   0.500000000000000   0.499998328333333 1
ion Si   0.375000000000000   0.625000000000000   0.499998328333333 1
ion Si   0.250000000000000   0.500000000000000   0.499998328333333 1
ion Si   0.625000000000000   0.625000000000000   0.499998328333333 1
ion Si   0.500000000000000   0.500000000000000   0.499998328333333 1
ion Si   0.875000000000000   0.625000000000000   0.499998328333333 1
ion Si   0.750000000000000   0.500000000000000   0.499998328333333 1
ion Si   0.125000000000000   0.875000000000000   0.499998328333333 1
ion Si   0.000000000000000   0.750000000000000   0.499998328333333 1
ion Si   0.375000000000000   0.875000000000000   0.499998328333333 1
ion Si   0.250000000000000   0.750000000000000   0.499998328333333 1
ion Si   0.625000000000000   0.875000000000000   0.499998328333333 1
ion Si   0.500000000000000   0.750000000000000   0.499998328333333 1
ion Si   0.875000000000000   0.875000000000000   0.499998328333333 1
ion Si   0.750000000000000   0.750000000000000   0.499998328333333 1
ion Te   0.000000000000000   0.125000000000000   0.661695933571344 1
ion Te   0.125000000000000   0.000000000000000   0.338300723095323 1
ion Te   0.250000000000000   0.125000000000000   0.661695933571344 1
ion Te   0.375000000000000   0.000000000000000   0.338300723095323 1
ion Te   0.500000000000000   0.125000000000000   0.661695933571344 1
ion Te   0.625000000000000   0.000000000000000   0.338300723095323 1
ion Te   0.750000000000000   0.125000000000000   0.661695933571344 1
ion Te   0.875000000000000   0.000000000000000   0.338300723095323 1
ion Te   0.000000000000000   0.375000000000000   0.661695933571344 1
ion Te   0.125000000000000   0.250000000000000   0.338300723095323 1
ion Te   0.250000000000000   0.375000000000000   0.661695933571344 1
ion Te   0.375000000000000   0.250000000000000   0.338300723095323 1
ion Te   0.500000000000000   0.375000000000000   0.661695933571344 1
ion Te   0.625000000000000   0.250000000000000   0.338300723095323 1
ion Te   0.750000000000000   0.375000000000000   0.661695933571344 1
ion Te   0.875000000000000   0.250000000000000   0.338300723095323 1
ion Te   0.000000000000000   0.625000000000000   0.661695933571344 1
ion Te   0.125000000000000   0.500000000000000   0.338300723095323 1
ion Te   0.250000000000000   0.625000000000000   0.661695933571344 1
ion Te   0.375000000000000   0.500000000000000   0.338300723095323 1
ion Te   0.500000000000000   0.625000000000000   0.661695933571344 1
ion Te   0.625000000000000   0.500000000000000   0.338300723095323 1
ion Te   0.750000000000000   0.625000000000000   0.661695933571344 1
ion Te   0.875000000000000   0.500000000000000   0.338300723095323 1
ion Te   0.000000000000000   0.875000000000000   0.661695933571344 1
ion Te   0.125000000000000   0.750000000000000   0.338300723095323 1
ion Te   0.250000000000000   0.875000000000000   0.661695933571344 1
ion Te   0.375000000000000   0.750000000000000   0.338300723095323 1
ion Te   0.500000000000000   0.875000000000000   0.661695933571344 1
ion Te   0.625000000000000   0.750000000000000   0.338300723095323 1
ion Te   0.750000000000000   0.875000000000000   0.661695933571344 1
ion Te   0.875000000000000   0.750000000000000   0.338300723095323 1
ion-species GBRV/$ID_pbe.uspp
ion-width Ecut
ionic-minimize  \
	dirUpdateScheme      L-BFGS \
	linminMethod         DirUpdateRecommended \
	nIterations          500 \
	history              15 \
	knormThreshold       0.0001 \
	energyDiffThreshold  1e-06 \
	nEnergyDiff          2 \
	alphaTstart          1 \
	alphaTmin            1e-10 \
	updateTestStepSize   yes \
	alphaTreduceFactor   0.1 \
	alphaTincreaseFactor 3 \
	nAlphaAdjustMax      3 \
	wolfeEnergy          0.0001 \
	wolfeGradient        0.9 \
	fdTest               no
kpoint   0.000000000000   0.000000000000   0.000000000000  1.00000000000000
kpoint-folding 3 3 1 
latt-move-scale 1 1 1
latt-scale 1.88973 1.88973 1.88973 
lattice Triclinic 14.5984 14.5984 22.0593 90 90 90
lattice-minimize  \
	dirUpdateScheme      L-BFGS \
	linminMethod         DirUpdateRecommended \
	nIterations          0 \
	history              15 \
	knormThreshold       0 \
	energyDiffThreshold  1e-06 \
	nEnergyDiff          2 \
	alphaTstart          1 \
	alphaTmin            1e-10 \
	updateTestStepSize   yes \
	alphaTreduceFactor   0.1 \
	alphaTincreaseFactor 3 \
	nAlphaAdjustMax      3 \
	wolfeEnergy          0.0001 \
	wolfeGradient        0.9 \
	fdTest               no
lcao-params -1 1e-06 0.0073499
pcm-variant CANDLE
spintype z-spin
subspace-rotation-factor 1 yes
symmetries automatic
symmetry-threshold 0.0001



---------- Setting up symmetries ----------

Found 16 point-group symmetries of the bravais lattice
Found 256 space-group symmetries with basis
Applied RMS atom displacement 1.00867e-14 bohrs to make symmetries exact.

---------- Initializing the Grid ----------
R = 
[     27.587          0          0  ]
[          0     27.587          0  ]
[          0          0     41.686  ]
unit cell volume = 31724.8
G =
[   0.227759          0          0  ]
[          0   0.227759          0  ]
[          0          0   0.150726  ]
Minimum fftbox size, Smin = [  112  112  168  ]
Chosen fftbox size, S = [  112  112  168  ]

---------- Exchange Correlation functional ----------
Initalized PBE GGA exchange.
Initalized PBE GGA correlation.

---------- Setting up pseudopotentials ----------
Width of ionic core gaussian charges (only for fluid interactions / plotting) set to 0.397384

Reading pseudopotential file '/home/guoxy/vasp/jdftx-1.5.0/build/pseudopotentials/GBRV/zr_pbe.uspp':
  Title: Zr.  Created by USPP 7.3.6 on 14-9-2013
  Reference state energy: -49.308156.  12 valence electrons in orbitals:
    |400>  occupation: 2  eigenvalue: -2.002953
    |410>  occupation: 6  eigenvalue: -1.192957
    |420>  occupation: 2  eigenvalue: -0.132269
    |500>  occupation: 2  eigenvalue: -0.163143
    |510>  occupation: 0  eigenvalue: -0.053997
  lMax: 2  lLocal: 3  QijEcut: 5
  6 projectors sampled on a log grid with 625 points:
    l: 0  eig: -2.002953  rCut: 1.8
    l: 0  eig: -0.132269  rCut: 1.8
    l: 1  eig: -1.192956  rCut: 2
    l: 1  eig: 0.150000  rCut: 2
    l: 2  eig: -0.163145  rCut: 2.2
    l: 2  eig: 0.150000  rCut: 2.2
  Partial core density with radius 1.2
  Transforming core density to a uniform radial grid of dG=0.02 with 1107 points.
  Transforming local potential to a uniform radial grid of dG=0.02 with 1107 points.
  Transforming nonlocal projectors to a uniform radial grid of dG=0.02 with 432 points.
  Transforming density augmentations to a uniform radial grid of dG=0.02 with 1107 points.
  Transforming atomic orbitals to a uniform radial grid of dG=0.02 with 432 points.
  Core radius for overlap checks: 2.20 bohrs.

Reading pseudopotential file '/home/guoxy/vasp/jdftx-1.5.0/build/pseudopotentials/GBRV/si_pbe.uspp':
  Title: Si.  Created by USPP 7.3.6 on 14-9-2013
  Reference state energy: -4.599342.  4 valence electrons in orbitals:
    |300>  occupation: 2  eigenvalue: -0.397366
    |310>  occupation: 2  eigenvalue: -0.149981
  lMax: 2  lLocal: 3  QijEcut: 5
  6 projectors sampled on a log grid with 627 points:
    l: 0  eig: -0.397364  rCut: 1.6
    l: 0  eig: 1.000000  rCut: 1.6
    l: 1  eig: -0.149982  rCut: 1.6
    l: 1  eig: 1.000000  rCut: 1.6
    l: 2  eig: -0.100000  rCut: 1.7
    l: 2  eig: 0.100000  rCut: 1.7
  Partial core density with radius 1.45
  Transforming core density to a uniform radial grid of dG=0.02 with 1107 points.
  Transforming local potential to a uniform radial grid of dG=0.02 with 1107 points.
  Transforming nonlocal projectors to a uniform radial grid of dG=0.02 with 432 points.
  Transforming density augmentations to a uniform radial grid of dG=0.02 with 1107 points.
  Transforming atomic orbitals to a uniform radial grid of dG=0.02 with 432 points.
  Core radius for overlap checks: 1.70 bohrs.

Reading pseudopotential file '/home/guoxy/vasp/jdftx-1.5.0/build/pseudopotentials/GBRV/te_pbe.uspp':
  Title: Te.  Created by USPP 7.3.6 on 14-9-2013
  Reference state energy: -13.134220.  6 valence electrons in orbitals:
    |500>  occupation: 2  eigenvalue: -0.555231
    |510>  occupation: 4  eigenvalue: -0.218781
  lMax: 2  lLocal: 2  QijEcut: 5
  5 projectors sampled on a log grid with 723 points:
    l: 0  eig: -0.555229  rCut: 2.1
    l: 0  eig: 1.000000  rCut: 2.1
    l: 1  eig: -0.218780  rCut: 2.1
    l: 1  eig: 1.000000  rCut: 2.1
    l: 2  eig: 1.000000  rCut: 2.6
  Partial core density with radius 1.8
  Transforming core density to a uniform radial grid of dG=0.02 with 1107 points.
  Transforming local potential to a uniform radial grid of dG=0.02 with 1107 points.
  Transforming nonlocal projectors to a uniform radial grid of dG=0.02 with 432 points.
  Transforming density augmentations to a uniform radial grid of dG=0.02 with 1107 points.
  Transforming atomic orbitals to a uniform radial grid of dG=0.02 with 432 points.
  Core radius for overlap checks: 2.60 bohrs.

Initialized 3 species with 96 total atoms.

Folded 1 k-points by 3x3x1 to 9 k-points.

---------- Setting up k-points, bands, fillings ----------
Reduced to 3 k-points under symmetry. 
Computing the number of bands and number of electrons
Calculating initial fillings.
nElectrons: 703.000000   nBands: 672   nStates: 6

----- Setting up reduced wavefunction bases (one per k-point) -----
average nbasis = 135511.000 , ideal nbasis = 135530.722

---------- Setting up coulomb interaction ----------
Fluid mode embedding: using embedded box, but periodic Coulomb kernel.
(Fluid response is responsible for (approximate) separation between periodic images.)
Setting up double-sized grid for truncated Coulomb potentials:
R = 
[     27.587          0          0  ]
[          0     27.587          0  ]
[          0          0    83.3721  ]
unit cell volume = 63449.6
G =
[   0.227759          0          0  ]
[          0   0.227759          0  ]
[          0          0  0.0753632  ]
Chosen fftbox size, S = [  112  112  336  ]
Integer grid location selected as the embedding center:
   Grid: [  56  56  84  ]
   Lattice: [  0.5  0.5  0.5  ]
   Cartesian: [  13.7935  13.7935  20.843  ]
Constructing Wigner-Seitz cell: 6 faces (6 quadrilaterals, 0 hexagons)
Range-separation parameter for embedded mesh potentials due to point charges: 0.628421 bohrs.

Initializing van der Waals corrections
	NOTE: vdW corrections apply only for interactions with fluid.
	Zr:  C6:  427.91 Eh-a0^6  R0: 3.097 a0
	Si:  C6:  160.10 Eh-a0^6  R0: 3.243 a0
	Te:  C6:  550.54 Eh-a0^6  R0: 3.575 a0

---------- Setting up ewald sum ----------
Optimum gaussian width for ewald sums = 7.436030 bohr.
Real space sum over 405 unit cells with max indices [  4  4  2  ]
Reciprocal space sum over 8325 terms with max indices [  7  7  18  ]

---------- Allocating electronic variables ----------
Initializing wave functions:  linear combination of atomic orbitals
Zr pseudo-atom occupations:   s ( 2 2 )  p ( 6 0 )  d ( 2 )
Si pseudo-atom occupations:   s ( 2 )  p ( 2 )
Te pseudo-atom occupations:   s ( 2 )  p ( 4 )
	FillingsUpdate:  mu: -0.770011261  nElectrons: 703.000000  magneticMoment: [ Abs: 3.64610  Tot: +3.62657 ]
LCAOMinimize: Iter:   0  F: -1878.7592142010691987  |grad|_K:  1.226e-02  alpha:  1.000e+00
	FillingsUpdate:  mu: +0.253211852  nElectrons: 703.000000  magneticMoment: [ Abs: 1.28679  Tot: +1.28213 ]
LCAOMinimize: Iter:   1  F: -1898.7278505896260867  |grad|_K:  6.017e-03  alpha:  2.144e-01  linmin:  3.357e-01  cgtest: -9.036e-01  t[s]:    324.40
LCAOMinimize: 	Bad step direction: g.d > 0.
LCAOMinimize: 	Undoing step.
LCAOMinimize: 	Step failed: resetting search direction.
	FillingsUpdate:  mu: +0.253211852  nElectrons: 703.000000  magneticMoment: [ Abs: 1.28679  Tot: +1.28213 ]
LCAOMinimize: Iter:   2  F: -1898.7278505896260867  |grad|_K:  6.017e-03  alpha:  0.000e+00
	FillingsUpdate:  mu: -0.155539960  nElectrons: 703.000000  magneticMoment: [ Abs: 1.05485  Tot: +0.96274 ]
LCAOMinimize: Iter:   3  F: -1903.9365881981734674  |grad|_K:  4.902e-04  alpha:  1.295e-01  linmin:  7.595e-02  cgtest: -3.889e-01  t[s]:    486.33
	FillingsUpdate:  mu: -0.147348055  nElectrons: 703.000000  magneticMoment: [ Abs: 0.90349  Tot: +0.81728 ]
LCAOMinimize: Iter:   4  F: -1904.0038423943231010  |grad|_K:  2.018e-04  alpha:  2.278e-01  linmin:  2.029e-02  cgtest:  3.230e-01  t[s]:    580.71
	FillingsUpdate:  mu: -0.133120805  nElectrons: 703.000000  magneticMoment: [ Abs: 0.80067  Tot: +0.71415 ]
LCAOMinimize: Iter:   5  F: -1904.0118146243403316  |grad|_K:  2.426e-05  alpha:  1.437e-01  linmin: -2.434e-03  cgtest:  6.440e-02  t[s]:    675.17
LCAOMinimize: 	Predicted alpha/alphaT>3.000000, increasing alphaT to 4.309808e-01.
	FillingsUpdate:  mu: -0.134100168  nElectrons: 703.000000  magneticMoment: [ Abs: 0.54364  Tot: +0.45020 ]
LCAOMinimize: Iter:   6  F: -1904.0121743869176498  |grad|_K:  1.705e-05  alpha:  4.496e-01  linmin: -4.403e-04  cgtest: -1.904e-03  t[s]:    796.57
	FillingsUpdate:  mu: -0.134532020  nElectrons: 703.000000  magneticMoment: [ Abs: 0.21577  Tot: +0.10249 ]
LCAOMinimize: Iter:   7  F: -1904.0123848703951808  |grad|_K:  5.385e-06  alpha:  5.330e-01  linmin:  3.315e-03  cgtest: -2.129e-02  t[s]:    891.22
	FillingsUpdate:  mu: -0.133972529  nElectrons: 703.000000  magneticMoment: [ Abs: 0.15677  Tot: +0.05490 ]
LCAOMinimize: Iter:   8  F: -1904.0123975534518195  |grad|_K:  4.868e-06  alpha:  3.235e-01  linmin:  2.709e-06  cgtest:  6.656e-03  t[s]:    985.63
	FillingsUpdate:  mu: -0.134162707  nElectrons: 703.000000  magneticMoment: [ Abs: 0.05760  Tot: -0.01085 ]
LCAOMinimize: Iter:   9  F: -1904.0124109136072548  |grad|_K:  7.977e-07  alpha:  4.149e-01  linmin: -7.212e-04  cgtest: -3.399e-02  t[s]:   1079.71
	FillingsUpdate:  mu: -0.134130573  nElectrons: 703.000000  magneticMoment: [ Abs: 0.02258  Tot: -0.00567 ]
LCAOMinimize: Iter:  10  F: -1904.0124115798332696  |grad|_K:  7.233e-07  alpha:  7.700e-01  linmin:  9.444e-05  cgtest: -8.602e-04  t[s]:   1175.21
	FillingsUpdate:  mu: -0.134144501  nElectrons: 703.000000  magneticMoment: [ Abs: 0.00318  Tot: -0.00124 ]
LCAOMinimize: Iter:  11  F: -1904.0124118564922355  |grad|_K:  1.296e-07  alpha:  3.893e-01  linmin:  1.138e-05  cgtest:  3.357e-03  t[s]:   1269.83
LCAOMinimize: Converged (|Delta F|<1.000000e-06 for 2 iters).
----- createFluidSolver() ----- (Fluid-side solver setup)
   Initializing fluid molecule 'H2O'
     Initializing site 'O'
       Electron density: proportional to exp(-r/0.36935)*erfc((r-0.51523)/0.36823) with norm 6.826
       Charge density: gaussian nuclear width 0.478731 with net site charge 0.826
       Polarizability: cuspless exponential with width 0.32 and norm 3.73
       Hard sphere radius: 2.57003 bohrs
       Positions in reference frame:
         [ +0.000000 +0.000000 +0.000000 ]
     Initializing site 'H'
       Electron density: proportional to exp(-r/0.34641)*erfc((r-0)/0.390882) with norm 0.587
       Charge density: gaussian nuclear width 0.377945 with net site charge -0.413
       Polarizability: cuspless exponential with width 0.39 and norm 3.3
       Positions in reference frame:
         [ +0.000000 -1.441945 +1.122523 ]
         [ +0.000000 +1.441945 +1.122523 ]
     Net charge: 0   dipole magnitude: 0.927204
     Initializing spherical shell mfKernel with radius 2.61727 Bohr
     deltaS corrections:
       site 'O': -7.54299
       site 'H': -6.83917
   Initializing fluid molecule 'Na+'
     Initializing site 'Na'
       Electron density: proportional to exp(-r/0.19682)*erfc((r-0.71491)/0.41314) with norm 8.1383
       Charge density: gaussian nuclear width 0.365347 with net site charge -1
       Hard sphere radius: 1.86327 bohrs
       Positions in reference frame:
         [ +0.000000 +0.000000 +0.000000 ]
     Net charge: -1   dipole magnitude: 0
     Initializing gaussian mfKernel with width: 1.55004 Bohr
     deltaS corrections:
       site 'Na': -22.3555
   Initializing fluid molecule 'F-'
     Initializing site 'F'
       Electron density: proportional to exp(-r/0.38886)*erfc((r-0)/0.438782) with norm 8
       Charge density: gaussian nuclear width 0.374796 with net site charge 1
       Hard sphere radius: 2.39995 bohrs
       Positions in reference frame:
         [ +0.000000 +0.000000 +0.000000 ]
     Net charge: 1   dipole magnitude: 0
     Initializing gaussian mfKernel with width: 1.59012 Bohr
     deltaS corrections:
       site 'F': -9.04335

Correction to mu due to finite nuclear width = -0.0110089
   Cavity determined by nc: 0.00142 and sigma: 0.707107
   Nonlocal vdW cavity from gaussian model electron density with norm = 8 and sigma = 0.993594 bohr
   Charge asymmetry in cavity with sensitivity pCavity = 36.5 e-bohr/Eh
   Electrostatic cavity expanded by eta = 1.46 bohrs
   Weighted density cavitation model constrained by Nbulk: 0.0049383 bohr^-3, Pvap: 3.14029 kPa, Rvdw: 2.61727 bohr and sigmaBulk: 4.62e-05 Eh/bohr^2 at T: 298 K.
   Weighted density dispersion model using vdW pair potentials with single solvent site with sqrtC6eff: 0.77 SI.


---- Citations for features of the code used in this run ----

   Software package:
      R. Sundararaman, K. Letchworth-Weaver, K.A. Schwarz, D. Gunceler, Y. Ozhabes and T.A. Arias, 'JDFTx: software for joint density-functional theory', SoftwareX 6, 278 (2017)

   gga-PBE exchange-correlation functional:
      J.P. Perdew, K. Burke and M. Ernzerhof, Phys. Rev. Lett. 77, 3865 (1996)

   Pseudopotentials:
      KF Garrity, JW Bennett, KM Rabe and D Vanderbilt, Comput. Mater. Sci. 81, 446 (2014)

   Truncated Coulomb potentials:
      R. Sundararaman and T.A. Arias, Phys. Rev. B 87, 165122 (2013)

   Van der Waals correction pair-potentials:
      S. Grimme, J. Comput. Chem. 27, 1787 (2006)

   Charge-asymmetric nonlocally-determined local-electric (CANDLE) solvation model:
      R. Sundararaman and W.A. Goddard III, J. Chem. Phys. 142, 064107 (2015)

   Total energy minimization with Auxiliary Hamiltonian:
      C. Freysoldt, S. Boeck, and J. Neugebauer, Phys. Rev. B 79, 241103(R) (2009)

This list may not be complete. Please suggest additional citations or
report any other bugs at https://github.com/shankar1729/jdftx/issues

Initialization completed successfully at t[s]:   1294.03

Fluid solver invoked on fresh (partially random / LCAO) wavefunctions
Running a vacuum solve first:

-------- Initial electronic minimization -----------
	FillingsUpdate:  mu: -0.134144501  nElectrons: 703.000000  magneticMoment: [ Abs: 0.00318  Tot: -0.00124 ]
ElecMinimize: Iter:   0  F: -1904.012411856480639  |grad|_K:  5.258e-05  alpha:  1.000e+00
	FillingsUpdate:  mu: -0.082327016  nElectrons: 703.000000  magneticMoment: [ Abs: 0.00101  Tot: -0.00004 ]
	SubspaceRotationAdjust: set factor to 1
ElecMinimize: Iter:   1  F: -1905.590680954026539  |grad|_K:  2.647e-05  alpha:  1.042e+00  linmin: -8.157e-06  t[s]:   1551.60
	FillingsUpdate:  mu: -0.131757562  nElectrons: 703.000000  magneticMoment: [ Abs: 0.00059  Tot: +0.00017 ]
	SubspaceRotationAdjust: set factor to 0.688
ElecMinimize: Iter:   2  F: -1905.741711874545217  |grad|_K:  2.648e-05  alpha:  3.914e-01  linmin: -3.848e-05  t[s]:   1713.34
	FillingsUpdate:  mu: -0.098839644  nElectrons: 703.000000  magneticMoment: [ Abs: 0.00037  Tot: +0.00030 ]
	SubspaceRotationAdjust: set factor to 0.399
ElecMinimize: Iter:   3  F: -1905.871884367332768  |grad|_K:  1.077e-05  alpha:  3.315e-01  linmin:  1.404e-04  t[s]:   1875.82
	FillingsUpdate:  mu: -0.106010129  nElectrons: 703.000000  magneticMoment: [ Abs: 0.00037  Tot: +0.00026 ]
	SubspaceRotationAdjust: set factor to 0.417
ElecMinimize: Iter:   4  F: -1905.913051555778338  |grad|_K:  5.663e-06  alpha:  6.713e-01  linmin:  4.488e-05  t[s]:   2038.30
	FillingsUpdate:  mu: -0.105694898  nElectrons: 703.000000  magneticMoment: [ Abs: 0.00030  Tot: +0.00019 ]
	SubspaceRotationAdjust: set factor to 0.467
ElecMinimize: Iter:   5  F: -1905.925978151632989  |grad|_K:  3.932e-06  alpha:  7.480e-01  linmin:  1.214e-05  t[s]:   2200.75
	FillingsUpdate:  mu: -0.102346678  nElectrons: 703.000000  magneticMoment: [ Abs: 0.00023  Tot: +0.00012 ]
	SubspaceRotationAdjust: set factor to 0.519
ElecMinimize: Iter:   6  F: -1905.931135213987773  |grad|_K:  2.464e-06  alpha:  6.103e-01  linmin:  7.709e-06  t[s]:   2362.56
	FillingsUpdate:  mu: -0.104695443  nElectrons: 703.000000  magneticMoment: [ Abs: 0.00014  Tot: +0.00006 ]
	SubspaceRotationAdjust: set factor to 0.608
ElecMinimize: Iter:   7  F: -1905.933390717191060  |grad|_K:  1.623e-06  alpha:  6.804e-01  linmin:  1.220e-05  t[s]:   2523.62
	FillingsUpdate:  mu: -0.103247263  nElectrons: 703.000000  magneticMoment: [ Abs: 0.00008  Tot: +0.00002 ]
	SubspaceRotationAdjust: set factor to 0.612
ElecMinimize: Iter:   8  F: -1905.934300387957592  |grad|_K:  1.047e-06  alpha:  6.331e-01  linmin:  8.704e-06  t[s]:   2685.90
	FillingsUpdate:  mu: -0.104867662  nElectrons: 703.000000  magneticMoment: [ Abs: 0.00004  Tot: +0.00000 ]
	SubspaceRotationAdjust: set factor to 0.454
ElecMinimize: Iter:   9  F: -1905.934607069168351  |grad|_K:  7.318e-07  alpha:  5.127e-01  linmin:  1.374e-06  t[s]:   2847.80
	FillingsUpdate:  mu: -0.103744226  nElectrons: 703.000000  magneticMoment: [ Abs: 0.00002  Tot: -0.00000 ]
	SubspaceRotationAdjust: set factor to 0.318
ElecMinimize: Iter:  10  F: -1905.934724084323534  |grad|_K:  3.929e-07  alpha:  3.988e-01  linmin:  7.652e-07  t[s]:   3008.82
	FillingsUpdate:  mu: -0.104054848  nElectrons: 703.000000  magneticMoment: [ Abs: 0.00001  Tot: -0.00001 ]
	SubspaceRotationAdjust: set factor to 0.377
ElecMinimize: Iter:  11  F: -1905.934787379040245  |grad|_K:  2.459e-07  alpha:  7.507e-01  linmin:  2.168e-06  t[s]:   3171.00
	FillingsUpdate:  mu: -0.104220246  nElectrons: 703.000000  magneticMoment: [ Abs: 0.00001  Tot: -0.00001 ]
	SubspaceRotationAdjust: set factor to 0.434
ElecMinimize: Iter:  12  F: -1905.934806218577251  |grad|_K:  1.808e-07  alpha:  5.702e-01  linmin:  1.161e-07  t[s]:   3332.80
	FillingsUpdate:  mu: -0.104094557  nElectrons: 703.000000  magneticMoment: [ Abs: 0.00001  Tot: -0.00000 ]
	SubspaceRotationAdjust: set factor to 0.557
ElecMinimize: Iter:  13  F: -1905.934818441274501  |grad|_K:  1.211e-07  alpha:  6.835e-01  linmin:  1.586e-06  t[s]:   3493.41
	FillingsUpdate:  mu: -0.104126373  nElectrons: 703.000000  magneticMoment: [ Abs: 0.00001  Tot: -0.00000 ]
	SubspaceRotationAdjust: set factor to 0.737
ElecMinimize: Iter:  14  F: -1905.934824352623309  |grad|_K:  8.444e-08  alpha:  7.390e-01  linmin:  1.566e-06  t[s]:   3654.90
	FillingsUpdate:  mu: -0.104134299  nElectrons: 703.000000  magneticMoment: [ Abs: 0.00000  Tot: -0.00000 ]
	SubspaceRotationAdjust: set factor to 0.872
ElecMinimize: Iter:  15  F: -1905.934826578597949  |grad|_K:  5.908e-08  alpha:  5.722e-01  linmin:  2.402e-07  t[s]:   3816.89
	FillingsUpdate:  mu: -0.104100257  nElectrons: 703.000000  magneticMoment: [ Abs: 0.00000  Tot: -0.00000 ]
	SubspaceRotationAdjust: set factor to 0.869
ElecMinimize: Iter:  16  F: -1905.934827584027971  |grad|_K:  3.739e-08  alpha:  5.264e-01  linmin:  2.594e-07  t[s]:   3978.57
	FillingsUpdate:  mu: -0.104155715  nElectrons: 703.000000  magneticMoment: [ Abs: 0.00000  Tot: +0.00000 ]
	SubspaceRotationAdjust: set factor to 0.733
ElecMinimize: Iter:  17  F: -1905.934827943850905  |grad|_K:  3.714e-08  alpha:  4.708e-01  linmin:  7.643e-08  t[s]:   4139.49
	FillingsUpdate:  mu: -0.104103386  nElectrons: 703.000000  magneticMoment: [ Abs: 0.00000  Tot: +0.00000 ]
	SubspaceRotationAdjust: set factor to 0.613
ElecMinimize: Iter:  18  F: -1905.934828186879713  |grad|_K:  2.316e-08  alpha:  3.216e-01  linmin:  6.233e-10  t[s]:   4301.23
	FillingsUpdate:  mu: -0.104113742  nElectrons: 703.000000  magneticMoment: [ Abs: 0.00000  Tot: +0.00000 ]
	SubspaceRotationAdjust: set factor to 0.814
ElecMinimize: Iter:  19  F: -1905.934828352488921  |grad|_K:  1.712e-08  alpha:  5.640e-01  linmin:  1.912e-07  t[s]:   4462.58
	FillingsUpdate:  mu: -0.104126244  nElectrons: 703.000000  magneticMoment: [ Abs: 0.00000  Tot: +0.00000 ]
	SubspaceRotationAdjust: set factor to 0.931
ElecMinimize: Iter:  20  F: -1905.934828434549672  |grad|_K:  1.224e-08  alpha:  5.124e-01  linmin:  3.512e-08  t[s]:   4623.76
	FillingsUpdate:  mu: -0.104107458  nElectrons: 703.000000  magneticMoment: [ Abs: 0.00000  Tot: +0.00000 ]
	SubspaceRotationAdjust: set factor to 0.759
ElecMinimize: Iter:  21  F: -1905.934828463966596  |grad|_K:  1.053e-08  alpha:  3.589e-01  linmin:  4.737e-08  t[s]:   4785.07
	FillingsUpdate:  mu: -0.104120076  nElectrons: 703.000000  magneticMoment: [ Abs: 0.00000  Tot: +0.00000 ]
	SubspaceRotationAdjust: set factor to 0.624
ElecMinimize: Iter:  22  F: -1905.934828484271293  |grad|_K:  5.771e-09  alpha:  3.341e-01  linmin: -5.331e-09  t[s]:   4946.21
	FillingsUpdate:  mu: -0.104117738  nElectrons: 703.000000  magneticMoment: [ Abs: 0.00000  Tot: -0.00000 ]
	SubspaceRotationAdjust: set factor to 0.691
ElecMinimize: Iter:  23  F: -1905.934828494513567  |grad|_K:  4.109e-09  alpha:  5.574e-01  linmin: -2.477e-07  t[s]:   5108.31
	FillingsUpdate:  mu: -0.104116883  nElectrons: 703.000000  magneticMoment: [ Abs: 0.00000  Tot: -0.00000 ]
	SubspaceRotationAdjust: set factor to 0.83
ElecMinimize: Iter:  24  F: -1905.934828499800005  |grad|_K:  2.976e-09  alpha:  5.635e-01  linmin: -9.485e-08  t[s]:   5269.91
	FillingsUpdate:  mu: -0.104119509  nElectrons: 703.000000  magneticMoment: [ Abs: 0.00000  Tot: -0.00000 ]
	SubspaceRotationAdjust: set factor to 0.914
ElecMinimize: Iter:  25  F: -1905.934828502573737  |grad|_K:  2.385e-09  alpha:  5.760e-01  linmin: -2.405e-07  t[s]:   5431.91
ElecMinimize: Converged (|Delta F|<1.000000e-08 for 2 iters).
Setting wave functions to eigenvectors of Hamiltonian
Vacuum energy after initial minimize, F = -1905.934828502573737

	Linear fluid (dielectric constant: 78.4, screening length: 5.74355 Bohr) occupying 0.701336 of unit cell:	Completed after 17 iterations at t[s]:   5460.24

-------- Electronic minimization -----------
	Linear fluid (dielectric constant: 78.4, screening length: 5.74355 Bohr) occupying 0.701336 of unit cell:	Completed after 0 iterations at t[s]:   5493.76
	FillingsUpdate:  mu: -0.185216562  nElectrons: 703.000000  magneticMoment: [ Abs: 0.00000  Tot: -0.00000 ]
ElecMinimize: Iter:   0  F: -1905.828737853943494  |grad|_K:  2.655e-06  alpha:  1.000e+00
	Linear fluid (dielectric constant: 78.4, screening length: 5.74355 Bohr) occupying 0.702438 of unit cell:	Completed after 13 iterations at t[s]:   5625.55
	Linear fluid (dielectric constant: 78.4, screening length: 5.74355 Bohr) occupying 0.701509 of unit cell:	Completed after 13 iterations at t[s]:   5680.29
	FillingsUpdate:  mu: -0.179601756  nElectrons: 703.000000  magneticMoment: [ Abs: 0.00000  Tot: -0.00000 ]
	SubspaceRotationAdjust: set factor to 0.636
ElecMinimize: Iter:   1  F: -1905.829329521200634  |grad|_K:  9.901e-07  alpha:  1.533e-01  linmin: -2.393e-07  t[s]:   5752.99
	Linear fluid (dielectric constant: 78.4, screening length: 5.74355 Bohr) occupying 0.701609 of unit cell:	Completed after 9 iterations at t[s]:   5807.70
ElecMinimize: 	Predicted alpha/alphaT>3.000000, increasing alphaT to 4.599781e-01.
	Linear fluid (dielectric constant: 78.4, screening length: 5.74355 Bohr) occupying 0.701806 of unit cell:	Completed after 11 iterations at t[s]:   5860.34
	Linear fluid (dielectric constant: 78.4, screening length: 5.74355 Bohr) occupying 0.701895 of unit cell:	Completed after 7 iterations at t[s]:   5913.14
	FillingsUpdate:  mu: -0.178314688  nElectrons: 703.000000  magneticMoment: [ Abs: 0.00001  Tot: +0.00000 ]
	SubspaceRotationAdjust: set factor to 0.436
ElecMinimize: Iter:   2  F: -1905.829653031158159  |grad|_K:  4.542e-07  alpha:  6.004e-01  linmin: -1.988e-06  t[s]:   5983.34
	Linear fluid (dielectric constant: 78.4, screening length: 5.74355 Bohr) occupying 0.702026 of unit cell:	Completed after 7 iterations at t[s]:   6037.90
	Linear fluid (dielectric constant: 78.4, screening length: 5.74355 Bohr) occupying 0.702018 of unit cell:	Completed after 2 iterations at t[s]:   6089.60
	FillingsUpdate:  mu: -0.178119106  nElectrons: 703.000000  magneticMoment: [ Abs: 0.00001  Tot: +0.00000 ]
	SubspaceRotationAdjust: set factor to 0.283
ElecMinimize: Iter:   3  F: -1905.829717334092493  |grad|_K:  2.049e-07  alpha:  5.646e-01  linmin: -5.495e-07  t[s]:   6157.92
	Linear fluid (dielectric constant: 78.4, screening length: 5.74355 Bohr) occupying 0.702056 of unit cell:	Completed after 2 iterations at t[s]:   6212.40
	Linear fluid (dielectric constant: 78.4, screening length: 5.74355 Bohr) occupying 0.702076 of unit cell:	Completed after 3 iterations at t[s]:   6262.01
	FillingsUpdate:  mu: -0.178187017  nElectrons: 703.000000  magneticMoment: [ Abs: 0.00001  Tot: -0.00000 ]
	SubspaceRotationAdjust: set factor to 0.373
ElecMinimize: Iter:   4  F: -1905.829737201587704  |grad|_K:  1.123e-07  alpha:  8.652e-01  linmin:  7.503e-07  t[s]:   6331.53
	Linear fluid (dielectric constant: 78.4, screening length: 5.74355 Bohr) occupying 0.702094 of unit cell:	Completed after 1 iterations at t[s]:   6385.81
	Linear fluid (dielectric constant: 78.4, screening length: 5.74355 Bohr) occupying 0.702096 of unit cell:	Completed after 0 iterations at t[s]:   6434.74
	FillingsUpdate:  mu: -0.178124096  nElectrons: 703.000000  magneticMoment: [ Abs: 0.00000  Tot: -0.00000 ]
	SubspaceRotationAdjust: set factor to 0.469
ElecMinimize: Iter:   5  F: -1905.829744065947807  |grad|_K:  6.541e-08  alpha:  9.949e-01  linmin: -7.104e-06  t[s]:   6502.62
	Linear fluid (dielectric constant: 78.4, screening length: 5.74355 Bohr) occupying 0.702089 of unit cell:	Completed after 3 iterations at t[s]:   6557.17
	Linear fluid (dielectric constant: 78.4, screening length: 5.74355 Bohr) occupying 0.702091 of unit cell:	Completed after 0 iterations at t[s]:   6606.94
	FillingsUpdate:  mu: -0.177987432  nElectrons: 703.000000  magneticMoment: [ Abs: 0.00000  Tot: -0.00000 ]
	SubspaceRotationAdjust: set factor to 0.347
ElecMinimize: Iter:   6  F: -1905.829745781416477  |grad|_K:  6.445e-08  alpha:  7.501e-01  linmin: -1.788e-05  t[s]:   6675.09
	Linear fluid (dielectric constant: 78.4, screening length: 5.74355 Bohr) occupying 0.702072 of unit cell:	Completed after 3 iterations at t[s]:   6729.26
	Linear fluid (dielectric constant: 78.4, screening length: 5.74355 Bohr) occupying 0.702081 of unit cell:	Completed after 2 iterations at t[s]:   6779.19
	FillingsUpdate:  mu: -0.178127728  nElectrons: 703.000000  magneticMoment: [ Abs: 0.00000  Tot: -0.00000 ]
	SubspaceRotationAdjust: set factor to 0.284
ElecMinimize: Iter:   7  F: -1905.829746631769467  |grad|_K:  3.853e-08  alpha:  3.850e-01  linmin:  1.286e-05  t[s]:   6847.54
	Linear fluid (dielectric constant: 78.4, screening length: 5.74355 Bohr) occupying 0.702075 of unit cell:	Completed after 0 iterations at t[s]:   6901.24
	Linear fluid (dielectric constant: 78.4, screening length: 5.74355 Bohr) occupying 0.702071 of unit cell:	Completed after 0 iterations at t[s]:   6949.88
	FillingsUpdate:  mu: -0.178127468  nElectrons: 703.000000  magneticMoment: [ Abs: 0.00000  Tot: -0.00000 ]
	SubspaceRotationAdjust: set factor to 0.398
ElecMinimize: Iter:   8  F: -1905.829747097636073  |grad|_K:  2.990e-08  alpha:  6.168e-01  linmin:  2.682e-07  t[s]:   7017.89
	Linear fluid (dielectric constant: 78.4, screening length: 5.74355 Bohr) occupying 0.702064 of unit cell:	Completed after 3 iterations at t[s]:   7072.46
	Linear fluid (dielectric constant: 78.4, screening length: 5.74355 Bohr) occupying 0.702068 of unit cell:	Completed after 0 iterations at t[s]:   7122.01
	FillingsUpdate:  mu: -0.178089486  nElectrons: 703.000000  magneticMoment: [ Abs: 0.00000  Tot: -0.00000 ]
	SubspaceRotationAdjust: set factor to 0.316
ElecMinimize: Iter:   9  F: -1905.829747177109311  |grad|_K:  2.968e-08  alpha:  2.713e-01  linmin:  2.541e-05  t[s]:   7190.01
	Linear fluid (dielectric constant: 78.4, screening length: 5.74355 Bohr) occupying 0.702064 of unit cell:	Completed after 0 iterations at t[s]:   7244.05
	Linear fluid (dielectric constant: 78.4, screening length: 5.74355 Bohr) occupying 0.702064 of unit cell:	Completed after 0 iterations at t[s]:   7292.62
	FillingsUpdate:  mu: -0.178089522  nElectrons: 703.000000  magneticMoment: [ Abs: 0.00000  Tot: -0.00000 ]
	SubspaceRotationAdjust: set factor to 0.313
ElecMinimize: Iter:  10  F: -1905.829747290237265  |grad|_K:  2.695e-08  alpha:  3.052e-01  linmin: -4.083e-08  t[s]:   7360.41
	Linear fluid (dielectric constant: 78.4, screening length: 5.74355 Bohr) occupying 0.702060 of unit cell:	Completed after 1 iterations at t[s]:   7414.49
	Linear fluid (dielectric constant: 78.4, screening length: 5.74355 Bohr) occupying 0.702062 of unit cell:	Completed after 0 iterations at t[s]:   7464.04
ElecMinimize: 	Step increased F by 3.283367e-08, reducing alpha to 1.071230e-02.
	Linear fluid (dielectric constant: 78.4, screening length: 5.74355 Bohr) occupying 0.702064 of unit cell:	Completed after 0 iterations at t[s]:   7570.10
ElecMinimize: 	Step increased F by 1.750755e-08, reducing alpha to 1.071230e-03.
	Linear fluid (dielectric constant: 78.4, screening length: 5.74355 Bohr) occupying 0.702064 of unit cell:	Completed after 0 iterations at t[s]:   7676.79
ElecMinimize: 	Step increased F by 1.675244e-08, reducing alpha to 1.071230e-04.
ElecMinimize: 	Step failed to reduce F after 3 attempts. Quitting step.
ElecMinimize: 	Undoing step.
	Linear fluid (dielectric constant: 78.4, screening length: 5.74355 Bohr) occupying 0.702064 of unit cell:	Completed after 0 iterations at t[s]:   7782.98
ElecMinimize: 	Step failed: resetting search direction.
	FillingsUpdate:  mu: -0.178135173  nElectrons: 703.000000  magneticMoment: [ Abs: 0.00000  Tot: -0.00000 ]
	SubspaceRotationAdjust: set factor to 0.23
ElecMinimize: Iter:  11  F: -1905.829747273497105  |grad|_K:  1.832e-08  alpha:  1.071e-04
	Linear fluid (dielectric constant: 78.4, screening length: 5.74355 Bohr) occupying 0.702064 of unit cell:	Completed after 0 iterations at t[s]:   7903.66
	Linear fluid (dielectric constant: 78.4, screening length: 5.74355 Bohr) occupying 0.702064 of unit cell:	Completed after 0 iterations at t[s]:   7952.13
	FillingsUpdate:  mu: -0.178135294  nElectrons: 703.000000  magneticMoment: [ Abs: 0.00000  Tot: -0.00000 ]
	SubspaceRotationAdjust: set factor to 0.305
ElecMinimize: Iter:  12  F: -1905.829747363999104  |grad|_K:  1.292e-08  alpha:  4.925e-01  linmin:  6.941e-08  t[s]:   8019.77
	Linear fluid (dielectric constant: 78.4, screening length: 5.74355 Bohr) occupying 0.702064 of unit cell:	Completed after 2 iterations at t[s]:   8073.84
	Linear fluid (dielectric constant: 78.4, screening length: 5.74355 Bohr) occupying 0.702064 of unit cell:	Completed after 0 iterations at t[s]:   8123.01
ElecMinimize: 	Step increased F by 1.131261e-07, reducing alpha to 9.315858e-03.
	Linear fluid (dielectric constant: 78.4, screening length: 5.74355 Bohr) occupying 0.702064 of unit cell:	Completed after 0 iterations at t[s]:   8229.40
ElecMinimize: 	Step increased F by 1.096844e-07, reducing alpha to 9.315858e-04.
	Linear fluid (dielectric constant: 78.4, screening length: 5.74355 Bohr) occupying 0.702064 of unit cell:	Completed after 0 iterations at t[s]:   8335.14
ElecMinimize: 	Step increased F by 1.094074e-07, reducing alpha to 9.315858e-05.
ElecMinimize: 	Step failed to reduce F after 3 attempts. Quitting step.
ElecMinimize: 	Undoing step.
	Linear fluid (dielectric constant: 78.4, screening length: 5.74355 Bohr) occupying 0.702064 of unit cell:	Completed after 0 iterations at t[s]:   8440.83
ElecMinimize: 	Step failed: resetting search direction.
	FillingsUpdate:  mu: -0.178113163  nElectrons: 703.000000  magneticMoment: [ Abs: 0.00000  Tot: -0.00000 ]
	SubspaceRotationAdjust: set factor to 0.268
ElecMinimize: Iter:  13  F: -1905.829747254504127  |grad|_K:  1.961e-08  alpha:  9.316e-05
	Linear fluid (dielectric constant: 78.4, screening length: 5.74355 Bohr) occupying 0.702063 of unit cell:	Completed after 0 iterations at t[s]:   8562.17
	Linear fluid (dielectric constant: 78.4, screening length: 5.74355 Bohr) occupying 0.702063 of unit cell:	Completed after 0 iterations at t[s]:   8610.51
	FillingsUpdate:  mu: -0.178113544  nElectrons: 703.000000  magneticMoment: [ Abs: 0.00000  Tot: -0.00000 ]
	SubspaceRotationAdjust: set factor to 0.335
ElecMinimize: Iter:  14  F: -1905.829747380663775  |grad|_K:  1.584e-08  alpha:  5.658e-01  linmin: -6.098e-05  t[s]:   8678.01
	Linear fluid (dielectric constant: 78.4, screening length: 5.74355 Bohr) occupying 0.702063 of unit cell:	Completed after 2 iterations at t[s]:   8732.20
	Linear fluid (dielectric constant: 78.4, screening length: 5.74355 Bohr) occupying 0.702063 of unit cell:	Completed after 0 iterations at t[s]:   8782.15
ElecMinimize: 	Step increased F by 3.740797e-08, reducing alpha to 1.141483e-02.
	Linear fluid (dielectric constant: 78.4, screening length: 5.74355 Bohr) occupying 0.702063 of unit cell:	Completed after 0 iterations at t[s]:   8888.40
ElecMinimize: 	Step increased F by 1.619946e-08, reducing alpha to 1.141483e-03.
	Linear fluid (dielectric constant: 78.4, screening length: 5.74355 Bohr) occupying 0.702063 of unit cell:	Completed after 0 iterations at t[s]:   8995.27
ElecMinimize: 	Step increased F by 1.174544e-08, reducing alpha to 1.141483e-04.
ElecMinimize: 	Step failed to reduce F after 3 attempts. Quitting step.
ElecMinimize: 	Undoing step.
	Linear fluid (dielectric constant: 78.4, screening length: 5.74355 Bohr) occupying 0.702063 of unit cell:	Completed after 0 iterations at t[s]:   9101.39
ElecMinimize: 	Step failed: resetting search direction.
	FillingsUpdate:  mu: -0.178159484  nElectrons: 703.000000  magneticMoment: [ Abs: 0.00000  Tot: -0.00000 ]
	SubspaceRotationAdjust: set factor to 0.269
ElecMinimize: Iter:  15  F: -1905.829747368984272  |grad|_K:  2.861e-08  alpha:  1.141e-04
	Linear fluid (dielectric constant: 78.4, screening length: 5.74355 Bohr) occupying 0.702064 of unit cell:	Completed after 2 iterations at t[s]:   9223.39
	Linear fluid (dielectric constant: 78.4, screening length: 5.74355 Bohr) occupying 0.702064 of unit cell:	Completed after 0 iterations at t[s]:   9273.07
	FillingsUpdate:  mu: -0.178112364  nElectrons: 703.000000  magneticMoment: [ Abs: 0.00000  Tot: +0.00000 ]
	SubspaceRotationAdjust: set factor to 0.13
ElecMinimize: Iter:  16  F: -1905.829747380420486  |grad|_K:  1.920e-08  alpha:  1.979e-01  linmin:  3.973e-04  t[s]:   9341.20
	Linear fluid (dielectric constant: 78.4, screening length: 5.74355 Bohr) occupying 0.702063 of unit cell:	Completed after 0 iterations at t[s]:   9395.48
ElecMinimize: 	Predicted alpha/alphaT>3.000000, increasing alphaT to 5.935709e-01.
	Linear fluid (dielectric constant: 78.4, screening length: 5.74355 Bohr) occupying 0.702063 of unit cell:	Completed after 0 iterations at t[s]:   9442.89
	Linear fluid (dielectric constant: 78.4, screening length: 5.74355 Bohr) occupying 0.702063 of unit cell:	Completed after 0 iterations at t[s]:   9491.03
	FillingsUpdate:  mu: -0.178112351  nElectrons: 703.000000  magneticMoment: [ Abs: 0.00000  Tot: +0.00000 ]
	SubspaceRotationAdjust: set factor to 0.215
ElecMinimize: Iter:  17  F: -1905.829747437520837  |grad|_K:  2.086e-08  alpha:  6.585e-01  linmin:  1.597e-08  t[s]:   9558.34
	Linear fluid (dielectric constant: 78.4, screening length: 5.74355 Bohr) occupying 0.702063 of unit cell:	Completed after 2 iterations at t[s]:   9612.46
	Linear fluid (dielectric constant: 78.4, screening length: 5.74355 Bohr) occupying 0.702063 of unit cell:	Completed after 0 iterations at t[s]:   9661.91
ElecMinimize: 	Step increased F by 8.190227e-08, reducing alpha to 1.768074e-02.
	Linear fluid (dielectric constant: 78.4, screening length: 5.74355 Bohr) occupying 0.702063 of unit cell:	Completed after 0 iterations at t[s]:   9767.29
ElecMinimize: 	Step increased F by 6.377445e-08, reducing alpha to 1.768074e-03.
	Linear fluid (dielectric constant: 78.4, screening length: 5.74355 Bohr) occupying 0.702063 of unit cell:	Completed after 0 iterations at t[s]:   9872.81
ElecMinimize: 	Step increased F by 6.030382e-08, reducing alpha to 1.768074e-04.
ElecMinimize: 	Step failed to reduce F after 3 attempts. Quitting step.
ElecMinimize: 	Undoing step.
	Linear fluid (dielectric constant: 78.4, screening length: 5.74355 Bohr) occupying 0.702063 of unit cell:	Completed after 0 iterations at t[s]:   9978.58
ElecMinimize: 	Step failed: resetting search direction.
	FillingsUpdate:  mu: -0.178145728  nElectrons: 703.000000  magneticMoment: [ Abs: 0.00000  Tot: +0.00000 ]
	SubspaceRotationAdjust: set factor to 0.177
ElecMinimize: Iter:  18  F: -1905.829747377191552  |grad|_K:  2.355e-08  alpha:  1.768e-04
	Linear fluid (dielectric constant: 78.4, screening length: 5.74355 Bohr) occupying 0.702063 of unit cell:	Completed after 2 iterations at t[s]:  10099.74
	Linear fluid (dielectric constant: 78.4, screening length: 5.74355 Bohr) occupying 0.702063 of unit cell:	Completed after 0 iterations at t[s]:  10148.89
ElecMinimize: 	Step increased F by 7.614517e-09, reducing alpha to 2.228135e-02.
	Linear fluid (dielectric constant: 78.4, screening length: 5.74355 Bohr) occupying 0.702063 of unit cell:	Completed after 0 iterations at t[s]:  10254.49
	FillingsUpdate:  mu: -0.178123564  nElectrons: 703.000000  magneticMoment: [ Abs: 0.00000  Tot: +0.00000 ]
	SubspaceRotationAdjust: set factor to 0.123
	SubspaceRotationAdjust: resetting CG because factor has changed by 0.134825
	Linear fluid (dielectric constant: 78.4, screening length: 5.74355 Bohr) occupying 0.702063 of unit cell:	Completed after 0 iterations at t[s]:  10342.48
ElecMinimize: 	State modified externally: resetting search direction.
ElecMinimize: Iter:  19  F: -1905.829747381442075  |grad|_K:  1.717e-08  alpha:  2.228e-02
	Linear fluid (dielectric constant: 78.4, screening length: 5.74355 Bohr) occupying 0.702063 of unit cell:	Completed after 0 iterations at t[s]:  10464.42
ElecMinimize: 	Predicted alpha/alphaT>3.000000, increasing alphaT to 6.684404e-02.
	Linear fluid (dielectric constant: 78.4, screening length: 5.74355 Bohr) occupying 0.702063 of unit cell:	Completed after 0 iterations at t[s]:  10511.64
ElecMinimize: 	Predicted alpha/alphaT>3.000000, increasing alphaT to 2.005321e-01.
	Linear fluid (dielectric constant: 78.4, screening length: 5.74355 Bohr) occupying 0.702063 of unit cell:	Completed after 0 iterations at t[s]:  10559.46
	Linear fluid (dielectric constant: 78.4, screening length: 5.74355 Bohr) occupying 0.702063 of unit cell:	Completed after 0 iterations at t[s]:  10607.65
	FillingsUpdate:  mu: -0.178123505  nElectrons: 703.000000  magneticMoment: [ Abs: 0.00000  Tot: +0.00000 ]
	SubspaceRotationAdjust: set factor to 0.0558
ElecMinimize: Iter:  20  F: -1905.829747439569246  |grad|_K:  9.531e-09  alpha:  3.608e-01  linmin:  1.690e-06  t[s]:  10675.57
	Linear fluid (dielectric constant: 78.4, screening length: 5.74355 Bohr) occupying 0.702063 of unit cell:	Completed after 1 iterations at t[s]:  10729.41
	Linear fluid (dielectric constant: 78.4, screening length: 5.74355 Bohr) occupying 0.702063 of unit cell:	Completed after 0 iterations at t[s]:  10778.21
ElecMinimize: 	Step increased F by 9.152541e-08, reducing alpha to 4.777197e-03.
	Linear fluid (dielectric constant: 78.4, screening length: 5.74355 Bohr) occupying 0.702063 of unit cell:	Completed after 0 iterations at t[s]:  10884.19
ElecMinimize: 	Step increased F by 9.077485e-08, reducing alpha to 4.777197e-04.
	Linear fluid (dielectric constant: 78.4, screening length: 5.74355 Bohr) occupying 0.702063 of unit cell:	Completed after 0 iterations at t[s]:  10989.38
ElecMinimize: 	Step increased F by 9.063888e-08, reducing alpha to 4.777197e-05.
ElecMinimize: 	Step failed to reduce F after 3 attempts. Quitting step.
ElecMinimize: 	Undoing step.
	Linear fluid (dielectric constant: 78.4, screening length: 5.74355 Bohr) occupying 0.702063 of unit cell:	Completed after 0 iterations at t[s]:  11095.17
ElecMinimize: 	Step failed: resetting search direction.
	FillingsUpdate:  mu: -0.178124958  nElectrons: 703.000000  magneticMoment: [ Abs: 0.00000  Tot: +0.00000 ]
	SubspaceRotationAdjust: set factor to 0.0505
ElecMinimize: Iter:  21  F: -1905.829747348964247  |grad|_K:  6.689e-09  alpha:  4.777e-05
	Linear fluid (dielectric constant: 78.4, screening length: 5.74355 Bohr) occupying 0.702063 of unit cell:	Completed after 0 iterations at t[s]:  11215.94
	Linear fluid (dielectric constant: 78.4, screening length: 5.74355 Bohr) occupying 0.702063 of unit cell:	Completed after 0 iterations at t[s]:  11264.21
	FillingsUpdate:  mu: -0.178125006  nElectrons: 703.000000  magneticMoment: [ Abs: 0.00000  Tot: +0.00000 ]
	SubspaceRotationAdjust: set factor to 0.054
ElecMinimize: Iter:  22  F: -1905.829747358384338  |grad|_K:  3.689e-09  alpha:  3.861e-01  linmin:  4.462e-08  t[s]:  11331.89
	Linear fluid (dielectric constant: 78.4, screening length: 5.74355 Bohr) occupying 0.702063 of unit cell:	Completed after 0 iterations at t[s]:  11385.84
	Linear fluid (dielectric constant: 78.4, screening length: 5.74355 Bohr) occupying 0.702063 of unit cell:	Completed after 0 iterations at t[s]:  11434.12
	FillingsUpdate:  mu: -0.178125103  nElectrons: 703.000000  magneticMoment: [ Abs: 0.00000  Tot: +0.00000 ]
	SubspaceRotationAdjust: set factor to 0.062
ElecMinimize: Iter:  23  F: -1905.829747365905178  |grad|_K:  2.339e-09  alpha:  1.010e+00  linmin:  8.132e-07  t[s]:  11501.73
ElecMinimize: Converged (|Delta F|<1.000000e-08 for 2 iters).
Setting wave functions to eigenvectors of Hamiltonian
Single-point solvation energy estimate, DeltaF = +0.105081136668559

# Ionic positions in lattice coordinates:
ion Zr   0.125000000000000   0.000000000000000   0.597211559543416 1
ion Zr   0.000000000000000   0.125000000000000   0.402785097123251 1
ion Zr   0.375000000000000   0.000000000000000   0.597211559543416 1
ion Zr   0.250000000000000   0.125000000000000   0.402785097123251 1
ion Zr   0.625000000000000   0.000000000000000   0.597211559543416 1
ion Zr   0.500000000000000   0.125000000000000   0.402785097123251 1
ion Zr   0.875000000000000   0.000000000000000   0.597211559543416 1
ion Zr   0.750000000000000   0.125000000000000   0.402785097123251 1
ion Zr   0.125000000000000   0.250000000000000   0.597211559543416 1
ion Zr   0.000000000000000   0.375000000000000   0.402785097123251 1
ion Zr   0.375000000000000   0.250000000000000   0.597211559543416 1
ion Zr   0.250000000000000   0.375000000000000   0.402785097123251 1
ion Zr   0.625000000000000   0.250000000000000   0.597211559543416 1
ion Zr   0.500000000000000   0.375000000000000   0.402785097123251 1
ion Zr   0.875000000000000   0.250000000000000   0.597211559543416 1
ion Zr   0.750000000000000   0.375000000000000   0.402785097123251 1
ion Zr   0.125000000000000   0.500000000000000   0.597211559543416 1
ion Zr   0.000000000000000   0.625000000000000   0.402785097123251 1
ion Zr   0.375000000000000   0.500000000000000   0.597211559543416 1
ion Zr   0.250000000000000   0.625000000000000   0.402785097123251 1
ion Zr   0.625000000000000   0.500000000000000   0.597211559543416 1
ion Zr   0.500000000000000   0.625000000000000   0.402785097123251 1
ion Zr   0.875000000000000   0.500000000000000   0.597211559543416 1
ion Zr   0.750000000000000   0.625000000000000   0.402785097123251 1
ion Zr   0.125000000000000   0.750000000000000   0.597211559543416 1
ion Zr   0.000000000000000   0.875000000000000   0.402785097123251 1
ion Zr   0.375000000000000   0.750000000000000   0.597211559543416 1
ion Zr   0.250000000000000   0.875000000000000   0.402785097123251 1
ion Zr   0.625000000000000   0.750000000000000   0.597211559543416 1
ion Zr   0.500000000000000   0.875000000000000   0.402785097123251 1
ion Zr   0.875000000000000   0.750000000000000   0.597211559543416 1
ion Zr   0.750000000000000   0.875000000000000   0.402785097123251 1
ion Si   0.125000000000000   0.125000000000000   0.499998328333333 1
ion Si   0.000000000000000   0.000000000000000   0.499998328333333 1
ion Si   0.375000000000000   0.125000000000000   0.499998328333333 1
ion Si   0.250000000000000   0.000000000000000   0.499998328333333 1
ion Si   0.625000000000000   0.125000000000000   0.499998328333333 1
ion Si   0.500000000000000   0.000000000000000   0.499998328333333 1
ion Si   0.875000000000000   0.125000000000000   0.499998328333333 1
ion Si   0.750000000000000   0.000000000000000   0.499998328333333 1
ion Si   0.125000000000000   0.375000000000000   0.499998328333333 1
ion Si   0.000000000000000   0.250000000000000   0.499998328333333 1
ion Si   0.375000000000000   0.375000000000000   0.499998328333333 1
ion Si   0.250000000000000   0.250000000000000   0.499998328333333 1
ion Si   0.625000000000000   0.375000000000000   0.499998328333333 1
ion Si   0.500000000000000   0.250000000000000   0.499998328333333 1
ion Si   0.875000000000000   0.375000000000000   0.499998328333333 1
ion Si   0.750000000000000   0.250000000000000   0.499998328333333 1
ion Si   0.125000000000000   0.625000000000000   0.499998328333333 1
ion Si   0.000000000000000   0.500000000000000   0.499998328333333 1
ion Si   0.375000000000000   0.625000000000000   0.499998328333333 1
ion Si   0.250000000000000   0.500000000000000   0.499998328333333 1
ion Si   0.625000000000000   0.625000000000000   0.499998328333333 1
ion Si   0.500000000000000   0.500000000000000   0.499998328333333 1
ion Si   0.875000000000000   0.625000000000000   0.499998328333333 1
ion Si   0.750000000000000   0.500000000000000   0.499998328333333 1
ion Si   0.125000000000000   0.875000000000000   0.499998328333333 1
ion Si   0.000000000000000   0.750000000000000   0.499998328333333 1
ion Si   0.375000000000000   0.875000000000000   0.499998328333333 1
ion Si   0.250000000000000   0.750000000000000   0.499998328333333 1
ion Si   0.625000000000000   0.875000000000000   0.499998328333333 1
ion Si   0.500000000000000   0.750000000000000   0.499998328333333 1
ion Si   0.875000000000000   0.875000000000000   0.499998328333333 1
ion Si   0.750000000000000   0.750000000000000   0.499998328333333 1
ion Te   0.000000000000000   0.125000000000000   0.661695933571344 1
ion Te   0.125000000000000   0.000000000000000   0.338300723095323 1
ion Te   0.250000000000000   0.125000000000000   0.661695933571344 1
ion Te   0.375000000000000   0.000000000000000   0.338300723095323 1
ion Te   0.500000000000000   0.125000000000000   0.661695933571344 1
ion Te   0.625000000000000   0.000000000000000   0.338300723095323 1
ion Te   0.750000000000000   0.125000000000000   0.661695933571344 1
ion Te   0.875000000000000   0.000000000000000   0.338300723095323 1
ion Te   0.000000000000000   0.375000000000000   0.661695933571344 1
ion Te   0.125000000000000   0.250000000000000   0.338300723095323 1
ion Te   0.250000000000000   0.375000000000000   0.661695933571344 1
ion Te   0.375000000000000   0.250000000000000   0.338300723095323 1
ion Te   0.500000000000000   0.375000000000000   0.661695933571344 1
ion Te   0.625000000000000   0.250000000000000   0.338300723095323 1
ion Te   0.750000000000000   0.375000000000000   0.661695933571344 1
ion Te   0.875000000000000   0.250000000000000   0.338300723095323 1
ion Te   0.000000000000000   0.625000000000000   0.661695933571344 1
ion Te   0.125000000000000   0.500000000000000   0.338300723095323 1
ion Te   0.250000000000000   0.625000000000000   0.661695933571344 1
ion Te   0.375000000000000   0.500000000000000   0.338300723095323 1
ion Te   0.500000000000000   0.625000000000000   0.661695933571344 1
ion Te   0.625000000000000   0.500000000000000   0.338300723095323 1
ion Te   0.750000000000000   0.625000000000000   0.661695933571344 1
ion Te   0.875000000000000   0.500000000000000   0.338300723095323 1
ion Te   0.000000000000000   0.875000000000000   0.661695933571344 1
ion Te   0.125000000000000   0.750000000000000   0.338300723095323 1
ion Te   0.250000000000000   0.875000000000000   0.661695933571344 1
ion Te   0.375000000000000   0.750000000000000   0.338300723095323 1
ion Te   0.500000000000000   0.875000000000000   0.661695933571344 1
ion Te   0.625000000000000   0.750000000000000   0.338300723095323 1
ion Te   0.750000000000000   0.875000000000000   0.661695933571344 1
ion Te   0.875000000000000   0.750000000000000   0.338300723095323 1


# Forces in Lattice coordinates:
force Zr  -0.000000000000000  -0.000000000000000   0.045659477791963 1
force Zr  -0.000000000000000   0.000000000000000  -0.045659477792871 1
force Zr   0.000000000000000   0.000000000000000   0.045659477791962 1
force Zr  -0.000000000000000   0.000000000000000  -0.045659477792644 1
force Zr   0.000000000000000  -0.000000000000000   0.045659477791963 1
force Zr  -0.000000000000000  -0.000000000000000  -0.045659477792871 1
force Zr  -0.000000000000000   0.000000000000000   0.045659477791735 1
force Zr   0.000000000000000  -0.000000000000000  -0.045659477792871 1
force Zr  -0.000000000000000   0.000000000000000   0.045659477792190 1
force Zr  -0.000000000000000  -0.000000000000000  -0.045659477792644 1
force Zr   0.000000000000000   0.000000000000000   0.045659477792190 1
force Zr   0.000000000000000  -0.000000000000000  -0.045659477792644 1
force Zr   0.000000000000000   0.000000000000000   0.045659477792190 1
force Zr   0.000000000000000   0.000000000000000  -0.045659477792644 1
force Zr  -0.000000000000000   0.000000000000000   0.045659477792190 1
force Zr  -0.000000000000000   0.000000000000000  -0.045659477792644 1
force Zr  -0.000000000000000  -0.000000000000000   0.045659477791963 1
force Zr  -0.000000000000000   0.000000000000000  -0.045659477792189 1
force Zr   0.000000000000000  -0.000000000000000   0.045659477791963 1
force Zr  -0.000000000000000   0.000000000000000  -0.045659477792189 1
force Zr   0.000000000000000  -0.000000000000000   0.045659477792190 1
force Zr   0.000000000000000  -0.000000000000000  -0.045659477792189 1
force Zr  -0.000000000000000   0.000000000000000   0.045659477792190 1
force Zr  -0.000000000000000  -0.000000000000000  -0.045659477792417 1
force Zr  -0.000000000000000  -0.000000000000000   0.045659477792190 1
force Zr  -0.000000000000000   0.000000000000000  -0.045659477792644 1
force Zr   0.000000000000000  -0.000000000000000   0.045659477792190 1
force Zr  -0.000000000000000  -0.000000000000000  -0.045659477792416 1
force Zr   0.000000000000000  -0.000000000000000   0.045659477792190 1
force Zr  -0.000000000000000  -0.000000000000000  -0.045659477792417 1
force Zr  -0.000000000000000  -0.000000000000000   0.045659477791963 1
force Zr   0.000000000000000  -0.000000000000000  -0.045659477792189 1
force Si  -0.000000000000000   0.000000000000000  -0.000000000000000 1
force Si  -0.000000000000000   0.000000000000000  -0.000000000000000 1
force Si   0.000000000000000  -0.000000000000000  -0.000000000000000 1
force Si   0.000000000000000  -0.000000000000000  -0.000000000000000 1
force Si   0.000000000000000  -0.000000000000000   0.000000000000000 1
force Si   0.000000000000000  -0.000000000000000  -0.000000000000000 1
force Si  -0.000000000000000   0.000000000000000   0.000000000000000 1
force Si  -0.000000000000000  -0.000000000000000   0.000000000000000 1
force Si   0.000000000000000   0.000000000000000  -0.000000000000000 1
force Si   0.000000000000000  -0.000000000000000  -0.000000000000000 1
force Si   0.000000000000000   0.000000000000000   0.000000000000000 1
force Si   0.000000000000000  -0.000000000000000   0.000000000000000 1
force Si   0.000000000000000  -0.000000000000000   0.000000000000000 1
force Si   0.000000000000000   0.000000000000000  -0.000000000000000 1
force Si  -0.000000000000000  -0.000000000000000  -0.000000000000000 1
force Si  -0.000000000000000   0.000000000000000  -0.000000000000000 1
force Si  -0.000000000000000  -0.000000000000000  -0.000000000000000 1
force Si  -0.000000000000000   0.000000000000000   0.000000000000000 1
force Si   0.000000000000000  -0.000000000000000  -0.000000000000000 1
force Si  -0.000000000000000  -0.000000000000000   0.000000000000000 1
force Si  -0.000000000000000   0.000000000000000  -0.000000000000000 1
force Si  -0.000000000000000   0.000000000000000   0.000000000000000 1
force Si  -0.000000000000000   0.000000000000000   0.000000000000000 1
force Si  -0.000000000000000   0.000000000000000   0.000000000000000 1
force Si  -0.000000000000000  -0.000000000000000  -0.000000000000000 1
force Si  -0.000000000000000  -0.000000000000000  -0.000000000000000 1
force Si  -0.000000000000000  -0.000000000000000   0.000000000000000 1
force Si   0.000000000000000  -0.000000000000000  -0.000000000000000 1
force Si  -0.000000000000000  -0.000000000000000   0.000000000000000 1
force Si  -0.000000000000000  -0.000000000000000   0.000000000000000 1
force Si  -0.000000000000000  -0.000000000000000  -0.000000000000000 1
force Si   0.000000000000000  -0.000000000000000   0.000000000000000 1
force Te   0.000000000000000  -0.000000000000000  -0.018241643609050 1
force Te  -0.000000000000000  -0.000000000000000   0.018241643609050 1
force Te  -0.000000000000000  -0.000000000000000  -0.018241643609050 1
force Te  -0.000000000000000   0.000000000000000   0.018241643609049 1
force Te  -0.000000000000000  -0.000000000000000  -0.018241643609050 1
force Te   0.000000000000000   0.000000000000000   0.018241643609050 1
force Te   0.000000000000000  -0.000000000000000  -0.018241643609050 1
force Te  -0.000000000000000   0.000000000000000   0.018241643609050 1
force Te   0.000000000000000  -0.000000000000000  -0.018241643609049 1
force Te  -0.000000000000000  -0.000000000000000   0.018241643609050 1
force Te  -0.000000000000000  -0.000000000000000  -0.018241643609049 1
force Te  -0.000000000000000   0.000000000000000   0.018241643609049 1
force Te  -0.000000000000000  -0.000000000000000  -0.018241643609050 1
force Te  -0.000000000000000  -0.000000000000000   0.018241643609049 1
force Te  -0.000000000000000  -0.000000000000000  -0.018241643609050 1
force Te   0.000000000000000  -0.000000000000000   0.018241643609050 1
force Te   0.000000000000000   0.000000000000000  -0.018241643609050 1
force Te  -0.000000000000000   0.000000000000000   0.018241643609050 1
force Te  -0.000000000000000   0.000000000000000  -0.018241643609049 1
force Te  -0.000000000000000  -0.000000000000000   0.018241643609050 1
force Te  -0.000000000000000  -0.000000000000000  -0.018241643609050 1
force Te  -0.000000000000000  -0.000000000000000   0.018241643609050 1
force Te   0.000000000000000   0.000000000000000  -0.018241643609050 1
force Te   0.000000000000000   0.000000000000000   0.018241643609050 1
force Te   0.000000000000000   0.000000000000000  -0.018241643609050 1
force Te   0.000000000000000  -0.000000000000000   0.018241643609050 1
force Te  -0.000000000000000   0.000000000000000  -0.018241643609049 1
force Te  -0.000000000000000   0.000000000000000   0.018241643609050 1
force Te  -0.000000000000000   0.000000000000000  -0.018241643609050 1
force Te   0.000000000000000   0.000000000000000   0.018241643609050 1
force Te   0.000000000000000   0.000000000000000  -0.018241643609050 1
force Te   0.000000000000000   0.000000000000000   0.018241643609050 1

# Energy components:
   A_diel =        0.0930607629035180
   Eewald =    16942.9351202117031789
       EH =    18479.7962020871491404
     Eloc =   -37671.6479813819896663
      Enl =       98.8549374055062486
      Exc =     -586.2466382072212809
 Exc_core =      260.8325175802718263
       KE =      569.6213194419266301
  MuShift =        0.0110088891596384
-------------------------------------
     Etot =    -1905.7504532105886028
       TS =        0.0792941553166020
-------------------------------------
        F =    -1905.8297473659051775

IonicMinimize: Iter:   0  F: -1905.829747365905178  |grad|_K:  3.932e-04  t[s]:  11546.28

#--- Lowdin population analysis ---
# oxidation-state Zr -0.674 -0.674 -0.674 -0.674 -0.674 -0.674 -0.674 -0.674 -0.674 -0.674 -0.674 -0.674 -0.674 -0.674 -0.674 -0.674 -0.674 -0.674 -0.674 -0.674 -0.674 -0.674 -0.674 -0.674 -0.674 -0.674 -0.674 -0.674 -0.674 -0.674 -0.674 -0.674
# magnetic-moments Zr +0.000 +0.000 +0.000 +0.000 +0.000 +0.000 +0.000 +0.000 +0.000 +0.000 +0.000 +0.000 +0.000 +0.000 +0.000 +0.000 +0.000 +0.000 +0.000 +0.000 +0.000 +0.000 +0.000 +0.000 +0.000 +0.000 +0.000 +0.000 +0.000 +0.000 +0.000 +0.000
# oxidation-state Si +0.324 +0.324 +0.324 +0.324 +0.324 +0.324 +0.324 +0.324 +0.324 +0.324 +0.324 +0.324 +0.324 +0.324 +0.324 +0.324 +0.324 +0.324 +0.324 +0.324 +0.324 +0.324 +0.324 +0.324 +0.324 +0.324 +0.324 +0.324 +0.324 +0.324 +0.324 +0.324
# magnetic-moments Si -0.000 -0.000 -0.000 -0.000 -0.000 -0.000 -0.000 -0.000 -0.000 -0.000 -0.000 -0.000 -0.000 -0.000 -0.000 -0.000 -0.000 -0.000 -0.000 -0.000 -0.000 -0.000 -0.000 -0.000 -0.000 -0.000 -0.000 -0.000 -0.000 -0.000 -0.000 -0.000
# oxidation-state Te +0.461 +0.461 +0.461 +0.461 +0.461 +0.461 +0.461 +0.461 +0.461 +0.461 +0.461 +0.461 +0.461 +0.461 +0.461 +0.461 +0.461 +0.461 +0.461 +0.461 +0.461 +0.461 +0.461 +0.461 +0.461 +0.461 +0.461 +0.461 +0.461 +0.461 +0.461 +0.461
# magnetic-moments Te +0.000 +0.000 +0.000 +0.000 +0.000 +0.000 +0.000 +0.000 +0.000 +0.000 +0.000 +0.000 +0.000 +0.000 +0.000 +0.000 +0.000 +0.000 +0.000 +0.000 +0.000 +0.000 +0.000 +0.000 +0.000 +0.000 +0.000 +0.000 +0.000 +0.000 +0.000 +0.000

	Linear fluid (dielectric constant: 78.4, screening length: 5.74355 Bohr) occupying 0.702082 of unit cell:	Completed after 2 iterations at t[s]:  11602.63

-------- Electronic minimization -----------
	Linear fluid (dielectric constant: 78.4, screening length: 5.74355 Bohr) occupying 0.702082 of unit cell:	Completed after 0 iterations at t[s]:  11633.73
	FillingsUpdate:  mu: -0.178109994  nElectrons: 703.000000  magneticMoment: [ Abs: 0.00003  Tot: +0.00000 ]
ElecMinimize: Iter:   0  F: -1905.829770620716545  |grad|_K:  6.087e-08  alpha:  1.000e+00
	Linear fluid (dielectric constant: 78.4, screening length: 5.74355 Bohr) occupying 0.702081 of unit cell:	Completed after 2 iterations at t[s]:  11766.34
	Linear fluid (dielectric constant: 78.4, screening length: 5.74355 Bohr) occupying 0.702081 of unit cell:	Completed after 0 iterations at t[s]:  11815.81
	FillingsUpdate:  mu: -0.178091840  nElectrons: 703.000000  magneticMoment: [ Abs: 0.00003  Tot: -0.00000 ]
	SubspaceRotationAdjust: set factor to 0.0674
ElecMinimize: Iter:   1  F: -1905.829773453291409  |grad|_K:  5.526e-08  alpha:  1.344e+00  linmin: -5.708e-04  t[s]:  11883.01
	Linear fluid (dielectric constant: 78.4, screening length: 5.74355 Bohr) occupying 0.702080 of unit cell:	Completed after 0 iterations at t[s]:  11936.95
	Linear fluid (dielectric constant: 78.4, screening length: 5.74355 Bohr) occupying 0.702079 of unit cell:	Completed after 2 iterations at t[s]:  11985.61
	FillingsUpdate:  mu: -0.178058530  nElectrons: 703.000000  magneticMoment: [ Abs: 0.00003  Tot: -0.00000 ]
	SubspaceRotationAdjust: set factor to 0.0764
ElecMinimize: Iter:   2  F: -1905.829777031894537  |grad|_K:  8.979e-08  alpha:  2.153e+00  linmin:  1.139e-04  t[s]:  12054.04
	Linear fluid (dielectric constant: 78.4, screening length: 5.74355 Bohr) occupying 0.702075 of unit cell:	Completed after 2 iterations at t[s]:  12108.33
	Linear fluid (dielectric constant: 78.4, screening length: 5.74355 Bohr) occupying 0.702077 of unit cell:	Completed after 0 iterations at t[s]:  12157.72
	FillingsUpdate:  mu: -0.178019207  nElectrons: 703.000000  magneticMoment: [ Abs: 0.00002  Tot: -0.00000 ]
	SubspaceRotationAdjust: set factor to 0.0808
ElecMinimize: Iter:   3  F: -1905.829781577939002  |grad|_K:  8.241e-08  alpha:  1.121e+00  linmin:  2.096e-05  t[s]:  12224.90
	Linear fluid (dielectric constant: 78.4, screening length: 5.74355 Bohr) occupying 0.702075 of unit cell:	Completed after 1 iterations at t[s]:  12279.05
	Linear fluid (dielectric constant: 78.4, screening length: 5.74355 Bohr) occupying 0.702076 of unit cell:	Completed after 0 iterations at t[s]:  12328.03
	FillingsUpdate:  mu: -0.178019903  nElectrons: 703.000000  magneticMoment: [ Abs: 0.00002  Tot: -0.00000 ]
	SubspaceRotationAdjust: set factor to 0.0845
ElecMinimize: Iter:   4  F: -1905.829784169152845  |grad|_K:  5.853e-08  alpha:  7.197e-01  linmin: -1.433e-06  t[s]:  12395.05
	Linear fluid (dielectric constant: 78.4, screening length: 5.74355 Bohr) occupying 0.702074 of unit cell:	Completed after 0 iterations at t[s]:  12448.94
	Linear fluid (dielectric constant: 78.4, screening length: 5.74355 Bohr) occupying 0.702075 of unit cell:	Completed after 0 iterations at t[s]:  12498.09
	FillingsUpdate:  mu: -0.178021843  nElectrons: 703.000000  magneticMoment: [ Abs: 0.00001  Tot: -0.00000 ]
	SubspaceRotationAdjust: set factor to 0.0927
ElecMinimize: Iter:   5  F: -1905.829785387317088  |grad|_K:  3.436e-08  alpha:  6.504e-01  linmin: -1.029e-05  t[s]:  12565.21
	Linear fluid (dielectric constant: 78.4, screening length: 5.74355 Bohr) occupying 0.702073 of unit cell:	Completed after 0 iterations at t[s]:  12618.90
	Linear fluid (dielectric constant: 78.4, screening length: 5.74355 Bohr) occupying 0.702073 of unit cell:	Completed after 1 iterations at t[s]:  12667.48
	FillingsUpdate:  mu: -0.178042592  nElectrons: 703.000000  magneticMoment: [ Abs: 0.00000  Tot: -0.00000 ]
	SubspaceRotationAdjust: set factor to 0.105
ElecMinimize: Iter:   6  F: -1905.829785796015358  |grad|_K:  2.421e-08  alpha:  7.932e-01  linmin:  2.470e-05  t[s]:  12735.39
	Linear fluid (dielectric constant: 78.4, screening length: 5.74355 Bohr) occupying 0.702071 of unit cell:	Completed after 0 iterations at t[s]:  12789.36
	Linear fluid (dielectric constant: 78.4, screening length: 5.74355 Bohr) occupying 0.702071 of unit cell:	Completed after 0 iterations at t[s]:  12837.81
	FillingsUpdate:  mu: -0.178042486  nElectrons: 703.000000  magneticMoment: [ Abs: 0.00000  Tot: -0.00000 ]
	SubspaceRotationAdjust: set factor to 0.132
ElecMinimize: Iter:   7  F: -1905.829785993037376  |grad|_K:  1.516e-08  alpha:  6.667e-01  linmin:  2.169e-08  t[s]:  12905.15
	Linear fluid (dielectric constant: 78.4, screening length: 5.74355 Bohr) occupying 0.702070 of unit cell:	Completed after 0 iterations at t[s]:  12958.65
	Linear fluid (dielectric constant: 78.4, screening length: 5.74355 Bohr) occupying 0.702070 of unit cell:	Completed after 0 iterations at t[s]:  13007.04
	FillingsUpdate:  mu: -0.178047590  nElectrons: 703.000000  magneticMoment: [ Abs: 0.00000  Tot: -0.00000 ]
	SubspaceRotationAdjust: set factor to 0.169
ElecMinimize: Iter:   8  F: -1905.829786088843775  |grad|_K:  1.335e-08  alpha:  1.013e+00  linmin:  3.435e-06  t[s]:  13074.87
	Linear fluid (dielectric constant: 78.4, screening length: 5.74355 Bohr) occupying 0.702068 of unit cell:	Completed after 2 iterations at t[s]:  13129.26
	Linear fluid (dielectric constant: 78.4, screening length: 5.74355 Bohr) occupying 0.702069 of unit cell:	Completed after 0 iterations at t[s]:  13178.83
ElecMinimize: 	Step increased F by 8.373581e-08, reducing alpha to 2.549124e-02.
	Linear fluid (dielectric constant: 78.4, screening length: 5.74355 Bohr) occupying 0.702069 of unit cell:	Completed after 0 iterations at t[s]:  13284.30
ElecMinimize: 	Step increased F by 7.574954e-08, reducing alpha to 2.549124e-03.
	Linear fluid (dielectric constant: 78.4, screening length: 5.74355 Bohr) occupying 0.702070 of unit cell:	Completed after 0 iterations at t[s]:  13390.94
ElecMinimize: 	Step increased F by 7.553899e-08, reducing alpha to 2.549124e-04.
ElecMinimize: 	Step failed to reduce F after 3 attempts. Quitting step.
ElecMinimize: 	Undoing step.
	Linear fluid (dielectric constant: 78.4, screening length: 5.74355 Bohr) occupying 0.702070 of unit cell:	Completed after 0 iterations at t[s]:  13496.77
ElecMinimize: 	Step failed: resetting search direction.
	FillingsUpdate:  mu: -0.178130067  nElectrons: 703.000000  magneticMoment: [ Abs: 0.00000  Tot: -0.00000 ]
	SubspaceRotationAdjust: set factor to 0.155
ElecMinimize: Iter:   9  F: -1905.829786013252942  |grad|_K:  2.344e-08  alpha:  2.549e-04
	Linear fluid (dielectric constant: 78.4, screening length: 5.74355 Bohr) occupying 0.702069 of unit cell:	Completed after 3 iterations at t[s]:  13618.12
	Linear fluid (dielectric constant: 78.4, screening length: 5.74355 Bohr) occupying 0.702070 of unit cell:	Completed after 0 iterations at t[s]:  13667.70
	FillingsUpdate:  mu: -0.178054744  nElectrons: 703.000000  magneticMoment: [ Abs: 0.00000  Tot: -0.00000 ]
	SubspaceRotationAdjust: set factor to 0.0931
ElecMinimize: Iter:  10  F: -1905.829786137731844  |grad|_K:  1.691e-08  alpha:  4.559e-01  linmin:  1.960e-04  t[s]:  13735.28
	Linear fluid (dielectric constant: 78.4, screening length: 5.74355 Bohr) occupying 0.702070 of unit cell:	Completed after 0 iterations at t[s]:  13788.68
	Linear fluid (dielectric constant: 78.4, screening length: 5.74355 Bohr) occupying 0.702070 of unit cell:	Completed after 0 iterations at t[s]:  13836.75
	FillingsUpdate:  mu: -0.178054711  nElectrons: 703.000000  magneticMoment: [ Abs: 0.00000  Tot: -0.00000 ]
	SubspaceRotationAdjust: set factor to 0.146
ElecMinimize: Iter:  11  F: -1905.829786243910348  |grad|_K:  1.672e-08  alpha:  1.153e+00  linmin:  6.290e-08  t[s]:  13904.06
	Linear fluid (dielectric constant: 78.4, screening length: 5.74355 Bohr) occupying 0.702071 of unit cell:	Completed after 3 iterations at t[s]:  13958.17
	Linear fluid (dielectric constant: 78.4, screening length: 5.74355 Bohr) occupying 0.702070 of unit cell:	Completed after 0 iterations at t[s]:  14007.71
ElecMinimize: 	Step increased F by 8.852271e-08, reducing alpha to 2.519038e-02.
	Linear fluid (dielectric constant: 78.4, screening length: 5.74355 Bohr) occupying 0.702070 of unit cell:	Completed after 0 iterations at t[s]:  14113.65
ElecMinimize: 	Step increased F by 2.530032e-08, reducing alpha to 2.519038e-03.
	Linear fluid (dielectric constant: 78.4, screening length: 5.74355 Bohr) occupying 0.702070 of unit cell:	Completed after 0 iterations at t[s]:  14218.95
ElecMinimize: 	Step increased F by 1.963463e-08, reducing alpha to 2.519038e-04.
ElecMinimize: 	Step failed to reduce F after 3 attempts. Quitting step.
ElecMinimize: 	Undoing step.
	Linear fluid (dielectric constant: 78.4, screening length: 5.74355 Bohr) occupying 0.702070 of unit cell:	Completed after 0 iterations at t[s]:  14324.37
ElecMinimize: 	Step failed: resetting search direction.
	FillingsUpdate:  mu: -0.178124529  nElectrons: 703.000000  magneticMoment: [ Abs: 0.00000  Tot: -0.00000 ]
	SubspaceRotationAdjust: set factor to 0.126
ElecMinimize: Iter:  12  F: -1905.829786224403279  |grad|_K:  2.791e-08  alpha:  2.519e-04
	Linear fluid (dielectric constant: 78.4, screening length: 5.74355 Bohr) occupying 0.702070 of unit cell:	Completed after 2 iterations at t[s]:  14445.28
	Linear fluid (dielectric constant: 78.4, screening length: 5.74355 Bohr) occupying 0.702070 of unit cell:	Completed after 1 iterations at t[s]:  14494.95
ElecMinimize: 	Step increased F by 8.873985e-08, reducing alpha to 3.389821e-02.
	Linear fluid (dielectric constant: 78.4, screening length: 5.74355 Bohr) occupying 0.702070 of unit cell:	Completed after 0 iterations at t[s]:  14602.02
ElecMinimize: 	Step increased F by 5.098445e-08, reducing alpha to 3.389821e-03.
	Linear fluid (dielectric constant: 78.4, screening length: 5.74355 Bohr) occupying 0.702070 of unit cell:	Completed after 0 iterations at t[s]:  14707.27
ElecMinimize: 	Step increased F by 5.081733e-08, reducing alpha to 3.389821e-04.
ElecMinimize: 	Step failed to reduce F after 3 attempts. Quitting step.
ElecMinimize: 	Undoing step.
	Linear fluid (dielectric constant: 78.4, screening length: 5.74355 Bohr) occupying 0.702070 of unit cell:	Completed after 0 iterations at t[s]:  14812.14
ElecMinimize: 	Step failed along negative gradient direction.
ElecMinimize: Probably at roundoff error limit. (Stopping)
Setting wave functions to eigenvectors of Hamiltonian

# Ionic positions in lattice coordinates:
ion Zr   0.125000000000000  -0.000000000000000   0.597237834972043 1
ion Zr   0.000000000000000   0.125000000000000   0.402758821694624 1
ion Zr   0.375000000000000   0.000000000000000   0.597237834972043 1
ion Zr   0.250000000000000   0.125000000000000   0.402758821694624 1
ion Zr   0.625000000000000   0.000000000000000   0.597237834972043 1
ion Zr   0.500000000000000   0.125000000000000   0.402758821694624 1
ion Zr   0.875000000000000   0.000000000000000   0.597237834972043 1
ion Zr   0.750000000000000   0.125000000000000   0.402758821694624 1
ion Zr   0.125000000000000   0.250000000000000   0.597237834972043 1
ion Zr  -0.000000000000000   0.375000000000000   0.402758821694624 1
ion Zr   0.375000000000000   0.250000000000000   0.597237834972043 1
ion Zr   0.250000000000000   0.375000000000000   0.402758821694624 1
ion Zr   0.625000000000000   0.250000000000000   0.597237834972043 1
ion Zr   0.500000000000000   0.375000000000000   0.402758821694624 1
ion Zr   0.875000000000000   0.250000000000000   0.597237834972043 1
ion Zr   0.750000000000000   0.375000000000000   0.402758821694624 1
ion Zr   0.125000000000000   0.500000000000000   0.597237834972043 1
ion Zr  -0.000000000000000   0.625000000000000   0.402758821694624 1
ion Zr   0.375000000000000   0.500000000000000   0.597237834972043 1
ion Zr   0.250000000000000   0.625000000000000   0.402758821694624 1
ion Zr   0.625000000000000   0.500000000000000   0.597237834972043 1
ion Zr   0.500000000000000   0.625000000000000   0.402758821694624 1
ion Zr   0.875000000000000   0.500000000000000   0.597237834972043 1
ion Zr   0.750000000000000   0.625000000000000   0.402758821694624 1
[...]
	Linear fluid (dielectric constant: 78.4, screening length: 5.74355 Bohr) occupying 0.702119 of unit cell:	Completed after 0 iterations at t[s]:  29502.91
	FillingsUpdate:  mu: -0.177939452  nElectrons: 703.000000  magneticMoment: [ Abs: 0.00000  Tot: +0.00000 ]
	SubspaceRotationAdjust: set factor to 0.0259
ElecMinimize: Iter:  21  F: -1905.829861673192681  |grad|_K:  4.976e-09  alpha:  2.131e+00  linmin:  3.452e-06  t[s]:  29567.41
	Linear fluid (dielectric constant: 78.4, screening length: 5.74355 Bohr) occupying 0.702118 of unit cell:	Completed after 3 iterations at t[s]:  29619.52
	Linear fluid (dielectric constant: 78.4, screening length: 5.74355 Bohr) occupying 0.702119 of unit cell:	Completed after 0 iterations at t[s]:  29666.38
ElecMinimize: 	Step increased F by 4.638446e-08, reducing alpha to 1.718943e-02.
	Linear fluid (dielectric constant: 78.4, screening length: 5.74355 Bohr) occupying 0.702119 of unit cell:	Completed after 0 iterations at t[s]:  29767.83
ElecMinimize: 	Step increased F by 3.061950e-08, reducing alpha to 1.718943e-03.
	Linear fluid (dielectric constant: 78.4, screening length: 5.74355 Bohr) occupying 0.702119 of unit cell:	Completed after 0 iterations at t[s]:  29869.29
ElecMinimize: 	Step increased F by 2.904540e-08, reducing alpha to 1.718943e-04.
ElecMinimize: 	Step failed to reduce F after 3 attempts. Quitting step.
ElecMinimize: 	Undoing step.
	Linear fluid (dielectric constant: 78.4, screening length: 5.74355 Bohr) occupying 0.702119 of unit cell:	Completed after 0 iterations at t[s]:  29970.87
ElecMinimize: 	Step failed: resetting search direction.
	FillingsUpdate:  mu: -0.177853351  nElectrons: 703.000000  magneticMoment: [ Abs: 0.00000  Tot: +0.00000 ]
	SubspaceRotationAdjust: set factor to 0.0237
ElecMinimize: Iter:  22  F: -1905.829861644159337  |grad|_K:  1.692e-08  alpha:  1.719e-04
	Linear fluid (dielectric constant: 78.4, screening length: 5.74355 Bohr) occupying 0.702122 of unit cell:	Completed after 2 iterations at t[s]:  30087.56
	Linear fluid (dielectric constant: 78.4, screening length: 5.74355 Bohr) occupying 0.702120 of unit cell:	Completed after 2 iterations at t[s]:  30134.33
ElecMinimize: 	Step increased F by 1.440799e-08, reducing alpha to 5.859467e-02.
	Linear fluid (dielectric constant: 78.4, screening length: 5.74355 Bohr) occupying 0.702119 of unit cell:	Completed after 0 iterations at t[s]:  30236.76
	FillingsUpdate:  mu: -0.177925542  nElectrons: 703.000000  magneticMoment: [ Abs: 0.00000  Tot: +0.00000 ]
	SubspaceRotationAdjust: set factor to 0.0177
ElecMinimize: Iter:  23  F: -1905.829861650228395  |grad|_K:  4.542e-09  alpha:  5.859e-02  linmin: -4.013e-04  t[s]:  30301.22
	Linear fluid (dielectric constant: 78.4, screening length: 5.74355 Bohr) occupying 0.702119 of unit cell:	Completed after 0 iterations at t[s]:  30352.98
ElecMinimize: 	Predicted alpha/alphaT>3.000000, increasing alphaT to 1.757840e-01.
	Linear fluid (dielectric constant: 78.4, screening length: 5.74355 Bohr) occupying 0.702119 of unit cell:	Completed after 0 iterations at t[s]:  30397.84
ElecMinimize: 	Predicted alpha/alphaT>3.000000, increasing alphaT to 5.273521e-01.
	Linear fluid (dielectric constant: 78.4, screening length: 5.74355 Bohr) occupying 0.702119 of unit cell:	Completed after 0 iterations at t[s]:  30442.67
	Linear fluid (dielectric constant: 78.4, screening length: 5.74355 Bohr) occupying 0.702119 of unit cell:	Completed after 0 iterations at t[s]:  30488.22
	FillingsUpdate:  mu: -0.177925551  nElectrons: 703.000000  magneticMoment: [ Abs: 0.00000  Tot: +0.00000 ]
	SubspaceRotationAdjust: set factor to 0.0239
ElecMinimize: Iter:  24  F: -1905.829861656462754  |grad|_K:  1.772e-09  alpha:  5.204e-01  linmin:  5.489e-06  t[s]:  30552.63
ElecMinimize: Converged (|Delta F|<1.000000e-08 for 2 iters).
Setting wave functions to eigenvectors of Hamiltonian

# Ionic positions in lattice coordinates:
ion Zr   0.125000000000000  -0.000000000000000   0.597332244154742 1
ion Zr  -0.000000000000000   0.125000000000000   0.402664412511924 1
ion Zr   0.375000000000000   0.000000000000000   0.597332244154742 1
ion Zr   0.250000000000000   0.125000000000000   0.402664412511924 1
ion Zr   0.625000000000000  -0.000000000000000   0.597332244154742 1
ion Zr   0.500000000000000   0.125000000000000   0.402664412511924 1
ion Zr   0.875000000000000  -0.000000000000000   0.597332244154742 1
ion Zr   0.750000000000000   0.125000000000000   0.402664412511924 1
ion Zr   0.125000000000000   0.250000000000000   0.597332244154742 1
ion Zr   0.000000000000000   0.375000000000000   0.402664412511924 1
ion Zr   0.375000000000000   0.250000000000000   0.597332244154742 1
ion Zr   0.250000000000000   0.375000000000000   0.402664412511924 1
ion Zr   0.625000000000000   0.250000000000000   0.597332244154742 1
ion Zr   0.500000000000000   0.375000000000000   0.402664412511924 1
ion Zr   0.875000000000000   0.250000000000000   0.597332244154742 1
ion Zr   0.750000000000000   0.375000000000000   0.402664412511924 1
ion Zr   0.125000000000000   0.500000000000000   0.597332244154742 1
ion Zr   0.000000000000000   0.625000000000000   0.402664412511924 1
ion Zr   0.375000000000000   0.500000000000000   0.597332244154742 1
ion Zr   0.250000000000000   0.625000000000000   0.402664412511924 1
ion Zr   0.625000000000000   0.500000000000000   0.597332244154742 1
ion Zr   0.500000000000000   0.625000000000000   0.402664412511924 1
ion Zr   0.875000000000000   0.500000000000000   0.597332244154742 1
ion Zr   0.750000000000000   0.625000000000000   0.402664412511924 1
ion Zr   0.125000000000000   0.750000000000000   0.597332244154742 1
ion Zr   0.000000000000000   0.875000000000000   0.402664412511924 1
ion Zr   0.375000000000000   0.750000000000000   0.597332244154742 1
ion Zr   0.250000000000000   0.875000000000000   0.402664412511924 1
ion Zr   0.625000000000000   0.750000000000000   0.597332244154742 1
ion Zr   0.500000000000000   0.875000000000000   0.402664412511924 1
ion Zr   0.875000000000000   0.750000000000000   0.597332244154742 1
ion Zr   0.750000000000000   0.875000000000000   0.402664412511924 1
ion Si   0.125000000000000   0.125000000000000   0.499998328333333 1
ion Si  -0.000000000000000  -0.000000000000000   0.499998328333333 1
ion Si   0.375000000000000   0.125000000000000   0.499998328333333 1
ion Si   0.250000000000000  -0.000000000000000   0.499998328333333 1
ion Si   0.625000000000000   0.125000000000000   0.499998328333333 1
ion Si   0.500000000000000   0.000000000000000   0.499998328333333 1
ion Si   0.875000000000000   0.125000000000000   0.499998328333333 1
ion Si   0.750000000000000  -0.000000000000000   0.499998328333333 1
ion Si   0.125000000000000   0.375000000000000   0.499998328333333 1
ion Si  -0.000000000000000   0.250000000000000   0.499998328333333 1
ion Si   0.375000000000000   0.375000000000000   0.499998328333333 1
ion Si   0.250000000000000   0.250000000000000   0.499998328333333 1
ion Si   0.625000000000000   0.375000000000000   0.499998328333333 1
ion Si   0.500000000000000   0.250000000000000   0.499998328333333 1
ion Si   0.875000000000000   0.375000000000000   0.499998328333333 1
ion Si   0.750000000000000   0.250000000000000   0.499998328333333 1
ion Si   0.125000000000000   0.625000000000000   0.499998328333333 1
ion Si   0.000000000000000   0.500000000000000   0.499998328333333 1
ion Si   0.375000000000000   0.625000000000000   0.499998328333333 1
ion Si   0.250000000000000   0.500000000000000   0.499998328333333 1
ion Si   0.625000000000000   0.625000000000000   0.499998328333333 1
ion Si   0.500000000000000   0.500000000000000   0.499998328333333 1
ion Si   0.875000000000000   0.625000000000000   0.499998328333333 1
ion Si   0.750000000000000   0.500000000000000   0.499998328333333 1
ion Si   0.125000000000000   0.875000000000000   0.499998328333333 1
ion Si  -0.000000000000000   0.750000000000000   0.499998328333333 1
ion Si   0.375000000000000   0.875000000000000   0.499998328333333 1
ion Si   0.250000000000000   0.750000000000000   0.499998328333333 1
ion Si   0.625000000000000   0.875000000000000   0.499998328333333 1
ion Si   0.500000000000000   0.750000000000000   0.499998328333333 1
ion Si   0.875000000000000   0.875000000000000   0.499998328333333 1
ion Si   0.750000000000000   0.750000000000000   0.499998328333333 1
ion Te  -0.000000000000000   0.125000000000000   0.661625236668281 1
ion Te   0.125000000000000   0.000000000000000   0.338371419998385 1
ion Te   0.250000000000000   0.125000000000000   0.661625236668281 1
ion Te   0.375000000000000   0.000000000000000   0.338371419998385 1
ion Te   0.500000000000000   0.125000000000000   0.661625236668281 1
ion Te   0.625000000000000  -0.000000000000000   0.338371419998385 1
ion Te   0.750000000000000   0.125000000000000   0.661625236668281 1
ion Te   0.875000000000000   0.000000000000000   0.338371419998385 1
ion Te  -0.000000000000000   0.375000000000000   0.661625236668281 1
ion Te   0.125000000000000   0.250000000000000   0.338371419998385 1
ion Te   0.250000000000000   0.375000000000000   0.661625236668281 1
ion Te   0.375000000000000   0.250000000000000   0.338371419998385 1
ion Te   0.500000000000000   0.375000000000000   0.661625236668281 1
ion Te   0.625000000000000   0.250000000000000   0.338371419998385 1
ion Te   0.750000000000000   0.375000000000000   0.661625236668281 1
ion Te   0.875000000000000   0.250000000000000   0.338371419998385 1
ion Te   0.000000000000000   0.625000000000000   0.661625236668281 1
ion Te   0.125000000000000   0.500000000000000   0.338371419998385 1
ion Te   0.250000000000000   0.625000000000000   0.661625236668281 1
ion Te   0.375000000000000   0.500000000000000   0.338371419998385 1
ion Te   0.500000000000000   0.625000000000000   0.661625236668281 1
ion Te   0.625000000000000   0.500000000000000   0.338371419998385 1
ion Te   0.750000000000000   0.625000000000000   0.661625236668281 1
ion Te   0.875000000000000   0.500000000000000   0.338371419998385 1
ion Te   0.000000000000000   0.875000000000000   0.661625236668281 1
ion Te   0.125000000000000   0.750000000000000   0.338371419998385 1
ion Te   0.250000000000000   0.875000000000000   0.661625236668281 1
ion Te   0.375000000000000   0.750000000000000   0.338371419998385 1
ion Te   0.500000000000000   0.875000000000000   0.661625236668281 1
ion Te   0.625000000000000   0.750000000000000   0.338371419998385 1
ion Te   0.750000000000000   0.875000000000000   0.661625236668281 1
ion Te   0.875000000000000   0.750000000000000   0.338371419998385 1


# Forces in Lattice coordinates:
force Zr  -0.000000000000000  -0.000000000000000   0.010681142477432 1
force Zr   0.000000000000000   0.000000000000000  -0.010681142478115 1
force Zr   0.000000000000000  -0.000000000000000   0.010681142477432 1
force Zr  -0.000000000000000   0.000000000000000  -0.010681142478115 1
force Zr   0.000000000000000   0.000000000000000   0.010681142477659 1
force Zr  -0.000000000000000   0.000000000000000  -0.010681142478797 1
force Zr  -0.000000000000000   0.000000000000000   0.010681142477887 1
force Zr   0.000000000000000  -0.000000000000000  -0.010681142478342 1
force Zr  -0.000000000000000   0.000000000000000   0.010681142477205 1
force Zr  -0.000000000000000  -0.000000000000000  -0.010681142478115 1
force Zr   0.000000000000000  -0.000000000000000   0.010681142476977 1
force Zr   0.000000000000000  -0.000000000000000  -0.010681142478115 1
force Zr   0.000000000000000   0.000000000000000   0.010681142477205 1
force Zr  -0.000000000000000  -0.000000000000000  -0.010681142478570 1
force Zr  -0.000000000000000   0.000000000000000   0.010681142477659 1
force Zr   0.000000000000000  -0.000000000000000  -0.010681142478342 1
force Zr  -0.000000000000000   0.000000000000000   0.010681142477432 1
force Zr   0.000000000000000   0.000000000000000  -0.010681142477887 1
force Zr   0.000000000000000  -0.000000000000000   0.010681142477432 1
force Zr   0.000000000000000   0.000000000000000  -0.010681142478115 1
force Zr   0.000000000000000  -0.000000000000000   0.010681142477659 1
force Zr  -0.000000000000000   0.000000000000000  -0.010681142478342 1
force Zr  -0.000000000000000  -0.000000000000000   0.010681142477887 1
force Zr   0.000000000000000   0.000000000000000  -0.010681142478342 1
force Zr  -0.000000000000000  -0.000000000000000   0.010681142477887 1
force Zr  -0.000000000000000  -0.000000000000000  -0.010681142478570 1
force Zr   0.000000000000000  -0.000000000000000   0.010681142477660 1
force Zr  -0.000000000000000   0.000000000000000  -0.010681142478570 1
force Zr  -0.000000000000000  -0.000000000000000   0.010681142477887 1
force Zr  -0.000000000000000  -0.000000000000000  -0.010681142479024 1
force Zr  -0.000000000000000  -0.000000000000000   0.010681142478114 1
force Zr   0.000000000000000  -0.000000000000000  -0.010681142479024 1
force Si  -0.000000000000000   0.000000000000000  -0.000000000000000 1
force Si  -0.000000000000000   0.000000000000000  -0.000000000000000 1
force Si   0.000000000000000  -0.000000000000000  -0.000000000000000 1
force Si  -0.000000000000000   0.000000000000000  -0.000000000000000 1
force Si   0.000000000000000   0.000000000000000   0.000000000000000 1
force Si   0.000000000000000  -0.000000000000000  -0.000000000000000 1
force Si  -0.000000000000000  -0.000000000000000  -0.000000000000000 1
force Si  -0.000000000000000  -0.000000000000000   0.000000000000000 1
force Si  -0.000000000000000   0.000000000000000  -0.000000000000000 1
force Si   0.000000000000000   0.000000000000000   0.000000000000000 1
force Si  -0.000000000000000   0.000000000000000  -0.000000000000000 1
force Si  -0.000000000000000   0.000000000000000  -0.000000000000000 1
force Si   0.000000000000000  -0.000000000000000  -0.000000000000000 1
force Si   0.000000000000000  -0.000000000000000   0.000000000000000 1
force Si   0.000000000000000   0.000000000000000  -0.000000000000000 1
force Si  -0.000000000000000  -0.000000000000000   0.000000000000000 1
force Si  -0.000000000000000  -0.000000000000000  -0.000000000000000 1
force Si  -0.000000000000000   0.000000000000000   0.000000000000000 1
force Si  -0.000000000000000  -0.000000000000000   0.000000000000000 1
force Si   0.000000000000000   0.000000000000000   0.000000000000000 1
force Si  -0.000000000000000   0.000000000000000   0.000000000000000 1
force Si  -0.000000000000000  -0.000000000000000   0.000000000000000 1
force Si   0.000000000000000  -0.000000000000000   0.000000000000000 1
force Si   0.000000000000000  -0.000000000000000  -0.000000000000000 1
force Si   0.000000000000000   0.000000000000000   0.000000000000000 1
force Si  -0.000000000000000  -0.000000000000000  -0.000000000000000 1
force Si   0.000000000000000  -0.000000000000000   0.000000000000000 1
force Si  -0.000000000000000  -0.000000000000000  -0.000000000000000 1
force Si  -0.000000000000000  -0.000000000000000   0.000000000000000 1
force Si  -0.000000000000000   0.000000000000000  -0.000000000000000 1
force Si  -0.000000000000000  -0.000000000000000   0.000000000000000 1
force Si   0.000000000000000   0.000000000000000  -0.000000000000000 1
force Te   0.000000000000000  -0.000000000000000   0.000101694916869 1
force Te  -0.000000000000000   0.000000000000000  -0.000101694917551 1
force Te  -0.000000000000000  -0.000000000000000   0.000101694916641 1
force Te   0.000000000000000   0.000000000000000  -0.000101694917665 1
force Te   0.000000000000000   0.000000000000000   0.000101694916641 1
force Te   0.000000000000000   0.000000000000000  -0.000101694917665 1
force Te  -0.000000000000000   0.000000000000000   0.000101694916868 1
force Te  -0.000000000000000   0.000000000000000  -0.000101694917323 1
force Te  -0.000000000000000   0.000000000000000   0.000101694916868 1
force Te  -0.000000000000000   0.000000000000000  -0.000101694917437 1
force Te   0.000000000000000   0.000000000000000   0.000101694916868 1
force Te   0.000000000000000   0.000000000000000  -0.000101694917210 1
force Te   0.000000000000000   0.000000000000000   0.000101694916868 1
force Te  -0.000000000000000   0.000000000000000  -0.000101694917437 1
force Te  -0.000000000000000  -0.000000000000000   0.000101694916868 1
force Te  -0.000000000000000   0.000000000000000  -0.000101694917323 1
force Te  -0.000000000000000  -0.000000000000000   0.000101694916755 1
force Te  -0.000000000000000  -0.000000000000000  -0.000101694917323 1
force Te   0.000000000000000  -0.000000000000000   0.000101694916755 1
force Te  -0.000000000000000  -0.000000000000000  -0.000101694917437 1
force Te   0.000000000000000  -0.000000000000000   0.000101694916755 1
force Te  -0.000000000000000   0.000000000000000  -0.000101694917664 1
force Te  -0.000000000000000  -0.000000000000000   0.000101694916754 1
force Te   0.000000000000000  -0.000000000000000  -0.000101694917324 1
force Te   0.000000000000000   0.000000000000000   0.000101694916755 1
force Te   0.000000000000000  -0.000000000000000  -0.000101694917324 1
force Te  -0.000000000000000   0.000000000000000   0.000101694916982 1
force Te  -0.000000000000000   0.000000000000000  -0.000101694917210 1
force Te   0.000000000000000  -0.000000000000000   0.000101694916982 1
force Te  -0.000000000000000  -0.000000000000000  -0.000101694917210 1
force Te  -0.000000000000000  -0.000000000000000   0.000101694916754 1
force Te   0.000000000000000   0.000000000000000  -0.000101694917096 1

# Energy components:
   A_diel =        0.0930189372837251
   Eewald =    16940.7416841301346722
       EH =    18477.6013203059046646
     Eloc =   -37667.2299195505329408
      Enl =       98.8290318362351172
      Exc =     -586.2518696215120144
 Exc_core =      260.8325508971407771
       KE =      569.6224443181151855
  MuShift =        0.0110088891596384
-------------------------------------
     Etot =    -1905.7507298580701445
       TS =        0.0791317983925964
-------------------------------------
        F =    -1905.8298616564627537

IonicMinimize: Iter:   4  F: -1905.829861656462754  |grad|_K:  8.541e-05  alpha:  1.000e+00  linmin:  9.360e-01  t[s]:  30593.24
IonicMinimize: Converged (|grad|_K<1.000000e-04).

#--- Lowdin population analysis ---
# oxidation-state Zr -0.674 -0.674 -0.674 -0.674 -0.674 -0.674 -0.674 -0.674 -0.674 -0.674 -0.674 -0.674 -0.674 -0.674 -0.674 -0.674 -0.674 -0.674 -0.674 -0.674 -0.674 -0.674 -0.674 -0.674 -0.674 -0.674 -0.674 -0.674 -0.674 -0.674 -0.674 -0.674
# magnetic-moments Zr -0.000 -0.000 -0.000 -0.000 -0.000 -0.000 -0.000 -0.000 -0.000 -0.000 -0.000 -0.000 -0.000 -0.000 -0.000 -0.000 -0.000 -0.000 -0.000 -0.000 -0.000 -0.000 -0.000 -0.000 -0.000 -0.000 -0.000 -0.000 -0.000 -0.000 -0.000 -0.000
# oxidation-state Si +0.324 +0.324 +0.324 +0.324 +0.324 +0.324 +0.324 +0.324 +0.324 +0.324 +0.324 +0.324 +0.324 +0.324 +0.324 +0.324 +0.324 +0.324 +0.324 +0.324 +0.324 +0.324 +0.324 +0.324 +0.324 +0.324 +0.324 +0.324 +0.324 +0.324 +0.324 +0.324
# magnetic-moments Si +0.000 +0.000 +0.000 +0.000 +0.000 +0.000 +0.000 +0.000 +0.000 +0.000 +0.000 +0.000 +0.000 +0.000 +0.000 +0.000 +0.000 +0.000 +0.000 +0.000 +0.000 +0.000 +0.000 +0.000 +0.000 +0.000 +0.000 +0.000 +0.000 +0.000 +0.000 +0.000
# oxidation-state Te +0.463 +0.463 +0.463 +0.463 +0.463 +0.463 +0.463 +0.463 +0.463 +0.463 +0.463 +0.463 +0.463 +0.463 +0.463 +0.463 +0.463 +0.463 +0.463 +0.463 +0.463 +0.463 +0.463 +0.463 +0.463 +0.463 +0.463 +0.463 +0.463 +0.463 +0.463 +0.463
# magnetic-moments Te +0.000 +0.000 +0.000 +0.000 +0.000 +0.000 +0.000 +0.000 +0.000 +0.000 +0.000 +0.000 +0.000 +0.000 +0.000 +0.000 +0.000 +0.000 +0.000 +0.000 +0.000 +0.000 +0.000 +0.000 +0.000 +0.000 +0.000 +0.000 +0.000 +0.000 +0.000 +0.000


Dumping 'NbTe2.fillings' ... done
Dumping 'NbTe2.wfns' ... done
Dumping 'NbTe2.fluidState' ... done
Dumping 'NbTe2.ionpos' ... done
Dumping 'NbTe2.eigenvals' ... done
End date and time: Wed Feb 24 09:59:22 2021  (Duration: 0-8:30:15.46)
Done!
