
*************** JDFTx 1.5.0  ***************

Start date and time: Fri Sep 11 08:55:27 2020
Executable jdftx_gpu with command-line: -i Charged.in -o Charged.out
Running on hosts (process indices):  amax (0-6)
Divided in process groups (process indices):  0 (0)  1 (1)  2 (2)  3 (3)  4 (4)  5 (5)  6 (6)
gpuInit: Found compatible cuda device 0 'Tesla K80'
gpuInit: Found compatible cuda device 1 'Tesla K80'
gpuInit: Found compatible cuda device 2 'Tesla K80'
gpuInit: Found compatible cuda device 3 'Tesla K80'
gpuInit: Found compatible cuda device 4 'Tesla K80'
gpuInit: Found compatible cuda device 5 'Tesla K80'
gpuInit: Found compatible cuda device 6 'Tesla K80'
gpuInit: Selected device 0
Resource initialization completed at t[s]:     16.92
Run totals: 7 processes, 24 threads, 7 GPUs


Input parsed successfully to the following command list (including defaults):

basis kpoint-dependent
cache-projectors no
coords-type Lattice
core-overlap-check none
coulomb-interaction Slab 001
coulomb-truncation-embed 0 0 0.5
davidson-band-ratio 1.1
dump End State
dump-name NbTe2.$VAR
elec-cutoff 20 100
elec-eigen-algo Davidson
elec-ex-corr gga-PBE
elec-smearing Gauss 0.0073499
electronic-minimize  \
	dirUpdateScheme      FletcherReeves \
	linminMethod         DirUpdateRecommended \
	nIterations          500 \
	history              15 \
	knormThreshold       0 \
	energyDiffThreshold  1e-08 \
	nEnergyDiff          2 \
	alphaTstart          1 \
	alphaTmin            1e-10 \
	updateTestStepSize   yes \
	alphaTreduceFactor   0.1 \
	alphaTincreaseFactor 3 \
	nAlphaAdjustMax      3 \
	wolfeEnergy          0.0001 \
	wolfeGradient        0.9 \
	fdTest               no
exchange-regularization WignerSeitzTruncated
fluid LinearPCM 298.000000 1.013250
fluid-anion F- 1 MeanFieldLJ \
	epsBulk 1 \
	pMol 0 \
	epsInf 1 \
	Pvap 0 \
	sigmaBulk 0 \
	Rvdw 2.24877 \
	Res 0 \
	tauNuc 343133
fluid-cation Na+ 1 MeanFieldLJ \
	epsBulk 1 \
	pMol 0 \
	epsInf 1 \
	Pvap 0 \
	sigmaBulk 0 \
	Rvdw 2.19208 \
	Res 0 \
	tauNuc 343133
fluid-ex-corr lda-TF lda-PZ
fluid-gummel-loop 10 1.000000e-05
fluid-minimize  \
	dirUpdateScheme      PolakRibiere \
	linminMethod         DirUpdateRecommended \
	nIterations          400 \
	history              15 \
	knormThreshold       1e-11 \
	energyDiffThreshold  0 \
	nEnergyDiff          2 \
	alphaTstart          1 \
	alphaTmin            1e-10 \
	updateTestStepSize   yes \
	alphaTreduceFactor   0.1 \
	alphaTincreaseFactor 3 \
	nAlphaAdjustMax      6 \
	wolfeEnergy          0.0001 \
	wolfeGradient        0.9 \
	fdTest               no
fluid-solvent H2O 55.338 ScalarEOS \
	epsBulk 78.4 \
	pMol 0.92466 \
	epsInf 1.77 \
	Pvap 1.06736e-10 \
	sigmaBulk 4.62e-05 \
	Rvdw 2.61727 \
	Res 1.42 \
	tauNuc 343133 \
	poleEl 15 7 1
forces-output-coords Positions
initial-state NbTe2.$VAR
ion Ta   0.173052941621435   0.084401275141368   0.504629869835548 1
ion Ta   0.415661198748423   0.084818119800812   0.505535283716027 1
ion Ta   0.671398345847823   0.085883188537909   0.505706696131189 1
ion Ta   0.918885941772145   0.085987460228913   0.505193139587508 1
ion Ta   0.169628019684579   0.335316819271910   0.504874192241743 1
ion Ta   0.411972915800837   0.319872257721802   0.504576849918733 1
ion Ta   0.670185412691093   0.335187649426729   0.505203496082695 1
ion Ta   0.919044818845676   0.333396877541603   0.505325407445594 1
ion Ta   0.173200135733325   0.588814774268011   0.504733040586266 1
ion Ta   0.411632158576188   0.592527734124394   0.504843052501658 1
ion Ta   0.685431686329222   0.593026703074449   0.503835489666130 1
ion Ta   0.920042292333823   0.589166233442301   0.504535052570318 1
ion Ta   0.169750427833504   0.835151759511349   0.504847075025231 1
ion Ta   0.415610959013190   0.831033043686229   0.505371054330980 1
ion Ta   0.670032915462095   0.835495975659786   0.504826491913712 1
ion Ta   0.920108508103331   0.831441575960665   0.504445911034232 1
ion S   0.003153490216700   0.001249573518352   0.589644639455039 1
ion S   0.002963596314298   0.001836810249405   0.419922158570501 1
ion S   0.251640862727607   0.999764555505512   0.592630074235420 1
ion S   0.252575636802411   0.000169077128154   0.417484475525480 1
ion S   0.502403818423892   0.001325048298718   0.590346806681542 1
ion S   0.502756633897441   0.001588571266846   0.420835705736719 1
ion S   0.752869573814575   0.001024104386759   0.591942509314655 1
ion S   0.752771940838604   0.001940537274293   0.418568941325669 1
ion S   0.003746192702611   0.252021467687533   0.591847531678219 1
ion S   0.003125322484888   0.251816818428518   0.418516857922668 1
ion S   0.250225927383443   0.250136477643895   0.592043974057339 1
ion S   0.250183298649164   0.250656897525114   0.417608646309430 1
ion S   0.504355081383052   0.251180123342289   0.592781502501357 1
ion S   0.504767452089238   0.250601250503320   0.418131633175599 1
ion S   0.752953348161067   0.252262477884904   0.592072516733973 1
ion S   0.752769018511733   0.251544236410475   0.418857583007027 1
ion S   0.003163357731317   0.502361485359033   0.589701757303153 1
ion S   0.002903559195706   0.501569582354346   0.420046416710364 1
ion S   0.250618772964958   0.500543087834505   0.592246662646514 1
ion S   0.250290842405977   0.500142276412527   0.417358777863093 1
ion S   0.506150185356695   0.502869549993731   0.578104809990319 1
ion S   0.502712462758208   0.501812971334474   0.429937529057846 1
ion S   0.754541902967213   0.501054675514915   0.592045323336979 1
ion S   0.754043690008765   0.499563861487461   0.417224912721442 1
ion S   0.004599466619537   0.752587601383381   0.592217352788625 1
ion S   0.004960057026167   0.752653459646158   0.416966841611859 1
ion S   0.251657936531479   0.752224855021561   0.592492134422369 1
ion S   0.252313156906203   0.752670548811728   0.417467765960427 1
ion S   0.504640042100065   0.753839178457524   0.592421357257921 1
ion S   0.504529300018116   0.754333319983510   0.417803557958708 1
ion S   0.754349754904485   0.754018605863448   0.591910587727639 1
ion S   0.754131786757622   0.754915720977880   0.417071673300442 1
ion O   0.528788234707865   0.511793755446334   0.670292397599622 1
ion O   0.418914422877347   0.453118310857747   0.710509623461267 1
ion H   0.408021304364871   0.374547704807400   0.715052407463288 1
ion-species GBRV/$ID_pbe.uspp
ion-width Ecut
ionic-minimize  \
	dirUpdateScheme      L-BFGS \
	linminMethod         DirUpdateRecommended \
	nIterations          500 \
	history              15 \
	knormThreshold       0.0001 \
	energyDiffThreshold  1e-06 \
	nEnergyDiff          2 \
	alphaTstart          1 \
	alphaTmin            1e-10 \
	updateTestStepSize   yes \
	alphaTreduceFactor   0.1 \
	alphaTincreaseFactor 3 \
	nAlphaAdjustMax      3 \
	wolfeEnergy          0.0001 \
	wolfeGradient        0.9 \
	fdTest               no
kpoint   0.000000000000   0.000000000000   0.000000000000  1.00000000000000
kpoint-folding 3 3 1 
latt-move-scale 1 1 1
latt-scale 1 1 1 
lattice Triclinic 25.1736 25.1736 34.2617 90 90 120
lattice-minimize  \
	dirUpdateScheme      L-BFGS \
	linminMethod         DirUpdateRecommended \
	nIterations          0 \
	history              15 \
	knormThreshold       0 \
	energyDiffThreshold  1e-06 \
	nEnergyDiff          2 \
	alphaTstart          1 \
	alphaTmin            1e-10 \
	updateTestStepSize   yes \
	alphaTreduceFactor   0.1 \
	alphaTincreaseFactor 3 \
	nAlphaAdjustMax      3 \
	wolfeEnergy          0.0001 \
	wolfeGradient        0.9 \
	fdTest               no
lcao-params -1 1e-06 0.0073499
pcm-variant CANDLE
spintype no-spin
subspace-rotation-factor 1 yes
symmetries automatic
symmetry-threshold 0.0001
target-mu -0.171252 no




---------- Setting up symmetries ----------

Found 24 point-group symmetries of the bravais lattice
Found 1 space-group symmetries with basis
Applied RMS atom displacement 0 bohrs to make symmetries exact.

---------- Initializing the Grid ----------
R = 
[    25.1736   -12.5868          0  ]
[          0     21.801          0  ]
[          0          0    34.2617  ]
unit cell volume = 18803.1
G =
[   0.249594   0.144103         -0  ]
[          0   0.288207          0  ]
[          0         -0   0.183388  ]
Minimum fftbox size, Smin = [  116  116  156  ]
Chosen fftbox size, S = [  120  120  160  ]

---------- Initializing tighter grid for wavefunction operations ----------
R = 
[    25.1736   -12.5868          0  ]
[          0     21.801          0  ]
[          0          0    34.2617  ]
unit cell volume = 18803.1
G =
[   0.249594   0.144103         -0  ]
[          0   0.288207          0  ]
[          0         -0   0.183388  ]
Minimum fftbox size, Smin = [  104  104  140  ]
Chosen fftbox size, S = [  108  108  140  ]

---------- Exchange Correlation functional ----------
Initalized PBE GGA exchange.
Initalized PBE GGA correlation.

---------- Setting up pseudopotentials ----------
Width of ionic core gaussian charges (only for fluid interactions / plotting) set to 0.397384

Reading pseudopotential file '/home/guoxy/vasp/jdftx-1.5.0/build/pseudopotentials/GBRV/ta_pbe.uspp':
  Title: Ta.  Created by USPP 7.3.6 on 14-9-2013
  Reference state energy: -70.583193.  13 valence electrons in orbitals:
    |500>  occupation: 2  eigenvalue: -2.682396
    |510>  occupation: 6  eigenvalue: -1.447928
    |520>  occupation: 3  eigenvalue: -0.131987
    |600>  occupation: 2  eigenvalue: -0.199982
    |610>  occupation: 0  eigenvalue: -0.051129
  lMax: 3  lLocal: 3  QijEcut: 5
  7 projectors sampled on a log grid with 667 points:
    l: 0  eig: -2.682397  rCut: 1.4
    l: 0  eig: -0.199983  rCut: 1.4
    l: 1  eig: -1.447928  rCut: 1.5
    l: 1  eig: -0.051130  rCut: 1.5
    l: 2  eig: -0.131987  rCut: 1.7
    l: 2  eig: 0.150000  rCut: 1.7
    l: 3  eig: 0.250000  rCut: 2.3
  Partial core density with radius 1.2
  Transforming core density to a uniform radial grid of dG=0.02 with 1673 points.
  Transforming local potential to a uniform radial grid of dG=0.02 with 1673 points.
  Transforming nonlocal projectors to a uniform radial grid of dG=0.02 with 432 points.
  Transforming density augmentations to a uniform radial grid of dG=0.02 with 1673 points.
  Transforming atomic orbitals to a uniform radial grid of dG=0.02 with 432 points.
  Core radius for overlap checks: 2.30 bohrs.

Reading pseudopotential file '/home/guoxy/vasp/jdftx-1.5.0/build/pseudopotentials/GBRV/s_pbe.uspp':
  Title: S.  Created by USPP 7.3.6 on 1-4-15
  Reference state energy: -11.898476.  6 valence electrons in orbitals:
    |300>  occupation: 2  eigenvalue: -0.634167
    |310>  occupation: 4  eigenvalue: -0.257568
  lMax: 2  lLocal: 3  QijEcut: 6
  6 projectors sampled on a log grid with 635 points:
    l: 0  eig: -0.634161  rCut: 1.5
    l: 0  eig: 1.500000  rCut: 1.5
    l: 1  eig: -0.257567  rCut: 1.5
    l: 1  eig: 1.500000  rCut: 1.5
    l: 2  eig: -1.000000  rCut: 1.5
    l: 2  eig: 1.500000  rCut: 1.5
  Partial core density with radius 1.15
  Transforming core density to a uniform radial grid of dG=0.02 with 1673 points.
  Transforming local potential to a uniform radial grid of dG=0.02 with 1673 points.
  Transforming nonlocal projectors to a uniform radial grid of dG=0.02 with 432 points.
  Transforming density augmentations to a uniform radial grid of dG=0.02 with 1673 points.
  Transforming atomic orbitals to a uniform radial grid of dG=0.02 with 432 points.
  Core radius for overlap checks: 1.50 bohrs.

Reading pseudopotential file '/home/guoxy/vasp/jdftx-1.5.0/build/pseudopotentials/GBRV/o_pbe.uspp':
  Title: O.  Created by USPP 7.3.6 on 3-2-2014
  Reference state energy: -15.894388.  6 valence electrons in orbitals:
    |200>  occupation: 2  eigenvalue: -0.878823
    |210>  occupation: 4  eigenvalue: -0.332131
  lMax: 2  lLocal: 2  QijEcut: 6
  5 projectors sampled on a log grid with 511 points:
    l: 0  eig: -0.878823  rCut: 1.25
    l: 0  eig: 0.000000  rCut: 1.25
    l: 1  eig: -0.332132  rCut: 1.25
    l: 1  eig: 0.000000  rCut: 1.25
    l: 2  eig: 1.000000  rCut: 1.25
  Partial core density with radius 0.7
  Transforming core density to a uniform radial grid of dG=0.02 with 1673 points.
  Transforming local potential to a uniform radial grid of dG=0.02 with 1673 points.
  Transforming nonlocal projectors to a uniform radial grid of dG=0.02 with 432 points.
  Transforming density augmentations to a uniform radial grid of dG=0.02 with 1673 points.
  Transforming atomic orbitals to a uniform radial grid of dG=0.02 with 432 points.
  Core radius for overlap checks: 1.25 bohrs.

Reading pseudopotential file '/home/guoxy/vasp/jdftx-1.5.0/build/pseudopotentials/GBRV/h_pbe.uspp':
  Title: H.  Created by USPP 7.3.6 on 2-4-15
  Reference state energy: -0.458849.  1 valence electrons in orbitals:
    |100>  occupation: 1  eigenvalue: -0.238595
  lMax: 0  lLocal: 1  QijEcut: 6
  2 projectors sampled on a log grid with 395 points:
    l: 0  eig: -0.238595  rCut: 1.2
    l: 0  eig: 1.000000  rCut: 1.2
  Transforming local potential to a uniform radial grid of dG=0.02 with 1673 points.
  Transforming nonlocal projectors to a uniform radial grid of dG=0.02 with 432 points.
  Transforming density augmentations to a uniform radial grid of dG=0.02 with 1673 points.
  Transforming atomic orbitals to a uniform radial grid of dG=0.02 with 432 points.
  Core radius for overlap checks: 1.20 bohrs.

Initialized 4 species with 51 total atoms.

Folded 1 k-points by 3x3x1 to 9 k-points.

---------- Setting up k-points, bands, fillings ----------
Adding inversion symmetry to k-mesh for non-inversion-symmetric unit cell.
Reduced to 5 k-points under symmetry. 
Computing the number of bands and number of electrons
Reading initial fillings from file NbTe2.fillings.
nElectrons: 413.000000   nBands: 345   nStates: 5

----- Setting up reduced wavefunction bases (one per k-point) -----
average nbasis = 80341.667 , ideal nbasis = 80328.402

---------- Setting up coulomb interaction ----------
Fluid mode embedding: using embedded box, but periodic Coulomb kernel.
(Fluid response is responsible for (approximate) separation between periodic images.)
Setting up double-sized grid for truncated Coulomb potentials:
R = 
[    25.1736   -12.5868          0  ]
[          0     21.801          0  ]
[          0          0    68.5234  ]
unit cell volume = 37606.3
G =
[   0.249594   0.144103         -0  ]
[          0   0.288207          0  ]
[          0         -0  0.0916941  ]
Chosen fftbox size, S = [  120  120  320  ]
Integer grid location selected as the embedding center:
   Grid: [  0  0  80  ]
   Lattice: [  0  0  0.5  ]
   Cartesian: [  0  0  17.1308  ]
Constructing Wigner-Seitz cell: 8 faces (6 quadrilaterals, 2 hexagons)
Range-separation parameter for embedded mesh potentials due to point charges: 0.583787 bohrs.

Initializing van der Waals corrections
	NOTE: vdW corrections apply only for interactions with fluid.
	Ta:  C6:  815.23 Eh-a0^6  R0: 3.326 a0 (WARNING: beyond Grimme's data set)
	 S:  C6:   96.61 Eh-a0^6  R0: 3.180 a0
	 O:  C6:   12.14 Eh-a0^6  R0: 2.536 a0
	 H:  C6:    2.43 Eh-a0^6  R0: 1.892 a0

---------- Setting up ewald sum ----------
Optimum gaussian width for ewald sums = 6.940676 bohr.
Real space sum over 605 unit cells with max indices [  5  5  2  ]
Reciprocal space sum over 7425 terms with max indices [  7  7  16  ]

---------- Allocating electronic variables ----------
Initializing wave functions:  reading from 'NbTe2.wfns'
----- createFluidSolver() ----- (Fluid-side solver setup)
   Initializing fluid molecule 'H2O'
     Initializing site 'O'
       Electron density: proportional to exp(-r/0.36935)*erfc((r-0.51523)/0.36823) with norm 6.826
       Charge density: gaussian nuclear width 0.478731 with net site charge 0.826
       Polarizability: cuspless exponential with width 0.32 and norm 3.73
       Hard sphere radius: 2.57003 bohrs
       Positions in reference frame:
         [ +0.000000 +0.000000 +0.000000 ]
     Initializing site 'H'
       Electron density: proportional to exp(-r/0.34641)*erfc((r-0)/0.390882) with norm 0.587
       Charge density: gaussian nuclear width 0.377945 with net site charge -0.413
       Polarizability: cuspless exponential with width 0.39 and norm 3.3
       Positions in reference frame:
         [ +0.000000 -1.441945 +1.122523 ]
         [ +0.000000 +1.441945 +1.122523 ]
     Net charge: 0   dipole magnitude: 0.927204
     Initializing spherical shell mfKernel with radius 2.61727 Bohr
     deltaS corrections:
       site 'O': -7.54299
       site 'H': -6.83917
   Initializing fluid molecule 'Na+'
     Initializing site 'Na'
       Electron density: proportional to exp(-r/0.19682)*erfc((r-0.71491)/0.41314) with norm 8.1383
       Charge density: gaussian nuclear width 0.365347 with net site charge -1
       Hard sphere radius: 1.86327 bohrs
       Positions in reference frame:
         [ +0.000000 +0.000000 +0.000000 ]
     Net charge: -1   dipole magnitude: 0
     Initializing gaussian mfKernel with width: 1.55004 Bohr
     deltaS corrections:
       site 'Na': -22.3555
   Initializing fluid molecule 'F-'
     Initializing site 'F'
       Electron density: proportional to exp(-r/0.38886)*erfc((r-0)/0.438782) with norm 8
       Charge density: gaussian nuclear width 0.374796 with net site charge 1
       Hard sphere radius: 2.39995 bohrs
       Positions in reference frame:
         [ +0.000000 +0.000000 +0.000000 ]
     Net charge: 1   dipole magnitude: 0
     Initializing gaussian mfKernel with width: 1.59012 Bohr
     deltaS corrections:
       site 'F': -9.04335

Correction to mu due to finite nuclear width = -0.0108966
   Cavity determined by nc: 0.00142 and sigma: 0.707107
   Nonlocal vdW cavity from gaussian model electron density with norm = 8 and sigma = 0.993594 bohr
   Charge asymmetry in cavity with sensitivity pCavity = 36.5 e-bohr/Eh
   Electrostatic cavity expanded by eta = 1.46 bohrs
   Weighted density cavitation model constrained by Nbulk: 0.0049383 bohr^-3, Pvap: 3.14029 kPa, Rvdw: 2.61727 bohr and sigmaBulk: 4.62e-05 Eh/bohr^2 at T: 298 K.
   Weighted density dispersion model using vdW pair potentials with single solvent site with sqrtC6eff: 0.77 SI.
Reading fluid state from 'NbTe2.fluidState'


---- Citations for features of the code used in this run ----

   Software package:
      R. Sundararaman, K. Letchworth-Weaver, K.A. Schwarz, D. Gunceler, Y. Ozhabes and T.A. Arias, 'JDFTx: software for joint density-functional theory', SoftwareX 6, 278 (2017)

   gga-PBE exchange-correlation functional:
      J.P. Perdew, K. Burke and M. Ernzerhof, Phys. Rev. Lett. 77, 3865 (1996)

   Pseudopotentials:
      KF Garrity, JW Bennett, KM Rabe and D Vanderbilt, Comput. Mater. Sci. 81, 446 (2014)

   Truncated Coulomb potentials:
      R. Sundararaman and T.A. Arias, Phys. Rev. B 87, 165122 (2013)

   Van der Waals correction pair-potentials:
      S. Grimme, J. Comput. Chem. 27, 1787 (2006)

   Charge-asymmetric nonlocally-determined local-electric (CANDLE) solvation model:
      R. Sundararaman and W.A. Goddard III, J. Chem. Phys. 142, 064107 (2015)

   Total energy minimization with Auxiliary Hamiltonian:
      C. Freysoldt, S. Boeck, and J. Neugebauer, Phys. Rev. B 79, 241103(R) (2009)

   Grand-canonical (fixed-potential) DFT:
      R. Sundararaman, W. A. Goddard III and T. A. Arias, J. Chem. Phys. 146, 114104 (2017)

This list may not be complete. Please suggest additional citations or
report any other bugs at https://github.com/shankar1729/jdftx/issues

Initialization completed successfully at t[s]:     23.25

Shifting auxilliary hamiltonian by 0.033095 to set nElectrons=413.000000
	Linear fluid (dielectric constant: 78.4, screening length: 5.74355 Bohr) occupying 0.753302 of unit cell:
*************** JDFTx 1.5.0  ***************

Start date and time: Fri Sep 11 08:56:25 2020
Executable jdftx_gpu with command-line: -i Charged.in -o Charged.out
Running on hosts (process indices):  amax (0-6)
Divided in process groups (process indices):  0 (0)  1 (1)  2 (2)  3 (3)  4 (4)  5 (5)  6 (6)
gpuInit: Found compatible cuda device 0 'Tesla K80'
gpuInit: Found compatible cuda device 1 'Tesla K80'
gpuInit: Found compatible cuda device 2 'Tesla K80'
gpuInit: Found compatible cuda device 3 'Tesla K80'
gpuInit: Found compatible cuda device 4 'Tesla K80'
gpuInit: Found compatible cuda device 5 'Tesla K80'
gpuInit: Found compatible cuda device 6 'Tesla K80'
gpuInit: Selected device 0
Resource initialization completed at t[s]:     16.67
Run totals: 7 processes, 24 threads, 7 GPUs


Input parsed successfully to the following command list (including defaults):

basis kpoint-dependent
cache-projectors no
coords-type Lattice
core-overlap-check none
coulomb-interaction Slab 001
coulomb-truncation-embed 0 0 0.5
davidson-band-ratio 1.1
dump End State
dump-name NbTe2.$VAR
elec-cutoff 20 100
elec-eigen-algo Davidson
elec-ex-corr gga-PBE
elec-smearing Gauss 0.0073499
electronic-minimize  \
	dirUpdateScheme      FletcherReeves \
	linminMethod         DirUpdateRecommended \
	nIterations          500 \
	history              15 \
	knormThreshold       0 \
	energyDiffThreshold  1e-08 \
	nEnergyDiff          2 \
	alphaTstart          1 \
	alphaTmin            1e-10 \
	updateTestStepSize   yes \
	alphaTreduceFactor   0.1 \
	alphaTincreaseFactor 3 \
	nAlphaAdjustMax      3 \
	wolfeEnergy          0.0001 \
	wolfeGradient        0.9 \
	fdTest               no
exchange-regularization WignerSeitzTruncated
fluid LinearPCM 298.000000 1.013250
fluid-anion F- 1 MeanFieldLJ \
	epsBulk 1 \
	pMol 0 \
	epsInf 1 \
	Pvap 0 \
	sigmaBulk 0 \
	Rvdw 2.24877 \
	Res 0 \
	tauNuc 343133
fluid-cation Na+ 1 MeanFieldLJ \
	epsBulk 1 \
	pMol 0 \
	epsInf 1 \
	Pvap 0 \
	sigmaBulk 0 \
	Rvdw 2.19208 \
	Res 0 \
	tauNuc 343133
fluid-ex-corr lda-TF lda-PZ
fluid-gummel-loop 10 1.000000e-05
fluid-minimize  \
	dirUpdateScheme      PolakRibiere \
	linminMethod         DirUpdateRecommended \
	nIterations          400 \
	history              15 \
	knormThreshold       1e-11 \
	energyDiffThreshold  0 \
	nEnergyDiff          2 \
	alphaTstart          1 \
	alphaTmin            1e-10 \
	updateTestStepSize   yes \
	alphaTreduceFactor   0.1 \
	alphaTincreaseFactor 3 \
	nAlphaAdjustMax      6 \
	wolfeEnergy          0.0001 \
	wolfeGradient        0.9 \
	fdTest               no
fluid-solvent H2O 55.338 ScalarEOS \
	epsBulk 78.4 \
	pMol 0.92466 \
	epsInf 1.77 \
	Pvap 1.06736e-10 \
	sigmaBulk 4.62e-05 \
	Rvdw 2.61727 \
	Res 1.42 \
	tauNuc 343133 \
	poleEl 15 7 1
forces-output-coords Positions
initial-state NbTe2.$VAR
ion Ta   0.173052941621435   0.084401275141368   0.504629869835548 1
ion Ta   0.415661198748423   0.084818119800812   0.505535283716027 1
ion Ta   0.671398345847823   0.085883188537909   0.505706696131189 1
ion Ta   0.918885941772145   0.085987460228913   0.505193139587508 1
ion Ta   0.169628019684579   0.335316819271910   0.504874192241743 1
ion Ta   0.411972915800837   0.319872257721802   0.504576849918733 1
ion Ta   0.670185412691093   0.335187649426729   0.505203496082695 1
ion Ta   0.919044818845676   0.333396877541603   0.505325407445594 1
ion Ta   0.173200135733325   0.588814774268011   0.504733040586266 1
ion Ta   0.411632158576188   0.592527734124394   0.504843052501658 1
ion Ta   0.685431686329222   0.593026703074449   0.503835489666130 1
ion Ta   0.920042292333823   0.589166233442301   0.504535052570318 1
ion Ta   0.169750427833504   0.835151759511349   0.504847075025231 1
ion Ta   0.415610959013190   0.831033043686229   0.505371054330980 1
ion Ta   0.670032915462095   0.835495975659786   0.504826491913712 1
ion Ta   0.920108508103331   0.831441575960665   0.504445911034232 1
ion S   0.003153490216700   0.001249573518352   0.589644639455039 1
ion S   0.002963596314298   0.001836810249405   0.419922158570501 1
ion S   0.251640862727607   0.999764555505512   0.592630074235420 1
ion S   0.252575636802411   0.000169077128154   0.417484475525480 1
ion S   0.502403818423892   0.001325048298718   0.590346806681542 1
ion S   0.502756633897441   0.001588571266846   0.420835705736719 1
ion S   0.752869573814575   0.001024104386759   0.591942509314655 1
ion S   0.752771940838604   0.001940537274293   0.418568941325669 1
ion S   0.003746192702611   0.252021467687533   0.591847531678219 1
ion S   0.003125322484888   0.251816818428518   0.418516857922668 1
ion S   0.250225927383443   0.250136477643895   0.592043974057339 1
ion S   0.250183298649164   0.250656897525114   0.417608646309430 1
ion S   0.504355081383052   0.251180123342289   0.592781502501357 1
ion S   0.504767452089238   0.250601250503320   0.418131633175599 1
ion S   0.752953348161067   0.252262477884904   0.592072516733973 1
ion S   0.752769018511733   0.251544236410475   0.418857583007027 1
ion S   0.003163357731317   0.502361485359033   0.589701757303153 1
ion S   0.002903559195706   0.501569582354346   0.420046416710364 1
ion S   0.250618772964958   0.500543087834505   0.592246662646514 1
ion S   0.250290842405977   0.500142276412527   0.417358777863093 1
ion S   0.506150185356695   0.502869549993731   0.578104809990319 1
ion S   0.502712462758208   0.501812971334474   0.429937529057846 1
ion S   0.754541902967213   0.501054675514915   0.592045323336979 1
ion S   0.754043690008765   0.499563861487461   0.417224912721442 1
ion S   0.004599466619537   0.752587601383381   0.592217352788625 1
ion S   0.004960057026167   0.752653459646158   0.416966841611859 1
ion S   0.251657936531479   0.752224855021561   0.592492134422369 1
ion S   0.252313156906203   0.752670548811728   0.417467765960427 1
ion S   0.504640042100065   0.753839178457524   0.592421357257921 1
ion S   0.504529300018116   0.754333319983510   0.417803557958708 1
ion S   0.754349754904485   0.754018605863448   0.591910587727639 1
ion S   0.754131786757622   0.754915720977880   0.417071673300442 1
ion O   0.528788234707865   0.511793755446334   0.670292397599622 1
ion O   0.418914422877347   0.453118310857747   0.710509623461267 1
ion H   0.408021304364871   0.374547704807400   0.715052407463288 1
ion-species GBRV/$ID_pbe.uspp
ion-width Ecut
ionic-minimize  \
	dirUpdateScheme      L-BFGS \
	linminMethod         DirUpdateRecommended \
	nIterations          500 \
	history              15 \
	knormThreshold       0.0001 \
	energyDiffThreshold  1e-06 \
	nEnergyDiff          2 \
	alphaTstart          1 \
	alphaTmin            1e-10 \
	updateTestStepSize   yes \
	alphaTreduceFactor   0.1 \
	alphaTincreaseFactor 3 \
	nAlphaAdjustMax      3 \
	wolfeEnergy          0.0001 \
	wolfeGradient        0.9 \
	fdTest               no
kpoint   0.000000000000   0.000000000000   0.000000000000  1.00000000000000
kpoint-folding 3 3 1 
latt-move-scale 1 1 1
latt-scale 1 1 1 
lattice Triclinic 25.1736 25.1736 34.2617 90 90 120
lattice-minimize  \
	dirUpdateScheme      L-BFGS \
	linminMethod         DirUpdateRecommended \
	nIterations          0 \
	history              15 \
	knormThreshold       0 \
	energyDiffThreshold  1e-06 \
	nEnergyDiff          2 \
	alphaTstart          1 \
	alphaTmin            1e-10 \
	updateTestStepSize   yes \
	alphaTreduceFactor   0.1 \
	alphaTincreaseFactor 3 \
	nAlphaAdjustMax      3 \
	wolfeEnergy          0.0001 \
	wolfeGradient        0.9 \
	fdTest               no
lcao-params -1 1e-06 0.0073499
pcm-variant CANDLE
spintype no-spin
subspace-rotation-factor 1 yes
symmetries automatic
symmetry-threshold 0.0001
target-mu -0.171252 no




---------- Setting up symmetries ----------

Found 24 point-group symmetries of the bravais lattice
Found 1 space-group symmetries with basis
Applied RMS atom displacement 0 bohrs to make symmetries exact.

---------- Initializing the Grid ----------
R = 
[    25.1736   -12.5868          0  ]
[          0     21.801          0  ]
[          0          0    34.2617  ]
unit cell volume = 18803.1
G =
[   0.249594   0.144103         -0  ]
[          0   0.288207          0  ]
[          0         -0   0.183388  ]
Minimum fftbox size, Smin = [  116  116  156  ]
Chosen fftbox size, S = [  120  120  160  ]

---------- Initializing tighter grid for wavefunction operations ----------
R = 
[    25.1736   -12.5868          0  ]
[          0     21.801          0  ]
[          0          0    34.2617  ]
unit cell volume = 18803.1
G =
[   0.249594   0.144103         -0  ]
[          0   0.288207          0  ]
[          0         -0   0.183388  ]
Minimum fftbox size, Smin = [  104  104  140  ]
Chosen fftbox size, S = [  108  108  140  ]

---------- Exchange Correlation functional ----------
Initalized PBE GGA exchange.
Initalized PBE GGA correlation.

---------- Setting up pseudopotentials ----------
Width of ionic core gaussian charges (only for fluid interactions / plotting) set to 0.397384

Reading pseudopotential file '/home/guoxy/vasp/jdftx-1.5.0/build/pseudopotentials/GBRV/ta_pbe.uspp':
  Title: Ta.  Created by USPP 7.3.6 on 14-9-2013
  Reference state energy: -70.583193.  13 valence electrons in orbitals:
    |500>  occupation: 2  eigenvalue: -2.682396
    |510>  occupation: 6  eigenvalue: -1.447928
    |520>  occupation: 3  eigenvalue: -0.131987
    |600>  occupation: 2  eigenvalue: -0.199982
    |610>  occupation: 0  eigenvalue: -0.051129
  lMax: 3  lLocal: 3  QijEcut: 5
  7 projectors sampled on a log grid with 667 points:
    l: 0  eig: -2.682397  rCut: 1.4
    l: 0  eig: -0.199983  rCut: 1.4
    l: 1  eig: -1.447928  rCut: 1.5
    l: 1  eig: -0.051130  rCut: 1.5
    l: 2  eig: -0.131987  rCut: 1.7
    l: 2  eig: 0.150000  rCut: 1.7
    l: 3  eig: 0.250000  rCut: 2.3
  Partial core density with radius 1.2
  Transforming core density to a uniform radial grid of dG=0.02 with 1673 points.
  Transforming local potential to a uniform radial grid of dG=0.02 with 1673 points.
  Transforming nonlocal projectors to a uniform radial grid of dG=0.02 with 432 points.
  Transforming density augmentations to a uniform radial grid of dG=0.02 with 1673 points.
  Transforming atomic orbitals to a uniform radial grid of dG=0.02 with 432 points.
  Core radius for overlap checks: 2.30 bohrs.

Reading pseudopotential file '/home/guoxy/vasp/jdftx-1.5.0/build/pseudopotentials/GBRV/s_pbe.uspp':
  Title: S.  Created by USPP 7.3.6 on 1-4-15
  Reference state energy: -11.898476.  6 valence electrons in orbitals:
    |300>  occupation: 2  eigenvalue: -0.634167
    |310>  occupation: 4  eigenvalue: -0.257568
  lMax: 2  lLocal: 3  QijEcut: 6
  6 projectors sampled on a log grid with 635 points:
    l: 0  eig: -0.634161  rCut: 1.5
    l: 0  eig: 1.500000  rCut: 1.5
    l: 1  eig: -0.257567  rCut: 1.5
    l: 1  eig: 1.500000  rCut: 1.5
    l: 2  eig: -1.000000  rCut: 1.5
    l: 2  eig: 1.500000  rCut: 1.5
  Partial core density with radius 1.15
  Transforming core density to a uniform radial grid of dG=0.02 with 1673 points.
  Transforming local potential to a uniform radial grid of dG=0.02 with 1673 points.
  Transforming nonlocal projectors to a uniform radial grid of dG=0.02 with 432 points.
  Transforming density augmentations to a uniform radial grid of dG=0.02 with 1673 points.
  Transforming atomic orbitals to a uniform radial grid of dG=0.02 with 432 points.
  Core radius for overlap checks: 1.50 bohrs.

Reading pseudopotential file '/home/guoxy/vasp/jdftx-1.5.0/build/pseudopotentials/GBRV/o_pbe.uspp':
  Title: O.  Created by USPP 7.3.6 on 3-2-2014
  Reference state energy: -15.894388.  6 valence electrons in orbitals:
    |200>  occupation: 2  eigenvalue: -0.878823
    |210>  occupation: 4  eigenvalue: -0.332131
  lMax: 2  lLocal: 2  QijEcut: 6
  5 projectors sampled on a log grid with 511 points:
    l: 0  eig: -0.878823  rCut: 1.25
    l: 0  eig: 0.000000  rCut: 1.25
    l: 1  eig: -0.332132  rCut: 1.25
    l: 1  eig: 0.000000  rCut: 1.25
    l: 2  eig: 1.000000  rCut: 1.25
  Partial core density with radius 0.7
  Transforming core density to a uniform radial grid of dG=0.02 with 1673 points.
  Transforming local potential to a uniform radial grid of dG=0.02 with 1673 points.
  Transforming nonlocal projectors to a uniform radial grid of dG=0.02 with 432 points.
  Transforming density augmentations to a uniform radial grid of dG=0.02 with 1673 points.
  Transforming atomic orbitals to a uniform radial grid of dG=0.02 with 432 points.
  Core radius for overlap checks: 1.25 bohrs.

Reading pseudopotential file '/home/guoxy/vasp/jdftx-1.5.0/build/pseudopotentials/GBRV/h_pbe.uspp':
  Title: H.  Created by USPP 7.3.6 on 2-4-15
  Reference state energy: -0.458849.  1 valence electrons in orbitals:
    |100>  occupation: 1  eigenvalue: -0.238595
  lMax: 0  lLocal: 1  QijEcut: 6
  2 projectors sampled on a log grid with 395 points:
    l: 0  eig: -0.238595  rCut: 1.2
    l: 0  eig: 1.000000  rCut: 1.2
  Transforming local potential to a uniform radial grid of dG=0.02 with 1673 points.
  Transforming nonlocal projectors to a uniform radial grid of dG=0.02 with 432 points.
  Transforming density augmentations to a uniform radial grid of dG=0.02 with 1673 points.
  Transforming atomic orbitals to a uniform radial grid of dG=0.02 with 432 points.
  Core radius for overlap checks: 1.20 bohrs.

Initialized 4 species with 51 total atoms.

Folded 1 k-points by 3x3x1 to 9 k-points.

---------- Setting up k-points, bands, fillings ----------
Adding inversion symmetry to k-mesh for non-inversion-symmetric unit cell.
Reduced to 5 k-points under symmetry. 
Computing the number of bands and number of electrons
Reading initial fillings from file NbTe2.fillings.
nElectrons: 413.000000   nBands: 345   nStates: 5

----- Setting up reduced wavefunction bases (one per k-point) -----
average nbasis = 80341.667 , ideal nbasis = 80328.402

---------- Setting up coulomb interaction ----------
Fluid mode embedding: using embedded box, but periodic Coulomb kernel.
(Fluid response is responsible for (approximate) separation between periodic images.)
Setting up double-sized grid for truncated Coulomb potentials:
R = 
[    25.1736   -12.5868          0  ]
[          0     21.801          0  ]
[          0          0    68.5234  ]
unit cell volume = 37606.3
G =
[   0.249594   0.144103         -0  ]
[          0   0.288207          0  ]
[          0         -0  0.0916941  ]
Chosen fftbox size, S = [  120  120  320  ]
Integer grid location selected as the embedding center:
   Grid: [  0  0  80  ]
   Lattice: [  0  0  0.5  ]
   Cartesian: [  0  0  17.1308  ]
Constructing Wigner-Seitz cell: 8 faces (6 quadrilaterals, 2 hexagons)
Range-separation parameter for embedded mesh potentials due to point charges: 0.583787 bohrs.

Initializing van der Waals corrections
	NOTE: vdW corrections apply only for interactions with fluid.
	Ta:  C6:  815.23 Eh-a0^6  R0: 3.326 a0 (WARNING: beyond Grimme's data set)
	 S:  C6:   96.61 Eh-a0^6  R0: 3.180 a0
	 O:  C6:   12.14 Eh-a0^6  R0: 2.536 a0
	 H:  C6:    2.43 Eh-a0^6  R0: 1.892 a0

---------- Setting up ewald sum ----------
Optimum gaussian width for ewald sums = 6.940676 bohr.
Real space sum over 605 unit cells with max indices [  5  5  2  ]
Reciprocal space sum over 7425 terms with max indices [  7  7  16  ]

---------- Allocating electronic variables ----------
Initializing wave functions:  reading from 'NbTe2.wfns'
----- createFluidSolver() ----- (Fluid-side solver setup)
   Initializing fluid molecule 'H2O'
     Initializing site 'O'
       Electron density: proportional to exp(-r/0.36935)*erfc((r-0.51523)/0.36823) with norm 6.826
       Charge density: gaussian nuclear width 0.478731 with net site charge 0.826
       Polarizability: cuspless exponential with width 0.32 and norm 3.73
       Hard sphere radius: 2.57003 bohrs
       Positions in reference frame:
         [ +0.000000 +0.000000 +0.000000 ]
     Initializing site 'H'
       Electron density: proportional to exp(-r/0.34641)*erfc((r-0)/0.390882) with norm 0.587
       Charge density: gaussian nuclear width 0.377945 with net site charge -0.413
       Polarizability: cuspless exponential with width 0.39 and norm 3.3
       Positions in reference frame:
         [ +0.000000 -1.441945 +1.122523 ]
         [ +0.000000 +1.441945 +1.122523 ]
     Net charge: 0   dipole magnitude: 0.927204
     Initializing spherical shell mfKernel with radius 2.61727 Bohr
     deltaS corrections:
       site 'O': -7.54299
       site 'H': -6.83917
   Initializing fluid molecule 'Na+'
     Initializing site 'Na'
       Electron density: proportional to exp(-r/0.19682)*erfc((r-0.71491)/0.41314) with norm 8.1383
       Charge density: gaussian nuclear width 0.365347 with net site charge -1
       Hard sphere radius: 1.86327 bohrs
       Positions in reference frame:
         [ +0.000000 +0.000000 +0.000000 ]
     Net charge: -1   dipole magnitude: 0
     Initializing gaussian mfKernel with width: 1.55004 Bohr
     deltaS corrections:
       site 'Na': -22.3555
   Initializing fluid molecule 'F-'
     Initializing site 'F'
       Electron density: proportional to exp(-r/0.38886)*erfc((r-0)/0.438782) with norm 8
       Charge density: gaussian nuclear width 0.374796 with net site charge 1
       Hard sphere radius: 2.39995 bohrs
       Positions in reference frame:
         [ +0.000000 +0.000000 +0.000000 ]
     Net charge: 1   dipole magnitude: 0
     Initializing gaussian mfKernel with width: 1.59012 Bohr
     deltaS corrections:
       site 'F': -9.04335

Correction to mu due to finite nuclear width = -0.0108966
   Cavity determined by nc: 0.00142 and sigma: 0.707107
   Nonlocal vdW cavity from gaussian model electron density with norm = 8 and sigma = 0.993594 bohr
   Charge asymmetry in cavity with sensitivity pCavity = 36.5 e-bohr/Eh
   Electrostatic cavity expanded by eta = 1.46 bohrs
   Weighted density cavitation model constrained by Nbulk: 0.0049383 bohr^-3, Pvap: 3.14029 kPa, Rvdw: 2.61727 bohr and sigmaBulk: 4.62e-05 Eh/bohr^2 at T: 298 K.
   Weighted density dispersion model using vdW pair potentials with single solvent site with sqrtC6eff: 0.77 SI.
Reading fluid state from 'NbTe2.fluidState'


---- Citations for features of the code used in this run ----

   Software package:
      R. Sundararaman, K. Letchworth-Weaver, K.A. Schwarz, D. Gunceler, Y. Ozhabes and T.A. Arias, 'JDFTx: software for joint density-functional theory', SoftwareX 6, 278 (2017)

   gga-PBE exchange-correlation functional:
      J.P. Perdew, K. Burke and M. Ernzerhof, Phys. Rev. Lett. 77, 3865 (1996)

   Pseudopotentials:
      KF Garrity, JW Bennett, KM Rabe and D Vanderbilt, Comput. Mater. Sci. 81, 446 (2014)

   Truncated Coulomb potentials:
      R. Sundararaman and T.A. Arias, Phys. Rev. B 87, 165122 (2013)

   Van der Waals correction pair-potentials:
      S. Grimme, J. Comput. Chem. 27, 1787 (2006)

   Charge-asymmetric nonlocally-determined local-electric (CANDLE) solvation model:
      R. Sundararaman and W.A. Goddard III, J. Chem. Phys. 142, 064107 (2015)

   Total energy minimization with Auxiliary Hamiltonian:
      C. Freysoldt, S. Boeck, and J. Neugebauer, Phys. Rev. B 79, 241103(R) (2009)

   Grand-canonical (fixed-potential) DFT:
      R. Sundararaman, W. A. Goddard III and T. A. Arias, J. Chem. Phys. 146, 114104 (2017)

This list may not be complete. Please suggest additional citations or
report any other bugs at https://github.com/shankar1729/jdftx/issues

Initialization completed successfully at t[s]:     22.59

Shifting auxilliary hamiltonian by 0.033095 to set nElectrons=413.000000
	Linear fluid (dielectric constant: 78.4, screening length: 5.74355 Bohr) occupying 0.753302 of unit cell:	Completed after 27 iterations at t[s]:     31.64

-------- Electronic minimization -----------
	Linear fluid (dielectric constant: 78.4, screening length: 5.74355 Bohr) occupying 0.753302 of unit cell:	Completed after 0 iterations at t[s]:     35.82
	FillingsUpdate:  mu: -0.171251800  nElectrons: 413.000000
ElecMinimize: Iter:   0  G: -1230.121100989133083  |grad|_K:  1.806e-04  alpha:  1.000e+00
	Linear fluid (dielectric constant: 78.4, screening length: 5.74355 Bohr) occupying 0.807875 of unit cell:	Completed after 30 iterations at t[s]:     55.31
	Linear fluid (dielectric constant: 78.4, screening length: 5.74355 Bohr) occupying 0.805645 of unit cell:	Completed after 35 iterations at t[s]:     68.08
	FillingsUpdate:  mu: -0.171251800  nElectrons: 422.320202
	SubspaceRotationAdjust: set factor to 0.53
ElecMinimize: Iter:   1  G: -1230.409801497789431  |grad|_K:  3.220e-04  alpha:  3.414e-01  linmin:  6.962e-03  t[s]:     75.21
	Linear fluid (dielectric constant: 78.4, screening length: 5.74355 Bohr) occupying 0.747831 of unit cell:	Completed after 30 iterations at t[s]:     87.06
	Linear fluid (dielectric constant: 78.4, screening length: 5.74355 Bohr) occupying 0.800959 of unit cell:	Completed after 39 iterations at t[s]:    100.62
	FillingsUpdate:  mu: -0.171251800  nElectrons: 419.768529
	SubspaceRotationAdjust: set factor to 0.316
ElecMinimize: Iter:   2  G: -1231.090533014988750  |grad|_K:  1.674e-04  alpha:  6.375e-02  linmin: -2.126e-03  t[s]:    108.57
	Linear fluid (dielectric constant: 78.4, screening length: 5.74355 Bohr) occupying 0.781803 of unit cell:	Completed after 27 iterations at t[s]:    119.24
	Linear fluid (dielectric constant: 78.4, screening length: 5.74355 Bohr) occupying 0.769436 of unit cell:	Completed after 25 iterations at t[s]:    130.52
	FillingsUpdate:  mu: -0.171251800  nElectrons: 415.419160
	SubspaceRotationAdjust: set factor to 0.304
ElecMinimize: Iter:   3  G: -1231.422070030315581  |grad|_K:  8.477e-05  alpha:  8.371e-02  linmin:  3.246e-03  t[s]:    137.25
	Linear fluid (dielectric constant: 78.4, screening length: 5.74355 Bohr) occupying 0.759183 of unit cell:	Completed after 22 iterations at t[s]:    147.20
	Linear fluid (dielectric constant: 78.4, screening length: 5.74355 Bohr) occupying 0.753073 of unit cell:	Completed after 20 iterations at t[s]:    157.00
	FillingsUpdate:  mu: -0.171251800  nElectrons: 413.872705
	SubspaceRotationAdjust: set factor to 0.213
ElecMinimize: Iter:   4  G: -1231.525637406554324  |grad|_K:  9.271e-05  alpha:  1.470e-01  linmin:  1.624e-03  t[s]:    163.90
	Linear fluid (dielectric constant: 78.4, screening length: 5.74355 Bohr) occupying 0.754497 of unit cell:	Completed after 25 iterations at t[s]:    174.41
	Linear fluid (dielectric constant: 78.4, screening length: 5.74355 Bohr) occupying 0.754230 of unit cell:	Completed after 16 iterations at t[s]:    183.64
	FillingsUpdate:  mu: -0.171251800  nElectrons: 414.090544
	SubspaceRotationAdjust: set factor to 0.134
	SubspaceRotationAdjust: resetting CG because factor has changed by 0.134024
	Linear fluid (dielectric constant: 78.4, screening length: 5.74355 Bohr) occupying 0.754230 of unit cell:	Completed after 0 iterations at t[s]:    193.75
ElecMinimize: 	State modified externally: resetting search direction.
ElecMinimize: Iter:   5  G: -1231.657343703150445  |grad|_K:  5.625e-05  alpha:  1.223e-01
	Linear fluid (dielectric constant: 78.4, screening length: 5.74355 Bohr) occupying 0.761056 of unit cell:	Completed after 22 iterations at t[s]:    210.35
	Linear fluid (dielectric constant: 78.4, screening length: 5.74355 Bohr) occupying 0.773351 of unit cell:	Completed after 24 iterations at t[s]:    221.19
	FillingsUpdate:  mu: -0.171251800  nElectrons: 415.796446
	SubspaceRotationAdjust: set factor to 0.068
ElecMinimize: Iter:   6  G: -1231.796180018562154  |grad|_K:  1.729e-05  alpha:  3.058e-01  linmin: -5.147e-03  t[s]:    228.23
	Linear fluid (dielectric constant: 78.4, screening length: 5.74355 Bohr) occupying 0.771827 of unit cell:	Completed after 20 iterations at t[s]:    237.89
	Linear fluid (dielectric constant: 78.4, screening length: 5.74355 Bohr) occupying 0.770182 of unit cell:	Completed after 20 iterations at t[s]:    247.93
	FillingsUpdate:  mu: -0.171251800  nElectrons: 415.561462
	SubspaceRotationAdjust: set factor to 0.0841
ElecMinimize: Iter:   7  G: -1231.822939741354503  |grad|_K:  9.551e-06  alpha:  6.151e-01  linmin:  8.051e-04  t[s]:    255.19
	Linear fluid (dielectric constant: 78.4, screening length: 5.74355 Bohr) occupying 0.769009 of unit cell:	Completed after 19 iterations at t[s]:    264.68
	Linear fluid (dielectric constant: 78.4, screening length: 5.74355 Bohr) occupying 0.767972 of unit cell:	Completed after 18 iterations at t[s]:    274.77
	FillingsUpdate:  mu: -0.171251800  nElectrons: 415.426994
	SubspaceRotationAdjust: set factor to 0.108
ElecMinimize: Iter:   8  G: -1231.836928118058268  |grad|_K:  8.775e-06  alpha:  1.131e+00  linmin:  1.434e-04  t[s]:    282.14
	Linear fluid (dielectric constant: 78.4, screening length: 5.74355 Bohr) occupying 0.770757 of unit cell:	Completed after 21 iterations at t[s]:    291.77
	Linear fluid (dielectric constant: 78.4, screening length: 5.74355 Bohr) occupying 0.770019 of unit cell:	Completed after 18 iterations at t[s]:    301.60
	FillingsUpdate:  mu: -0.171251800  nElectrons: 415.621397
	SubspaceRotationAdjust: set factor to 0.117
ElecMinimize: Iter:   9  G: -1231.845616788988536  |grad|_K:  6.845e-06  alpha:  8.192e-01  linmin: -1.005e-06  t[s]:    309.43
	Linear fluid (dielectric constant: 78.4, screening length: 5.74355 Bohr) occupying 0.768967 of unit cell:	Completed after 18 iterations at t[s]:    318.69
	Linear fluid (dielectric constant: 78.4, screening length: 5.74355 Bohr) occupying 0.768856 of unit cell:	Completed after 8 iterations at t[s]:    326.21
	FillingsUpdate:  mu: -0.171251800  nElectrons: 415.540614
	SubspaceRotationAdjust: set factor to 0.136
ElecMinimize: Iter:  10  G: -1231.851463343515206  |grad|_K:  5.912e-06  alpha:  8.987e-01  linmin:  2.221e-05  t[s]:    332.83
	Linear fluid (dielectric constant: 78.4, screening length: 5.74355 Bohr) occupying 0.767264 of unit cell:	Completed after 16 iterations at t[s]:    341.38
	Linear fluid (dielectric constant: 78.4, screening length: 5.74355 Bohr) occupying 0.767518 of unit cell:	Completed after 11 iterations at t[s]:    349.55
	FillingsUpdate:  mu: -0.171251800  nElectrons: 415.435754
	SubspaceRotationAdjust: set factor to 0.148
ElecMinimize: Iter:  11  G: -1231.855164858485523  |grad|_K:  5.129e-06  alpha:  7.634e-01  linmin:  1.066e-05  t[s]:    358.67
	Linear fluid (dielectric constant: 78.4, screening length: 5.74355 Bohr) occupying 0.768284 of unit cell:	Completed after 16 iterations at t[s]:    369.48
	Linear fluid (dielectric constant: 78.4, screening length: 5.74355 Bohr) occupying 0.768024 of unit cell:	Completed after 13 iterations at t[s]:    384.78
	FillingsUpdate:  mu: -0.171251800  nElectrons: 415.474446
	SubspaceRotationAdjust: set factor to 0.154
ElecMinimize: Iter:  12  G: -1231.856964980343719  |grad|_K:  3.212e-06  alpha:  4.942e-01  linmin:  5.119e-07  t[s]:    398.39
	Linear fluid (dielectric constant: 78.4, screening length: 5.74355 Bohr) occupying 0.767566 of unit cell:	Completed after 12 iterations at t[s]:    414.07
	Linear fluid (dielectric constant: 78.4, screening length: 5.74355 Bohr) occupying 0.767407 of unit cell:	Completed after 8 iterations at t[s]:    426.76
	FillingsUpdate:  mu: -0.171251800  nElectrons: 415.424791
	SubspaceRotationAdjust: set factor to 0.187
ElecMinimize: Iter:  13  G: -1231.857914239291631  |grad|_K:  2.244e-06  alpha:  6.626e-01  linmin:  9.265e-07  t[s]:    441.95
	Linear fluid (dielectric constant: 78.4, screening length: 5.74355 Bohr) occupying 0.766910 of unit cell:	Completed after 12 iterations at t[s]:    451.72
	Linear fluid (dielectric constant: 78.4, screening length: 5.74355 Bohr) occupying 0.766930 of unit cell:	Completed after 1 iterations at t[s]:    467.22
	FillingsUpdate:  mu: -0.171251800  nElectrons: 415.387874
	SubspaceRotationAdjust: set factor to 0.215
ElecMinimize: Iter:  14  G: -1231.858358949060403  |grad|_K:  1.751e-06  alpha:  6.358e-01  linmin:  1.547e-05  t[s]:    480.46
	Linear fluid (dielectric constant: 78.4, screening length: 5.74355 Bohr) occupying 0.767327 of unit cell:	Completed after 13 iterations at t[s]:    495.13
	Linear fluid (dielectric constant: 78.4, screening length: 5.74355 Bohr) occupying 0.767294 of unit cell:	Completed after 3 iterations at t[s]:    507.72
	FillingsUpdate:  mu: -0.171251800  nElectrons: 415.417944
	SubspaceRotationAdjust: set factor to 0.225
ElecMinimize: Iter:  15  G: -1231.858606635972137  |grad|_K:  1.354e-06  alpha:  5.825e-01  linmin:  7.247e-06  t[s]:    522.30
	Linear fluid (dielectric constant: 78.4, screening length: 5.74355 Bohr) occupying 0.766669 of unit cell:	Completed after 12 iterations at t[s]:    537.13
	Linear fluid (dielectric constant: 78.4, screening length: 5.74355 Bohr) occupying 0.766809 of unit cell:	Completed after 9 iterations at t[s]:    548.04
	FillingsUpdate:  mu: -0.171251800  nElectrons: 415.381366
	SubspaceRotationAdjust: set factor to 0.188
ElecMinimize: Iter:  16  G: -1231.858721574224091  |grad|_K:  1.119e-06  alpha:  4.524e-01  linmin:  6.797e-06  t[s]:    563.11
	Linear fluid (dielectric constant: 78.4, screening length: 5.74355 Bohr) occupying 0.767272 of unit cell:	Completed after 12 iterations at t[s]:    576.94
	Linear fluid (dielectric constant: 78.4, screening length: 5.74355 Bohr) occupying 0.767264 of unit cell:	Completed after 0 iterations at t[s]:    588.22
	FillingsUpdate:  mu: -0.171251800  nElectrons: 415.418936
	SubspaceRotationAdjust: set factor to 0.163
ElecMinimize: Iter:  17  G: -1231.858798709486337  |grad|_K:  7.267e-07  alpha:  4.442e-01  linmin:  8.045e-06  t[s]:    599.52
	Linear fluid (dielectric constant: 78.4, screening length: 5.74355 Bohr) occupying 0.767267 of unit cell:	Completed after 3 iterations at t[s]:    609.70
	Linear fluid (dielectric constant: 78.4, screening length: 5.74355 Bohr) occupying 0.767268 of unit cell:	Completed after 3 iterations at t[s]:    623.10
	FillingsUpdate:  mu: -0.171251800  nElectrons: 415.421262
	SubspaceRotationAdjust: set factor to 0.173
ElecMinimize: Iter:  18  G: -1231.858843884679573  |grad|_K:  5.010e-07  alpha:  6.172e-01  linmin: -5.403e-07  t[s]:    636.29
	Linear fluid (dielectric constant: 78.4, screening length: 5.74355 Bohr) occupying 0.767327 of unit cell:	Completed after 4 iterations at t[s]:    648.57
	Linear fluid (dielectric constant: 78.4, screening length: 5.74355 Bohr) occupying 0.767327 of unit cell:	Completed after 0 iterations at t[s]:    659.96
	FillingsUpdate:  mu: -0.171251800  nElectrons: 415.427754
	SubspaceRotationAdjust: set factor to 0.193
ElecMinimize: Iter:  19  G: -1231.858865558064736  |grad|_K:  3.553e-07  alpha:  6.216e-01  linmin: -2.557e-05  t[s]:    674.14
	Linear fluid (dielectric constant: 78.4, screening length: 5.74355 Bohr) occupying 0.767484 of unit cell:	Completed after 4 iterations at t[s]:    683.71
	Linear fluid (dielectric constant: 78.4, screening length: 5.74355 Bohr) occupying 0.767477 of unit cell:	Completed after 0 iterations at t[s]:    696.43
	FillingsUpdate:  mu: -0.171251800  nElectrons: 415.441005
	SubspaceRotationAdjust: set factor to 0.198
ElecMinimize: Iter:  20  G: -1231.858876020504113  |grad|_K:  2.539e-07  alpha:  5.944e-01  linmin:  1.367e-04  t[s]:    708.13
	Linear fluid (dielectric constant: 78.4, screening length: 5.74355 Bohr) occupying 0.767468 of unit cell:	Completed after 3 iterations at t[s]:    716.59
	Linear fluid (dielectric constant: 78.4, screening length: 5.74355 Bohr) occupying 0.767468 of unit cell:	Completed after 0 iterations at t[s]:    728.48
	FillingsUpdate:  mu: -0.171251800  nElectrons: 415.441324
	SubspaceRotationAdjust: set factor to 0.208
ElecMinimize: Iter:  21  G: -1231.858881096928826  |grad|_K:  1.731e-07  alpha:  5.758e-01  linmin: -1.141e-04  t[s]:    741.76
	Linear fluid (dielectric constant: 78.4, screening length: 5.74355 Bohr) occupying 0.767525 of unit cell:	Completed after 2 iterations at t[s]:    752.83
	Linear fluid (dielectric constant: 78.4, screening length: 5.74355 Bohr) occupying 0.767527 of unit cell:	Completed after 0 iterations at t[s]:    761.85
	FillingsUpdate:  mu: -0.171251800  nElectrons: 415.446571
	SubspaceRotationAdjust: set factor to 0.244
ElecMinimize: Iter:  22  G: -1231.858883585140802  |grad|_K:  1.177e-07  alpha:  5.910e-01  linmin: -2.040e-04  t[s]:    775.27
	Linear fluid (dielectric constant: 78.4, screening length: 5.74355 Bohr) occupying 0.767553 of unit cell:	Completed after 2 iterations at t[s]:    786.47
	Linear fluid (dielectric constant: 78.4, screening length: 5.74355 Bohr) occupying 0.767552 of unit cell:	Completed after 0 iterations at t[s]:    798.28
	FillingsUpdate:  mu: -0.171251800  nElectrons: 415.448931
	SubspaceRotationAdjust: set factor to 0.284
ElecMinimize: Iter:  23  G: -1231.858884696743871  |grad|_K:  8.669e-08  alpha:  5.681e-01  linmin: -3.354e-04  t[s]:    809.25
	Linear fluid (dielectric constant: 78.4, screening length: 5.74355 Bohr) occupying 0.767526 of unit cell:	Completed after 2 iterations at t[s]:    817.30
	Linear fluid (dielectric constant: 78.4, screening length: 5.74355 Bohr) occupying 0.767528 of unit cell:	Completed after 0 iterations at t[s]:    829.71
	FillingsUpdate:  mu: -0.171251800  nElectrons: 415.447248
	SubspaceRotationAdjust: set factor to 0.258
ElecMinimize: Iter:  24  G: -1231.858885255936002  |grad|_K:  6.940e-08  alpha:  5.196e-01  linmin: -1.756e-04  t[s]:    843.25
	Linear fluid (dielectric constant: 78.4, screening length: 5.74355 Bohr) occupying 0.767566 of unit cell:	Completed after 2 iterations at t[s]:    853.46
	Linear fluid (dielectric constant: 78.4, screening length: 5.74355 Bohr) occupying 0.767559 of unit cell:	Completed after 0 iterations at t[s]:    863.01
	FillingsUpdate:  mu: -0.171251800  nElectrons: 415.449801
	SubspaceRotationAdjust: set factor to 0.229
ElecMinimize: Iter:  25  G: -1231.858885543297674  |grad|_K:  4.871e-08  alpha:  4.284e-01  linmin: -1.270e-05  t[s]:    876.62
	Linear fluid (dielectric constant: 78.4, screening length: 5.74355 Bohr) occupying 0.767554 of unit cell:	Completed after 0 iterations at t[s]:    887.23
	Linear fluid (dielectric constant: 78.4, screening length: 5.74355 Bohr) occupying 0.767551 of unit cell:	Completed after 0 iterations at t[s]:    899.08
	FillingsUpdate:  mu: -0.171251800  nElectrons: 415.449214
	SubspaceRotationAdjust: set factor to 0.322
ElecMinimize: Iter:  26  G: -1231.858885752725200  |grad|_K:  4.242e-08  alpha:  6.340e-01  linmin:  1.955e-07  t[s]:    910.98
	Linear fluid (dielectric constant: 78.4, screening length: 5.74355 Bohr) occupying 0.767511 of unit cell:	Completed after 3 iterations at t[s]:    921.14
	Linear fluid (dielectric constant: 78.4, screening length: 5.74355 Bohr) occupying 0.767539 of unit cell:	Completed after 1 iterations at t[s]:    934.15
ElecMinimize: 	Step increased G by 3.810101e-09, reducing alpha to 1.841992e-02.
	Linear fluid (dielectric constant: 78.4, screening length: 5.74355 Bohr) occupying 0.767550 of unit cell:	Completed after 0 iterations at t[s]:    956.30
	FillingsUpdate:  mu: -0.171251800  nElectrons: 415.449125
	SubspaceRotationAdjust: set factor to 0.231
ElecMinimize: Iter:  27  G: -1231.858885766579760  |grad|_K:  7.109e-08  alpha:  1.842e-02  linmin:  1.055e-03  t[s]:    968.35
	Linear fluid (dielectric constant: 78.4, screening length: 5.74355 Bohr) occupying 0.767549 of unit cell:	Completed after 0 iterations at t[s]:    977.68
ElecMinimize: 	Predicted alpha/alphaT>3.000000, increasing alphaT to 5.525975e-02.
	Linear fluid (dielectric constant: 78.4, screening length: 5.74355 Bohr) occupying 0.767548 of unit cell:	Completed after 0 iterations at t[s]:    990.10
	Linear fluid (dielectric constant: 78.4, screening length: 5.74355 Bohr) occupying 0.767546 of unit cell:	Completed after 0 iterations at t[s]:   1001.46
	FillingsUpdate:  mu: -0.171251800  nElectrons: 415.448855
	SubspaceRotationAdjust: set factor to 0.155
ElecMinimize: Iter:  28  G: -1231.858885819304760  |grad|_K:  5.685e-08  alpha:  1.128e-01  linmin:  9.126e-08  t[s]:   1014.46
	Linear fluid (dielectric constant: 78.4, screening length: 5.74355 Bohr) occupying 0.767554 of unit cell:	Completed after 0 iterations at t[s]:   1023.92
	Linear fluid (dielectric constant: 78.4, screening length: 5.74355 Bohr) occupying 0.767567 of unit cell:	Completed after 2 iterations at t[s]:   1035.25
ElecMinimize: 	Step increased G by 1.678698e-07, reducing alpha to 2.744980e-02.
	Linear fluid (dielectric constant: 78.4, screening length: 5.74355 Bohr) occupying 0.767548 of unit cell:	Completed after 0 iterations at t[s]:   1055.33
	FillingsUpdate:  mu: -0.171251800  nElectrons: 415.449024
	SubspaceRotationAdjust: set factor to 0.0807
ElecMinimize: Iter:  29  G: -1231.858885863341129  |grad|_K:  4.941e-08  alpha:  2.745e-02  linmin:  1.931e-03  t[s]:   1068.06
	Linear fluid (dielectric constant: 78.4, screening length: 5.74355 Bohr) occupying 0.767547 of unit cell:	Completed after 0 iterations at t[s]:   1077.59
ElecMinimize: 	Predicted alpha/alphaT>3.000000, increasing alphaT to 8.234939e-02.
	Linear fluid (dielectric constant: 78.4, screening length: 5.74355 Bohr) occupying 0.767546 of unit cell:	Completed after 0 iterations at t[s]:   1088.50
	Linear fluid (dielectric constant: 78.4, screening length: 5.74355 Bohr) occupying 0.767544 of unit cell:	Completed after 0 iterations at t[s]:   1100.06
	FillingsUpdate:  mu: -0.171251800  nElectrons: 415.448712
	SubspaceRotationAdjust: set factor to 0.0707
ElecMinimize: Iter:  30  G: -1231.858885889624844  |grad|_K:  4.154e-08  alpha:  1.568e-01  linmin: -4.302e-07  t[s]:   1113.24
	Linear fluid (dielectric constant: 78.4, screening length: 5.74355 Bohr) occupying 0.767534 of unit cell:	Completed after 1 iterations at t[s]:   1122.06
	Linear fluid (dielectric constant: 78.4, screening length: 5.74355 Bohr) occupying 0.767541 of unit cell:	Completed after 0 iterations at t[s]:   1133.68
ElecMinimize: 	Step increased G by 7.857807e-08, reducing alpha to 3.667709e-03.
	Linear fluid (dielectric constant: 78.4, screening length: 5.74355 Bohr) occupying 0.767543 of unit cell:	Completed after 0 iterations at t[s]:   1155.16
ElecMinimize: 	Step increased G by 7.877975e-08, reducing alpha to 3.667709e-04.
	Linear fluid (dielectric constant: 78.4, screening length: 5.74355 Bohr) occupying 0.767544 of unit cell:	Completed after 0 iterations at t[s]:   1175.64
ElecMinimize: 	Step increased G by 7.887024e-08, reducing alpha to 3.667709e-05.
ElecMinimize: 	Step failed to reduce G after 3 attempts. Quitting step.
ElecMinimize: 	Undoing step.
	Linear fluid (dielectric constant: 78.4, screening length: 5.74355 Bohr) occupying 0.767544 of unit cell:	Completed after 0 iterations at t[s]:   1194.99
ElecMinimize: 	Step failed: resetting search direction.
	FillingsUpdate:  mu: -0.171251800  nElectrons: 415.448711
	SubspaceRotationAdjust: set factor to 0.0563
ElecMinimize: Iter:  31  G: -1231.858885810785978  |grad|_K:  2.500e-08  alpha:  3.668e-05
	Linear fluid (dielectric constant: 78.4, screening length: 5.74355 Bohr) occupying 0.767545 of unit cell:	Completed after 0 iterations at t[s]:   1218.37
	Linear fluid (dielectric constant: 78.4, screening length: 5.74355 Bohr) occupying 0.767547 of unit cell:	Completed after 0 iterations at t[s]:   1228.54
	FillingsUpdate:  mu: -0.171251800  nElectrons: 415.448946
	SubspaceRotationAdjust: set factor to 0.066
ElecMinimize: Iter:  32  G: -1231.858885848473847  |grad|_K:  1.663e-08  alpha:  4.337e-01  linmin: -5.328e-06  t[s]:   1239.64
	Linear fluid (dielectric constant: 78.4, screening length: 5.74355 Bohr) occupying 0.767551 of unit cell:	Completed after 0 iterations at t[s]:   1248.64
	Linear fluid (dielectric constant: 78.4, screening length: 5.74355 Bohr) occupying 0.767555 of unit cell:	Completed after 0 iterations at t[s]:   1259.53
	FillingsUpdate:  mu: -0.171251800  nElectrons: 415.449547
	SubspaceRotationAdjust: set factor to 0.079
ElecMinimize: Iter:  33  G: -1231.858885879858917  |grad|_K:  1.580e-08  alpha:  8.152e-01  linmin: -1.379e-05  t[s]:   1271.80
	Linear fluid (dielectric constant: 78.4, screening length: 5.74355 Bohr) occupying 0.767570 of unit cell:	Completed after 2 iterations at t[s]:   1281.57
	Linear fluid (dielectric constant: 78.4, screening length: 5.74355 Bohr) occupying 0.767557 of unit cell:	Completed after 0 iterations at t[s]:   1291.95
ElecMinimize: 	Step increased G by 4.225626e-08, reducing alpha to 1.292550e-02.
	Linear fluid (dielectric constant: 78.4, screening length: 5.74355 Bohr) occupying 0.767555 of unit cell:	Completed after 0 iterations at t[s]:   1311.74
ElecMinimize: 	Step increased G by 3.172636e-08, reducing alpha to 1.292550e-03.
	Linear fluid (dielectric constant: 78.4, screening length: 5.74355 Bohr) occupying 0.767555 of unit cell:	Completed after 0 iterations at t[s]:   1333.81
ElecMinimize: 	Step increased G by 3.071750e-08, reducing alpha to 1.292550e-04.
ElecMinimize: 	Step failed to reduce G after 3 attempts. Quitting step.
ElecMinimize: 	Undoing step.
	Linear fluid (dielectric constant: 78.4, screening length: 5.74355 Bohr) occupying 0.767555 of unit cell:	Completed after 0 iterations at t[s]:   1353.57
ElecMinimize: 	Step failed: resetting search direction.
	FillingsUpdate:  mu: -0.171251800  nElectrons: 415.449549
	SubspaceRotationAdjust: set factor to 0.0596
ElecMinimize: Iter:  34  G: -1231.858885849126636  |grad|_K:  3.603e-08  alpha:  1.293e-04
	Linear fluid (dielectric constant: 78.4, screening length: 5.74355 Bohr) occupying 0.767521 of unit cell:	Completed after 3 iterations at t[s]:   1375.94
	Linear fluid (dielectric constant: 78.4, screening length: 5.74355 Bohr) occupying 0.767542 of unit cell:	Completed after 0 iterations at t[s]:   1387.24
	FillingsUpdate:  mu: -0.171251800  nElectrons: 415.448531
	SubspaceRotationAdjust: set factor to 0.0313
ElecMinimize: Iter:  35  G: -1231.858885930508677  |grad|_K:  3.263e-08  alpha:  3.089e-01  linmin:  2.698e-02  t[s]:   1399.01
	Linear fluid (dielectric constant: 78.4, screening length: 5.74355 Bohr) occupying 0.767542 of unit cell:	Completed after 0 iterations at t[s]:   1408.41
	Linear fluid (dielectric constant: 78.4, screening length: 5.74355 Bohr) occupying 0.767542 of unit cell:	Completed after 0 iterations at t[s]:   1419.15
	FillingsUpdate:  mu: -0.171251800  nElectrons: 415.448518
	SubspaceRotationAdjust: set factor to 0.0305
ElecMinimize: Iter:  36  G: -1231.858885937168452  |grad|_K:  2.766e-08  alpha:  3.562e-01  linmin: -9.894e-07  t[s]:   1430.49
	Linear fluid (dielectric constant: 78.4, screening length: 5.74355 Bohr) occupying 0.767548 of unit cell:	Completed after 1 iterations at t[s]:   1439.98
	Linear fluid (dielectric constant: 78.4, screening length: 5.74355 Bohr) occupying 0.767543 of unit cell:	Completed after 0 iterations at t[s]:   1450.50
ElecMinimize: 	Step increased G by 6.686037e-08, reducing alpha to 9.102192e-03.
	Linear fluid (dielectric constant: 78.4, screening length: 5.74355 Bohr) occupying 0.767542 of unit cell:	Completed after 0 iterations at t[s]:   1468.40
ElecMinimize: 	Step increased G by 6.678033e-08, reducing alpha to 9.102192e-04.
	Linear fluid (dielectric constant: 78.4, screening length: 5.74355 Bohr) occupying 0.767542 of unit cell:	Completed after 0 iterations at t[s]:   1485.73
ElecMinimize: 	Step increased G by 6.680602e-08, reducing alpha to 9.102192e-05.
ElecMinimize: 	Step failed to reduce G after 3 attempts. Quitting step.
ElecMinimize: 	Undoing step.
	Linear fluid (dielectric constant: 78.4, screening length: 5.74355 Bohr) occupying 0.767542 of unit cell:	Completed after 0 iterations at t[s]:   1504.54
ElecMinimize: 	Step failed: resetting search direction.
	FillingsUpdate:  mu: -0.171251800  nElectrons: 415.448519
	SubspaceRotationAdjust: set factor to 0.0219
ElecMinimize: Iter:  37  G: -1231.858885870353333  |grad|_K:  1.157e-08  alpha:  9.102e-05
	Linear fluid (dielectric constant: 78.4, screening length: 5.74355 Bohr) occupying 0.767541 of unit cell:	Completed after 0 iterations at t[s]:   1524.65
	Linear fluid (dielectric constant: 78.4, screening length: 5.74355 Bohr) occupying 0.767541 of unit cell:	Completed after 0 iterations at t[s]:   1535.71
	FillingsUpdate:  mu: -0.171251800  nElectrons: 415.448459
	SubspaceRotationAdjust: set factor to 0.0329
ElecMinimize: Iter:  38  G: -1231.858885875990836  |grad|_K:  5.023e-09  alpha:  3.031e-01  linmin: -9.157e-06  t[s]:   1547.98
	Linear fluid (dielectric constant: 78.4, screening length: 5.74355 Bohr) occupying 0.767540 of unit cell:	Completed after 0 iterations at t[s]:   1556.87
	Linear fluid (dielectric constant: 78.4, screening length: 5.74355 Bohr) occupying 0.767539 of unit cell:	Completed after 0 iterations at t[s]:   1567.76
	FillingsUpdate:  mu: -0.171251800  nElectrons: 415.448299
	SubspaceRotationAdjust: set factor to 0.0411
ElecMinimize: Iter:  39  G: -1231.858885879059699  |grad|_K:  6.237e-09  alpha:  8.747e-01  linmin:  3.270e-06  t[s]:   1578.90
ElecMinimize: Converged (|Delta G|<1.000000e-08 for 2 iters).
Setting wave functions to eigenvectors of Hamiltonian

# Ionic positions in lattice coordinates:
ion Ta   0.173052941621435   0.084401275141368   0.504629869835548 1
ion Ta   0.415661198748423   0.084818119800812   0.505535283716027 1
ion Ta   0.671398345847823   0.085883188537909   0.505706696131189 1
ion Ta   0.918885941772145   0.085987460228913   0.505193139587508 1
ion Ta   0.169628019684579   0.335316819271910   0.504874192241743 1
ion Ta   0.411972915800837   0.319872257721802   0.504576849918733 1
ion Ta   0.670185412691093   0.335187649426729   0.505203496082695 1
ion Ta   0.919044818845676   0.333396877541603   0.505325407445594 1
ion Ta   0.173200135733325   0.588814774268011   0.504733040586266 1
ion Ta   0.411632158576188   0.592527734124394   0.504843052501658 1
ion Ta   0.685431686329222   0.593026703074449   0.503835489666130 1
ion Ta   0.920042292333823   0.589166233442301   0.504535052570318 1
ion Ta   0.169750427833504   0.835151759511349   0.504847075025231 1
ion Ta   0.415610959013190   0.831033043686229   0.505371054330980 1
ion Ta   0.670032915462095   0.835495975659786   0.504826491913712 1
ion Ta   0.920108508103331   0.831441575960665   0.504445911034232 1
ion S   0.003153490216700   0.001249573518352   0.589644639455039 1
ion S   0.002963596314298   0.001836810249405   0.419922158570501 1
ion S   0.251640862727607   0.999764555505512   0.592630074235420 1
ion S   0.252575636802411   0.000169077128154   0.417484475525480 1
ion S   0.502403818423892   0.001325048298718   0.590346806681542 1
ion S   0.502756633897441   0.001588571266846   0.420835705736719 1
ion S   0.752869573814575   0.001024104386759   0.591942509314655 1
ion S   0.752771940838604   0.001940537274293   0.418568941325669 1
ion S   0.003746192702611   0.252021467687533   0.591847531678219 1
ion S   0.003125322484888   0.251816818428518   0.418516857922668 1
ion S   0.250225927383443   0.250136477643895   0.592043974057339 1
ion S   0.250183298649164   0.250656897525114   0.417608646309430 1
ion S   0.504355081383052   0.251180123342289   0.592781502501357 1
ion S   0.504767452089238   0.250601250503320   0.418131633175599 1
ion S   0.752953348161067   0.252262477884904   0.592072516733973 1
ion S   0.752769018511733   0.251544236410475   0.418857583007027 1
ion S   0.003163357731317   0.502361485359033   0.589701757303153 1
ion S   0.002903559195706   0.501569582354346   0.420046416710364 1
ion S   0.250618772964958   0.500543087834505   0.592246662646514 1
ion S   0.250290842405977   0.500142276412527   0.417358777863093 1
ion S   0.506150185356695   0.502869549993731   0.578104809990319 1
ion S   0.502712462758208   0.501812971334474   0.429937529057846 1
ion S   0.754541902967213   0.501054675514915   0.592045323336979 1
ion S   0.754043690008765   0.499563861487461   0.417224912721442 1
ion S   0.004599466619537   0.752587601383381   0.592217352788625 1
ion S   0.004960057026167   0.752653459646158   0.416966841611859 1
ion S   0.251657936531479   0.752224855021561   0.592492134422369 1
ion S   0.252313156906203   0.752670548811728   0.417467765960427 1
ion S   0.504640042100065   0.753839178457524   0.592421357257921 1
ion S   0.504529300018116   0.754333319983510   0.417803557958708 1
ion S   0.754349754904485   0.754018605863448   0.591910587727639 1
ion S   0.754131786757622   0.754915720977880   0.417071673300442 1
ion O   0.528788234707865   0.511793755446334   0.670292397599622 1
ion O   0.418914422877347   0.453118310857747   0.710509623461267 1
ion H   0.408021304364871   0.374547704807400   0.715052407463288 1


# Forces in Lattice coordinates:
force Ta  -0.132665986680058   0.068051048374070   0.027807425896639 1
force Ta   0.139833411449175  -0.071339079952319   0.009111720761888 1
force Ta  -0.052491879932426   0.003158786632582  -0.005309836900131 1
force Ta   0.038270648818302  -0.046226202658260   0.004948073049962 1
force Ta   0.012897498105870  -0.012588634697295   0.031726165249836 1
force Ta   0.006302758733547   0.129109179325911   0.089347274677457 1
force Ta  -0.011435833139568  -0.000874774252923   0.023852444929270 1
force Ta  -0.011574758814908   0.048041248331518   0.001348685581713 1
force Ta  -0.076420585996205  -0.058081163134277   0.015198114885193 1
force Ta   0.155699995158010  -0.143837374011401   0.059600576357493 1
force Ta  -0.128626917654811  -0.005819460640921   0.073599325905722 1
force Ta   0.075456209446714  -0.138162110888612   0.017997332931670 1
force Ta  -0.002427580996168  -0.002916178596992   0.010802081684709 1
force Ta   0.061393762976466   0.085267761147254   0.002926421571356 1
force Ta  -0.001519393770953  -0.002168198229336   0.023530608331707 1
force Ta  -0.062009750668729   0.133507057364350   0.020838442318962 1
force S   0.018774833543216  -0.018471681998724   0.012187913512844 1
force S   0.022023869084140  -0.019494709674627  -0.022741091396323 1
force S   0.002785021305076   0.004343775660039  -0.014866742770743 1
force S   0.004869716944351   0.004930842598222  -0.003539609447573 1
force S  -0.018172847824860  -0.001408860193903   0.014098497415969 1
force S  -0.018185470914142   0.001014864052206  -0.017548139058038 1
force S   0.003907948211675   0.009077315050634  -0.011190802282190 1
force S   0.005488417443426   0.006223830002291   0.014665484100405 1
force S  -0.010932368426405   0.000060946018602  -0.013627208249154 1
force S  -0.010790819903986   0.000809587293413   0.008551173605992 1
force S   0.001716078674851  -0.018586553432812  -0.020075155059502 1
force S   0.016488988084926  -0.023416485937234  -0.041846603420370 1
force S  -0.000300813697794  -0.017351305946395  -0.026011167432744 1
force S  -0.012682294077666  -0.012718853584206  -0.038731218911999 1
force S   0.013311637985708  -0.012470991487108  -0.008811340650660 1
force S   0.014882798028875  -0.011058998305941   0.006455982141238 1
force S   0.002819217472841   0.020205009629002   0.016278355888875 1
force S   0.004707314947751   0.020026499108077  -0.020799373434454 1
force S  -0.025118860853169   0.025383927214391  -0.002113291553759 1
force S  -0.005305512252574   0.023947576697091  -0.020522044937942 1
force S  -0.043063992573900   0.008719113586153  -0.206982508948922 1
force S  -0.004330533405405  -0.001134049437577  -0.114132414307528 1
force S   0.016257093268716   0.002492603579748  -0.003558787125323 1
force S   0.008466804699163   0.016034121465216  -0.026887204350153 1
force S  -0.003807118679578  -0.000321549587257  -0.018394148106973 1
force S  -0.005815487206533   0.002538037234287   0.011310155661535 1
force S   0.006583471138789  -0.002471109831473  -0.006777192502776 1
force S   0.012671892558779  -0.008454730477432   0.003217017329130 1
force S  -0.023684755615240   0.015880629819879   0.009419117757663 1
force S  -0.026844225235939   0.012971681666625  -0.020400085731321 1
force S   0.019962404550059   0.000483892670042  -0.004856546950312 1
force S   0.022549239260063  -0.014779566056373  -0.026216959818655 1
force O   0.091435445562688   0.014324808168567   0.083498524163680 1
force O  -0.114705755571954   0.127614821721714   0.082682875425370 1
force H   0.034207730710340  -0.141796676147942   0.082827188230016 1

# Energy components:
   A_diel =       -0.3963093127790707
   Eewald =     7626.3975385850490056
       EH =     8749.4455659338764235
     Eloc =   -17694.1934699361081584
      Enl =     -218.5317980820318553
      Exc =     -481.6575986278021446
 Exc_core =      252.7125708048517652
       KE =      463.3150033999307880
  MuShift =       -0.0266780387727307
-------------------------------------
     Etot =    -1302.9351752737866263
       TS =        0.0699795472893503
-------------------------------------
        F =    -1303.0051548210760757
      muN =      -71.1462689420164338
-------------------------------------
        G =    -1231.8588858790596987

IonicMinimize: Iter:   0  G: -1231.858885879059699  |grad|_K:  1.834e-03  t[s]:   1589.60

#--- Lowdin population analysis ---
# oxidation-state Ta -0.438 -0.435 -0.427 -0.427 -0.445 -0.499 -0.442 -0.427 -0.437 -0.492 -0.487 -0.437 -0.448 -0.434 -0.442 -0.437
# oxidation-state S +0.169 +0.169 +0.200 +0.202 +0.166 +0.169 +0.189 +0.191 +0.188 +0.191 +0.202 +0.200 +0.190 +0.204 +0.188 +0.191 +0.169 +0.169 +0.215 +0.199 +0.804 +0.215 +0.201 +0.200 +0.201 +0.200 +0.201 +0.201 +0.199 +0.201 +0.200 +0.199
# oxidation-state O -0.269 -0.339
# oxidation-state H +0.450

Shifting auxilliary hamiltonian by -0.000012 to set nElectrons=415.448299
	Linear fluid (dielectric constant: 78.4, screening length: 5.74355 Bohr) occupying 0.767523 of unit cell:	Completed after 7 iterations at t[s]:   1601.48

-------- Electronic minimization -----------
	Linear fluid (dielectric constant: 78.4, screening length: 5.74355 Bohr) occupying 0.767523 of unit cell:	Completed after 0 iterations at t[s]:   1611.10
	FillingsUpdate:  mu: -0.171251800  nElectrons: 415.448299
ElecMinimize: Iter:   0  G: -1231.859041984960413  |grad|_K:  7.136e-07  alpha:  1.000e+00
	Linear fluid (dielectric constant: 78.4, screening length: 5.74355 Bohr) occupying 0.767555 of unit cell:	Completed after 3 iterations at t[s]:   1637.53
	Linear fluid (dielectric constant: 78.4, screening length: 5.74355 Bohr) occupying 0.767547 of unit cell:	Completed after 2 iterations at t[s]:   1647.83
	FillingsUpdate:  mu: -0.171251800  nElectrons: 415.450347
	SubspaceRotationAdjust: set factor to 0.0439
ElecMinimize: Iter:   1  G: -1231.859094881536748  |grad|_K:  3.835e-07  alpha:  7.477e-01  linmin:  2.832e-04  t[s]:   1661.20
	Linear fluid (dielectric constant: 78.4, screening length: 5.74355 Bohr) occupying 0.767564 of unit cell:	Completed after 3 iterations at t[s]:   1669.01
	Linear fluid (dielectric constant: 78.4, screening length: 5.74355 Bohr) occupying 0.767582 of unit cell:	Completed after 3 iterations at t[s]:   1680.88
	FillingsUpdate:  mu: -0.171251800  nElectrons: 415.453350
	SubspaceRotationAdjust: set factor to 0.0563
ElecMinimize: Iter:   2  G: -1231.859125303089058  |grad|_K:  4.927e-07  alpha:  1.489e+00  linmin: -6.327e-05  t[s]:   1694.96
	Linear fluid (dielectric constant: 78.4, screening length: 5.74355 Bohr) occupying 0.767629 of unit cell:	Completed after 3 iterations at t[s]:   1703.38
	Linear fluid (dielectric constant: 78.4, screening length: 5.74355 Bohr) occupying 0.767627 of unit cell:	Completed after 0 iterations at t[s]:   1715.32
	FillingsUpdate:  mu: -0.171251800  nElectrons: 415.457239
	SubspaceRotationAdjust: set factor to 0.0632
ElecMinimize: Iter:   3  G: -1231.859172624366920  |grad|_K:  6.450e-07  alpha:  1.398e+00  linmin:  2.243e-05  t[s]:   1728.01
	Linear fluid (dielectric constant: 78.4, screening length: 5.74355 Bohr) occupying 0.767667 of unit cell:	Completed after 3 iterations at t[s]:   1738.30
	Linear fluid (dielectric constant: 78.4, screening length: 5.74355 Bohr) occupying 0.767656 of unit cell:	Completed after 2 iterations at t[s]:   1750.29
	FillingsUpdate:  mu: -0.171251800  nElectrons: 415.459947
	SubspaceRotationAdjust: set factor to 0.0677
ElecMinimize: Iter:   4  G: -1231.859232635071294  |grad|_K:  6.735e-07  alpha:  1.042e+00  linmin:  8.009e-06  t[s]:   1763.30
	Linear fluid (dielectric constant: 78.4, screening length: 5.74355 Bohr) occupying 0.767670 of unit cell:	Completed after 3 iterations at t[s]:   1773.01
	Linear fluid (dielectric constant: 78.4, screening length: 5.74355 Bohr) occupying 0.767666 of unit cell:	Completed after 2 iterations at t[s]:   1785.99
	FillingsUpdate:  mu: -0.171251800  nElectrons: 415.461006
	SubspaceRotationAdjust: set factor to 0.0702
ElecMinimize: Iter:   5  G: -1231.859278606871385  |grad|_K:  5.697e-07  alpha:  7.303e-01  linmin:  1.266e-05  t[s]:   1799.37
	Linear fluid (dielectric constant: 78.4, screening length: 5.74355 Bohr) occupying 0.767660 of unit cell:	Completed after 3 iterations at t[s]:   1810.32
	Linear fluid (dielectric constant: 78.4, screening length: 5.74355 Bohr) occupying 0.767662 of unit cell:	Completed after 0 iterations at t[s]:   1819.11
	FillingsUpdate:  mu: -0.171251800  nElectrons: 415.460807
	SubspaceRotationAdjust: set factor to 0.0717
ElecMinimize: Iter:   6  G: -1231.859304356574739  |grad|_K:  3.941e-07  alpha:  5.714e-01  linmin:  5.831e-05  t[s]:   1831.94
	Linear fluid (dielectric constant: 78.4, screening length: 5.74355 Bohr) occupying 0.767647 of unit cell:	Completed after 2 iterations at t[s]:   1839.46
	Linear fluid (dielectric constant: 78.4, screening length: 5.74355 Bohr) occupying 0.767647 of unit cell:	Completed after 0 iterations at t[s]:   1851.34
	FillingsUpdate:  mu: -0.171251800  nElectrons: 415.459707
	SubspaceRotationAdjust: set factor to 0.0742
ElecMinimize: Iter:   7  G: -1231.859316709599625  |grad|_K:  2.431e-07  alpha:  5.763e-01  linmin: -4.905e-05  t[s]:   1863.42
	Linear fluid (dielectric constant: 78.4, screening length: 5.74355 Bohr) occupying 0.767631 of unit cell:	Completed after 0 iterations at t[s]:   1870.49
	Linear fluid (dielectric constant: 78.4, screening length: 5.74355 Bohr) occupying 0.767631 of unit cell:	Completed after 0 iterations at t[s]:   1881.83
	FillingsUpdate:  mu: -0.171251800  nElectrons: 415.458384
	SubspaceRotationAdjust: set factor to 0.08
ElecMinimize: Iter:   8  G: -1231.859321582340726  |grad|_K:  1.556e-07  alpha:  5.913e-01  linmin: -9.964e-08  t[s]:   1893.97
	Linear fluid (dielectric constant: 78.4, screening length: 5.74355 Bohr) occupying 0.767610 of unit cell:	Completed after 2 iterations at t[s]:   1902.32
	Linear fluid (dielectric constant: 78.4, screening length: 5.74355 Bohr) occupying 0.767612 of unit cell:	Completed after 0 iterations at t[s]:   1914.06
	FillingsUpdate:  mu: -0.171251800  nElectrons: 415.456846
	SubspaceRotationAdjust: set factor to 0.0917
ElecMinimize: Iter:   9  G: -1231.859323336784200  |grad|_K:  9.357e-08  alpha:  5.320e-01  linmin: -2.341e-03  t[s]:   1925.83
	Linear fluid (dielectric constant: 78.4, screening length: 5.74355 Bohr) occupying 0.767609 of unit cell:	Completed after 0 iterations at t[s]:   1934.24
	Linear fluid (dielectric constant: 78.4, screening length: 5.74355 Bohr) occupying 0.767607 of unit cell:	Completed after 2 iterations at t[s]:   1945.99
	FillingsUpdate:  mu: -0.171251800  nElectrons: 415.456429
	SubspaceRotationAdjust: set factor to 0.108
ElecMinimize: Iter:  10  G: -1231.859324166706756  |grad|_K:  7.916e-08  alpha:  7.402e-01  linmin:  2.013e-03  t[s]:   1958.50
	Linear fluid (dielectric constant: 78.4, screening length: 5.74355 Bohr) occupying 0.767603 of unit cell:	Completed after 0 iterations at t[s]:   1968.90
	Linear fluid (dielectric constant: 78.4, screening length: 5.74355 Bohr) occupying 0.767604 of unit cell:	Completed after 0 iterations at t[s]:   1979.92
	FillingsUpdate:  mu: -0.171251800  nElectrons: 415.456096
	SubspaceRotationAdjust: set factor to 0.136
ElecMinimize: Iter:  11  G: -1231.859324645762626  |grad|_K:  6.586e-08  alpha:  6.310e-01  linmin: -4.100e-07  t[s]:   1992.24
	Linear fluid (dielectric constant: 78.4, screening length: 5.74355 Bohr) occupying 0.767599 of unit cell:	Completed after 2 iterations at t[s]:   2000.60
[...]
	Linear fluid (dielectric constant: 78.4, screening length: 5.74355 Bohr) occupying 0.767782 of unit cell:	Completed after 0 iterations at t[s]:  38387.97
ElecMinimize: 	Wrong curvature in test step, increasing alphaT to 3.369264e-01.
	Linear fluid (dielectric constant: 78.4, screening length: 5.74355 Bohr) occupying 0.767782 of unit cell:	Completed after 0 iterations at t[s]:  38398.91
	FillingsUpdate:  mu: -0.171251800  nElectrons: 415.493095
	SubspaceRotationAdjust: set factor to 0.0403
ElecMinimize: Iter:  27  G: -1231.861779679452638  |grad|_K:  1.942e-08  alpha: -7.873e-01  linmin: -4.898e-02  t[s]:  38413.91
	Linear fluid (dielectric constant: 78.4, screening length: 5.74355 Bohr) occupying 0.767759 of unit cell:	Completed after 2 iterations at t[s]:  38424.77
	Linear fluid (dielectric constant: 78.4, screening length: 5.74355 Bohr) occupying 0.767775 of unit cell:	Completed after 0 iterations at t[s]:  38436.81
	FillingsUpdate:  mu: -0.171251800  nElectrons: 415.492523
	SubspaceRotationAdjust: set factor to 0.0335
ElecMinimize: Iter:  28  G: -1231.861779724436019  |grad|_K:  2.416e-08  alpha:  3.063e-01  linmin:  2.185e-02  t[s]:  38450.67
ElecMinimize: 	Bad step direction: g.d > 0.
ElecMinimize: 	Undoing step.
	Linear fluid (dielectric constant: 78.4, screening length: 5.74355 Bohr) occupying 0.767775 of unit cell:	Completed after 0 iterations at t[s]:  38460.36
ElecMinimize: 	Step failed: resetting search direction.
	FillingsUpdate:  mu: -0.171251800  nElectrons: 415.492523
	SubspaceRotationAdjust: set factor to 0.0419
ElecMinimize: Iter:  29  G: -1231.861779724431017  |grad|_K:  2.324e-08  alpha:  0.000e+00
	Linear fluid (dielectric constant: 78.4, screening length: 5.74355 Bohr) occupying 0.767779 of unit cell:	Completed after 0 iterations at t[s]:  38484.96
	Linear fluid (dielectric constant: 78.4, screening length: 5.74355 Bohr) occupying 0.767784 of unit cell:	Completed after 0 iterations at t[s]:  38497.66
	FillingsUpdate:  mu: -0.171251800  nElectrons: 415.493228
	SubspaceRotationAdjust: set factor to 0.0532
ElecMinimize: Iter:  30  G: -1231.861779778005939  |grad|_K:  3.091e-08  alpha:  7.066e-01  linmin: -5.678e-04  t[s]:  38511.95
	Linear fluid (dielectric constant: 78.4, screening length: 5.74355 Bohr) occupying 0.767811 of unit cell:	Completed after 2 iterations at t[s]:  38521.58
	Linear fluid (dielectric constant: 78.4, screening length: 5.74355 Bohr) occupying 0.767788 of unit cell:	Completed after 1 iterations at t[s]:  38535.07
ElecMinimize: 	Step increased G by 9.796941e-08, reducing alpha to 1.067065e-02.
	Linear fluid (dielectric constant: 78.4, screening length: 5.74355 Bohr) occupying 0.767784 of unit cell:	Completed after 0 iterations at t[s]:  38558.77
ElecMinimize: 	Step increased G by 4.917592e-08, reducing alpha to 1.067065e-03.
	Linear fluid (dielectric constant: 78.4, screening length: 5.74355 Bohr) occupying 0.767784 of unit cell:	Completed after 0 iterations at t[s]:  38584.41
ElecMinimize: 	Step increased G by 6.463233e-08, reducing alpha to 1.067065e-04.
ElecMinimize: 	Step failed to reduce G after 3 attempts. Quitting step.
ElecMinimize: 	Undoing step.
	Linear fluid (dielectric constant: 78.4, screening length: 5.74355 Bohr) occupying 0.767784 of unit cell:	Completed after 0 iterations at t[s]:  38610.47
ElecMinimize: 	Step failed: resetting search direction.
	FillingsUpdate:  mu: -0.171251800  nElectrons: 415.493231
	SubspaceRotationAdjust: set factor to 0.0455
ElecMinimize: Iter:  31  G: -1231.861779713398846  |grad|_K:  4.432e-08  alpha:  1.067e-04
	Linear fluid (dielectric constant: 78.4, screening length: 5.74355 Bohr) occupying 0.767762 of unit cell:	Completed after 2 iterations at t[s]:  38633.26
	Linear fluid (dielectric constant: 78.4, screening length: 5.74355 Bohr) occupying 0.767775 of unit cell:	Completed after 0 iterations at t[s]:  38648.04
	FillingsUpdate:  mu: -0.171251800  nElectrons: 415.492556
	SubspaceRotationAdjust: set factor to 0.025
ElecMinimize: Iter:  32  G: -1231.861779762288506  |grad|_K:  2.232e-08  alpha:  2.776e-01  linmin:  4.987e-02  t[s]:  38663.26
	Linear fluid (dielectric constant: 78.4, screening length: 5.74355 Bohr) occupying 0.767778 of unit cell:	Completed after 0 iterations at t[s]:  38673.30
ElecMinimize: 	Predicted alpha/alphaT>3.000000, increasing alphaT to 8.326891e-01.
	Linear fluid (dielectric constant: 78.4, screening length: 5.74355 Bohr) occupying 0.767784 of unit cell:	Completed after 0 iterations at t[s]:  38688.53
	Linear fluid (dielectric constant: 78.4, screening length: 5.74355 Bohr) occupying 0.767799 of unit cell:	Completed after 1 iterations at t[s]:  38704.18
ElecMinimize: 	Step increased G by 1.589508e-07, reducing alpha to 2.386725e-01.
	Linear fluid (dielectric constant: 78.4, screening length: 5.74355 Bohr) occupying 0.767778 of unit cell:	Completed after 1 iterations at t[s]:  38729.41
ElecMinimize: 	Step increased G by 1.737226e-08, reducing alpha to 2.386725e-02.
	Linear fluid (dielectric constant: 78.4, screening length: 5.74355 Bohr) occupying 0.767775 of unit cell:	Completed after 0 iterations at t[s]:  38753.22
ElecMinimize: 	Step increased G by 7.301878e-09, reducing alpha to 2.386725e-03.
ElecMinimize: 	Step failed to reduce G after 3 attempts. Quitting step.
ElecMinimize: 	Undoing step.
	Linear fluid (dielectric constant: 78.4, screening length: 5.74355 Bohr) occupying 0.767775 of unit cell:	Completed after 0 iterations at t[s]:  38777.36
ElecMinimize: 	Step failed: resetting search direction.
	FillingsUpdate:  mu: -0.171251800  nElectrons: 415.492573
	SubspaceRotationAdjust: set factor to 0.0176
	SubspaceRotationAdjust: resetting CG because factor has changed by 0.106251
	Linear fluid (dielectric constant: 78.4, screening length: 5.74355 Bohr) occupying 0.767775 of unit cell:	Completed after 0 iterations at t[s]:  38804.18
ElecMinimize: 	State modified externally: resetting search direction.
ElecMinimize: Iter:  33  G: -1231.861779755095540  |grad|_K:  2.991e-08  alpha:  2.387e-03
	Linear fluid (dielectric constant: 78.4, screening length: 5.74355 Bohr) occupying 0.767772 of unit cell:	Completed after 0 iterations at t[s]:  38828.93
	Linear fluid (dielectric constant: 78.4, screening length: 5.74355 Bohr) occupying 0.767772 of unit cell:	Completed after 0 iterations at t[s]:  38843.13
	FillingsUpdate:  mu: -0.171251800  nElectrons: 415.492292
	SubspaceRotationAdjust: set factor to 0.0154
ElecMinimize: Iter:  34  G: -1231.861779792934385  |grad|_K:  2.006e-08  alpha:  2.926e-01  linmin:  2.070e-02  t[s]:  38857.59
	Linear fluid (dielectric constant: 78.4, screening length: 5.74355 Bohr) occupying 0.767769 of unit cell:	Completed after 0 iterations at t[s]:  38868.18
	Linear fluid (dielectric constant: 78.4, screening length: 5.74355 Bohr) occupying 0.767765 of unit cell:	Completed after 1 iterations at t[s]:  38882.01
ElecMinimize: 	Step increased G by 8.801021e-08, reducing alpha to 8.353366e-02.
	Linear fluid (dielectric constant: 78.4, screening length: 5.74355 Bohr) occupying 0.767771 of unit cell:	Completed after 0 iterations at t[s]:  38907.59
ElecMinimize: 	Step increased G by 5.752599e-08, reducing alpha to 8.353366e-03.
	Linear fluid (dielectric constant: 78.4, screening length: 5.74355 Bohr) occupying 0.767772 of unit cell:	Completed after 0 iterations at t[s]:  38932.59
ElecMinimize: 	Step increased G by 5.673860e-08, reducing alpha to 8.353366e-04.
ElecMinimize: 	Step failed to reduce G after 3 attempts. Quitting step.
ElecMinimize: 	Undoing step.
	Linear fluid (dielectric constant: 78.4, screening length: 5.74355 Bohr) occupying 0.767772 of unit cell:	Completed after 0 iterations at t[s]:  38956.39
ElecMinimize: 	Step failed: resetting search direction.
	FillingsUpdate:  mu: -0.171251800  nElectrons: 415.492287
	SubspaceRotationAdjust: set factor to 0.018
ElecMinimize: Iter:  35  G: -1231.861779736224662  |grad|_K:  8.588e-09  alpha:  8.353e-04
	Linear fluid (dielectric constant: 78.4, screening length: 5.74355 Bohr) occupying 0.767772 of unit cell:	Completed after 0 iterations at t[s]:  38981.77
ElecMinimize: 	Predicted alpha/alphaT>3.000000, increasing alphaT to 8.776924e-01.
	Linear fluid (dielectric constant: 78.4, screening length: 5.74355 Bohr) occupying 0.767772 of unit cell:	Completed after 0 iterations at t[s]:  38993.90
	Linear fluid (dielectric constant: 78.4, screening length: 5.74355 Bohr) occupying 0.767772 of unit cell:	Completed after 0 iterations at t[s]:  39006.27
	FillingsUpdate:  mu: -0.171251800  nElectrons: 415.492341
	SubspaceRotationAdjust: set factor to 0.0207
ElecMinimize: Iter:  36  G: -1231.861779748472827  |grad|_K:  1.321e-08  alpha:  1.303e+00  linmin:  5.844e-03  t[s]:  39021.86
	Linear fluid (dielectric constant: 78.4, screening length: 5.74355 Bohr) occupying 0.767774 of unit cell:	Completed after 0 iterations at t[s]:  39031.98
	Linear fluid (dielectric constant: 78.4, screening length: 5.74355 Bohr) occupying 0.767773 of unit cell:	Completed after 0 iterations at t[s]:  39043.75
ElecMinimize: 	Step increased G by 1.113949e-08, reducing alpha to 4.161581e-02.
	Linear fluid (dielectric constant: 78.4, screening length: 5.74355 Bohr) occupying 0.767772 of unit cell:	Completed after 0 iterations at t[s]:  39064.19
ElecMinimize: 	Step increased G by 1.813328e-08, reducing alpha to 4.161581e-03.
	Linear fluid (dielectric constant: 78.4, screening length: 5.74355 Bohr) occupying 0.767772 of unit cell:	Completed after 0 iterations at t[s]:  39076.75
ElecMinimize: 	Step increased G by 1.925901e-08, reducing alpha to 4.161581e-04.
ElecMinimize: 	Step failed to reduce G after 3 attempts. Quitting step.
ElecMinimize: 	Undoing step.
	Linear fluid (dielectric constant: 78.4, screening length: 5.74355 Bohr) occupying 0.767772 of unit cell:	Completed after 0 iterations at t[s]:  39089.32
ElecMinimize: 	Step failed: resetting search direction.
	FillingsUpdate:  mu: -0.171251800  nElectrons: 415.492342
	SubspaceRotationAdjust: set factor to 0.0242
ElecMinimize: Iter:  37  G: -1231.861779729182672  |grad|_K:  1.319e-08  alpha:  4.162e-04
	Linear fluid (dielectric constant: 78.4, screening length: 5.74355 Bohr) occupying 0.767773 of unit cell:	Completed after 0 iterations at t[s]:  39102.89
	Linear fluid (dielectric constant: 78.4, screening length: 5.74355 Bohr) occupying 0.767773 of unit cell:	Completed after 0 iterations at t[s]:  39109.69
	FillingsUpdate:  mu: -0.171251800  nElectrons: 415.492354
	SubspaceRotationAdjust: set factor to 0.0213
ElecMinimize: Iter:  38  G: -1231.861779737605502  |grad|_K:  7.878e-09  alpha:  3.550e-01  linmin: -5.758e-04  t[s]:  39117.28
	Linear fluid (dielectric constant: 78.4, screening length: 5.74355 Bohr) occupying 0.767773 of unit cell:	Completed after 0 iterations at t[s]:  39123.18
	Linear fluid (dielectric constant: 78.4, screening length: 5.74355 Bohr) occupying 0.767773 of unit cell:	Completed after 0 iterations at t[s]:  39130.09
	FillingsUpdate:  mu: -0.171251800  nElectrons: 415.492410
	SubspaceRotationAdjust: set factor to 0.0281
ElecMinimize: Iter:  39  G: -1231.861779746760249  |grad|_K:  1.089e-08  alpha:  1.004e+00  linmin: -1.123e-03  t[s]:  39137.56
ElecMinimize: Converged (|Delta G|<1.000000e-08 for 2 iters).
Setting wave functions to eigenvectors of Hamiltonian

# Ionic positions in lattice coordinates:
ion Ta   0.170974051260658   0.084251389004829   0.503868809278205 1
ion Ta   0.417702417876232   0.084410894804354   0.504424990836826 1
ion Ta   0.669781565253832   0.084591285932098   0.504616596336285 1
ion Ta   0.919119730154337   0.084601741284441   0.504322604928375 1
ion Ta   0.169371354521626   0.334377147114415   0.504260385300409 1
ion Ta   0.413309373467128   0.322431562635549   0.504851394839760 1
ion Ta   0.669732326949177   0.334247253102274   0.504335406189584 1
ion Ta   0.919104675426623   0.333885377016085   0.504393906567171 1
ion Ta   0.170946797227776   0.586024938734530   0.504182488806453 1
ion Ta   0.413290839398403   0.590147477158318   0.504866210170595 1
ion Ta   0.681013510204976   0.590227782928228   0.504418575133716 1
ion Ta   0.919269761797606   0.586017316749594   0.504110600335559 1
ion Ta   0.169487485088374   0.834405203702310   0.504042999253747 1
ion Ta   0.417735657445868   0.832606620580865   0.504643974607803 1
ion Ta   0.669658801355065   0.834810598044449   0.504505191709285 1
ion Ta   0.919300751104922   0.832625540398999   0.503995245551591 1
ion S   0.003043430961382   0.000685067556792   0.589667007957006 1
ion S   0.002742598914106   0.000826140354894   0.418320992181435 1
ion S   0.251957979648303   1.000005885446902   0.590921027997749 1
ion S   0.252585068659026   0.000295597706323   0.417228345655350 1
ion S   0.502053305266760   0.000776536710704   0.590208026585501 1
ion S   0.502254013416215   0.000704868063448   0.418909514927314 1
ion S   0.752920587145869   0.001236324313584   0.590943641584176 1
ion S   0.752633924828354   0.001268586488148   0.418028512219275 1
ion S   0.002719054536757   0.251014257075720   0.590718686306871 1
ion S   0.002524490503349   0.250985406940797   0.417914053686792 1
ion S   0.250019966399845   0.249371168416249   0.591371092118119 1
ion S   0.251233588683035   0.250512405874878   0.416994145230567 1
ion S   0.503997336877775   0.249954454926248   0.591700010269199 1
ion S   0.503693763933487   0.250406065964163   0.417382494447733 1
ion S   0.752844326393547   0.251095436760594   0.590917736760029 1
ion S   0.752731284001948   0.250730614706591   0.417973331318729 1
ion S   0.002904483461562   0.501633894946626   0.589858406147221 1
ion S   0.002840204262466   0.501349256886408   0.418519718730870 1
ion S   0.250163582346307   0.499934875401600   0.591513488883761 1
ion S   0.251137349880869   0.500169914197282   0.417120016459223 1
ion S   0.504261824736196   0.501706848275360   0.580403822639576 1
ion S   0.502358109652849   0.500845633905983   0.427153478329329 1
ion S   0.753924885977376   0.499974340481104   0.591531706238207 1
ion S   0.753207876703126   0.499886559253856   0.417058345337870 1
ion S   0.003654530661510   0.751556292117345   0.590807173161054 1
ion S   0.003526907385839   0.751384608461406   0.417192009814325 1
ion S   0.251940097452812   0.751404613563366   0.591099785119503 1
ion S   0.252631192868428   0.751499276819229   0.417435506005646 1
ion S   0.503876479654252   0.753069187411662   0.591922132160335 1
ion S   0.503676575775028   0.752659216782176   0.417534122844577 1
ion S   0.754069038113157   0.753344423765779   0.591558651468174 1
ion S   0.753092917879963   0.752731982261861   0.417069573490132 1
ion O   0.529753153256680   0.516698720090021   0.673011890918409 1
ion O   0.420916754199764   0.462911165038099   0.715828850839112 1
ion H   0.422540326029461   0.394968269843451   0.736932870321547 1


# Forces in Lattice coordinates:
force Ta  -0.001872613798900   0.002936899708830   0.000794316458124 1
force Ta   0.004959219949224  -0.000412587689030  -0.000722920114982 1
force Ta   0.000302650958957  -0.000999165447512  -0.004417907176456 1
force Ta  -0.000805595590457  -0.000708243697641  -0.003646562284380 1
force Ta  -0.000663115147158  -0.000905655113011   0.002595266895562 1
force Ta   0.000569836144926  -0.000618834929346   0.003917545787969 1
force Ta   0.001548334153200  -0.002778649436501   0.003879470725298 1
force Ta  -0.001214688048564   0.000501507727049  -0.003780270142939 1
force Ta   0.000844189728357  -0.003057273043166  -0.001568469650617 1
force Ta   0.001549361698380  -0.000944285247465   0.004582966629522 1
force Ta   0.000950440485934  -0.000013465168428   0.000539165764817 1
force Ta  -0.003481509912095  -0.001606488635964   0.000676725297730 1
force Ta   0.000079474785532  -0.000184761474821  -0.003436561819146 1
force Ta   0.004975583348549  -0.000405111891730  -0.001343814438685 1
force Ta  -0.000706812609353   0.001686269116243   0.003099752854291 1
force Ta  -0.005001341020033   0.000987125057892   0.001873233149062 1
force S   0.000212007159574  -0.000334163847451   0.002601828216835 1
force S   0.001015164869238  -0.000605912567530   0.006647609517290 1
force S   0.000848159357104  -0.001073068472402   0.003321947446816 1
force S  -0.000420789424323  -0.000029058616518   0.004168126809706 1
force S   0.000848667644022  -0.000562021237347  -0.000876263953583 1
force S   0.000294608189639  -0.000209514002268   0.003853124097990 1
force S   0.000572180692511  -0.001482847216727  -0.000605467894394 1
force S   0.001181335918932  -0.001525393666016   0.004221068085851 1
force S   0.001371277591937   0.000073439266779   0.000495086414132 1
force S   0.001532283398285  -0.000331736762671   0.004421134254064 1
force S   0.000317106225533   0.001519561546661   0.004547684210137 1
force S   0.001013441488172  -0.000421613263677   0.005915691368698 1
force S  -0.001125419367378   0.001056354094777   0.002735235482891 1
force S  -0.001293990458180   0.000752562928295   0.005643600625068 1
force S   0.000008901998800   0.000464849459937  -0.000940075509887 1
force S  -0.000044674207236   0.000727590659547   0.005269701926683 1
force S   0.000330780138898   0.000785116328958   0.001382678667277 1
force S   0.000660036443989   0.000873433019202   0.003389084327248 1
force S   0.000794387057741   0.000052012902079   0.003155285139080 1
force S   0.001508557895828  -0.000060952342738   0.002440968274994 1
force S   0.000239823146353   0.001955726587638   0.003439402134203 1
force S   0.000088702196069   0.000583689023320  -0.006017294227077 1
force S  -0.001906598930088   0.001602376095287   0.000319155443598 1
force S   0.000705632676468   0.000373709327757   0.004647897070486 1
force S   0.000454852893495  -0.000148997471723   0.004412762702974 1
force S  -0.000419332077774   0.000444370932140   0.002494020419319 1
force S  -0.000124349151880   0.000655275431147   0.001985727620623 1
force S  -0.000341109297018   0.000447215074609   0.001474049837854 1
force S  -0.000344909594882  -0.000644638511741   0.001727334887802 1
force S  -0.000180703572389  -0.000782434838808   0.002880832205133 1
force S  -0.001248555957915  -0.001196890869835  -0.000168604977743 1
force S   0.000846091617246  -0.000227992092538   0.005211544059507 1
force O   0.004879196681429  -0.004367637026852  -0.002843080235902 1
force O   0.006798813850072  -0.003704869100186   0.008213538909177 1
force H  -0.005844578328009   0.007273349690020  -0.001313830317829 1

# Energy components:
   A_diel =       -0.4148336780121993
   Eewald =     7615.7452921300609887
       EH =     8741.0939335903331084
     Eloc =   -17675.1273686453278060
      Enl =     -218.5246889117755700
      Exc =     -481.6347408038497520
 Exc_core =      252.7126116280379051
       KE =      463.2357110771257567
  MuShift =       -0.0271587029222323
-------------------------------------
     Etot =    -1302.9412423163287258
       TS =        0.0743605530056815
-------------------------------------
        F =    -1303.0156028693343160
      muN =      -71.1538231225739679
-------------------------------------
        G =    -1231.8617797467602486

IonicMinimize: Iter:  31  G: -1231.861779746760249  |grad|_K:  7.837e-05  alpha:  2.819e-01  linmin:  6.678e-02  t[s]:  39144.90
IonicMinimize: Converged (|grad|_K<1.000000e-04).

#--- Lowdin population analysis ---
# oxidation-state Ta -0.438 -0.437 -0.429 -0.428 -0.443 -0.503 -0.442 -0.428 -0.437 -0.498 -0.489 -0.437 -0.439 -0.436 -0.441 -0.437
# oxidation-state S +0.177 +0.176 +0.192 +0.191 +0.176 +0.177 +0.187 +0.188 +0.186 +0.187 +0.208 +0.193 +0.192 +0.197 +0.186 +0.189 +0.177 +0.176 +0.211 +0.193 +0.807 +0.215 +0.197 +0.195 +0.192 +0.191 +0.193 +0.192 +0.196 +0.197 +0.198 +0.194
# oxidation-state O -0.268 -0.348
# oxidation-state H +0.472


Dumping 'NbTe2.fillings' ... done
Dumping 'NbTe2.wfns' ... done
Dumping 'NbTe2.fluidState' ... done
Dumping 'NbTe2.ionpos' ... done
Dumping 'NbTe2.eigenvals' ... done
End date and time: Fri Sep 11 19:48:54 2020  (Duration: 0-10:52:29.07)
Done!
