
*************** JDFTx 1.5.0  ***************

Start date and time: Mon Dec 28 12:46:55 2020
Executable jdftx_gpu with command-line: -i Charged.in -o Charged.out
Running on hosts (process indices):  amax (0-4)
Divided in process groups (process indices):  0 (0)  1 (1)  2 (2)  3 (3)  4 (4)
gpuInit: Found compatible cuda device 0 'Tesla K80'
gpuInit: Found compatible cuda device 1 'Tesla K80'
gpuInit: Found compatible cuda device 2 'Tesla K80'
gpuInit: Found compatible cuda device 3 'Tesla K80'
gpuInit: Found compatible cuda device 4 'Tesla K80'
gpuInit: Selected device 0
Resource initialization completed at t[s]:      2.84
Run totals: 5 processes, 24 threads, 5 GPUs


Input parsed successfully to the following command list (including defaults):

basis kpoint-dependent
cache-projectors no
coords-type Lattice
core-overlap-check none
coulomb-interaction Slab 001
coulomb-truncation-embed 0.5 0.5 0.5
davidson-band-ratio 1.1
dump End State
dump-name NbTe2.$VAR
elec-cutoff 20
elec-eigen-algo Davidson
elec-ex-corr gga-PBE
elec-initial-magnetization 5.000000 no
elec-smearing Gauss 0.0073499
electronic-minimize  \
	dirUpdateScheme      FletcherReeves \
	linminMethod         DirUpdateRecommended \
	nIterations          200 \
	history              15 \
	knormThreshold       0 \
	energyDiffThreshold  1e-08 \
	nEnergyDiff          2 \
	alphaTstart          1 \
	alphaTmin            1e-10 \
	updateTestStepSize   yes \
	alphaTreduceFactor   0.1 \
	alphaTincreaseFactor 3 \
	nAlphaAdjustMax      3 \
	wolfeEnergy          0.0001 \
	wolfeGradient        0.9 \
	fdTest               no
exchange-regularization WignerSeitzTruncated
fluid LinearPCM 298.000000 1.013250
fluid-anion F- 1 MeanFieldLJ \
	epsBulk 1 \
	pMol 0 \
	epsInf 1 \
	Pvap 0 \
	sigmaBulk 0 \
	Rvdw 2.24877 \
	Res 0 \
	tauNuc 343133
fluid-cation Na+ 1 MeanFieldLJ \
	epsBulk 1 \
	pMol 0 \
	epsInf 1 \
	Pvap 0 \
	sigmaBulk 0 \
	Rvdw 2.19208 \
	Res 0 \
	tauNuc 343133
fluid-ex-corr lda-TF lda-PZ
fluid-gummel-loop 10 1.000000e-05
fluid-minimize  \
	dirUpdateScheme      PolakRibiere \
	linminMethod         DirUpdateRecommended \
	nIterations          400 \
	history              15 \
	knormThreshold       1e-11 \
	energyDiffThreshold  0 \
	nEnergyDiff          2 \
	alphaTstart          1 \
	alphaTmin            1e-10 \
	updateTestStepSize   yes \
	alphaTreduceFactor   0.1 \
	alphaTincreaseFactor 3 \
	nAlphaAdjustMax      6 \
	wolfeEnergy          0.0001 \
	wolfeGradient        0.9 \
	fdTest               no
fluid-solvent H2O 55.338 ScalarEOS \
	epsBulk 78.4 \
	pMol 0.92466 \
	epsInf 1.77 \
	Pvap 1.06736e-10 \
	sigmaBulk 4.62e-05 \
	Rvdw 2.61727 \
	Res 1.42 \
	tauNuc 343133 \
	poleEl 15 7 1
forces-output-coords Positions
initial-state NbTe2.$VAR
ion Mo   0.083329995000000   0.166669988999999   0.500000000000000 1
ion Mo   0.333329995000000   0.166669988999999   0.500000000000000 1
ion Mo   0.583329956999997   0.166669988999999   0.500000000000000 1
ion Mo   0.833329995000000   0.166669988999999   0.500000000000000 1
ion Mo   0.083329990000003   0.416669995000000   0.500000000000000 1
ion Mo   0.333329999000000   0.416669995000000   0.500000000000000 1
ion Mo   0.583329962000001   0.416669995000000   0.500000000000000 1
ion Mo   0.833329962000001   0.416669995000000   0.500000000000000 1
ion Mo   0.083329999000000   0.666669988999999   0.500000000000000 1
ion Mo   0.333329999000000   0.666669988999999   0.500000000000000 1
ion Mo   0.583329960999997   0.666669988999999   0.500000000000000 1
ion Mo   0.833329960999997   0.666669988999999   0.500000000000000 1
ion Mo   0.083329998000003   0.916669982999998   0.500000000000000 1
ion Mo   0.333329998000004   0.916669982999998   0.500000000000000 1
ion Mo   0.583329960000000   0.916669982999998   0.500000000000000 1
ion Mo   0.833329960000000   0.916669982999998   0.500000000000000 1
ion S   0.166669999000000   0.083329994000003   0.586509993999996 1
ion S   0.166669999000000   0.083329994000003   0.413490006000004 1
ion S   0.416669999000000   0.083329994000003   0.586509993999996 1
ion S   0.416669999000000   0.083329994000003   0.413490006000004 1
ion S   0.666670037000003   0.083329994000003   0.586509993999996 1
ion S   0.666670037000003   0.083329994000003   0.413490006000004 1
ion S   0.916670037000003   0.083329994000003   0.586509993999996 1
ion S   0.916670037000003   0.083329994000003   0.413490006000004 1
ion S   0.166669999000000   0.333329988000003   0.586509993999996 1
ion S   0.166669999000000   0.333329988000003   0.413490006000004 1
ion S   0.416669999000000   0.333329988000003   0.586509993999996 1
ion S   0.416669999000000   0.333329988000003   0.413490006000004 1
ion S   0.666670035999999   0.333329988000003   0.586509993999996 1
ion S   0.666670035999999   0.333329988000003   0.413490006000004 1
ion S   0.916669999000000   0.333329988000003   0.586509993999996 1
ion S   0.916669999000000   0.333329988000003   0.413490006000004 1
ion S   0.166669998000003   0.583329982000002   0.586509993999996 1
ion S   0.166669998000003   0.583329982000002   0.413490006000004 1
ion S   0.416669998000003   0.583329982000002   0.586509993999996 1
ion S   0.416669998000003   0.583329982000002   0.413490006000004 1
ion S   0.666670035999999   0.583329982000002   0.586509993999996 1
ion S   0.666670035999999   0.583329982000002   0.413490006000004 1
ion S   0.916670035999999   0.583329982000002   0.586509993999996 1
ion S   0.916670035999999   0.583329982000002   0.413490006000004 1
ion S   0.166669997000000   0.833329976000002   0.586509993999996 1
ion S   0.166669997000000   0.833329976000002   0.413490006000004 1
ion S   0.416669997000000   0.833329976000002   0.586509993999996 1
ion S   0.416669997000000   0.833329976000002   0.413490006000004 1
ion S   0.666670035000003   0.833329976000002   0.586509993999996 1
ion S   0.666670035000003   0.833329976000002   0.413490006000004 1
ion S   0.916670035000003   0.833329976000002   0.586509993999996 1
ion S   0.916670035000003   0.833329976000002   0.413490006000004 1
ion-species GBRV/$ID_pbe.uspp
ion-width Ecut
ionic-minimize  \
	dirUpdateScheme      L-BFGS \
	linminMethod         DirUpdateRecommended \
	nIterations          500 \
	history              15 \
	knormThreshold       0.0001 \
	energyDiffThreshold  1e-06 \
	nEnergyDiff          2 \
	alphaTstart          1 \
	alphaTmin            1e-10 \
	updateTestStepSize   yes \
	alphaTreduceFactor   0.1 \
	alphaTincreaseFactor 3 \
	nAlphaAdjustMax      3 \
	wolfeEnergy          0.0001 \
	wolfeGradient        0.9 \
	fdTest               no
kpoint   0.000000000000   0.000000000000   0.000000000000  1.00000000000000
kpoint-folding 3 3 1 
latt-move-scale 1 1 1
latt-scale 1.88973 1.88973 1.88973 
lattice Triclinic 12.6478 12.6478 18.1298 90 90 120
lattice-minimize  \
	dirUpdateScheme      L-BFGS \
	linminMethod         DirUpdateRecommended \
	nIterations          0 \
	history              15 \
	knormThreshold       0 \
	energyDiffThreshold  1e-06 \
	nEnergyDiff          2 \
	alphaTstart          1 \
	alphaTmin            1e-10 \
	updateTestStepSize   yes \
	alphaTreduceFactor   0.1 \
	alphaTincreaseFactor 3 \
	nAlphaAdjustMax      3 \
	wolfeEnergy          0.0001 \
	wolfeGradient        0.9 \
	fdTest               no
lcao-params -1 1e-06 0.0073499
pcm-variant CANDLE
spintype z-spin
subspace-rotation-factor 1 yes
symmetries automatic
symmetry-threshold 0.0001
target-mu -0.171252 no




---------- Setting up symmetries ----------

Found 24 point-group symmetries of the bravais lattice
Found 64 space-group symmetries with basis
Applied RMS atom displacement 4.95407e-07 bohrs to make symmetries exact.

---------- Initializing the Grid ----------
R = 
[    23.9009   -11.9504          0  ]
[          0    20.6988          0  ]
[          0          0    34.2604  ]
unit cell volume = 16949.3
G =
[   0.262885   0.151776         -0  ]
[          0   0.303553          0  ]
[          0         -0   0.183395  ]
Minimum fftbox size, Smin = [  100  100  140  ]
Chosen fftbox size, S = [  100  100  140  ]

---------- Exchange Correlation functional ----------
Initalized PBE GGA exchange.
Initalized PBE GGA correlation.

---------- Setting up pseudopotentials ----------
Width of ionic core gaussian charges (only for fluid interactions / plotting) set to 0.397384

Reading pseudopotential file '/home/guoxy/vasp/jdftx-1.5.0/build/pseudopotentials/GBRV/mo_pbe.uspp':
  Title: Mo.  Created by USPP 7.3.6 on 14-9-2013
  Reference state energy: -69.261020.  14 valence electrons in orbitals:
    |400>  occupation: 2  eigenvalue: -2.465796
    |410>  occupation: 6  eigenvalue: -1.510132
    |420>  occupation: 4  eigenvalue: -0.207728
    |500>  occupation: 2  eigenvalue: -0.179278
    |510>  occupation: 0  eigenvalue: -0.052696
  lMax: 2  lLocal: 3  QijEcut: 5
  6 projectors sampled on a log grid with 629 points:
    l: 0  eig: -2.465797  rCut: 1.8
    l: 0  eig: -0.179280  rCut: 1.8
    l: 1  eig: -1.510132  rCut: 2
    l: 1  eig: 0.150000  rCut: 2
    l: 2  eig: -0.052696  rCut: 2.2
    l: 2  eig: 0.150000  rCut: 2.2
  Partial core density with radius 1.2
  Transforming core density to a uniform radial grid of dG=0.02 with 1468 points.
  Transforming local potential to a uniform radial grid of dG=0.02 with 1468 points.
  Transforming nonlocal projectors to a uniform radial grid of dG=0.02 with 432 points.
  Transforming density augmentations to a uniform radial grid of dG=0.02 with 1468 points.
  Transforming atomic orbitals to a uniform radial grid of dG=0.02 with 432 points.
  Core radius for overlap checks: 2.20 bohrs.

Reading pseudopotential file '/home/guoxy/vasp/jdftx-1.5.0/build/pseudopotentials/GBRV/s_pbe.uspp':
  Title: S.  Created by USPP 7.3.6 on 1-4-15
  Reference state energy: -11.898476.  6 valence electrons in orbitals:
    |300>  occupation: 2  eigenvalue: -0.634167
    |310>  occupation: 4  eigenvalue: -0.257568
  lMax: 2  lLocal: 3  QijEcut: 6
  6 projectors sampled on a log grid with 635 points:
    l: 0  eig: -0.634161  rCut: 1.5
    l: 0  eig: 1.500000  rCut: 1.5
    l: 1  eig: -0.257567  rCut: 1.5
    l: 1  eig: 1.500000  rCut: 1.5
    l: 2  eig: -1.000000  rCut: 1.5
    l: 2  eig: 1.500000  rCut: 1.5
  Partial core density with radius 1.15
  Transforming core density to a uniform radial grid of dG=0.02 with 1468 points.
  Transforming local potential to a uniform radial grid of dG=0.02 with 1468 points.
  Transforming nonlocal projectors to a uniform radial grid of dG=0.02 with 432 points.
  Transforming density augmentations to a uniform radial grid of dG=0.02 with 1468 points.
  Transforming atomic orbitals to a uniform radial grid of dG=0.02 with 432 points.
  Core radius for overlap checks: 1.50 bohrs.

Initialized 2 species with 48 total atoms.

Folded 1 k-points by 3x3x1 to 9 k-points.

---------- Setting up k-points, bands, fillings ----------
Adding inversion symmetry to k-mesh for non-inversion-symmetric unit cell.
Reduced to 4 k-points under symmetry. 
Computing the number of bands and number of electrons
Calculating initial fillings.
nElectrons: 416.000000   nBands: 336   nStates: 8

----- Setting up reduced wavefunction bases (one per k-point) -----
average nbasis = 72394.333 , ideal nbasis = 72408.503

---------- Setting up coulomb interaction ----------
Fluid mode embedding: using embedded box, but periodic Coulomb kernel.
(Fluid response is responsible for (approximate) separation between periodic images.)
Setting up double-sized grid for truncated Coulomb potentials:
R = 
[    23.9009   -11.9504          0  ]
[          0    20.6988          0  ]
[          0          0    68.5207  ]
unit cell volume = 33898.5
G =
[   0.262885   0.151776         -0  ]
[          0   0.303553          0  ]
[          0         -0  0.0916976  ]
Chosen fftbox size, S = [  100  100  280  ]
Integer grid location selected as the embedding center:
   Grid: [  50  50  70  ]
   Lattice: [  0.5  0.5  0.5  ]
   Cartesian: [  5.97524  10.3494  17.1302  ]
Constructing Wigner-Seitz cell: 8 faces (6 quadrilaterals, 2 hexagons)
Range-separation parameter for embedded mesh potentials due to point charges: 0.624082 bohrs.

Initializing van der Waals corrections
	NOTE: vdW corrections apply only for interactions with fluid.
	Mo:  C6:  427.91 Eh-a0^6  R0: 3.097 a0
	 S:  C6:   96.61 Eh-a0^6  R0: 3.180 a0

---------- Setting up ewald sum ----------
Optimum gaussian width for ewald sums = 6.772724 bohr.
Real space sum over 605 unit cells with max indices [  5  5  2  ]
Reciprocal space sum over 7875 terms with max indices [  7  7  17  ]

---------- Allocating electronic variables ----------
Initializing wave functions:  linear combination of atomic orbitals
Mo pseudo-atom occupations:   s ( 2 0 )  p ( 6 0 )  d ( 6 )
S pseudo-atom occupations:   s ( 2 )  p ( 4 )
	FillingsUpdate:  mu: -0.171251800  nElectrons: 416.000000  magneticMoment: [ Abs: 0.45672  Tot: +0.45579 ]
LCAOMinimize: Iter:   0  G: -1128.4761168574991643  |grad|_K:  2.554e-02  alpha:  1.000e+00
	FillingsUpdate:  mu: -0.171251800  nElectrons: 416.000000  magneticMoment: [ Abs: 0.77960  Tot: +0.71351 ]
LCAOMinimize: Iter:   1  G: -1256.3990609413608581  |grad|_K:  1.878e-02  alpha:  4.574e-01  linmin:  1.080e-01  cgtest: -9.211e-01  t[s]:    216.56
LCAOMinimize: 	Bad step direction: g.d > 0.
LCAOMinimize: 	Undoing step.
LCAOMinimize: 	Step failed: resetting search direction.
	FillingsUpdate:  mu: -0.171251800  nElectrons: 416.000000  magneticMoment: [ Abs: 0.77960  Tot: +0.71351 ]
LCAOMinimize: Iter:   2  G: -1256.3990609413608581  |grad|_K:  1.878e-02  alpha:  0.000e+00
	FillingsUpdate:  mu: -0.171251800  nElectrons: 416.000000  magneticMoment: [ Abs: 0.18364  Tot: +0.00753 ]
LCAOMinimize: Iter:   3  G: -1332.4707829718340690  |grad|_K:  1.028e-02  alpha:  2.042e-01  linmin: -3.496e-01  cgtest:  7.886e-01  t[s]:    331.57
LCAOMinimize: Encountered beta<0, resetting CG.
LCAOMinimize: 	Predicted alpha/alphaT>3.000000, increasing alphaT to 6.126338e-01.
	FillingsUpdate:  mu: -0.171251800  nElectrons: 416.000000  magneticMoment: [ Abs: 0.24043  Tot: +0.00154 ]
LCAOMinimize: Iter:   4  G: -1343.7228611713501323  |grad|_K:  8.551e-03  alpha:  1.110e-01  linmin: -3.651e-01  cgtest:  7.696e-01  t[s]:    418.98
LCAOMinimize: 	Predicted alpha/alphaT>3.000000, increasing alphaT to 3.331491e-01.
	FillingsUpdate:  mu: -0.171251800  nElectrons: 416.000000  magneticMoment: [ Abs: 0.31388  Tot: +0.00037 ]
LCAOMinimize: Iter:   5  G: -1351.4526175981193319  |grad|_K:  3.946e-03  alpha:  1.247e-01  linmin: -4.097e-01  cgtest:  8.006e-01  t[s]:    506.70
LCAOMinimize: Encountered beta<0, resetting CG.
	FillingsUpdate:  mu: -0.171251800  nElectrons: 416.000000  magneticMoment: [ Abs: 0.32125  Tot: +0.00186 ]
LCAOMinimize: Iter:   6  G: -1352.7063738031863522  |grad|_K:  8.356e-04  alpha:  1.969e-01  linmin:  3.913e-01  cgtest: -8.407e-01  t[s]:    574.19
LCAOMinimize: 	Bad step direction: g.d > 0.
LCAOMinimize: 	Undoing step.
LCAOMinimize: 	Step failed: resetting search direction.
	FillingsUpdate:  mu: -0.171251800  nElectrons: 416.000000  magneticMoment: [ Abs: 0.32125  Tot: +0.00186 ]
LCAOMinimize: Iter:   7  G: -1352.7063738031863522  |grad|_K:  8.356e-04  alpha:  0.000e+00
	FillingsUpdate:  mu: -0.171251800  nElectrons: 416.000000  magneticMoment: [ Abs: 0.27334  Tot: +0.00117 ]
LCAOMinimize: Iter:   8  G: -1352.7646893121450375  |grad|_K:  2.354e-04  alpha:  1.827e-01  linmin:  1.290e-01  cgtest: -2.956e-01  t[s]:    689.48
	FillingsUpdate:  mu: -0.171251800  nElectrons: 416.000000  magneticMoment: [ Abs: 0.18433  Tot: +0.00090 ]
LCAOMinimize: Iter:   9  G: -1352.7743123740267492  |grad|_K:  1.303e-04  alpha:  4.024e-01  linmin: -1.618e-01  cgtest:  8.908e-01  t[s]:    757.76
LCAOMinimize: Encountered beta<0, resetting CG.
	FillingsUpdate:  mu: -0.171251800  nElectrons: 416.000000  magneticMoment: [ Abs: 0.16548  Tot: +0.00085 ]
LCAOMinimize: Iter:  10  G: -1352.7751334837319064  |grad|_K:  5.159e-05  alpha:  1.547e-01  linmin: -2.845e-01  cgtest:  5.212e-01  t[s]:    823.00
LCAOMinimize: Encountered beta<0, resetting CG.
	FillingsUpdate:  mu: -0.171251800  nElectrons: 416.000000  magneticMoment: [ Abs: 0.12064  Tot: +0.00059 ]
LCAOMinimize: Iter:  11  G: -1352.7757468846859865  |grad|_K:  2.507e-05  alpha:  3.996e-01  linmin: -4.061e-01  cgtest:  9.803e-01  t[s]:    890.50
LCAOMinimize: Encountered beta<0, resetting CG.
LCAOMinimize: 	Wrong curvature in test step, increasing alphaT to 1.198744e+00.
	FillingsUpdate:  mu: -0.171251800  nElectrons: 416.000000  magneticMoment: [ Abs: 0.08802  Tot: +0.00039 ]
LCAOMinimize: Iter:  12  G: -1352.7760227376049897  |grad|_K:  1.319e-05  alpha: -9.579e-01  linmin: -3.542e-01  cgtest:  8.956e-01  t[s]:    957.33
LCAOMinimize: Encountered beta<0, resetting CG.
	FillingsUpdate:  mu: -0.171251800  nElectrons: 416.000000  magneticMoment: [ Abs: 0.00785  Tot: -0.00017 ]
LCAOMinimize: Iter:  13  G: -1352.7760609420895435  |grad|_K:  4.114e-05  alpha:  1.583e+00  linmin:  1.877e-01  cgtest: -5.736e-01  t[s]:   1024.62
LCAOMinimize: 	Bad step direction: g.d > 0.
LCAOMinimize: 	Undoing step.
LCAOMinimize: 	Step failed: resetting search direction.
	FillingsUpdate:  mu: -0.171251800  nElectrons: 416.000000  magneticMoment: [ Abs: 0.00785  Tot: -0.00017 ]
LCAOMinimize: Iter:  14  G: -1352.7760609420895435  |grad|_K:  4.114e-05  alpha:  0.000e+00
	FillingsUpdate:  mu: -0.171251800  nElectrons: 416.000000  magneticMoment: [ Abs: 0.00673  Tot: -0.00013 ]
LCAOMinimize: Iter:  15  G: -1352.7764505488737541  |grad|_K:  1.528e-05  alpha:  2.060e-01  linmin:  2.990e-01  cgtest: -6.134e-01  t[s]:   1139.68
LCAOMinimize: 	Wrong curvature in test step, increasing alphaT to 6.180025e-01.
	FillingsUpdate:  mu: -0.171251800  nElectrons: 416.000000  magneticMoment: [ Abs: 0.00543  Tot: -0.00009 ]
LCAOMinimize: Iter:  16  G: -1352.7764775307452965  |grad|_K:  1.587e-05  alpha: -1.850e-01  linmin: -6.154e-02  cgtest:  9.620e-01  t[s]:   1206.41
LCAOMinimize: 	Step increased G by 3.425746e-05, reducing alpha to 9.751853e-03.
LCAOMinimize: 	Step increased G by 2.853334e-06, reducing alpha to 9.751853e-04.
LCAOMinimize: 	Step increased G by 2.795957e-07, reducing alpha to 9.751853e-05.
LCAOMinimize: 	Step failed to reduce G after 3 attempts. Quitting step.
LCAOMinimize: 	Undoing step.
LCAOMinimize: 	Step failed: resetting search direction.
	FillingsUpdate:  mu: -0.171251800  nElectrons: 416.000000  magneticMoment: [ Abs: 0.00543  Tot: -0.00009 ]
LCAOMinimize: Iter:  17  G: -1352.7764772791801988  |grad|_K:  1.579e-05  alpha:  9.752e-05
LCAOMinimize: 	Step increased G by 3.406862e-05, reducing alpha to 9.522551e-03.
LCAOMinimize: 	Step increased G by 2.862859e-06, reducing alpha to 9.522551e-04.
LCAOMinimize: 	Step increased G by 2.808429e-07, reducing alpha to 9.522551e-05.
LCAOMinimize: 	Step failed to reduce G after 3 attempts. Quitting step.
LCAOMinimize: 	Undoing step.
LCAOMinimize: 	Step failed along negative gradient direction.
LCAOMinimize: Probably at roundoff error limit. (Stopping)
----- createFluidSolver() ----- (Fluid-side solver setup)
   Initializing fluid molecule 'H2O'
     Initializing site 'O'
       Electron density: proportional to exp(-r/0.36935)*erfc((r-0.51523)/0.36823) with norm 6.826
       Charge density: gaussian nuclear width 0.478731 with net site charge 0.826
       Polarizability: cuspless exponential with width 0.32 and norm 3.73
       Hard sphere radius: 2.57003 bohrs
       Positions in reference frame:
         [ +0.000000 +0.000000 +0.000000 ]
     Initializing site 'H'
       Electron density: proportional to exp(-r/0.34641)*erfc((r-0)/0.390882) with norm 0.587
       Charge density: gaussian nuclear width 0.377945 with net site charge -0.413
       Polarizability: cuspless exponential with width 0.39 and norm 3.3
       Positions in reference frame:
         [ +0.000000 -1.441945 +1.122523 ]
         [ +0.000000 +1.441945 +1.122523 ]
     Net charge: 0   dipole magnitude: 0.927204
     Initializing spherical shell mfKernel with radius 2.61727 Bohr
     deltaS corrections:
       site 'O': -7.54299
       site 'H': -6.83917
   Initializing fluid molecule 'Na+'
     Initializing site 'Na'
       Electron density: proportional to exp(-r/0.19682)*erfc((r-0.71491)/0.41314) with norm 8.1383
       Charge density: gaussian nuclear width 0.365347 with net site charge -1
       Hard sphere radius: 1.86327 bohrs
       Positions in reference frame:
         [ +0.000000 +0.000000 +0.000000 ]
     Net charge: -1   dipole magnitude: 0
     Initializing gaussian mfKernel with width: 1.55004 Bohr
     deltaS corrections:
       site 'Na': -22.3555
   Initializing fluid molecule 'F-'
     Initializing site 'F'
       Electron density: proportional to exp(-r/0.38886)*erfc((r-0)/0.438782) with norm 8
       Charge density: gaussian nuclear width 0.374796 with net site charge 1
       Hard sphere radius: 2.39995 bohrs
       Positions in reference frame:
         [ +0.000000 +0.000000 +0.000000 ]
     Net charge: 1   dipole magnitude: 0
     Initializing gaussian mfKernel with width: 1.59012 Bohr
     deltaS corrections:
       site 'F': -9.04335

Correction to mu due to finite nuclear width = -0.0121762
   Cavity determined by nc: 0.00142 and sigma: 0.707107
   Nonlocal vdW cavity from gaussian model electron density with norm = 8 and sigma = 0.993594 bohr
   Charge asymmetry in cavity with sensitivity pCavity = 36.5 e-bohr/Eh
   Electrostatic cavity expanded by eta = 1.46 bohrs
   Weighted density cavitation model constrained by Nbulk: 0.0049383 bohr^-3, Pvap: 3.14029 kPa, Rvdw: 2.61727 bohr and sigmaBulk: 4.62e-05 Eh/bohr^2 at T: 298 K.
   Weighted density dispersion model using vdW pair potentials with single solvent site with sqrtC6eff: 0.77 SI.


---- Citations for features of the code used in this run ----

   Software package:
      R. Sundararaman, K. Letchworth-Weaver, K.A. Schwarz, D. Gunceler, Y. Ozhabes and T.A. Arias, 'JDFTx: software for joint density-functional theory', SoftwareX 6, 278 (2017)

   gga-PBE exchange-correlation functional:
      J.P. Perdew, K. Burke and M. Ernzerhof, Phys. Rev. Lett. 77, 3865 (1996)

   Pseudopotentials:
      KF Garrity, JW Bennett, KM Rabe and D Vanderbilt, Comput. Mater. Sci. 81, 446 (2014)

   Truncated Coulomb potentials:
      R. Sundararaman and T.A. Arias, Phys. Rev. B 87, 165122 (2013)

   Van der Waals correction pair-potentials:
      S. Grimme, J. Comput. Chem. 27, 1787 (2006)

   Charge-asymmetric nonlocally-determined local-electric (CANDLE) solvation model:
      R. Sundararaman and W.A. Goddard III, J. Chem. Phys. 142, 064107 (2015)

   Total energy minimization with Auxiliary Hamiltonian:
      C. Freysoldt, S. Boeck, and J. Neugebauer, Phys. Rev. B 79, 241103(R) (2009)

   Grand-canonical (fixed-potential) DFT:
      R. Sundararaman, W. A. Goddard III and T. A. Arias, J. Chem. Phys. 146, 114104 (2017)

This list may not be complete. Please suggest additional citations or
report any other bugs at https://github.com/shankar1729/jdftx/issues

Initialization completed successfully at t[s]:   1636.77

Fluid solver invoked on fresh (partially random / LCAO) wavefunctions
Running a vacuum solve first:

-------- Initial electronic minimization -----------
	FillingsUpdate:  mu: -0.136918420  nElectrons: 416.000000  magneticMoment: [ Abs: 0.00543  Tot: -0.00009 ]
ElecMinimize: Iter:   0  G: -1352.592148238658183  |grad|_K:  9.700e-05  alpha:  1.000e+00
	FillingsUpdate:  mu: -0.056754285  nElectrons: 416.000000  magneticMoment: [ Abs: 0.00269  Tot: -0.00002 ]
	SubspaceRotationAdjust: set factor to 0.999
ElecMinimize: Iter:   1  G: -1354.016130130206875  |grad|_K:  5.880e-05  alpha:  7.790e-01  linmin: -1.233e-05  t[s]:   1782.55
	FillingsUpdate:  mu: -0.078566706  nElectrons: 416.000000  magneticMoment: [ Abs: 0.00121  Tot: +0.00000 ]
	SubspaceRotationAdjust: set factor to 1.07
ElecMinimize: Iter:   2  G: -1354.375540117081982  |grad|_K:  2.774e-05  alpha:  5.370e-01  linmin: -6.586e-06  t[s]:   1871.28
	FillingsUpdate:  mu: -0.066820496  nElectrons: 416.000000  magneticMoment: [ Abs: 0.00064  Tot: +0.00000 ]
	SubspaceRotationAdjust: set factor to 0.836
ElecMinimize: Iter:   3  G: -1354.474931088594758  |grad|_K:  1.956e-05  alpha:  6.648e-01  linmin:  8.007e-05  t[s]:   1960.25
	FillingsUpdate:  mu: -0.088075661  nElectrons: 416.000000  magneticMoment: [ Abs: 0.00054  Tot: +0.00000 ]
	SubspaceRotationAdjust: set factor to 0.528
ElecMinimize: Iter:   4  G: -1354.493268603684328  |grad|_K:  1.109e-05  alpha:  2.493e-01  linmin: -2.196e-05  t[s]:   2049.00
	FillingsUpdate:  mu: -0.083389342  nElectrons: 416.000000  magneticMoment: [ Abs: 0.00041  Tot: +0.00000 ]
	SubspaceRotationAdjust: set factor to 0.65
ElecMinimize: Iter:   5  G: -1354.505947152637646  |grad|_K:  8.088e-06  alpha:  5.282e-01  linmin:  1.339e-05  t[s]:   2137.37
	FillingsUpdate:  mu: -0.080143607  nElectrons: 416.000000  magneticMoment: [ Abs: 0.00032  Tot: +0.00000 ]
	SubspaceRotationAdjust: set factor to 0.673
ElecMinimize: Iter:   6  G: -1354.511196312495258  |grad|_K:  5.010e-06  alpha:  4.152e-01  linmin:  1.742e-06  t[s]:   2225.57
	FillingsUpdate:  mu: -0.083859219  nElectrons: 416.000000  magneticMoment: [ Abs: 0.00025  Tot: -0.00000 ]
	SubspaceRotationAdjust: set factor to 0.658
ElecMinimize: Iter:   7  G: -1354.513441049730545  |grad|_K:  3.296e-06  alpha:  4.592e-01  linmin:  1.215e-06  t[s]:   2314.90
	FillingsUpdate:  mu: -0.082333611  nElectrons: 416.000000  magneticMoment: [ Abs: 0.00018  Tot: -0.00000 ]
	SubspaceRotationAdjust: set factor to 0.72
ElecMinimize: Iter:   8  G: -1354.514356389984187  |grad|_K:  2.098e-06  alpha:  4.322e-01  linmin:  1.652e-06  t[s]:   2403.92
	FillingsUpdate:  mu: -0.082546426  nElectrons: 416.000000  magneticMoment: [ Abs: 0.00012  Tot: -0.00000 ]
	SubspaceRotationAdjust: set factor to 0.867
ElecMinimize: Iter:   9  G: -1354.514735662271733  |grad|_K:  1.320e-06  alpha:  4.425e-01  linmin:  1.885e-06  t[s]:   2492.55
	FillingsUpdate:  mu: -0.083718407  nElectrons: 416.000000  magneticMoment: [ Abs: 0.00008  Tot: -0.00000 ]
	SubspaceRotationAdjust: set factor to 0.753
ElecMinimize: Iter:  10  G: -1354.514877812360510  |grad|_K:  8.675e-07  alpha:  4.189e-01  linmin:  1.618e-06  t[s]:   2581.51
	FillingsUpdate:  mu: -0.082920867  nElectrons: 416.000000  magneticMoment: [ Abs: 0.00005  Tot: -0.00000 ]
	SubspaceRotationAdjust: set factor to 0.585
ElecMinimize: Iter:  11  G: -1354.514931589659000  |grad|_K:  5.830e-07  alpha:  3.667e-01  linmin:  2.933e-07  t[s]:   2670.30
	FillingsUpdate:  mu: -0.083042647  nElectrons: 416.000000  magneticMoment: [ Abs: 0.00003  Tot: +0.00000 ]
	SubspaceRotationAdjust: set factor to 0.794
ElecMinimize: Iter:  12  G: -1354.514963828808732  |grad|_K:  3.286e-07  alpha:  4.868e-01  linmin:  2.082e-06  t[s]:   2759.07
	FillingsUpdate:  mu: -0.083365400  nElectrons: 416.000000  magneticMoment: [ Abs: 0.00002  Tot: +0.00000 ]
	SubspaceRotationAdjust: set factor to 0.723
ElecMinimize: Iter:  13  G: -1354.514976159886601  |grad|_K:  2.777e-07  alpha:  5.871e-01  linmin:  8.592e-07  t[s]:   2847.88
	FillingsUpdate:  mu: -0.083113433  nElectrons: 416.000000  magneticMoment: [ Abs: 0.00002  Tot: +0.00000 ]
	SubspaceRotationAdjust: set factor to 0.648
ElecMinimize: Iter:  14  G: -1354.514982025492372  |grad|_K:  1.739e-07  alpha:  3.904e-01  linmin: -2.374e-08  t[s]:   2936.58
	FillingsUpdate:  mu: -0.083171094  nElectrons: 416.000000  magneticMoment: [ Abs: 0.00001  Tot: +0.00000 ]
	SubspaceRotationAdjust: set factor to 0.731
ElecMinimize: Iter:  15  G: -1354.514985484685894  |grad|_K:  1.146e-07  alpha:  5.865e-01  linmin:  2.093e-07  t[s]:   3025.36
	FillingsUpdate:  mu: -0.083194407  nElectrons: 416.000000  magneticMoment: [ Abs: 0.00001  Tot: +0.00000 ]
	SubspaceRotationAdjust: set factor to 0.768
ElecMinimize: Iter:  16  G: -1354.514986727818496  |grad|_K:  8.437e-08  alpha:  4.857e-01  linmin:  2.032e-08  t[s]:   3114.19
	FillingsUpdate:  mu: -0.083156699  nElectrons: 416.000000  magneticMoment: [ Abs: 0.00001  Tot: -0.00000 ]
	SubspaceRotationAdjust: set factor to 0.797
ElecMinimize: Iter:  17  G: -1354.514987416263466  |grad|_K:  5.747e-08  alpha:  4.960e-01  linmin:  1.448e-07  t[s]:   3203.44
	FillingsUpdate:  mu: -0.083192448  nElectrons: 416.000000  magneticMoment: [ Abs: 0.00000  Tot: -0.00000 ]
	SubspaceRotationAdjust: set factor to 0.761
ElecMinimize: Iter:  18  G: -1354.514987783938750  |grad|_K:  4.593e-08  alpha:  5.714e-01  linmin:  7.668e-08  t[s]:   3292.55
	FillingsUpdate:  mu: -0.083153471  nElectrons: 416.000000  magneticMoment: [ Abs: 0.00000  Tot: -0.00000 ]
	SubspaceRotationAdjust: set factor to 0.684
ElecMinimize: Iter:  19  G: -1354.514987945552775  |grad|_K:  2.930e-08  alpha:  3.929e-01  linmin: -1.601e-08  t[s]:   3381.20
	FillingsUpdate:  mu: -0.083170363  nElectrons: 416.000000  magneticMoment: [ Abs: 0.00000  Tot: -0.00000 ]
	SubspaceRotationAdjust: set factor to 0.784
ElecMinimize: Iter:  20  G: -1354.514988044929396  |grad|_K:  1.763e-08  alpha:  5.937e-01  linmin:  1.142e-07  t[s]:   3470.45
	FillingsUpdate:  mu: -0.083180004  nElectrons: 416.000000  magneticMoment: [ Abs: 0.00000  Tot: -0.00000 ]
	SubspaceRotationAdjust: set factor to 0.847
ElecMinimize: Iter:  21  G: -1354.514988076223517  |grad|_K:  1.268e-08  alpha:  5.171e-01  linmin:  2.616e-08  t[s]:   3559.33
	FillingsUpdate:  mu: -0.083169514  nElectrons: 416.000000  magneticMoment: [ Abs: 0.00000  Tot: -0.00000 ]
	SubspaceRotationAdjust: set factor to 0.712
ElecMinimize: Iter:  22  G: -1354.514988090215411  |grad|_K:  8.989e-09  alpha:  4.465e-01  linmin: -1.550e-09  t[s]:   3648.78
	FillingsUpdate:  mu: -0.083176861  nElectrons: 416.000000  magneticMoment: [ Abs: 0.00000  Tot: +0.00000 ]
	SubspaceRotationAdjust: set factor to 0.618
ElecMinimize: Iter:  23  G: -1354.514988097217383  |grad|_K:  5.627e-09  alpha:  4.445e-01  linmin:  2.886e-08  t[s]:   3737.43
	FillingsUpdate:  mu: -0.083174518  nElectrons: 416.000000  magneticMoment: [ Abs: 0.00000  Tot: +0.00000 ]
	SubspaceRotationAdjust: set factor to 0.661
ElecMinimize: Iter:  24  G: -1354.514988100108894  |grad|_K:  3.804e-09  alpha:  4.708e-01  linmin:  1.731e-08  t[s]:   3826.19
ElecMinimize: Converged (|Delta G|<1.000000e-08 for 2 iters).
Setting wave functions to eigenvectors of Hamiltonian
Vacuum energy after initial minimize, F = -1354.514988100108894

Shifting auxilliary hamiltonian by -0.088077 to set nElectrons=416.000000
	Linear fluid (dielectric constant: 78.4, screening length: 5.74355 Bohr) occupying 0.754446 of unit cell:	Completed after 14 iterations at t[s]:   3846.86

-------- Electronic minimization -----------
	Linear fluid (dielectric constant: 78.4, screening length: 5.74355 Bohr) occupying 0.754446 of unit cell:	Completed after 0 iterations at t[s]:   3871.32
	FillingsUpdate:  mu: -0.171251800  nElectrons: 416.000000  magneticMoment: [ Abs: 0.00000  Tot: -0.00000 ]
ElecMinimize: Iter:   0  G: -1354.503707293038133  |grad|_K:  7.162e-07  alpha:  1.000e+00
	Linear fluid (dielectric constant: 78.4, screening length: 5.74355 Bohr) occupying 0.754807 of unit cell:	Completed after 7 iterations at t[s]:   3940.94
	Linear fluid (dielectric constant: 78.4, screening length: 5.74355 Bohr) occupying 0.754893 of unit cell:	Completed after 5 iterations at t[s]:   3971.62
	FillingsUpdate:  mu: -0.171251800  nElectrons: 416.008566  magneticMoment: [ Abs: 0.00002  Tot: -0.00000 ]
	SubspaceRotationAdjust: set factor to 0.458
ElecMinimize: Iter:   1  G: -1354.503829123766309  |grad|_K:  5.106e-07  alpha:  1.246e+00  linmin:  1.780e-04  t[s]:   4012.70
	Linear fluid (dielectric constant: 78.4, screening length: 5.74355 Bohr) occupying 0.755083 of unit cell:	Completed after 5 iterations at t[s]:   4039.44
	Linear fluid (dielectric constant: 78.4, screening length: 5.74355 Bohr) occupying 0.754933 of unit cell:	Completed after 5 iterations at t[s]:   4069.71
	FillingsUpdate:  mu: -0.171251800  nElectrons: 416.010304  magneticMoment: [ Abs: 0.00002  Tot: -0.00000 ]
	SubspaceRotationAdjust: set factor to 0.481
ElecMinimize: Iter:   2  G: -1354.503840330689400  |grad|_K:  1.974e-07  alpha:  2.582e-01  linmin:  5.131e-05  t[s]:   4110.54
	Linear fluid (dielectric constant: 78.4, screening length: 5.74355 Bohr) occupying 0.754935 of unit cell:	Completed after 2 iterations at t[s]:   4137.10
	Linear fluid (dielectric constant: 78.4, screening length: 5.74355 Bohr) occupying 0.754937 of unit cell:	Completed after 2 iterations at t[s]:   4166.18
	FillingsUpdate:  mu: -0.171251800  nElectrons: 416.010408  magneticMoment: [ Abs: 0.00002  Tot: -0.00000 ]
	SubspaceRotationAdjust: set factor to 0.523
ElecMinimize: Iter:   3  G: -1354.503844659184551  |grad|_K:  1.284e-07  alpha:  5.771e-01  linmin: -1.817e-05  t[s]:   4206.78
	Linear fluid (dielectric constant: 78.4, screening length: 5.74355 Bohr) occupying 0.754932 of unit cell:	Completed after 2 iterations at t[s]:   4233.18
	Linear fluid (dielectric constant: 78.4, screening length: 5.74355 Bohr) occupying 0.754932 of unit cell:	Completed after 0 iterations at t[s]:   4262.07
	FillingsUpdate:  mu: -0.171251800  nElectrons: 416.010013  magneticMoment: [ Abs: 0.00001  Tot: +0.00000 ]
	SubspaceRotationAdjust: set factor to 0.566
ElecMinimize: Iter:   4  G: -1354.503846556944154  |grad|_K:  8.242e-08  alpha:  5.848e-01  linmin: -3.979e-06  t[s]:   4301.20
	Linear fluid (dielectric constant: 78.4, screening length: 5.74355 Bohr) occupying 0.754928 of unit cell:	Completed after 2 iterations at t[s]:   4327.80
	Linear fluid (dielectric constant: 78.4, screening length: 5.74355 Bohr) occupying 0.754928 of unit cell:	Completed after 0 iterations at t[s]:   4356.68
	FillingsUpdate:  mu: -0.171251800  nElectrons: 416.009511  magneticMoment: [ Abs: 0.00001  Tot: +0.00000 ]
	SubspaceRotationAdjust: set factor to 0.648
ElecMinimize: Iter:   5  G: -1354.503847283406230  |grad|_K:  6.415e-08  alpha:  5.467e-01  linmin: -1.235e-06  t[s]:   4396.11
	Linear fluid (dielectric constant: 78.4, screening length: 5.74355 Bohr) occupying 0.754925 of unit cell:	Completed after 0 iterations at t[s]:   4422.46
	Linear fluid (dielectric constant: 78.4, screening length: 5.74355 Bohr) occupying 0.754925 of unit cell:	Completed after 1 iterations at t[s]:   4450.60
	FillingsUpdate:  mu: -0.171251800  nElectrons: 416.008986  magneticMoment: [ Abs: 0.00001  Tot: +0.00000 ]
	SubspaceRotationAdjust: set factor to 0.673
ElecMinimize: Iter:   6  G: -1354.503847662243061  |grad|_K:  3.713e-08  alpha:  6.226e-01  linmin:  4.269e-05  t[s]:   4491.17
	Linear fluid (dielectric constant: 78.4, screening length: 5.74355 Bohr) occupying 0.754925 of unit cell:	Completed after 0 iterations at t[s]:   4517.23
	Linear fluid (dielectric constant: 78.4, screening length: 5.74355 Bohr) occupying 0.754925 of unit cell:	Completed after 0 iterations at t[s]:   4545.26
	FillingsUpdate:  mu: -0.171251800  nElectrons: 416.008769  magneticMoment: [ Abs: 0.00001  Tot: +0.00000 ]
	SubspaceRotationAdjust: set factor to 0.754
ElecMinimize: Iter:   7  G: -1354.503847829470033  |grad|_K:  2.333e-08  alpha:  7.680e-01  linmin:  2.796e-07  t[s]:   4584.95
	Linear fluid (dielectric constant: 78.4, screening length: 5.74355 Bohr) occupying 0.754928 of unit cell:	Completed after 2 iterations at t[s]:   4611.53
	Linear fluid (dielectric constant: 78.4, screening length: 5.74355 Bohr) occupying 0.754926 of unit cell:	Completed after 0 iterations at t[s]:   4640.54
	FillingsUpdate:  mu: -0.171251800  nElectrons: 416.008777  magneticMoment: [ Abs: 0.00001  Tot: +0.00000 ]
	SubspaceRotationAdjust: set factor to 0.668
ElecMinimize: Iter:   8  G: -1354.503847844701340  |grad|_K:  3.517e-08  alpha:  3.487e-01  linmin:  2.269e-06  t[s]:   4679.97
	Linear fluid (dielectric constant: 78.4, screening length: 5.74355 Bohr) occupying 0.754930 of unit cell:	Completed after 0 iterations at t[s]:   4706.43
	Linear fluid (dielectric constant: 78.4, screening length: 5.74355 Bohr) occupying 0.754929 of unit cell:	Completed after 0 iterations at t[s]:   4734.64
	FillingsUpdate:  mu: -0.171251800  nElectrons: 416.008837  magneticMoment: [ Abs: 0.00001  Tot: +0.00000 ]
	SubspaceRotationAdjust: set factor to 0.731
ElecMinimize: Iter:   9  G: -1354.503847899792390  |grad|_K:  3.381e-08  alpha:  2.383e-01  linmin:  2.703e-09  t[s]:   4773.95
	Linear fluid (dielectric constant: 78.4, screening length: 5.74355 Bohr) occupying 0.754931 of unit cell:	Completed after 2 iterations at t[s]:   4800.47
	Linear fluid (dielectric constant: 78.4, screening length: 5.74355 Bohr) occupying 0.754929 of unit cell:	Completed after 0 iterations at t[s]:   4829.38
	FillingsUpdate:  mu: -0.171251800  nElectrons: 416.008853  magneticMoment: [ Abs: 0.00001  Tot: +0.00000 ]
	SubspaceRotationAdjust: set factor to 0.484
ElecMinimize: Iter:  10  G: -1354.503847920274666  |grad|_K:  5.094e-08  alpha:  4.273e-02  linmin:  7.297e-05  t[s]:   4868.84
ElecMinimize: 	Bad step direction: g.d > 0.
ElecMinimize: 	Undoing step.
	Linear fluid (dielectric constant: 78.4, screening length: 5.74355 Bohr) occupying 0.754929 of unit cell:	Completed after 0 iterations at t[s]:   4895.13
ElecMinimize: 	Step failed: resetting search direction.
	FillingsUpdate:  mu: -0.171251800  nElectrons: 416.008853  magneticMoment: [ Abs: 0.00001  Tot: +0.00000 ]
	SubspaceRotationAdjust: set factor to 0.36
ElecMinimize: Iter:  11  G: -1354.503847920267162  |grad|_K:  4.395e-08  alpha:  0.000e+00
	Linear fluid (dielectric constant: 78.4, screening length: 5.74355 Bohr) occupying 0.754929 of unit cell:	Completed after 0 iterations at t[s]:   4960.70
ElecMinimize: 	Predicted alpha/alphaT>3.000000, increasing alphaT to 1.281832e-01.
	Linear fluid (dielectric constant: 78.4, screening length: 5.74355 Bohr) occupying 0.754929 of unit cell:	Completed after 1 iterations at t[s]:   4988.72
	Linear fluid (dielectric constant: 78.4, screening length: 5.74355 Bohr) occupying 0.754929 of unit cell:	Completed after 0 iterations at t[s]:   5017.12
ElecMinimize: 	Step increased G by 4.479830e-08, reducing alpha to 4.432604e-03.
	Linear fluid (dielectric constant: 78.4, screening length: 5.74355 Bohr) occupying 0.754929 of unit cell:	Completed after 0 iterations at t[s]:   5078.86
ElecMinimize: 	Step increased G by 5.450170e-08, reducing alpha to 4.432604e-04.
	Linear fluid (dielectric constant: 78.4, screening length: 5.74355 Bohr) occupying 0.754929 of unit cell:	Completed after 0 iterations at t[s]:   5140.49
ElecMinimize: 	Step increased G by 5.478660e-08, reducing alpha to 4.432604e-05.
ElecMinimize: 	Step failed to reduce G after 3 attempts. Quitting step.
ElecMinimize: 	Undoing step.
	Linear fluid (dielectric constant: 78.4, screening length: 5.74355 Bohr) occupying 0.754929 of unit cell:	Completed after 0 iterations at t[s]:   5201.50
ElecMinimize: 	Step failed along negative gradient direction.
ElecMinimize: Probably at roundoff error limit. (Stopping)
Setting wave functions to eigenvectors of Hamiltonian
Single-point solvation energy estimate, DeltaG = +0.011140234636059

# Ionic positions in lattice coordinates:
ion Mo   0.083329990729168   0.166669999041667   0.500000000000000 1
ion Mo   0.333329990729168   0.166669999041667   0.500000000000000 1
ion Mo   0.583329990729168   0.166669999041667   0.500000000000000 1
ion Mo   0.833329990729168   0.166669999041667   0.500000000000000 1
ion Mo   0.083329990729168   0.416669999041667   0.500000000000000 1
ion Mo   0.333329990729168   0.416669999041667   0.500000000000000 1
ion Mo   0.583329990729168   0.416669999041667   0.500000000000000 1
ion Mo   0.833329990729168   0.416669999041667   0.500000000000000 1
ion Mo   0.083329990729168   0.666669999041667   0.500000000000000 1
ion Mo   0.333329990729168   0.666669999041667   0.500000000000000 1
ion Mo   0.583329990729168   0.666669999041667   0.500000000000000 1
ion Mo   0.833329990729168   0.666669999041667   0.500000000000000 1
ion Mo   0.083329990729168   0.916669999041667   0.500000000000000 1
ion Mo   0.333329990729168   0.916669999041667   0.500000000000000 1
ion Mo   0.583329990729168   0.916669999041667   0.500000000000000 1
ion Mo   0.833329990729168   0.916669999041667   0.500000000000000 1
ion S   0.166670009791667   0.083329979979168   0.586509993999996 1
ion S   0.166670009791667   0.083329979979168   0.413490006000004 1
ion S   0.416670009791667   0.083329979979168   0.586509993999996 1
ion S   0.416670009791667   0.083329979979168   0.413490006000004 1
ion S   0.666670009791667   0.083329979979168   0.586509993999996 1
ion S   0.666670009791667   0.083329979979168   0.413490006000004 1
ion S   0.916670009791667   0.083329979979168   0.586509993999996 1
ion S   0.916670009791667   0.083329979979168   0.413490006000004 1
ion S   0.166670009791667   0.333329979979168   0.586509993999996 1
ion S   0.166670009791667   0.333329979979168   0.413490006000004 1
ion S   0.416670009791667   0.333329979979168   0.586509993999996 1
ion S   0.416670009791667   0.333329979979168   0.413490006000004 1
ion S   0.666670009791667   0.333329979979168   0.586509993999996 1
ion S   0.666670009791667   0.333329979979168   0.413490006000004 1
ion S   0.916670009791667   0.333329979979168   0.586509993999996 1
ion S   0.916670009791667   0.333329979979168   0.413490006000004 1
ion S   0.166670009791667   0.583329979979168   0.586509993999996 1
ion S   0.166670009791667   0.583329979979168   0.413490006000004 1
ion S   0.416670009791667   0.583329979979168   0.586509993999996 1
ion S   0.416670009791667   0.583329979979168   0.413490006000004 1
ion S   0.666670009791667   0.583329979979168   0.586509993999996 1
ion S   0.666670009791667   0.583329979979168   0.413490006000004 1
ion S   0.916670009791667   0.583329979979168   0.586509993999996 1
ion S   0.916670009791667   0.583329979979168   0.413490006000004 1
ion S   0.166670009791667   0.833329979979168   0.586509993999996 1
ion S   0.166670009791667   0.833329979979168   0.413490006000004 1
ion S   0.416670009791667   0.833329979979168   0.586509993999996 1
ion S   0.416670009791667   0.833329979979168   0.413490006000004 1
ion S   0.666670009791667   0.833329979979168   0.586509993999996 1
ion S   0.666670009791667   0.833329979979168   0.413490006000004 1
ion S   0.916670009791667   0.833329979979168   0.586509993999996 1
ion S   0.916670009791667   0.833329979979168   0.413490006000004 1


# Forces in Lattice coordinates:
force Mo   0.000671949889023  -0.000671949889023   0.000000000000000 1
force Mo   0.000671949889023  -0.000671949889023  -0.000000000000000 1
force Mo   0.000671949889023  -0.000671949889023   0.000000000000000 1
force Mo   0.000671949889023  -0.000671949889023   0.000000000000000 1
force Mo   0.000671949889023  -0.000671949889023  -0.000000000000000 1
force Mo   0.000671949889023  -0.000671949889023  -0.000000000000000 1
force Mo   0.000671949889023  -0.000671949889023  -0.000000000000000 1
force Mo   0.000671949889023  -0.000671949889023   0.000000000000000 1
force Mo   0.000671949889023  -0.000671949889023  -0.000000000000000 1
force Mo   0.000671949889023  -0.000671949889023   0.000000000000000 1
force Mo   0.000671949889023  -0.000671949889023  -0.000000000000000 1
force Mo   0.000671949889023  -0.000671949889023   0.000000000000000 1
force Mo   0.000671949889023  -0.000671949889023   0.000000000000000 1
force Mo   0.000671949889023  -0.000671949889023  -0.000000000000000 1
force Mo   0.000671949889023  -0.000671949889023  -0.000000000000000 1
force Mo   0.000671949889023  -0.000671949889023  -0.000000000000000 1
force S  -0.000545069839876   0.000545069839876   0.004843045709527 1
force S  -0.000545069839876   0.000545069839876  -0.004843045709753 1
force S  -0.000545069839876   0.000545069839876   0.004843045709755 1
force S  -0.000545069839876   0.000545069839876  -0.004843045709754 1
force S  -0.000545069839876   0.000545069839876   0.004843045709642 1
force S  -0.000545069839876   0.000545069839876  -0.004843045709867 1
force S  -0.000545069839876   0.000545069839876   0.004843045709642 1
force S  -0.000545069839876   0.000545069839876  -0.004843045709753 1
force S  -0.000545069839876   0.000545069839876   0.004843045709527 1
force S  -0.000545069839876   0.000545069839876  -0.004843045709754 1
force S  -0.000545069839876   0.000545069839876   0.004843045709526 1
force S  -0.000545069839876   0.000545069839876  -0.004843045709755 1
force S  -0.000545069839876   0.000545069839876   0.004843045709641 1
force S  -0.000545069839876   0.000545069839876  -0.004843045709641 1
force S  -0.000545069839876   0.000545069839876   0.004843045709640 1
force S  -0.000545069839876   0.000545069839876  -0.004843045709754 1
force S  -0.000545069839876   0.000545069839876   0.004843045709753 1
force S  -0.000545069839876   0.000545069839876  -0.004843045709754 1
force S  -0.000545069839876   0.000545069839876   0.004843045709753 1
force S  -0.000545069839876   0.000545069839876  -0.004843045709754 1
force S  -0.000545069839876   0.000545069839876   0.004843045709638 1
force S  -0.000545069839876   0.000545069839876  -0.004843045709754 1
force S  -0.000545069839876   0.000545069839876   0.004843045709641 1
force S  -0.000545069839876   0.000545069839876  -0.004843045709754 1
force S  -0.000545069839876   0.000545069839876   0.004843045709525 1
force S  -0.000545069839876   0.000545069839876  -0.004843045709641 1
force S  -0.000545069839876   0.000545069839876   0.004843045709753 1
force S  -0.000545069839876   0.000545069839876  -0.004843045709753 1
force S  -0.000545069839876   0.000545069839876   0.004843045709639 1
force S  -0.000545069839876   0.000545069839876  -0.004843045709754 1
force S  -0.000545069839876   0.000545069839876   0.004843045709640 1
force S  -0.000545069839876   0.000545069839876  -0.004843045709866 1

# Energy components:
   A_diel =        0.0103120107205385
   Eewald =     8821.5981260505996033
       EH =    10006.9245188345994393
     Eloc =   -20657.8325455967897142
      Enl =      260.8603081075997352
      Exc =     -290.3650733556421528
 Exc_core =       76.0956977204625105
       KE =      356.9629547128255354
  MuShift =       -0.0001077949812932
-------------------------------------
     Etot =    -1425.7458093106044998
       TS =        0.0003034321213363
-------------------------------------
        F =    -1425.7461127427259271
      muN =      -71.2422648772531204
-------------------------------------
        G =    -1354.5038478654728351

IonicMinimize: Iter:   0  G: -1354.503847865472835  |grad|_K:  6.853e-05  t[s]:   5257.25
IonicMinimize: Converged (|grad|_K<1.000000e-04).

#--- Lowdin population analysis ---
# oxidation-state Mo -0.506 -0.506 -0.506 -0.506 -0.506 -0.506 -0.506 -0.506 -0.506 -0.506 -0.506 -0.506 -0.506 -0.506 -0.506 -0.506
# magnetic-moments Mo +0.000 +0.000 +0.000 +0.000 +0.000 +0.000 +0.000 +0.000 +0.000 +0.000 +0.000 +0.000 +0.000 +0.000 +0.000 +0.000
# oxidation-state S +0.319 +0.319 +0.319 +0.319 +0.319 +0.319 +0.319 +0.319 +0.319 +0.319 +0.319 +0.319 +0.319 +0.319 +0.319 +0.319 +0.319 +0.319 +0.319 +0.319 +0.319 +0.319 +0.319 +0.319 +0.319 +0.319 +0.319 +0.319 +0.319 +0.319 +0.319 +0.319
# magnetic-moments S +0.000 +0.000 +0.000 +0.000 +0.000 +0.000 +0.000 +0.000 +0.000 +0.000 +0.000 +0.000 +0.000 +0.000 +0.000 +0.000 +0.000 +0.000 +0.000 +0.000 +0.000 +0.000 +0.000 +0.000 +0.000 +0.000 +0.000 +0.000 +0.000 +0.000 +0.000 +0.000


Dumping 'NbTe2.fillings' ... done
Dumping 'NbTe2.wfns' ... done
Dumping 'NbTe2.fluidState' ... done
Dumping 'NbTe2.ionpos' ... done
Dumping 'NbTe2.eigenvals' ... done
End date and time: Mon Dec 28 14:14:42 2020  (Duration: 0-1:27:46.96)
Done!
