
*************** JDFTx 1.5.0  ***************

Start date and time: Sat Jul 11 16:45:50 2020
Executable jdftx_gpu with command-line: -i Charged.in -o Charged.out
Running on hosts (process indices):  amax (0-1)
Divided in process groups (process indices):  0 (0)  1 (1)
gpuInit: Found compatible cuda device 0 'Tesla K80'
gpuInit: Found compatible cuda device 1 'Tesla K80'
gpuInit: Selected device 0
Resource initialization completed at t[s]:     13.86
Run totals: 2 processes, 24 threads, 2 GPUs


Input parsed successfully to the following command list (including defaults):

basis kpoint-dependent
cache-projectors no
coords-type Lattice
core-overlap-check none
coulomb-interaction Slab 001
coulomb-truncation-embed 0 0 0.5
davidson-band-ratio 1.1
dump End State
dump-name NbTe2.$VAR
elec-cutoff 20 100
elec-eigen-algo Davidson
elec-ex-corr gga-PBE
elec-smearing Gauss 0.0073499
electronic-minimize  \
	dirUpdateScheme      FletcherReeves \
	linminMethod         DirUpdateRecommended \
	nIterations          500 \
	history              15 \
	knormThreshold       0 \
	energyDiffThreshold  1e-08 \
	nEnergyDiff          2 \
	alphaTstart          1 \
	alphaTmin            1e-10 \
	updateTestStepSize   yes \
	alphaTreduceFactor   0.1 \
	alphaTincreaseFactor 3 \
	nAlphaAdjustMax      3 \
	wolfeEnergy          0.0001 \
	wolfeGradient        0.9 \
	fdTest               no
exchange-regularization WignerSeitzTruncated
fluid LinearPCM 298.000000 1.013250
fluid-anion F- 1 MeanFieldLJ \
	epsBulk 1 \
	pMol 0 \
	epsInf 1 \
	Pvap 0 \
	sigmaBulk 0 \
	Rvdw 2.24877 \
	Res 0 \
	tauNuc 343133
fluid-cation Na+ 1 MeanFieldLJ \
	epsBulk 1 \
	pMol 0 \
	epsInf 1 \
	Pvap 0 \
	sigmaBulk 0 \
	Rvdw 2.19208 \
	Res 0 \
	tauNuc 343133
fluid-ex-corr lda-TF lda-PZ
fluid-gummel-loop 10 1.000000e-05
fluid-minimize  \
	dirUpdateScheme      PolakRibiere \
	linminMethod         DirUpdateRecommended \
	nIterations          400 \
	history              15 \
	knormThreshold       1e-11 \
	energyDiffThreshold  0 \
	nEnergyDiff          2 \
	alphaTstart          1 \
	alphaTmin            1e-10 \
	updateTestStepSize   yes \
	alphaTreduceFactor   0.1 \
	alphaTincreaseFactor 3 \
	nAlphaAdjustMax      6 \
	wolfeEnergy          0.0001 \
	wolfeGradient        0.9 \
	fdTest               no
fluid-solvent H2O 55.338 ScalarEOS \
	epsBulk 78.4 \
	pMol 0.92466 \
	epsInf 1.77 \
	Pvap 1.06736e-10 \
	sigmaBulk 4.62e-05 \
	Rvdw 2.61727 \
	Res 1.42 \
	tauNuc 343133 \
	poleEl 15 7 1
forces-output-coords Positions
initial-state NbTe2.$VAR
ion Bi   0.166673835169625   0.333332065220256   0.640922896919954 0
ion Bi   0.666673843435064   0.333332065064757   0.640922900077841 0
ion Bi   0.166673838336238   0.833332061401674   0.640922901999001 0
ion Bi   0.666673839470029   0.833332065143299   0.640922892360358 0
ion Bi   0.333339392569784   0.166679986694803   0.359076202731319 0
ion Bi   0.833339395050835   0.166679988969964   0.359076201727016 0
ion Bi   0.333339392717446   0.666679988263510   0.359076201222138 0
ion Bi   0.833339392010616   0.666679988801143   0.359076201559279 0
ion Bi   0.999958486972242   0.999966603289522   0.249240169544958 0
ion Bi   0.499958491225577   0.999966604410542   0.249240166751897 0
ion Bi   0.999958488318108   0.499966605101102   0.249240174150778 0
ion Bi   0.499958494964109   0.499966608762398   0.249240169734763 0
ion Bi   0.999998908683254   0.999987415515880   0.750760809134783 0
ion Bi   0.499998912373381   0.999987418192654   0.750760803850978 0
ion Bi   0.999998912616967   0.499987418484118   0.750760803289508 0
ion Bi   0.499998915038793   0.499987418102571   0.750760802719846 0
ion Bi   0.333351130143471   0.166689236511363   0.522869875538127 0
ion Bi   0.833351119909155   0.166689231625060   0.522869872681930 0
ion Bi   0.333351122209186   0.666689232568217   0.522869873369425 0
ion Bi   0.833351120317294   0.666689232156396   0.522869875383452 0
ion Bi   0.166679884778212   0.333351068119833   0.477132997042798 0
ion Bi   0.666679886008583   0.333351070053538   0.477132996214808 0
ion Bi   0.166679880727378   0.833351065958602   0.477132997749458 0
ion Bi   0.666679883551827   0.833351066382173   0.477132995985625 0
ion Te   0.166668741834665   0.333328650291776   0.796996468989827 0
ion Te   0.666668738357684   0.333328648554913   0.796996468473156 0
ion Te   0.166668742032381   0.833328649762289   0.796996469349059 0
ion Te   0.666668738236401   0.833328647643204   0.796996469279280 0
ion Te   0.333304121601351   0.166640818703098   0.203003535097040 0
ion Te   0.833304123873691   0.166640819331816   0.203003535047939 0
ion Te   0.333304120171280   0.666640816420420   0.203003534863171 0
ion Te   0.833304123713198   0.666640818354108   0.203003535251457 0
ion Te   0.000017052356021   0.000027778486084   0.406073371332335 0
ion Te   0.500017053480670   0.000027777454364   0.406073371695156 0
ion Te   0.000017053868830   0.500027778994152   0.406073371899279 0
ion Te   0.500017051158401   0.500027777436470   0.406073371288023 0
ion Te   0.000006737930638  -0.000003668391616   0.593924867212583 0
ion Te   0.500006733190410  -0.000003665805297   0.593924867439737 0
ion Te   0.000006733439374   0.499996334691838   0.593924867309126 0
ion Te   0.500006735342582   0.499996329829468   0.593924867034477 0
ion Te   0.333336933795833   0.166663962534759   0.695472962952015 0
ion Te   0.833336935136421   0.166663964243815   0.695472962354833 0
ion Te   0.333336932629655   0.666663962650372   0.695472962199365 0
ion Te   0.833336935312612   0.666663962969981   0.695472962595869 0
ion Te   0.166664772856442   0.333336083399433   0.304525849033152 0
ion Te   0.666664775057905   0.333336082137629   0.304525849317376 0
ion Te   0.166664774721181   0.833336082264800   0.304525849233267 0
ion Te   0.666664773305256   0.833336083248752   0.304525849012436 0
ion-species GBRV/$ID_pbe.uspp
ion-width Ecut
ionic-minimize  \
	dirUpdateScheme      L-BFGS \
	linminMethod         DirUpdateRecommended \
	nIterations          0 \
	history              15 \
	knormThreshold       0.0001 \
	energyDiffThreshold  1e-06 \
	nEnergyDiff          2 \
	alphaTstart          1 \
	alphaTmin            1e-10 \
	updateTestStepSize   yes \
	alphaTreduceFactor   0.1 \
	alphaTincreaseFactor 3 \
	nAlphaAdjustMax      3 \
	wolfeEnergy          0.0001 \
	wolfeGradient        0.9 \
	fdTest               no
kpoint   0.000000000000   0.000000000000   0.000000000000  1.00000000000000
kpoint-folding 4 4 1 
latt-move-scale 1 1 1
latt-scale 1 1 1 
lattice Triclinic 16.7546 16.7531 69.7863 90 90 120.003
lattice-minimize  \
	dirUpdateScheme      L-BFGS \
	linminMethod         DirUpdateRecommended \
	nIterations          0 \
	history              15 \
	knormThreshold       0 \
	energyDiffThreshold  1e-06 \
	nEnergyDiff          2 \
	alphaTstart          1 \
	alphaTmin            1e-10 \
	updateTestStepSize   yes \
	alphaTreduceFactor   0.1 \
	alphaTincreaseFactor 3 \
	nAlphaAdjustMax      3 \
	wolfeEnergy          0.0001 \
	wolfeGradient        0.9 \
	fdTest               no
lcao-params -1 1e-06 0.0073499
pcm-variant CANDLE
spintype no-spin
subspace-rotation-factor 1 yes
symmetries automatic
symmetry-threshold 0.0001
target-mu -0.171252 no




---------- Setting up symmetries ----------

Non-trivial transmission matrix:
[   1   0   0  ]
[   1   1   0  ]
[   0   0   1  ]
with reduced lattice vectors:
[      8.377278     -8.377279      0.000000  ]
[     14.508235     14.508235      0.000000  ]
[      0.000000      0.000000     69.786277  ]

Found 24 point-group symmetries of the bravais lattice
Found 4 space-group symmetries with basis
Applied RMS atom displacement 1.15769e-07 bohrs to make symmetries exact.

---------- Initializing the Grid ----------
R = 
[    16.7546   -8.37728          0  ]
[          0    14.5082          0  ]
[          0          0    69.7863  ]
unit cell volume = 16963.6
G =
[   0.375014   0.216539         -0  ]
[          0   0.433077          0  ]
[          0         -0  0.0900347  ]
Minimum fftbox size, Smin = [  76  76  316  ]
Chosen fftbox size, S = [  80  80  320  ]

---------- Initializing tighter grid for wavefunction operations ----------
R = 
[    16.7546   -8.37728          0  ]
[          0    14.5082          0  ]
[          0          0    69.7863  ]
unit cell volume = 16963.6
G =
[   0.375014   0.216539         -0  ]
[          0   0.433077          0  ]
[          0         -0  0.0900347  ]
Minimum fftbox size, Smin = [  68  68  284  ]
Chosen fftbox size, S = [  70  70  288  ]

---------- Exchange Correlation functional ----------
Initalized PBE GGA exchange.
Initalized PBE GGA correlation.

---------- Setting up pseudopotentials ----------
Width of ionic core gaussian charges (only for fluid interactions / plotting) set to 0.397384

Reading pseudopotential file '/home/guoxy/vasp/jdftx-1.5.0/build/pseudopotentials/GBRV/bi_pbe.uspp':
  Title: Bi.  Created by USPP 7.3.6 on 14-9-2013
  Reference state energy: -92.204004.  15 valence electrons in orbitals:
    |520>  occupation: 10  eigenvalue: -1.293263
    |600>  occupation: 2  eigenvalue: -0.812524
    |610>  occupation: 2  eigenvalue: -0.420386
  lMax: 2  lLocal: 3  QijEcut: 5
  6 projectors sampled on a log grid with 747 points:
    l: 0  eig: -0.812524  rCut: 2.5
    l: 0  eig: 0.500000  rCut: 2.5
    l: 1  eig: -0.420386  rCut: 2.5
    l: 1  eig: 1.000000  rCut: 2.5
    l: 2  eig: -1.293263  rCut: 2.3
    l: 2  eig: -0.500000  rCut: 2.3
  Partial core density with radius 1
  Transforming core density to a uniform radial grid of dG=0.02 with 1670 points.
  Transforming local potential to a uniform radial grid of dG=0.02 with 1670 points.
  Transforming nonlocal projectors to a uniform radial grid of dG=0.02 with 432 points.
  Transforming density augmentations to a uniform radial grid of dG=0.02 with 1670 points.
  Transforming atomic orbitals to a uniform radial grid of dG=0.02 with 432 points.
  Core radius for overlap checks: 2.50 bohrs.

Reading pseudopotential file '/home/guoxy/vasp/jdftx-1.5.0/build/pseudopotentials/GBRV/te_pbe.uspp':
  Title: Te.  Created by USPP 7.3.6 on 14-9-2013
  Reference state energy: -13.134220.  6 valence electrons in orbitals:
    |500>  occupation: 2  eigenvalue: -0.555231
    |510>  occupation: 4  eigenvalue: -0.218781
  lMax: 2  lLocal: 2  QijEcut: 5
  5 projectors sampled on a log grid with 723 points:
    l: 0  eig: -0.555229  rCut: 2.1
    l: 0  eig: 1.000000  rCut: 2.1
    l: 1  eig: -0.218780  rCut: 2.1
    l: 1  eig: 1.000000  rCut: 2.1
    l: 2  eig: 1.000000  rCut: 2.6
  Partial core density with radius 1.8
  Transforming core density to a uniform radial grid of dG=0.02 with 1670 points.
  Transforming local potential to a uniform radial grid of dG=0.02 with 1670 points.
  Transforming nonlocal projectors to a uniform radial grid of dG=0.02 with 432 points.
  Transforming density augmentations to a uniform radial grid of dG=0.02 with 1670 points.
  Transforming atomic orbitals to a uniform radial grid of dG=0.02 with 432 points.
  Core radius for overlap checks: 2.60 bohrs.

Initialized 2 species with 48 total atoms.

Folded 1 k-points by 4x4x1 to 16 k-points.

---------- Setting up k-points, bands, fillings ----------
Adding inversion symmetry to k-mesh for non-inversion-symmetric unit cell.
Reduced to 10 k-points under symmetry. 
Computing the number of bands and number of electrons
Reading initial fillings from file NbTe2.fillings.
nElectrons: 504.000000   nBands: 312   nStates: 10

----- Setting up reduced wavefunction bases (one per k-point) -----
average nbasis = 72473.688 , ideal nbasis = 72469.710

---------- Setting up coulomb interaction ----------
Fluid mode embedding: using embedded box, but periodic Coulomb kernel.
(Fluid response is responsible for (approximate) separation between periodic images.)
Setting up double-sized grid for truncated Coulomb potentials:
R = 
[    16.7546   -8.37728          0  ]
[          0    14.5082          0  ]
[          0          0    139.573  ]
unit cell volume = 33927.2
G =
[   0.375014   0.216539         -0  ]
[          0   0.433077          0  ]
[          0         -0  0.0450173  ]
Chosen fftbox size, S = [  80  80  640  ]
Integer grid location selected as the embedding center:
   Grid: [  0  0  160  ]
   Lattice: [  0  0  0.5  ]
   Cartesian: [  0  0  34.8931  ]
Constructing Wigner-Seitz cell: 8 faces (6 quadrilaterals, 2 hexagons)
Range-separation parameter for embedded mesh potentials due to point charges: 0.589142 bohrs.

Initializing van der Waals corrections
	NOTE: vdW corrections apply only for interactions with fluid.
	Bi:  C6:  893.28 Eh-a0^6  R0: 3.555 a0 (WARNING: beyond Grimme's data set)
	Te:  C6:  550.54 Eh-a0^6  R0: 3.575 a0

---------- Setting up ewald sum ----------
Optimum gaussian width for ewald sums = 6.774632 bohr.
Real space sum over 845 unit cells with max indices [  6  6  2  ]
Reciprocal space sum over 8107 terms with max indices [  5  5  33  ]

---------- Allocating electronic variables ----------
Initializing wave functions:  reading from 'NbTe2.wfns'
----- createFluidSolver() ----- (Fluid-side solver setup)
   Initializing fluid molecule 'H2O'
     Initializing site 'O'
       Electron density: proportional to exp(-r/0.36935)*erfc((r-0.51523)/0.36823) with norm 6.826
       Charge density: gaussian nuclear width 0.478731 with net site charge 0.826
       Polarizability: cuspless exponential with width 0.32 and norm 3.73
       Hard sphere radius: 2.57003 bohrs
       Positions in reference frame:
         [ +0.000000 +0.000000 +0.000000 ]
     Initializing site 'H'
       Electron density: proportional to exp(-r/0.34641)*erfc((r-0)/0.390882) with norm 0.587
       Charge density: gaussian nuclear width 0.377945 with net site charge -0.413
       Polarizability: cuspless exponential with width 0.39 and norm 3.3
       Positions in reference frame:
         [ +0.000000 -1.441945 +1.122523 ]
         [ +0.000000 +1.441945 +1.122523 ]
     Net charge: 0   dipole magnitude: 0.927204
     Initializing spherical shell mfKernel with radius 2.61727 Bohr
     deltaS corrections:
       site 'O': -7.54299
       site 'H': -6.83917
   Initializing fluid molecule 'Na+'
     Initializing site 'Na'
       Electron density: proportional to exp(-r/0.19682)*erfc((r-0.71491)/0.41314) with norm 8.1383
       Charge density: gaussian nuclear width 0.365347 with net site charge -1
       Hard sphere radius: 1.86327 bohrs
       Positions in reference frame:
         [ +0.000000 +0.000000 +0.000000 ]
     Net charge: -1   dipole magnitude: 0
     Initializing gaussian mfKernel with width: 1.55004 Bohr
     deltaS corrections:
       site 'Na': -22.3555
   Initializing fluid molecule 'F-'
     Initializing site 'F'
       Electron density: proportional to exp(-r/0.38886)*erfc((r-0)/0.438782) with norm 8
       Charge density: gaussian nuclear width 0.374796 with net site charge 1
       Hard sphere radius: 2.39995 bohrs
       Positions in reference frame:
         [ +0.000000 +0.000000 +0.000000 ]
     Net charge: 1   dipole magnitude: 0
     Initializing gaussian mfKernel with width: 1.59012 Bohr
     deltaS corrections:
       site 'F': -9.04335

Correction to mu due to finite nuclear width = -0.0147395
   Cavity determined by nc: 0.00142 and sigma: 0.707107
   Nonlocal vdW cavity from gaussian model electron density with norm = 8 and sigma = 0.993594 bohr
   Charge asymmetry in cavity with sensitivity pCavity = 36.5 e-bohr/Eh
   Electrostatic cavity expanded by eta = 1.46 bohrs
   Weighted density cavitation model constrained by Nbulk: 0.0049383 bohr^-3, Pvap: 3.14029 kPa, Rvdw: 2.61727 bohr and sigmaBulk: 4.62e-05 Eh/bohr^2 at T: 298 K.
   Weighted density dispersion model using vdW pair potentials with single solvent site with sqrtC6eff: 0.77 SI.
Reading fluid state from 'NbTe2.fluidState'


---- Citations for features of the code used in this run ----

   Software package:
      R. Sundararaman, K. Letchworth-Weaver, K.A. Schwarz, D. Gunceler, Y. Ozhabes and T.A. Arias, 'JDFTx: software for joint density-functional theory', SoftwareX 6, 278 (2017)

   gga-PBE exchange-correlation functional:
      J.P. Perdew, K. Burke and M. Ernzerhof, Phys. Rev. Lett. 77, 3865 (1996)

   Pseudopotentials:
      KF Garrity, JW Bennett, KM Rabe and D Vanderbilt, Comput. Mater. Sci. 81, 446 (2014)

   Truncated Coulomb potentials:
      R. Sundararaman and T.A. Arias, Phys. Rev. B 87, 165122 (2013)

   Van der Waals correction pair-potentials:
      S. Grimme, J. Comput. Chem. 27, 1787 (2006)

   Charge-asymmetric nonlocally-determined local-electric (CANDLE) solvation model:
      R. Sundararaman and W.A. Goddard III, J. Chem. Phys. 142, 064107 (2015)

   Total energy minimization with Auxiliary Hamiltonian:
      C. Freysoldt, S. Boeck, and J. Neugebauer, Phys. Rev. B 79, 241103(R) (2009)

   Grand-canonical (fixed-potential) DFT:
      R. Sundararaman, W. A. Goddard III and T. A. Arias, J. Chem. Phys. 146, 114104 (2017)

This list may not be complete. Please suggest additional citations or
report any other bugs at https://github.com/shankar1729/jdftx/issues

Initialization completed successfully at t[s]:     45.07

Shifting auxilliary hamiltonian by -0.013324 to set nElectrons=504.000000
	Linear fluid (dielectric constant: 78.4, screening length: 5.74355 Bohr) occupying 0.623516 of unit cell:	Completed after 8 iterations at t[s]:     53.55

-------- Electronic minimization -----------
	Linear fluid (dielectric constant: 78.4, screening length: 5.74355 Bohr) occupying 0.623516 of unit cell:	Completed after 0 iterations at t[s]:     62.02
	FillingsUpdate:  mu: -0.171251800  nElectrons: 504.000000
ElecMinimize: Iter:   0  G: -1837.821856925073689  |grad|_K:  7.391e-06  alpha:  1.000e+00
	Linear fluid (dielectric constant: 78.4, screening length: 5.74355 Bohr) occupying 0.623644 of unit cell:	Completed after 23 iterations at t[s]:    118.09
	Linear fluid (dielectric constant: 78.4, screening length: 5.74355 Bohr) occupying 0.623518 of unit cell:	Completed after 24 iterations at t[s]:    135.74
	FillingsUpdate:  mu: -0.171251800  nElectrons: 503.974523
	SubspaceRotationAdjust: set factor to 0.504
ElecMinimize: Iter:   1  G: -1837.822116834110147  |grad|_K:  4.331e-06  alpha:  1.415e-02  linmin: -2.556e-02  t[s]:    153.64
	Linear fluid (dielectric constant: 78.4, screening length: 5.74355 Bohr) occupying 0.623524 of unit cell:	Completed after 14 iterations at t[s]:    171.40
	Linear fluid (dielectric constant: 78.4, screening length: 5.74355 Bohr) occupying 0.623532 of unit cell:	Completed after 14 iterations at t[s]:    187.67
	FillingsUpdate:  mu: -0.171251800  nElectrons: 503.922459
	SubspaceRotationAdjust: set factor to 0.264
ElecMinimize: Iter:   2  G: -1837.822338695686767  |grad|_K:  4.401e-06  alpha:  3.524e-02  linmin: -1.684e-04  t[s]:    206.33
	Linear fluid (dielectric constant: 78.4, screening length: 5.74355 Bohr) occupying 0.623559 of unit cell:	Completed after 18 iterations at t[s]:    224.36
	Linear fluid (dielectric constant: 78.4, screening length: 5.74355 Bohr) occupying 0.623584 of unit cell:	Completed after 18 iterations at t[s]:    240.68
	FillingsUpdate:  mu: -0.171251800  nElectrons: 503.838201
	SubspaceRotationAdjust: set factor to 0.148
ElecMinimize: Iter:   3  G: -1837.822647845576057  |grad|_K:  4.148e-06  alpha:  6.862e-02  linmin: -1.375e-04  t[s]:    258.72
	Linear fluid (dielectric constant: 78.4, screening length: 5.74355 Bohr) occupying 0.623651 of unit cell:	Completed after 20 iterations at t[s]:    277.49
	Linear fluid (dielectric constant: 78.4, screening length: 5.74355 Bohr) occupying 0.623637 of unit cell:	Completed after 16 iterations at t[s]:    293.52
	FillingsUpdate:  mu: -0.171251800  nElectrons: 503.800265
	SubspaceRotationAdjust: set factor to 0.139
ElecMinimize: Iter:   4  G: -1837.822860322061388  |grad|_K:  2.001e-06  alpha:  5.336e-02  linmin:  1.970e-05  t[s]:    312.06
	Linear fluid (dielectric constant: 78.4, screening length: 5.74355 Bohr) occupying 0.623662 of unit cell:	Completed after 18 iterations at t[s]:    330.36
	Linear fluid (dielectric constant: 78.4, screening length: 5.74355 Bohr) occupying 0.623683 of unit cell:	Completed after 16 iterations at t[s]:    346.98
	FillingsUpdate:  mu: -0.171251800  nElectrons: 503.793785
	SubspaceRotationAdjust: set factor to 0.133
	SubspaceRotationAdjust: resetting CG because factor has changed by 0.132666
	Linear fluid (dielectric constant: 78.4, screening length: 5.74355 Bohr) occupying 0.623683 of unit cell:	Completed after 0 iterations at t[s]:    373.53
ElecMinimize: 	State modified externally: resetting search direction.
ElecMinimize: Iter:   5  G: -1837.822948559650285  |grad|_K:  1.796e-06  alpha:  9.744e-02
	Linear fluid (dielectric constant: 78.4, screening length: 5.74355 Bohr) occupying 0.623703 of unit cell:	Completed after 18 iterations at t[s]:    409.49
ElecMinimize: 	Predicted alpha/alphaT>3.000000, increasing alphaT to 2.923261e-01.
	Linear fluid (dielectric constant: 78.4, screening length: 5.74355 Bohr) occupying 0.623744 of unit cell:	Completed after 19 iterations at t[s]:    425.81
	Linear fluid (dielectric constant: 78.4, screening length: 5.74355 Bohr) occupying 0.623765 of unit cell:	Completed after 18 iterations at t[s]:    443.21
	FillingsUpdate:  mu: -0.171251800  nElectrons: 503.788536
	SubspaceRotationAdjust: set factor to 0.0918
ElecMinimize: Iter:   6  G: -1837.823236729728706  |grad|_K:  1.708e-06  alpha:  3.935e-01  linmin: -1.843e-04  t[s]:    461.35
	Linear fluid (dielectric constant: 78.4, screening length: 5.74355 Bohr) occupying 0.623921 of unit cell:	Completed after 20 iterations at t[s]:    479.76
	Linear fluid (dielectric constant: 78.4, screening length: 5.74355 Bohr) occupying 0.623858 of unit cell:	Completed after 18 iterations at t[s]:    496.61
	FillingsUpdate:  mu: -0.171251800  nElectrons: 503.809163
	SubspaceRotationAdjust: set factor to 0.0488
ElecMinimize: Iter:   7  G: -1837.823392755505665  |grad|_K:  6.525e-07  alpha:  2.348e-01  linmin:  2.361e-05  t[s]:    514.74
	Linear fluid (dielectric constant: 78.4, screening length: 5.74355 Bohr) occupying 0.623900 of unit cell:	Completed after 5 iterations at t[s]:    532.61
ElecMinimize: 	Predicted alpha/alphaT>3.000000, increasing alphaT to 7.042976e-01.
	Linear fluid (dielectric constant: 78.4, screening length: 5.74355 Bohr) occupying 0.623984 of unit cell:	Completed after 8 iterations at t[s]:    547.62
	Linear fluid (dielectric constant: 78.4, screening length: 5.74355 Bohr) occupying 0.624072 of unit cell:	Completed after 8 iterations at t[s]:    563.50
	FillingsUpdate:  mu: -0.171251800  nElectrons: 503.796774
	SubspaceRotationAdjust: set factor to 0.0739
ElecMinimize: Iter:   8  G: -1837.823509093951543  |grad|_K:  4.818e-07  alpha:  1.201e+00  linmin: -2.801e-04  t[s]:    582.08
	Linear fluid (dielectric constant: 78.4, screening length: 5.74355 Bohr) occupying 0.624244 of unit cell:	Completed after 15 iterations at t[s]:    599.89
	Linear fluid (dielectric constant: 78.4, screening length: 5.74355 Bohr) occupying 0.624223 of unit cell:	Completed after 3 iterations at t[s]:    615.94
	FillingsUpdate:  mu: -0.171251800  nElectrons: 503.776909
	SubspaceRotationAdjust: set factor to 0.0768
ElecMinimize: Iter:   9  G: -1837.823565199398217  |grad|_K:  5.631e-07  alpha:  1.051e+00  linmin:  3.279e-04  t[s]:    633.99
	Linear fluid (dielectric constant: 78.4, screening length: 5.74355 Bohr) occupying 0.624443 of unit cell:	Completed after 17 iterations at t[s]:    651.79
	Linear fluid (dielectric constant: 78.4, screening length: 5.74355 Bohr) occupying 0.624347 of unit cell:	Completed after 15 iterations at t[s]:    667.68
	FillingsUpdate:  mu: -0.171251800  nElectrons: 503.764795
	SubspaceRotationAdjust: set factor to 0.0658
ElecMinimize: Iter:  10  G: -1837.823605313015150  |grad|_K:  4.567e-07  alpha:  5.927e-01  linmin: -4.037e-05  t[s]:    685.58
	Linear fluid (dielectric constant: 78.4, screening length: 5.74355 Bohr) occupying 0.624415 of unit cell:	Completed after 14 iterations at t[s]:    703.52
	Linear fluid (dielectric constant: 78.4, screening length: 5.74355 Bohr) occupying 0.624407 of unit cell:	Completed after 3 iterations at t[s]:    718.85
	FillingsUpdate:  mu: -0.171251800  nElectrons: 503.747253
	SubspaceRotationAdjust: set factor to 0.0526
ElecMinimize: Iter:  11  G: -1837.823630217832033  |grad|_K:  3.540e-07  alpha:  5.242e-01  linmin:  2.278e-04  t[s]:    737.16
	Linear fluid (dielectric constant: 78.4, screening length: 5.74355 Bohr) occupying 0.624434 of unit cell:	Completed after 13 iterations at t[s]:    754.94
	Linear fluid (dielectric constant: 78.4, screening length: 5.74355 Bohr) occupying 0.624443 of unit cell:	Completed after 3 iterations at t[s]:    769.98
	FillingsUpdate:  mu: -0.171251800  nElectrons: 503.736979
	SubspaceRotationAdjust: set factor to 0.0666
ElecMinimize: Iter:  12  G: -1837.823649869961855  |grad|_K:  1.794e-07  alpha:  7.039e-01  linmin: -6.865e-04  t[s]:    788.75
	Linear fluid (dielectric constant: 78.4, screening length: 5.74355 Bohr) occupying 0.624442 of unit cell:	Completed after 3 iterations at t[s]:    805.18
	Linear fluid (dielectric constant: 78.4, screening length: 5.74355 Bohr) occupying 0.624441 of unit cell:	Completed after 3 iterations at t[s]:    820.14
	FillingsUpdate:  mu: -0.171251800  nElectrons: 503.732115
	SubspaceRotationAdjust: set factor to 0.0726
ElecMinimize: Iter:  13  G: -1837.823658945136913  |grad|_K:  1.552e-07  alpha:  1.189e+00  linmin: -1.561e-04  t[s]:    839.11
	Linear fluid (dielectric constant: 78.4, screening length: 5.74355 Bohr) occupying 0.624437 of unit cell:	Completed after 3 iterations at t[s]:    855.27
	Linear fluid (dielectric constant: 78.4, screening length: 5.74355 Bohr) occupying 0.624439 of unit cell:	Completed after 3 iterations at t[s]:    870.45
	FillingsUpdate:  mu: -0.171251800  nElectrons: 503.729521
	SubspaceRotationAdjust: set factor to 0.0828
ElecMinimize: Iter:  14  G: -1837.823662399668137  |grad|_K:  1.202e-07  alpha:  6.347e-01  linmin:  5.768e-05  t[s]:    889.01
	Linear fluid (dielectric constant: 78.4, screening length: 5.74355 Bohr) occupying 0.624438 of unit cell:	Completed after 2 iterations at t[s]:    905.05
	Linear fluid (dielectric constant: 78.4, screening length: 5.74355 Bohr) occupying 0.624438 of unit cell:	Completed after 6 iterations at t[s]:    921.86
	FillingsUpdate:  mu: -0.171251800  nElectrons: 503.726601
	SubspaceRotationAdjust: set factor to 0.0639
ElecMinimize: Iter:  15  G: -1837.823665455417768  |grad|_K:  1.322e-07  alpha:  1.072e+00  linmin:  2.003e-03  t[s]:    940.18
	Linear fluid (dielectric constant: 78.4, screening length: 5.74355 Bohr) occupying 0.624444 of unit cell:	Completed after 13 iterations at t[s]:    957.95
	Linear fluid (dielectric constant: 78.4, screening length: 5.74355 Bohr) occupying 0.624440 of unit cell:	Completed after 14 iterations at t[s]:    973.96
	FillingsUpdate:  mu: -0.171251800  nElectrons: 503.727481
	SubspaceRotationAdjust: set factor to 0.0593
ElecMinimize: Iter:  16  G: -1837.823666727466161  |grad|_K:  8.624e-08  alpha:  3.399e-01  linmin: -1.839e-04  t[s]:    992.69
	Linear fluid (dielectric constant: 78.4, screening length: 5.74355 Bohr) occupying 0.624441 of unit cell:	Completed after 0 iterations at t[s]:   1008.83
	Linear fluid (dielectric constant: 78.4, screening length: 5.74355 Bohr) occupying 0.624445 of unit cell:	Completed after 2 iterations at t[s]:   1024.11
	FillingsUpdate:  mu: -0.171251800  nElectrons: 503.728179
	SubspaceRotationAdjust: set factor to 0.0778
ElecMinimize: Iter:  17  G: -1837.823668154565439  |grad|_K:  7.533e-08  alpha:  9.979e-01  linmin:  2.608e-03  t[s]:   1042.96
	Linear fluid (dielectric constant: 78.4, screening length: 5.74355 Bohr) occupying 0.624450 of unit cell:	Completed after 3 iterations at t[s]:   1059.84
	Linear fluid (dielectric constant: 78.4, screening length: 5.74355 Bohr) occupying 0.624450 of unit cell:	Completed after 0 iterations at t[s]:   1074.19
	FillingsUpdate:  mu: -0.171251800  nElectrons: 503.727904
	SubspaceRotationAdjust: set factor to 0.105
ElecMinimize: Iter:  18  G: -1837.823669216623102  |grad|_K:  6.029e-08  alpha:  9.813e-01  linmin: -4.143e-04  t[s]:   1092.24
	Linear fluid (dielectric constant: 78.4, screening length: 5.74355 Bohr) occupying 0.624452 of unit cell:	Completed after 8 iterations at t[s]:   1109.37
	Linear fluid (dielectric constant: 78.4, screening length: 5.74355 Bohr) occupying 0.624451 of unit cell:	Completed after 4 iterations at t[s]:   1124.82
	FillingsUpdate:  mu: -0.171251800  nElectrons: 503.727317
	SubspaceRotationAdjust: set factor to 0.0731
ElecMinimize: Iter:  19  G: -1837.823669614338314  |grad|_K:  1.029e-07  alpha:  5.275e-01  linmin:  2.787e-03  t[s]:   1143.92
	Linear fluid (dielectric constant: 78.4, screening length: 5.74355 Bohr) occupying 0.624455 of unit cell:	Completed after 5 iterations at t[s]:   1160.92
	Linear fluid (dielectric constant: 78.4, screening length: 5.74355 Bohr) occupying 0.624453 of unit cell:	Completed after 3 iterations at t[s]:   1176.22
	FillingsUpdate:  mu: -0.171251800  nElectrons: 503.727739
	SubspaceRotationAdjust: set factor to 0.109
ElecMinimize: Iter:  20  G: -1837.823670004233009  |grad|_K:  6.924e-08  alpha:  2.312e-01  linmin:  4.166e-04  t[s]:   1194.38
	Linear fluid (dielectric constant: 78.4, screening length: 5.74355 Bohr) occupying 0.624454 of unit cell:	Completed after 0 iterations at t[s]:   1211.18
ElecMinimize: 	Predicted alpha/alphaT>3.000000, increasing alphaT to 6.937155e-01.
	Linear fluid (dielectric constant: 78.4, screening length: 5.74355 Bohr) occupying 0.624455 of unit cell:	Completed after 11 iterations at t[s]:   1226.67
	Linear fluid (dielectric constant: 78.4, screening length: 5.74355 Bohr) occupying 0.624454 of unit cell:	Completed after 11 iterations at t[s]:   1242.56
	FillingsUpdate:  mu: -0.171251800  nElectrons: 503.728397
	SubspaceRotationAdjust: set factor to 0.0828
ElecMinimize: Iter:  21  G: -1837.823670213532296  |grad|_K:  6.437e-08  alpha:  2.243e-01  linmin:  1.641e-03  t[s]:   1267.07
	Linear fluid (dielectric constant: 78.4, screening length: 5.74355 Bohr) occupying 0.624454 of unit cell:	Completed after 0 iterations at t[s]:   1282.99
	Linear fluid (dielectric constant: 78.4, screening length: 5.74355 Bohr) occupying 0.624453 of unit cell:	Completed after 0 iterations at t[s]:   1298.63
	FillingsUpdate:  mu: -0.171251800  nElectrons: 503.728338
	SubspaceRotationAdjust: set factor to 0.0856
ElecMinimize: Iter:  22  G: -1837.823670584893534  |grad|_K:  5.328e-08  alpha:  4.839e-01  linmin: -5.465e-06  t[s]:   1317.25
	Linear fluid (dielectric constant: 78.4, screening length: 5.74355 Bohr) occupying 0.624452 of unit cell:	Completed after 10 iterations at t[s]:   1334.62
	Linear fluid (dielectric constant: 78.4, screening length: 5.74355 Bohr) occupying 0.624453 of unit cell:	Completed after 4 iterations at t[s]:   1350.37
ElecMinimize: 	Step increased G by 2.298293e-09, reducing alpha to 1.553447e-02.
	Linear fluid (dielectric constant: 78.4, screening length: 5.74355 Bohr) occupying 0.624453 of unit cell:	Completed after 0 iterations at t[s]:   1381.87
	FillingsUpdate:  mu: -0.171251800  nElectrons: 503.728306
	SubspaceRotationAdjust: set factor to 0.058
ElecMinimize: Iter:  23  G: -1837.823670653886893  |grad|_K:  5.840e-08  alpha:  1.553e-02  linmin:  3.142e-03  t[s]:   1400.91
	Linear fluid (dielectric constant: 78.4, screening length: 5.74355 Bohr) occupying 0.624453 of unit cell:	Completed after 0 iterations at t[s]:   1417.59
ElecMinimize: 	Predicted alpha/alphaT>3.000000, increasing alphaT to 4.660340e-02.
	Linear fluid (dielectric constant: 78.4, screening length: 5.74355 Bohr) occupying 0.624453 of unit cell:	Completed after 0 iterations at t[s]:   1431.93
ElecMinimize: 	Predicted alpha/alphaT>3.000000, increasing alphaT to 1.398102e-01.
	Linear fluid (dielectric constant: 78.4, screening length: 5.74355 Bohr) occupying 0.624453 of unit cell:	Completed after 0 iterations at t[s]:   1446.72
	Linear fluid (dielectric constant: 78.4, screening length: 5.74355 Bohr) occupying 0.624452 of unit cell:	Completed after 0 iterations at t[s]:   1462.17
	FillingsUpdate:  mu: -0.171251800  nElectrons: 503.728208
	SubspaceRotationAdjust: set factor to 0.0536
ElecMinimize: Iter:  24  G: -1837.823670834961831  |grad|_K:  4.733e-08  alpha:  3.438e-01  linmin:  1.469e-05  t[s]:   1480.33
	Linear fluid (dielectric constant: 78.4, screening length: 5.74355 Bohr) occupying 0.624452 of unit cell:	Completed after 8 iterations at t[s]:   1497.70
	Linear fluid (dielectric constant: 78.4, screening length: 5.74355 Bohr) occupying 0.624452 of unit cell:	Completed after 0 iterations at t[s]:   1512.30
ElecMinimize: 	Step increased G by 8.398865e-08, reducing alpha to 1.042916e-02.
	Linear fluid (dielectric constant: 78.4, screening length: 5.74355 Bohr) occupying 0.624452 of unit cell:	Completed after 0 iterations at t[s]:   1543.21
ElecMinimize: 	Step increased G by 5.972993e-08, reducing alpha to 1.042916e-03.
	Linear fluid (dielectric constant: 78.4, screening length: 5.74355 Bohr) occupying 0.624452 of unit cell:	Completed after 0 iterations at t[s]:   1575.04
ElecMinimize: 	Step increased G by 5.729839e-08, reducing alpha to 1.042916e-04.
ElecMinimize: 	Step failed to reduce G after 3 attempts. Quitting step.
ElecMinimize: 	Undoing step.
	Linear fluid (dielectric constant: 78.4, screening length: 5.74355 Bohr) occupying 0.624452 of unit cell:	Completed after 0 iterations at t[s]:   1606.27
ElecMinimize: 	Step failed: resetting search direction.
	FillingsUpdate:  mu: -0.171251800  nElectrons: 503.728209
	SubspaceRotationAdjust: set factor to 0.0355
ElecMinimize: Iter:  25  G: -1837.823670777677762  |grad|_K:  4.308e-08  alpha:  1.043e-04
	Linear fluid (dielectric constant: 78.4, screening length: 5.74355 Bohr) occupying 0.624452 of unit cell:	Completed after 3 iterations at t[s]:   1642.36
	Linear fluid (dielectric constant: 78.4, screening length: 5.74355 Bohr) occupying 0.624452 of unit cell:	Completed after 0 iterations at t[s]:   1657.23
	FillingsUpdate:  mu: -0.171251800  nElectrons: 503.727954
	SubspaceRotationAdjust: set factor to 0.0542
ElecMinimize: Iter:  26  G: -1837.823670823228440  |grad|_K:  2.280e-08  alpha:  2.334e-01  linmin: -1.225e-02  t[s]:   1675.84
	Linear fluid (dielectric constant: 78.4, screening length: 5.74355 Bohr) occupying 0.624452 of unit cell:	Completed after 0 iterations at t[s]:   1692.04
ElecMinimize: 	Predicted alpha/alphaT>3.000000, increasing alphaT to 7.003419e-01.
	Linear fluid (dielectric constant: 78.4, screening length: 5.74355 Bohr) occupying 0.624452 of unit cell:	Completed after 0 iterations at t[s]:   1706.52
	Linear fluid (dielectric constant: 78.4, screening length: 5.74355 Bohr) occupying 0.624451 of unit cell:	Completed after 8 iterations at t[s]:   1722.65
ElecMinimize: 	Step increased G by 2.324837e-07, reducing alpha to 1.014678e-01.
	Linear fluid (dielectric constant: 78.4, screening length: 5.74355 Bohr) occupying 0.624452 of unit cell:	Completed after 3 iterations at t[s]:   1754.80
ElecMinimize: 	Step increased G by 1.010289e-08, reducing alpha to 1.014678e-02.
	Linear fluid (dielectric constant: 78.4, screening length: 5.74355 Bohr) occupying 0.624452 of unit cell:	Completed after 0 iterations at t[s]:   1786.14
ElecMinimize: 	Step increased G by 6.228902e-09, reducing alpha to 1.014678e-03.
ElecMinimize: 	Step failed to reduce G after 3 attempts. Quitting step.
ElecMinimize: 	Undoing step.
	Linear fluid (dielectric constant: 78.4, screening length: 5.74355 Bohr) occupying 0.624452 of unit cell:	Completed after 0 iterations at t[s]:   1818.16
ElecMinimize: 	Step failed: resetting search direction.
	FillingsUpdate:  mu: -0.171251800  nElectrons: 503.727948
	SubspaceRotationAdjust: set factor to 0.0377
ElecMinimize: Iter:  27  G: -1837.823670816950198  |grad|_K:  5.245e-08  alpha:  1.015e-03
	Linear fluid (dielectric constant: 78.4, screening length: 5.74355 Bohr) occupying 0.624452 of unit cell:	Completed after 6 iterations at t[s]:   1853.23
	Linear fluid (dielectric constant: 78.4, screening length: 5.74355 Bohr) occupying 0.624452 of unit cell:	Completed after 0 iterations at t[s]:   1868.30
	FillingsUpdate:  mu: -0.171251800  nElectrons: 503.728200
	SubspaceRotationAdjust: set factor to 0.0232
ElecMinimize: Iter:  28  G: -1837.823670847309586  |grad|_K:  2.009e-08  alpha:  1.306e-01  linmin: -5.898e-04  t[s]:   1886.91
	Linear fluid (dielectric constant: 78.4, screening length: 5.74355 Bohr) occupying 0.624452 of unit cell:	Completed after 0 iterations at t[s]:   1902.51
ElecMinimize: 	Predicted alpha/alphaT>3.000000, increasing alphaT to 3.918421e-01.
	Linear fluid (dielectric constant: 78.4, screening length: 5.74355 Bohr) occupying 0.624453 of unit cell:	Completed after 0 iterations at t[s]:   1916.99
	Linear fluid (dielectric constant: 78.4, screening length: 5.74355 Bohr) occupying 0.624453 of unit cell:	Completed after 0 iterations at t[s]:   1932.03
	FillingsUpdate:  mu: -0.171251800  nElectrons: 503.728355
	SubspaceRotationAdjust: set factor to 0.0334
ElecMinimize: Iter:  29  G: -1837.823670937152883  |grad|_K:  1.314e-08  alpha:  7.194e-01  linmin: -2.992e-02  t[s]:   1950.29
	Linear fluid (dielectric constant: 78.4, screening length: 5.74355 Bohr) occupying 0.624453 of unit cell:	Completed after 0 iterations at t[s]:   1966.63
	Linear fluid (dielectric constant: 78.4, screening length: 5.74355 Bohr) occupying 0.624454 of unit cell:	Completed after 3 iterations at t[s]:   1983.04
ElecMinimize: 	Step increased G by 1.497913e-07, reducing alpha to 1.759391e-01.
	Linear fluid (dielectric constant: 78.4, screening length: 5.74355 Bohr) occupying 0.624453 of unit cell:	Completed after 0 iterations at t[s]:   2013.98
	FillingsUpdate:  mu: -0.171251800  nElectrons: 503.728363
	SubspaceRotationAdjust: set factor to 0.0312
ElecMinimize: Iter:  30  G: -1837.823670964341545  |grad|_K:  2.490e-08  alpha:  1.759e-01  linmin:  1.236e-02  t[s]:   2032.74
	Linear fluid (dielectric constant: 78.4, screening length: 5.74355 Bohr) occupying 0.624453 of unit cell:	Completed after 0 iterations at t[s]:   2048.93
	Linear fluid (dielectric constant: 78.4, screening length: 5.74355 Bohr) occupying 0.624453 of unit cell:	Completed after 0 iterations at t[s]:   2063.59
	FillingsUpdate:  mu: -0.171251800  nElectrons: 503.728373
	SubspaceRotationAdjust: set factor to 0.0394
ElecMinimize: Iter:  31  G: -1837.823670966923601  |grad|_K:  2.406e-08  alpha:  7.289e-02  linmin: -1.800e-06  t[s]:   2082.12
	Linear fluid (dielectric constant: 78.4, screening length: 5.74355 Bohr) occupying 0.624453 of unit cell:	Completed after 0 iterations at t[s]:   2099.72
ElecMinimize: 	Predicted alpha/alphaT>3.000000, increasing alphaT to 2.186567e-01.
	Linear fluid (dielectric constant: 78.4, screening length: 5.74355 Bohr) occupying 0.624453 of unit cell:	Completed after 2 iterations at t[s]:   2114.61
	Linear fluid (dielectric constant: 78.4, screening length: 5.74355 Bohr) occupying 0.624453 of unit cell:	Completed after 0 iterations at t[s]:   2129.11
ElecMinimize: 	Step increased G by 5.449965e-08, reducing alpha to 5.778342e-03.
	Linear fluid (dielectric constant: 78.4, screening length: 5.74355 Bohr) occupying 0.624453 of unit cell:	Completed after 0 iterations at t[s]:   2160.91
ElecMinimize: 	Step increased G by 6.168375e-08, reducing alpha to 5.778342e-04.
	Linear fluid (dielectric constant: 78.4, screening length: 5.74355 Bohr) occupying 0.624453 of unit cell:	Completed after 0 iterations at t[s]:   2192.12
ElecMinimize: 	Step increased G by 6.258642e-08, reducing alpha to 5.778342e-05.
ElecMinimize: 	Step failed to reduce G after 3 attempts. Quitting step.
ElecMinimize: 	Undoing step.
	Linear fluid (dielectric constant: 78.4, screening length: 5.74355 Bohr) occupying 0.624453 of unit cell:	Completed after 0 iterations at t[s]:   2223.94
ElecMinimize: 	Step failed: resetting search direction.
	FillingsUpdate:  mu: -0.171251800  nElectrons: 503.728373
	SubspaceRotationAdjust: set factor to 0.0569
ElecMinimize: Iter:  32  G: -1837.823670904374922  |grad|_K:  1.334e-08  alpha:  5.778e-05
	Linear fluid (dielectric constant: 78.4, screening length: 5.74355 Bohr) occupying 0.624453 of unit cell:	Completed after 0 iterations at t[s]:   2258.24
ElecMinimize: 	Predicted alpha/alphaT>3.000000, increasing alphaT to 2.186567e-01.
	Linear fluid (dielectric constant: 78.4, screening length: 5.74355 Bohr) occupying 0.624453 of unit cell:	Completed after 0 iterations at t[s]:   2272.19
ElecMinimize: 	Predicted alpha/alphaT>3.000000, increasing alphaT to 6.559701e-01.
	Linear fluid (dielectric constant: 78.4, screening length: 5.74355 Bohr) occupying 0.624453 of unit cell:	Completed after 0 iterations at t[s]:   2287.10
ElecMinimize: 	Predicted alpha/alphaT>3.000000, increasing alphaT to 1.967910e+00.
	Linear fluid (dielectric constant: 78.4, screening length: 5.74355 Bohr) occupying 0.624451 of unit cell:	Completed after 3 iterations at t[s]:   2302.20
ElecMinimize: 	Step increased G by 1.817730e-07, reducing alpha to 2.978196e-01.
	Linear fluid (dielectric constant: 78.4, screening length: 5.74355 Bohr) occupying 0.624453 of unit cell:	Completed after 2 iterations at t[s]:   2334.38
	FillingsUpdate:  mu: -0.171251800  nElectrons: 503.728356
	SubspaceRotationAdjust: set factor to 0.0487
ElecMinimize: Iter:  33  G: -1837.823670922151450  |grad|_K:  1.257e-08  alpha:  2.978e-01  linmin: -3.101e-03  t[s]:   2352.60
	Linear fluid (dielectric constant: 78.4, screening length: 5.74355 Bohr) occupying 0.624453 of unit cell:	Completed after 0 iterations at t[s]:   2369.09
ElecMinimize: 	Predicted alpha/alphaT>3.000000, increasing alphaT to 8.934587e-01.
	Linear fluid (dielectric constant: 78.4, screening length: 5.74355 Bohr) occupying 0.624452 of unit cell:	Completed after 0 iterations at t[s]:   2384.23
	Linear fluid (dielectric constant: 78.4, screening length: 5.74355 Bohr) occupying 0.624451 of unit cell:	Completed after 0 iterations at t[s]:   2398.74
	FillingsUpdate:  mu: -0.171251800  nElectrons: 503.727746
	SubspaceRotationAdjust: set factor to 0.0717
ElecMinimize: Iter:  34  G: -1837.823670979250210  |grad|_K:  1.442e-08  alpha:  1.512e+00  linmin:  6.145e-05  t[s]:   2416.63
	Linear fluid (dielectric constant: 78.4, screening length: 5.74355 Bohr) occupying 0.624448 of unit cell:	Completed after 9 iterations at t[s]:   2434.13
	Linear fluid (dielectric constant: 78.4, screening length: 5.74355 Bohr) occupying 0.624451 of unit cell:	Completed after 4 iterations at t[s]:   2448.71
ElecMinimize: 	Step increased G by 3.005198e-09, reducing alpha to 1.089042e-02.
	Linear fluid (dielectric constant: 78.4, screening length: 5.74355 Bohr) occupying 0.624451 of unit cell:	Completed after 0 iterations at t[s]:   2480.27
	FillingsUpdate:  mu: -0.171251800  nElectrons: 503.727737
	SubspaceRotationAdjust: set factor to 0.0416
ElecMinimize: Iter:  35  G: -1837.823671020348229  |grad|_K:  7.683e-08  alpha:  1.089e-02  linmin:  1.902e-02  t[s]:   2499.16
ElecMinimize: 	Bad step direction: g.d > 0.
ElecMinimize: 	Undoing step.
	Linear fluid (dielectric constant: 78.4, screening length: 5.74355 Bohr) occupying 0.624451 of unit cell:	Completed after 0 iterations at t[s]:   2515.20
ElecMinimize: 	Step failed: resetting search direction.
	FillingsUpdate:  mu: -0.171251800  nElectrons: 503.727737
	SubspaceRotationAdjust: set factor to 0.0266
ElecMinimize: Iter:  36  G: -1837.823671020390975  |grad|_K:  6.141e-08  alpha:  0.000e+00
	Linear fluid (dielectric constant: 78.4, screening length: 5.74355 Bohr) occupying 0.624451 of unit cell:	Completed after 0 iterations at t[s]:   2549.82
ElecMinimize: 	Wrong curvature in test step, increasing alphaT to 3.267127e-02.
	Linear fluid (dielectric constant: 78.4, screening length: 5.74355 Bohr) occupying 0.624451 of unit cell:	Completed after 0 iterations at t[s]:   2559.68
	FillingsUpdate:  mu: -0.171251800  nElectrons: 503.727761
	SubspaceRotationAdjust: set factor to 0.019
ElecMinimize: Iter:  37  G: -1837.823671039047895  |grad|_K:  5.189e-08  alpha: -2.577e+00  linmin: -3.068e-02  t[s]:   2578.52
	Linear fluid (dielectric constant: 78.4, screening length: 5.74355 Bohr) occupying 0.624455 of unit cell:	Completed after 12 iterations at t[s]:   2595.64
	Linear fluid (dielectric constant: 78.4, screening length: 5.74355 Bohr) occupying 0.624452 of unit cell:	Completed after 13 iterations at t[s]:   2611.19
ElecMinimize: 	Step increased G by 1.344138e-07, reducing alpha to 1.892243e-02.
	Linear fluid (dielectric constant: 78.4, screening length: 5.74355 Bohr) occupying 0.624451 of unit cell:	Completed after 0 iterations at t[s]:   2642.81
	FillingsUpdate:  mu: -0.171251800  nElectrons: 503.727816
	SubspaceRotationAdjust: set factor to 0.0083
	SubspaceRotationAdjust: resetting CG because factor has changed by 0.0625874
	Linear fluid (dielectric constant: 78.4, screening length: 5.74355 Bohr) occupying 0.624451 of unit cell:	Completed after 0 iterations at t[s]:   2669.70
ElecMinimize: 	State modified externally: resetting search direction.
ElecMinimize: Iter:  38  G: -1837.823671060419429  |grad|_K:  2.002e-08  alpha:  1.892e-02
	Linear fluid (dielectric constant: 78.4, screening length: 5.74355 Bohr) occupying 0.624451 of unit cell:	Completed after 0 iterations at t[s]:   2703.74
ElecMinimize: 	Predicted alpha/alphaT>3.000000, increasing alphaT to 5.676730e-02.
	Linear fluid (dielectric constant: 78.4, screening length: 5.74355 Bohr) occupying 0.624451 of unit cell:	Completed after 0 iterations at t[s]:   2718.82
ElecMinimize: 	Predicted alpha/alphaT>3.000000, increasing alphaT to 1.703019e-01.
	Linear fluid (dielectric constant: 78.4, screening length: 5.74355 Bohr) occupying 0.624451 of unit cell:	Completed after 0 iterations at t[s]:   2733.44
ElecMinimize: 	Predicted alpha/alphaT>3.000000, increasing alphaT to 5.109057e-01.
	Linear fluid (dielectric constant: 78.4, screening length: 5.74355 Bohr) occupying 0.624450 of unit cell:	Completed after 9 iterations at t[s]:   2749.28
ElecMinimize: 	Step increased G by 4.065121e-07, reducing alpha to 1.505143e-01.
	Linear fluid (dielectric constant: 78.4, screening length: 5.74355 Bohr) occupying 0.624451 of unit cell:	Completed after 2 iterations at t[s]:   2780.91
ElecMinimize: 	Step increased G by 1.080070e-07, reducing alpha to 1.505143e-02.
	Linear fluid (dielectric constant: 78.4, screening length: 5.74355 Bohr) occupying 0.624451 of unit cell:	Completed after 0 iterations at t[s]:   2812.19
ElecMinimize: 	Step increased G by 9.301880e-08, reducing alpha to 1.505143e-03.
ElecMinimize: 	Step failed to reduce G after 3 attempts. Quitting step.
ElecMinimize: 	Undoing step.
	Linear fluid (dielectric constant: 78.4, screening length: 5.74355 Bohr) occupying 0.624451 of unit cell:	Completed after 0 iterations at t[s]:   2843.75
ElecMinimize: 	Step failed along negative gradient direction.
ElecMinimize: Probably at roundoff error limit. (Stopping)
Setting wave functions to eigenvectors of Hamiltonian

# Ionic positions in lattice coordinates:
ion Bi   0.166673839102739   0.333332064207496   0.640922897839289 0
ion Bi   0.666673839102739   0.333332064207496   0.640922897839289 0
ion Bi   0.166673839102739   0.833332064207496   0.640922897839289 0
ion Bi   0.666673839102739   0.833332064207496   0.640922897839289 0
ion Bi   0.333339393087170   0.166679988182355   0.359076201809938 0
ion Bi   0.833339393087170   0.166679988182355   0.359076201809938 0
ion Bi   0.333339393087170   0.666679988182355   0.359076201809938 0
ion Bi   0.833339393087170   0.666679988182355   0.359076201809938 0
ion Bi   0.999958490370009   0.999966605390891   0.249240170045599 0
ion Bi   0.499958490370009   0.999966605390891   0.249240170045599 0
ion Bi   0.999958490370009   0.499966605390891   0.249240170045599 0
ion Bi   0.499958490370009   0.499966605390891   0.249240170045599 0
ion Bi   0.999998912178099   0.999987417573806   0.750760804748779 0
ion Bi   0.499998912178099   0.999987417573806   0.750760804748779 0
ion Bi   0.999998912178099   0.499987417573806   0.750760804748779 0
ion Bi   0.499998912178099   0.499987417573806   0.750760804748779 0
ion Bi   0.333351123144777   0.166689233215259   0.522869874243234 0
ion Bi   0.833351123144777   0.166689233215259   0.522869874243234 0
ion Bi   0.333351123144777   0.666689233215259   0.522869874243234 0
ion Bi   0.833351123144777   0.666689233215259   0.522869874243234 0
ion Bi   0.166679883766500   0.333351067628536   0.477132996748172 0
ion Bi   0.666679883766500   0.333351067628536   0.477132996748172 0
ion Bi   0.166679883766500   0.833351067628536   0.477132996748172 0
ion Bi   0.666679883766500   0.833351067628536   0.477132996748172 0
ion Te   0.166668740115283   0.333328649063045   0.796996469022831 0
ion Te   0.666668740115283   0.333328649063045   0.796996469022831 0
ion Te   0.166668740115283   0.833328649063045   0.796996469022831 0
ion Te   0.666668740115283   0.833328649063045   0.796996469022831 0
ion Te   0.333304122339880   0.166640818202360   0.203003535064902 0
ion Te   0.833304122339880   0.166640818202360   0.203003535064902 0
ion Te   0.333304122339880   0.666640818202360   0.203003535064902 0
ion Te   0.833304122339880   0.666640818202360   0.203003535064902 0
ion Te   0.000017052715980   0.000027778092767   0.406073371553698 0
ion Te   0.500017052715980   0.000027778092767   0.406073371553698 0
ion Te   0.000017052715980   0.500027778092767   0.406073371553698 0
ion Te   0.500017052715980   0.500027778092767   0.406073371553698 0
ion Te   0.000006734975751  -0.000003667418902   0.593924867248981 0
ion Te   0.500006734975751  -0.000003667418902   0.593924867248981 0
ion Te   0.000006734975751   0.499996332581098   0.593924867248981 0
ion Te   0.500006734975751   0.499996332581098   0.593924867248981 0
ion Te   0.333336934218630   0.166663963099732   0.695472962525520 0
ion Te   0.833336934218631   0.166663963099732   0.695472962525520 0
ion Te   0.333336934218630   0.666663963099732   0.695472962525520 0
ion Te   0.833336934218630   0.666663963099732   0.695472962525520 0
ion Te   0.166664773985196   0.333336082762654   0.304525849149058 0
ion Te   0.666664773985196   0.333336082762654   0.304525849149058 0
ion Te   0.166664773985196   0.833336082762654   0.304525849149058 0
ion Te   0.666664773985196   0.833336082762654   0.304525849149058 0


# Forces in Lattice coordinates:
force Bi  -0.000535965396465   0.000530614439213   0.106358772109924 0
force Bi  -0.000535965396465   0.000530614439213   0.106358772110833 0
force Bi  -0.000535965396465   0.000530614439213   0.106358772110833 0
force Bi  -0.000535965396465   0.000530614439213   0.106358772110833 0
force Bi   0.000531569506390  -0.000520034638090  -0.106718423599276 0
force Bi   0.000531569506390  -0.000520034638090  -0.106718423599276 0
force Bi   0.000531569506390  -0.000520034638090  -0.106718423599276 0
force Bi   0.000531569506390  -0.000520034638090  -0.106718423599276 0
force Bi   0.000156372464973   0.000099939568576  -0.214189204464196 0
force Bi   0.000156372464973   0.000099939568576  -0.214189204464196 0
force Bi   0.000156372464973   0.000099939568576  -0.214189204464196 0
force Bi   0.000156372464973   0.000099939568576  -0.214189204464196 0
force Bi  -0.000067648873632  -0.000001404325166   0.215619773357584 0
force Bi  -0.000067648873632  -0.000001404325166   0.215619773357584 0
force Bi  -0.000067648873632  -0.000001404325166   0.215619773357584 0
force Bi  -0.000067648873632  -0.000001404325166   0.215619773356673 0
force Bi   0.000575028304726  -0.000474028100392  -0.016495280250663 0
force Bi   0.000575028304726  -0.000474028100392  -0.016495280250888 0
force Bi   0.000575028304726  -0.000474028100392  -0.016495280250663 0
force Bi   0.000575028304726  -0.000474028100392  -0.016495280250663 0
force Bi  -0.000566606521908   0.000457627895298   0.015885428974062 0
force Bi  -0.000566606521908   0.000457627895298   0.015885428974062 0
force Bi  -0.000566606521908   0.000457627895298   0.015885428974290 0
force Bi  -0.000566606521908   0.000457627895298   0.015885428974292 0
force Te  -0.000000064704036   0.000094530791042   0.011167341730862 0
force Te  -0.000000064704036   0.000094530791042   0.011167341730862 0
force Te  -0.000000064704036   0.000094530791042   0.011167341730862 0
force Te  -0.000000064704036   0.000094530791042   0.011167341730862 0
force Te  -0.000003706855870  -0.000086726797908  -0.009975862297927 0
force Te  -0.000003706855870  -0.000086726797908  -0.009975862297473 0
force Te  -0.000003706855870  -0.000086726797908  -0.009975862297473 0
force Te  -0.000003706855870  -0.000086726797908  -0.009975862297472 0
force Te  -0.000023746728451  -0.000000527485209   0.103233931458897 0
force Te  -0.000023746728451  -0.000000527485209   0.103233931458897 0
force Te  -0.000023746728451  -0.000000527485209   0.103233931458897 0
force Te  -0.000023746728451  -0.000000527485209   0.103233931458897 0
force Te  -0.000022618898896  -0.000057583788446  -0.103758587597499 0
force Te  -0.000022618898896  -0.000057583788446  -0.103758587597499 0
force Te  -0.000022618898896  -0.000057583788446  -0.103758587597500 0
force Te  -0.000022618898896  -0.000057583788446  -0.103758587597500 0
force Te   0.000014118485301  -0.000010772753708  -0.086927579117368 0
force Te   0.000014118485301  -0.000010772753708  -0.086927579117368 0
force Te   0.000014118485301  -0.000010772753708  -0.086927579116914 0
force Te   0.000014118485301  -0.000010772753708  -0.086927579117368 0
force Te  -0.000041726431573  -0.000014701821810   0.087697647564095 0
force Te  -0.000041726431573  -0.000014701821810   0.087697647564095 0
force Te  -0.000041726431573  -0.000014701821810   0.087697647563640 0
force Te  -0.000041726431573  -0.000014701821810   0.087697647563640 0

# Energy components:
   A_diel =        0.0337420345458018
   Eewald =    34675.5858928594971076
       EH =    36361.3868094039353309
     Eloc =   -73323.1216391401540022
      Enl =      467.7224470252602941
      Exc =     -948.3285033382703659
 Exc_core =      617.4779510914705725
       KE =      225.1648464737253903
  MuShift =        0.0040118844658962
-------------------------------------
     Etot =    -1924.0744417055238955
       TS =        0.0135241167244501
-------------------------------------
        F =    -1924.0879658222484068
      muN =      -86.2642948547240707
-------------------------------------
        G =    -1837.8236709675243219

IonicMinimize: Iter:   0  G: -1837.823670967524322  |grad|_K:  0.000e+00  t[s]:   2872.94
IonicMinimize: Converged (|grad|_K<1.000000e-04).

#--- Lowdin population analysis ---
# oxidation-state Bi +0.471 +0.471 +0.471 +0.471 +0.472 +0.472 +0.472 +0.472 +0.499 +0.499 +0.499 +0.499 +0.499 +0.499 +0.499 +0.499 +0.081 +0.081 +0.081 +0.081 +0.081 +0.081 +0.081 +0.081
# oxidation-state Te -0.186 -0.186 -0.186 -0.186 -0.186 -0.186 -0.186 -0.186 -0.241 -0.241 -0.241 -0.241 -0.241 -0.241 -0.241 -0.241 -0.403 -0.403 -0.403 -0.403 -0.402 -0.402 -0.402 -0.402


Dumping 'NbTe2.fillings' ... done
Dumping 'NbTe2.wfns' ... done
Dumping 'NbTe2.fluidState' ... done
Dumping 'NbTe2.eigenvals' ... done
End date and time: Sat Jul 11 17:33:51 2020  (Duration: 0-0:48:01.59)
Done!
