
*************** JDFTx 1.5.0  ***************

Start date and time: Thu Jul  9 18:14:13 2020
Executable jdftx_gpu with command-line: -i Neutral.in -o Neutral.out
Running on hosts (process indices):  amax (0)
Divided in process groups (process indices):  0 (0)
gpuInit: Found compatible cuda device 0 'Tesla K80'
gpuInit: Selected device 0
Resource initialization completed at t[s]:      9.27
Run totals: 1 processes, 24 threads, 1 GPUs


Input parsed successfully to the following command list (including defaults):

basis kpoint-dependent
cache-projectors no
coords-type Lattice
core-overlap-check none
coulomb-interaction Slab 001
coulomb-truncation-embed 0 0 0.5
davidson-band-ratio 1.1
dump End State
dump-name NbTe2.$VAR
elec-cutoff 20 100
elec-eigen-algo Davidson
elec-ex-corr gga-PBE
elec-smearing Gauss 0.0073499
electronic-minimize  \
	dirUpdateScheme      FletcherReeves \
	linminMethod         DirUpdateRecommended \
	nIterations          100 \
	history              15 \
	knormThreshold       0 \
	energyDiffThreshold  1e-08 \
	nEnergyDiff          2 \
	alphaTstart          1 \
	alphaTmin            1e-10 \
	updateTestStepSize   yes \
	alphaTreduceFactor   0.1 \
	alphaTincreaseFactor 3 \
	nAlphaAdjustMax      3 \
	wolfeEnergy          0.0001 \
	wolfeGradient        0.9 \
	fdTest               no
electronic-scf  \
	nIterations	500 \
	energyDiffThreshold	1e-08 \
	residualThreshold	1e-07 \
	mixFraction	0.5 \
	qMetric	0.8 \
	history	10 \
	nEigSteps	2 \
	eigDiffThreshold	1e-08 \
	mixedVariable	Density \
	qKerker	0.8 \
	qKappa	-1 \
	verbose	no \
	mixFractionMag	1.5
exchange-regularization WignerSeitzTruncated
fluid LinearPCM 298.000000 1.013250
fluid-anion F- 1 MeanFieldLJ \
	epsBulk 1 \
	pMol 0 \
	epsInf 1 \
	Pvap 0 \
	sigmaBulk 0 \
	Rvdw 2.24877 \
	Res 0 \
	tauNuc 343133
fluid-cation Na+ 1 MeanFieldLJ \
	epsBulk 1 \
	pMol 0 \
	epsInf 1 \
	Pvap 0 \
	sigmaBulk 0 \
	Rvdw 2.19208 \
	Res 0 \
	tauNuc 343133
fluid-ex-corr lda-TF lda-PZ
fluid-gummel-loop 10 1.000000e-05
fluid-minimize  \
	dirUpdateScheme      PolakRibiere \
	linminMethod         DirUpdateRecommended \
	nIterations          400 \
	history              15 \
	knormThreshold       1e-11 \
	energyDiffThreshold  0 \
	nEnergyDiff          2 \
	alphaTstart          1 \
	alphaTmin            1e-10 \
	updateTestStepSize   yes \
	alphaTreduceFactor   0.1 \
	alphaTincreaseFactor 3 \
	nAlphaAdjustMax      6 \
	wolfeEnergy          0.0001 \
	wolfeGradient        0.9 \
	fdTest               no
fluid-solvent H2O 55.338 ScalarEOS \
	epsBulk 78.4 \
	pMol 0.92466 \
	epsInf 1.77 \
	Pvap 1.06736e-10 \
	sigmaBulk 4.62e-05 \
	Rvdw 2.61727 \
	Res 1.42 \
	tauNuc 343133 \
	poleEl 15 7 1
forces-output-coords Positions
initial-state NbTe2.$VAR
ion Bi   0.166673835169625   0.333332065220256   0.640922896919954 0
ion Bi   0.666673843435064   0.333332065064757   0.640922900077841 0
ion Bi   0.166673838336238   0.833332061401674   0.640922901999001 0
ion Bi   0.666673839470029   0.833332065143299   0.640922892360358 0
ion Bi   0.333339392569784   0.166679986694803   0.359076202731319 0
ion Bi   0.833339395050835   0.166679988969964   0.359076201727016 0
ion Bi   0.333339392717446   0.666679988263510   0.359076201222138 0
ion Bi   0.833339392010616   0.666679988801143   0.359076201559279 0
ion Bi   0.999958486972242   0.999966603289522   0.249240169544958 0
ion Bi   0.499958491225577   0.999966604410542   0.249240166751897 0
ion Bi   0.999958488318108   0.499966605101102   0.249240174150778 0
ion Bi   0.499958494964109   0.499966608762398   0.249240169734763 0
ion Bi   0.999998908683254   0.999987415515880   0.750760809134783 0
ion Bi   0.499998912373381   0.999987418192654   0.750760803850978 0
ion Bi   0.999998912616967   0.499987418484118   0.750760803289508 0
ion Bi   0.499998915038793   0.499987418102571   0.750760802719846 0
ion Bi   0.333351130143471   0.166689236511363   0.522869875538127 0
ion Bi   0.833351119909155   0.166689231625060   0.522869872681930 0
ion Bi   0.333351122209186   0.666689232568217   0.522869873369425 0
ion Bi   0.833351120317294   0.666689232156396   0.522869875383452 0
ion Bi   0.166679884778212   0.333351068119833   0.477132997042798 0
ion Bi   0.666679886008583   0.333351070053538   0.477132996214808 0
ion Bi   0.166679880727378   0.833351065958602   0.477132997749458 0
ion Bi   0.666679883551827   0.833351066382173   0.477132995985625 0
ion Te   0.166668741834665   0.333328650291776   0.796996468989827 0
ion Te   0.666668738357684   0.333328648554913   0.796996468473156 0
ion Te   0.166668742032381   0.833328649762289   0.796996469349059 0
ion Te   0.666668738236401   0.833328647643204   0.796996469279280 0
ion Te   0.333304121601351   0.166640818703098   0.203003535097040 0
ion Te   0.833304123873691   0.166640819331816   0.203003535047939 0
ion Te   0.333304120171280   0.666640816420420   0.203003534863171 0
ion Te   0.833304123713198   0.666640818354108   0.203003535251457 0
ion Te   0.000017052356021   0.000027778486084   0.406073371332335 0
ion Te   0.500017053480670   0.000027777454364   0.406073371695156 0
ion Te   0.000017053868830   0.500027778994152   0.406073371899279 0
ion Te   0.500017051158401   0.500027777436470   0.406073371288023 0
ion Te   0.000006737930638  -0.000003668391616   0.593924867212583 0
ion Te   0.500006733190410  -0.000003665805297   0.593924867439737 0
ion Te   0.000006733439374   0.499996334691838   0.593924867309126 0
ion Te   0.500006735342582   0.499996329829468   0.593924867034477 0
ion Te   0.333336933795833   0.166663962534759   0.695472962952015 0
ion Te   0.833336935136421   0.166663964243815   0.695472962354833 0
ion Te   0.333336932629655   0.666663962650372   0.695472962199365 0
ion Te   0.833336935312612   0.666663962969981   0.695472962595869 0
ion Te   0.166664772856442   0.333336083399433   0.304525849033152 0
ion Te   0.666664775057905   0.333336082137629   0.304525849317376 0
ion Te   0.166664774721181   0.833336082264800   0.304525849233267 0
ion Te   0.666664773305256   0.833336083248752   0.304525849012436 0
ion-species GBRV/$ID_pbe.uspp
ion-width Ecut
ionic-minimize  \
	dirUpdateScheme      L-BFGS \
	linminMethod         DirUpdateRecommended \
	nIterations          0 \
	history              15 \
	knormThreshold       0.0001 \
	energyDiffThreshold  1e-06 \
	nEnergyDiff          2 \
	alphaTstart          1 \
	alphaTmin            1e-10 \
	updateTestStepSize   yes \
	alphaTreduceFactor   0.1 \
	alphaTincreaseFactor 3 \
	nAlphaAdjustMax      3 \
	wolfeEnergy          0.0001 \
	wolfeGradient        0.9 \
	fdTest               no
kpoint   0.000000000000   0.000000000000   0.000000000000  1.00000000000000
kpoint-folding 4 4 1 
latt-move-scale 1 1 1
latt-scale 1 1 1 
lattice Triclinic 16.7546 16.7531 69.7863 90 90 120.003
lattice-minimize  \
	dirUpdateScheme      L-BFGS \
	linminMethod         DirUpdateRecommended \
	nIterations          0 \
	history              15 \
	knormThreshold       0 \
	energyDiffThreshold  1e-06 \
	nEnergyDiff          2 \
	alphaTstart          1 \
	alphaTmin            1e-10 \
	updateTestStepSize   yes \
	alphaTreduceFactor   0.1 \
	alphaTincreaseFactor 3 \
	nAlphaAdjustMax      3 \
	wolfeEnergy          0.0001 \
	wolfeGradient        0.9 \
	fdTest               no
lcao-params -1 1e-06 0.0073499
pcm-variant CANDLE
spintype no-spin
subspace-rotation-factor 1 yes
symmetries automatic
symmetry-threshold 0.0001



---------- Setting up symmetries ----------

Non-trivial transmission matrix:
[   1   0   0  ]
[   1   1   0  ]
[   0   0   1  ]
with reduced lattice vectors:
[      8.377278     -8.377279      0.000000  ]
[     14.508235     14.508235      0.000000  ]
[      0.000000      0.000000     69.786277  ]

Found 24 point-group symmetries of the bravais lattice
Found 4 space-group symmetries with basis
Applied RMS atom displacement 1.15769e-07 bohrs to make symmetries exact.

---------- Initializing the Grid ----------
R = 
[    16.7546   -8.37728          0  ]
[          0    14.5082          0  ]
[          0          0    69.7863  ]
unit cell volume = 16963.6
G =
[   0.375014   0.216539         -0  ]
[          0   0.433077          0  ]
[          0         -0  0.0900347  ]
Minimum fftbox size, Smin = [  76  76  316  ]
Chosen fftbox size, S = [  80  80  320  ]

---------- Initializing tighter grid for wavefunction operations ----------
R = 
[    16.7546   -8.37728          0  ]
[          0    14.5082          0  ]
[          0          0    69.7863  ]
unit cell volume = 16963.6
G =
[   0.375014   0.216539         -0  ]
[          0   0.433077          0  ]
[          0         -0  0.0900347  ]
Minimum fftbox size, Smin = [  68  68  284  ]
Chosen fftbox size, S = [  70  70  288  ]

---------- Exchange Correlation functional ----------
Initalized PBE GGA exchange.
Initalized PBE GGA correlation.

---------- Setting up pseudopotentials ----------
Width of ionic core gaussian charges (only for fluid interactions / plotting) set to 0.397384

Reading pseudopotential file '/home/guoxy/vasp/jdftx-1.5.0/build/pseudopotentials/GBRV/bi_pbe.uspp':
  Title: Bi.  Created by USPP 7.3.6 on 14-9-2013
  Reference state energy: -92.204004.  15 valence electrons in orbitals:
    |520>  occupation: 10  eigenvalue: -1.293263
    |600>  occupation: 2  eigenvalue: -0.812524
    |610>  occupation: 2  eigenvalue: -0.420386
  lMax: 2  lLocal: 3  QijEcut: 5
  6 projectors sampled on a log grid with 747 points:
    l: 0  eig: -0.812524  rCut: 2.5
    l: 0  eig: 0.500000  rCut: 2.5
    l: 1  eig: -0.420386  rCut: 2.5
    l: 1  eig: 1.000000  rCut: 2.5
    l: 2  eig: -1.293263  rCut: 2.3
    l: 2  eig: -0.500000  rCut: 2.3
  Partial core density with radius 1
  Transforming core density to a uniform radial grid of dG=0.02 with 1670 points.
  Transforming local potential to a uniform radial grid of dG=0.02 with 1670 points.
  Transforming nonlocal projectors to a uniform radial grid of dG=0.02 with 432 points.
  Transforming density augmentations to a uniform radial grid of dG=0.02 with 1670 points.
  Transforming atomic orbitals to a uniform radial grid of dG=0.02 with 432 points.
  Core radius for overlap checks: 2.50 bohrs.

Reading pseudopotential file '/home/guoxy/vasp/jdftx-1.5.0/build/pseudopotentials/GBRV/te_pbe.uspp':
  Title: Te.  Created by USPP 7.3.6 on 14-9-2013
  Reference state energy: -13.134220.  6 valence electrons in orbitals:
    |500>  occupation: 2  eigenvalue: -0.555231
    |510>  occupation: 4  eigenvalue: -0.218781
  lMax: 2  lLocal: 2  QijEcut: 5
  5 projectors sampled on a log grid with 723 points:
    l: 0  eig: -0.555229  rCut: 2.1
    l: 0  eig: 1.000000  rCut: 2.1
    l: 1  eig: -0.218780  rCut: 2.1
    l: 1  eig: 1.000000  rCut: 2.1
    l: 2  eig: 1.000000  rCut: 2.6
  Partial core density with radius 1.8
  Transforming core density to a uniform radial grid of dG=0.02 with 1670 points.
  Transforming local potential to a uniform radial grid of dG=0.02 with 1670 points.
  Transforming nonlocal projectors to a uniform radial grid of dG=0.02 with 432 points.
  Transforming density augmentations to a uniform radial grid of dG=0.02 with 1670 points.
  Transforming atomic orbitals to a uniform radial grid of dG=0.02 with 432 points.
  Core radius for overlap checks: 2.60 bohrs.

Initialized 2 species with 48 total atoms.

Folded 1 k-points by 4x4x1 to 16 k-points.

---------- Setting up k-points, bands, fillings ----------
Adding inversion symmetry to k-mesh for non-inversion-symmetric unit cell.
Reduced to 10 k-points under symmetry. 
Computing the number of bands and number of electrons
Calculating initial fillings.
nElectrons: 504.000000   nBands: 312   nStates: 10

----- Setting up reduced wavefunction bases (one per k-point) -----
average nbasis = 72473.688 , ideal nbasis = 72469.710

---------- Setting up coulomb interaction ----------
Fluid mode embedding: using embedded box, but periodic Coulomb kernel.
(Fluid response is responsible for (approximate) separation between periodic images.)
Setting up double-sized grid for truncated Coulomb potentials:
R = 
[    16.7546   -8.37728          0  ]
[          0    14.5082          0  ]
[          0          0    139.573  ]
unit cell volume = 33927.2
G =
[   0.375014   0.216539         -0  ]
[          0   0.433077          0  ]
[          0         -0  0.0450173  ]
Chosen fftbox size, S = [  80  80  640  ]
Integer grid location selected as the embedding center:
   Grid: [  0  0  160  ]
   Lattice: [  0  0  0.5  ]
   Cartesian: [  0  0  34.8931  ]
Constructing Wigner-Seitz cell: 8 faces (6 quadrilaterals, 2 hexagons)
Range-separation parameter for embedded mesh potentials due to point charges: 0.589142 bohrs.

Initializing van der Waals corrections
	NOTE: vdW corrections apply only for interactions with fluid.
	Bi:  C6:  893.28 Eh-a0^6  R0: 3.555 a0 (WARNING: beyond Grimme's data set)
	Te:  C6:  550.54 Eh-a0^6  R0: 3.575 a0

---------- Setting up ewald sum ----------
Optimum gaussian width for ewald sums = 6.774632 bohr.
Real space sum over 845 unit cells with max indices [  6  6  2  ]
Reciprocal space sum over 8107 terms with max indices [  5  5  33  ]

---------- Allocating electronic variables ----------
Initializing wave functions:  linear combination of atomic orbitals
Bi pseudo-atom occupations:   s ( 2 )  p ( 3 )  d ( 10 )
Te pseudo-atom occupations:   s ( 2 )  p ( 4 )
	FillingsUpdate:  mu: -0.182719527  nElectrons: 504.000000
LCAOMinimize: Iter:   0  F: -1921.4010558797453996  |grad|_K:  4.057e-03  alpha:  1.000e+00
	FillingsUpdate:  mu: -0.163062963  nElectrons: 504.000000
LCAOMinimize: Iter:   1  F: -1922.5228415108617810  |grad|_K:  2.285e-03  alpha:  8.863e-02  linmin: -2.639e-01  cgtest:  6.677e-01  t[s]:    163.68
LCAOMinimize: Encountered beta<0, resetting CG.
	FillingsUpdate:  mu: +0.114462725  nElectrons: 504.000000
LCAOMinimize: Iter:   2  F: -1922.8654270887006987  |grad|_K:  2.391e-03  alpha:  1.599e-01  linmin:  9.708e-02  cgtest: -2.339e-01  t[s]:    228.47
	FillingsUpdate:  mu: +0.132858629  nElectrons: 504.000000
LCAOMinimize: Iter:   3  F: -1922.9559508339459626  |grad|_K:  2.376e-03  alpha:  5.473e-02  linmin: -5.535e-03  cgtest:  8.176e-01  t[s]:    291.38
	FillingsUpdate:  mu: -0.044097527  nElectrons: 504.000000
LCAOMinimize: Iter:   4  F: -1923.1212334972233293  |grad|_K:  1.336e-03  alpha:  6.030e-02  linmin:  3.684e-02  cgtest: -9.860e-02  t[s]:    355.69
	FillingsUpdate:  mu: -0.067948496  nElectrons: 504.000000
LCAOMinimize: Iter:   5  F: -1923.1903023406543980  |grad|_K:  7.387e-04  alpha:  8.822e-02  linmin: -6.180e-03  cgtest:  5.488e-01  t[s]:    416.31
	FillingsUpdate:  mu: -0.025495373  nElectrons: 504.000000
LCAOMinimize: Iter:   6  F: -1923.2040584152130123  |grad|_K:  3.220e-04  alpha:  5.144e-02  linmin: -4.714e-04  cgtest: -2.211e-02  t[s]:    473.09
LCAOMinimize: 	Predicted alpha/alphaT>3.000000, increasing alphaT to 1.543271e-01.
	FillingsUpdate:  mu: -0.019176457  nElectrons: 504.000000
LCAOMinimize: Iter:   7  F: -1923.2142793341038214  |grad|_K:  2.253e-04  alpha:  2.016e-01  linmin:  3.520e-03  cgtest:  6.941e-02  t[s]:    546.94
	FillingsUpdate:  mu: -0.032333791  nElectrons: 504.000000
LCAOMinimize: Iter:   8  F: -1923.2180108741526965  |grad|_K:  1.242e-04  alpha:  1.497e-01  linmin:  1.581e-03  cgtest:  3.670e-02  t[s]:    603.73
	FillingsUpdate:  mu: -0.026077107  nElectrons: 504.000000
LCAOMinimize: Iter:   9  F: -1923.2183368298785808  |grad|_K:  2.248e-05  alpha:  4.378e-02  linmin:  9.057e-03  cgtest: -4.248e-02  t[s]:    660.83
	FillingsUpdate:  mu: -0.025319572  nElectrons: 504.000000
LCAOMinimize: Iter:  10  F: -1923.2183638826222705  |grad|_K:  2.747e-05  alpha:  1.103e-01  linmin: -3.536e-04  cgtest:  8.596e-03  t[s]:    717.71
	FillingsUpdate:  mu: -0.025310966  nElectrons: 504.000000
LCAOMinimize: Iter:  11  F: -1923.2183897737545522  |grad|_K:  7.822e-06  alpha:  6.990e-02  linmin:  3.301e-05  cgtest: -4.746e-02  t[s]:    774.65
LCAOMinimize: 	Predicted alpha/alphaT>3.000000, increasing alphaT to 2.096942e-01.
	FillingsUpdate:  mu: -0.025618450  nElectrons: 504.000000
LCAOMinimize: Iter:  12  F: -1923.2183966507875539  |grad|_K:  6.296e-06  alpha:  2.295e-01  linmin: -1.330e-04  cgtest:  8.613e-04  t[s]:    848.61
	FillingsUpdate:  mu: -0.025021506  nElectrons: 504.000000
LCAOMinimize: Iter:  13  F: -1923.2184012870520746  |grad|_K:  6.985e-06  alpha:  2.386e-01  linmin:  2.820e-05  cgtest: -2.150e-03  t[s]:    905.29
	FillingsUpdate:  mu: -0.025358019  nElectrons: 504.000000
LCAOMinimize: Iter:  14  F: -1923.2184025882361311  |grad|_K:  1.812e-06  alpha:  5.439e-02  linmin: -6.843e-04  cgtest:  9.062e-03  t[s]:    961.46
LCAOMinimize: 	Predicted alpha/alphaT>3.000000, increasing alphaT to 1.631662e-01.
	FillingsUpdate:  mu: -0.025391690  nElectrons: 504.000000
LCAOMinimize: Iter:  15  F: -1923.2184029889947396  |grad|_K:  2.062e-06  alpha:  2.489e-01  linmin: -1.878e-05  cgtest: -9.955e-04  t[s]:   1034.48
	FillingsUpdate:  mu: -0.025372600  nElectrons: 504.000000
LCAOMinimize: Iter:  16  F: -1923.2184030745850123  |grad|_K:  7.234e-07  alpha:  4.109e-02  linmin: -8.983e-05  cgtest:  6.319e-04  t[s]:   1089.95
LCAOMinimize: Converged (|Delta F|<1.000000e-06 for 2 iters).
----- createFluidSolver() ----- (Fluid-side solver setup)
   Initializing fluid molecule 'H2O'
     Initializing site 'O'
       Electron density: proportional to exp(-r/0.36935)*erfc((r-0.51523)/0.36823) with norm 6.826
       Charge density: gaussian nuclear width 0.478731 with net site charge 0.826
       Polarizability: cuspless exponential with width 0.32 and norm 3.73
       Hard sphere radius: 2.57003 bohrs
       Positions in reference frame:
         [ +0.000000 +0.000000 +0.000000 ]
     Initializing site 'H'
       Electron density: proportional to exp(-r/0.34641)*erfc((r-0)/0.390882) with norm 0.587
       Charge density: gaussian nuclear width 0.377945 with net site charge -0.413
       Polarizability: cuspless exponential with width 0.39 and norm 3.3
       Positions in reference frame:
         [ +0.000000 -1.441945 +1.122523 ]
         [ +0.000000 +1.441945 +1.122523 ]
     Net charge: 0   dipole magnitude: 0.927204
     Initializing spherical shell mfKernel with radius 2.61727 Bohr
     deltaS corrections:
       site 'O': -7.54299
       site 'H': -6.83917
   Initializing fluid molecule 'Na+'
     Initializing site 'Na'
       Electron density: proportional to exp(-r/0.19682)*erfc((r-0.71491)/0.41314) with norm 8.1383
       Charge density: gaussian nuclear width 0.365347 with net site charge -1
       Hard sphere radius: 1.86327 bohrs
       Positions in reference frame:
         [ +0.000000 +0.000000 +0.000000 ]
     Net charge: -1   dipole magnitude: 0
     Initializing gaussian mfKernel with width: 1.55004 Bohr
     deltaS corrections:
       site 'Na': -22.3555
   Initializing fluid molecule 'F-'
     Initializing site 'F'
       Electron density: proportional to exp(-r/0.38886)*erfc((r-0)/0.438782) with norm 8
       Charge density: gaussian nuclear width 0.374796 with net site charge 1
       Hard sphere radius: 2.39995 bohrs
       Positions in reference frame:
         [ +0.000000 +0.000000 +0.000000 ]
     Net charge: 1   dipole magnitude: 0
     Initializing gaussian mfKernel with width: 1.59012 Bohr
     deltaS corrections:
       site 'F': -9.04335

Correction to mu due to finite nuclear width = -0.0147395
   Cavity determined by nc: 0.00142 and sigma: 0.707107
   Nonlocal vdW cavity from gaussian model electron density with norm = 8 and sigma = 0.993594 bohr
   Charge asymmetry in cavity with sensitivity pCavity = 36.5 e-bohr/Eh
   Electrostatic cavity expanded by eta = 1.46 bohrs
   Weighted density cavitation model constrained by Nbulk: 0.0049383 bohr^-3, Pvap: 3.14029 kPa, Rvdw: 2.61727 bohr and sigmaBulk: 4.62e-05 Eh/bohr^2 at T: 298 K.
   Weighted density dispersion model using vdW pair potentials with single solvent site with sqrtC6eff: 0.77 SI.


---- Citations for features of the code used in this run ----

   Software package:
      R. Sundararaman, K. Letchworth-Weaver, K.A. Schwarz, D. Gunceler, Y. Ozhabes and T.A. Arias, 'JDFTx: software for joint density-functional theory', SoftwareX 6, 278 (2017)

   gga-PBE exchange-correlation functional:
      J.P. Perdew, K. Burke and M. Ernzerhof, Phys. Rev. Lett. 77, 3865 (1996)

   Pseudopotentials:
      KF Garrity, JW Bennett, KM Rabe and D Vanderbilt, Comput. Mater. Sci. 81, 446 (2014)

   Truncated Coulomb potentials:
      R. Sundararaman and T.A. Arias, Phys. Rev. B 87, 165122 (2013)

   Van der Waals correction pair-potentials:
      S. Grimme, J. Comput. Chem. 27, 1787 (2006)

   Charge-asymmetric nonlocally-determined local-electric (CANDLE) solvation model:
      R. Sundararaman and W.A. Goddard III, J. Chem. Phys. 142, 064107 (2015)

This list may not be complete. Please suggest additional citations or
report any other bugs at https://github.com/shankar1729/jdftx/issues

Initialization completed successfully at t[s]:   1101.58

Fluid solver invoked on fresh (partially random / LCAO) wavefunctions
Running a vacuum solve first:

-------- Initial electronic minimization -----------
Will mix electronic density at each iteration.
	FillingsUpdate:  mu: -0.025372600  nElectrons: 504.000000
	FillingsUpdate:  mu: -0.038951289  nElectrons: 504.000000
SCF: Cycle:  0   F: -1923.832925540976476   dF: -6.145e-01   |Residual|: 2.800e-01   |deigs|: 9.431e-03  t[s]:   1289.11
	FillingsUpdate:  mu: -0.039253411  nElectrons: 504.000000
SCF: Cycle:  1   F: -1924.054132602149139   dF: -2.212e-01   |Residual|: 1.343e-01   |deigs|: 9.950e-03  t[s]:   1437.21
	FillingsUpdate:  mu: -0.035756182  nElectrons: 504.000000
SCF: Cycle:  2   F: -1924.128517207386722   dF: -7.438e-02   |Residual|: 4.490e-02   |deigs|: 4.488e-03  t[s]:   1584.37
	FillingsUpdate:  mu: -0.034023089  nElectrons: 504.000000
SCF: Cycle:  3   F: -1924.130186329501385   dF: -1.669e-03   |Residual|: 2.017e-02   |deigs|: 1.546e-03  t[s]:   1732.62
	FillingsUpdate:  mu: -0.031392659  nElectrons: 504.000000
SCF: Cycle:  4   F: -1924.135208703078206   dF: -5.022e-03   |Residual|: 8.494e-03   |deigs|: 2.546e-03  t[s]:   1880.18
	FillingsUpdate:  mu: -0.029294752  nElectrons: 504.000000
SCF: Cycle:  5   F: -1924.136319937217422   dF: -1.111e-03   |Residual|: 5.748e-03   |deigs|: 2.052e-03  t[s]:   2044.20
	FillingsUpdate:  mu: -0.026142493  nElectrons: 504.000000
SCF: Cycle:  6   F: -1924.137121623039775   dF: -8.017e-04   |Residual|: 3.612e-03   |deigs|: 3.186e-03  t[s]:   2192.21
	FillingsUpdate:  mu: -0.023519438  nElectrons: 504.000000
SCF: Cycle:  7   F: -1924.137411796602237   dF: -2.902e-04   |Residual|: 2.361e-03   |deigs|: 2.645e-03  t[s]:   2340.94
	FillingsUpdate:  mu: -0.021503689  nElectrons: 504.000000
SCF: Cycle:  8   F: -1924.137458651915040   dF: -4.686e-05   |Residual|: 1.815e-03   |deigs|: 2.020e-03  t[s]:   2476.39
	FillingsUpdate:  mu: -0.019366164  nElectrons: 504.000000
SCF: Cycle:  9   F: -1924.137484292122963   dF: -2.564e-05   |Residual|: 1.391e-03   |deigs|: 2.149e-03  t[s]:   2617.67
	FillingsUpdate:  mu: -0.016950540  nElectrons: 504.000000
SCF: Cycle: 10   F: -1924.137503209080705   dF: -1.892e-05   |Residual|: 1.016e-03   |deigs|: 2.408e-03  t[s]:   2758.36
	FillingsUpdate:  mu: -0.015566593  nElectrons: 504.000000
SCF: Cycle: 11   F: -1924.137515818392558   dF: -1.261e-05   |Residual|: 7.305e-04   |deigs|: 1.389e-03  t[s]:   2899.36
	FillingsUpdate:  mu: -0.014582789  nElectrons: 504.000000
SCF: Cycle: 12   F: -1924.137521403731625   dF: -5.585e-06   |Residual|: 4.476e-04   |deigs|: 9.895e-04  t[s]:   3035.05
	FillingsUpdate:  mu: -0.014036476  nElectrons: 504.000000
SCF: Cycle: 13   F: -1924.137522949530194   dF: -1.546e-06   |Residual|: 1.850e-04   |deigs|: 5.432e-04  t[s]:   3171.88
	FillingsUpdate:  mu: -0.013974380  nElectrons: 504.000000
SCF: Cycle: 14   F: -1924.137523211408507   dF: -2.619e-07   |Residual|: 8.695e-05   |deigs|: 6.227e-05  t[s]:   3304.44
	FillingsUpdate:  mu: -0.013939464  nElectrons: 504.000000
SCF: Cycle: 15   F: -1924.137523307672609   dF: -9.626e-08   |Residual|: 3.325e-05   |deigs|: 3.565e-05  t[s]:   3442.63
	FillingsUpdate:  mu: -0.013924898  nElectrons: 504.000000
SCF: Cycle: 16   F: -1924.137523327415238   dF: -1.974e-08   |Residual|: 1.620e-05   |deigs|: 1.484e-05  t[s]:   3571.36
	FillingsUpdate:  mu: -0.013925598  nElectrons: 504.000000
SCF: Cycle: 17   F: -1924.137523335322840   dF: -7.908e-09   |Residual|: 7.465e-06   |deigs|: 7.777e-07  t[s]:   3693.57
	FillingsUpdate:  mu: -0.013926758  nElectrons: 504.000000
SCF: Cycle: 18   F: -1924.137523337655466   dF: -2.333e-09   |Residual|: 2.800e-06   |deigs|: 1.243e-06  t[s]:   3813.99
SCF: Converged (|Delta E|<1.000000e-08 for 2 iters).

Vacuum energy after initial minimize, F = -1924.137523337655466

	FillingsUpdate:  mu: -0.013926758  nElectrons: 504.000000
	Linear fluid (dielectric constant: 78.4, screening length: 5.74355 Bohr) occupying 0.623082 of unit cell:	Completed after 26 iterations at t[s]:   3831.55

-------- Electronic minimization -----------
Will mix electronic density at each iteration.
	FillingsUpdate:  mu: -0.013926758  nElectrons: 504.000000
	Linear fluid (dielectric constant: 78.4, screening length: 5.74355 Bohr) occupying 0.623082 of unit cell:	Completed after 0 iterations at t[s]:   3848.74
	FillingsUpdate:  mu: -0.159855875  nElectrons: 504.000000
	Linear fluid (dielectric constant: 78.4, screening length: 5.74355 Bohr) occupying 0.623595 of unit cell:	Completed after 13 iterations at t[s]:   3994.53
SCF: Cycle:  0   F: -1924.132587418094090   dF: +7.776e-05   |Residual|: 1.612e-03   |deigs|: 3.902e-06  t[s]:   3996.43
	Linear fluid (dielectric constant: 78.4, screening length: 5.74355 Bohr) occupying 0.623032 of unit cell:	Completed after 13 iterations at t[s]:   3998.07
	FillingsUpdate:  mu: -0.159421862  nElectrons: 504.000000
	Linear fluid (dielectric constant: 78.4, screening length: 5.74355 Bohr) occupying 0.623569 of unit cell:	Completed after 18 iterations at t[s]:   4117.60
SCF: Cycle:  1   F: -1924.132728814785651   dF: -1.414e-04   |Residual|: 1.119e-03   |deigs|: 4.363e-04  t[s]:   4119.76
	Linear fluid (dielectric constant: 78.4, screening length: 5.74355 Bohr) occupying 0.623033 of unit cell:	Completed after 17 iterations at t[s]:   4121.78
	FillingsUpdate:  mu: -0.159092730  nElectrons: 504.000000
	Linear fluid (dielectric constant: 78.4, screening length: 5.74355 Bohr) occupying 0.623555 of unit cell:	Completed after 17 iterations at t[s]:   4224.77
SCF: Cycle:  2   F: -1924.132750325078632   dF: -2.151e-05   |Residual|: 7.897e-04   |deigs|: 3.331e-04  t[s]:   4226.77
	Linear fluid (dielectric constant: 78.4, screening length: 5.74355 Bohr) occupying 0.623084 of unit cell:	Completed after 18 iterations at t[s]:   4228.91
	FillingsUpdate:  mu: -0.158763430  nElectrons: 504.000000
	Linear fluid (dielectric constant: 78.4, screening length: 5.74355 Bohr) occupying 0.623543 of unit cell:	Completed after 13 iterations at t[s]:   4330.75
SCF: Cycle:  3   F: -1924.132749632417472   dF: +6.927e-07   |Residual|: 4.445e-04   |deigs|: 3.309e-04  t[s]:   4332.76
	Linear fluid (dielectric constant: 78.4, screening length: 5.74355 Bohr) occupying 0.623157 of unit cell:	Completed after 14 iterations at t[s]:   4334.81
	FillingsUpdate:  mu: -0.158411780  nElectrons: 504.000000
	Linear fluid (dielectric constant: 78.4, screening length: 5.74355 Bohr) occupying 0.623531 of unit cell:	Completed after 14 iterations at t[s]:   4473.78
SCF: Cycle:  4   F: -1924.132761515704033   dF: -1.188e-05   |Residual|: 4.377e-04   |deigs|: 3.490e-04  t[s]:   4476.06
	Linear fluid (dielectric constant: 78.4, screening length: 5.74355 Bohr) occupying 0.623233 of unit cell:	Completed after 14 iterations at t[s]:   4477.89
	FillingsUpdate:  mu: -0.158243953  nElectrons: 504.000000
	Linear fluid (dielectric constant: 78.4, screening length: 5.74355 Bohr) occupying 0.623526 of unit cell:	Completed after 7 iterations at t[s]:   4581.01
SCF: Cycle:  5   F: -1924.132762799528791   dF: -1.284e-06   |Residual|: 3.669e-04   |deigs|: 1.677e-04  t[s]:   4582.99
	Linear fluid (dielectric constant: 78.4, screening length: 5.74355 Bohr) occupying 0.623328 of unit cell:	Completed after 7 iterations at t[s]:   4584.15
	FillingsUpdate:  mu: -0.158222868  nElectrons: 504.000000
	Linear fluid (dielectric constant: 78.4, screening length: 5.74355 Bohr) occupying 0.623529 of unit cell:	Completed after 13 iterations at t[s]:   4687.83
SCF: Cycle:  6   F: -1924.132753586063245   dF: +9.213e-06   |Residual|: 3.453e-04   |deigs|: 3.073e-05  t[s]:   4689.86
	Linear fluid (dielectric constant: 78.4, screening length: 5.74355 Bohr) occupying 0.623414 of unit cell:	Completed after 16 iterations at t[s]:   4691.87
	FillingsUpdate:  mu: -0.158096948  nElectrons: 504.000000
	Linear fluid (dielectric constant: 78.4, screening length: 5.74355 Bohr) occupying 0.623526 of unit cell:	Completed after 18 iterations at t[s]:   4795.69
SCF: Cycle:  7   F: -1924.132753919845982   dF: -3.338e-07   |Residual|: 3.078e-04   |deigs|: 1.356e-04  t[s]:   4797.64
	Linear fluid (dielectric constant: 78.4, screening length: 5.74355 Bohr) occupying 0.623452 of unit cell:	Completed after 17 iterations at t[s]:   4799.72
	FillingsUpdate:  mu: -0.158087267  nElectrons: 504.000000
	Linear fluid (dielectric constant: 78.4, screening length: 5.74355 Bohr) occupying 0.623529 of unit cell:	Completed after 18 iterations at t[s]:   4934.17
SCF: Cycle:  8   F: -1924.132758647405353   dF: -4.728e-06   |Residual|: 2.670e-04   |deigs|: 3.064e-05  t[s]:   4936.29
	Linear fluid (dielectric constant: 78.4, screening length: 5.74355 Bohr) occupying 0.623453 of unit cell:	Completed after 17 iterations at t[s]:   4938.33
	FillingsUpdate:  mu: -0.158085540  nElectrons: 504.000000
	Linear fluid (dielectric constant: 78.4, screening length: 5.74355 Bohr) occupying 0.623528 of unit cell:	Completed after 14 iterations at t[s]:   5036.91
SCF: Cycle:  9   F: -1924.132758735358493   dF: -8.795e-08   |Residual|: 2.270e-04   |deigs|: 1.857e-05  t[s]:   5039.17
	Linear fluid (dielectric constant: 78.4, screening length: 5.74355 Bohr) occupying 0.623489 of unit cell:	Completed after 15 iterations at t[s]:   5041.07
	FillingsUpdate:  mu: -0.158005737  nElectrons: 504.000000
	Linear fluid (dielectric constant: 78.4, screening length: 5.74355 Bohr) occupying 0.623525 of unit cell:	Completed after 9 iterations at t[s]:   5178.41
SCF: Cycle: 10   F: -1924.132759868146877   dF: -1.133e-06   |Residual|: 2.652e-04   |deigs|: 7.880e-05  t[s]:   5180.39
	Linear fluid (dielectric constant: 78.4, screening length: 5.74355 Bohr) occupying 0.623517 of unit cell:	Completed after 9 iterations at t[s]:   5181.81
	FillingsUpdate:  mu: -0.157927137  nElectrons: 504.000000
	Linear fluid (dielectric constant: 78.4, screening length: 5.74355 Bohr) occupying 0.623522 of unit cell:	Completed after 17 iterations at t[s]:   5281.77
SCF: Cycle: 11   F: -1924.132756201554230   dF: +3.667e-06   |Residual|: 3.647e-04   |deigs|: 7.893e-05  t[s]:   5283.52
	Linear fluid (dielectric constant: 78.4, screening length: 5.74355 Bohr) occupying 0.623539 of unit cell:	Completed after 14 iterations at t[s]:   5285.54
	FillingsUpdate:  mu: -0.158085213  nElectrons: 504.000000
	Linear fluid (dielectric constant: 78.4, screening length: 5.74355 Bohr) occupying 0.623531 of unit cell:	Completed after 16 iterations at t[s]:   5387.07
SCF: Cycle: 12   F: -1924.132756799805748   dF: -5.983e-07   |Residual|: 2.448e-04   |deigs|: 1.541e-04  t[s]:   5388.93
	Linear fluid (dielectric constant: 78.4, screening length: 5.74355 Bohr) occupying 0.623539 of unit cell:	Completed after 15 iterations at t[s]:   5390.78
	FillingsUpdate:  mu: -0.157822791  nElectrons: 504.000000
	Linear fluid (dielectric constant: 78.4, screening length: 5.74355 Bohr) occupying 0.623517 of unit cell:	Completed after 18 iterations at t[s]:   5526.47
SCF: Cycle: 13   F: -1924.132743275194343   dF: +1.352e-05   |Residual|: 4.534e-04   |deigs|: 2.552e-04  t[s]:   5528.56
	Linear fluid (dielectric constant: 78.4, screening length: 5.74355 Bohr) occupying 0.623549 of unit cell:	Completed after 17 iterations at t[s]:   5530.70
	FillingsUpdate:  mu: -0.157947757  nElectrons: 504.000000
	Linear fluid (dielectric constant: 78.4, screening length: 5.74355 Bohr) occupying 0.623522 of unit cell:	Completed after 12 iterations at t[s]:   5615.99
SCF: Cycle: 14   F: -1924.132756608164527   dF: -1.333e-05   |Residual|: 3.100e-04   |deigs|: 1.239e-04  t[s]:   5617.82
	Linear fluid (dielectric constant: 78.4, screening length: 5.74355 Bohr) occupying 0.623565 of unit cell:	Completed after 13 iterations at t[s]:   5619.48
	FillingsUpdate:  mu: -0.157716441  nElectrons: 504.000000
	Linear fluid (dielectric constant: 78.4, screening length: 5.74355 Bohr) occupying 0.623509 of unit cell:	Completed after 18 iterations at t[s]:   5706.68
SCF: Cycle: 15   F: -1924.132741921387151   dF: +1.469e-05   |Residual|: 5.150e-04   |deigs|: 2.256e-04  t[s]:   5708.52
	Linear fluid (dielectric constant: 78.4, screening length: 5.74355 Bohr) occupying 0.623549 of unit cell:	Completed after 18 iterations at t[s]:   5710.60
	FillingsUpdate:  mu: -0.157906704  nElectrons: 504.000000
	Linear fluid (dielectric constant: 78.4, screening length: 5.74355 Bohr) occupying 0.623519 of unit cell:	Completed after 8 iterations at t[s]:   5795.65
SCF: Cycle: 16   F: -1924.132760908116552   dF: -1.899e-05   |Residual|: 2.711e-04   |deigs|: 1.858e-04  t[s]:   5797.52
	Linear fluid (dielectric constant: 78.4, screening length: 5.74355 Bohr) occupying 0.623556 of unit cell:	Completed after 8 iterations at t[s]:   5798.73
	FillingsUpdate:  mu: -0.157878360  nElectrons: 504.000000
	Linear fluid (dielectric constant: 78.4, screening length: 5.74355 Bohr) occupying 0.623517 of unit cell:	Completed after 9 iterations at t[s]:   5883.00
SCF: Cycle: 17   F: -1924.132762614929561   dF: -1.707e-06   |Residual|: 2.678e-04   |deigs|: 2.853e-05  t[s]:   5884.88
	Linear fluid (dielectric constant: 78.4, screening length: 5.74355 Bohr) occupying 0.623566 of unit cell:	Completed after 6 iterations at t[s]:   5885.96
	FillingsUpdate:  mu: -0.157980126  nElectrons: 504.000000
	Linear fluid (dielectric constant: 78.4, screening length: 5.74355 Bohr) occupying 0.623524 of unit cell:	Completed after 17 iterations at t[s]:   5986.25
SCF: Cycle: 18   F: -1924.132756380490719   dF: +6.234e-06   |Residual|: 2.353e-04   |deigs|: 9.982e-05  t[s]:   5987.99
	Linear fluid (dielectric constant: 78.4, screening length: 5.74355 Bohr) occupying 0.623537 of unit cell:	Completed after 13 iterations at t[s]:   5989.67
	FillingsUpdate:  mu: -0.157612152  nElectrons: 504.000000
	Linear fluid (dielectric constant: 78.4, screening length: 5.74355 Bohr) occupying 0.623503 of unit cell:	Completed after 18 iterations at t[s]:   6089.91
SCF: Cycle: 19   F: -1924.132666047643625   dF: +9.033e-05   |Residual|: 8.121e-04   |deigs|: 3.576e-04  t[s]:   6091.83
	Linear fluid (dielectric constant: 78.4, screening length: 5.74355 Bohr) occupying 0.623541 of unit cell:	Completed after 18 iterations at t[s]:   6093.97
	FillingsUpdate:  mu: -0.157814332  nElectrons: 504.000000
	Linear fluid (dielectric constant: 78.4, screening length: 5.74355 Bohr) occupying 0.623513 of unit cell:	Completed after 18 iterations at t[s]:   6179.88
SCF: Cycle: 20   F: -1924.132748030942821   dF: -8.198e-05   |Residual|: 4.041e-04   |deigs|: 1.965e-04  t[s]:   6181.78
	Linear fluid (dielectric constant: 78.4, screening length: 5.74355 Bohr) occupying 0.623528 of unit cell:	Completed after 18 iterations at t[s]:   6183.88
	FillingsUpdate:  mu: -0.157869091  nElectrons: 504.000000
	Linear fluid (dielectric constant: 78.4, screening length: 5.74355 Bohr) occupying 0.623516 of unit cell:	Completed after 16 iterations at t[s]:   6268.79
SCF: Cycle: 21   F: -1924.132759190644720   dF: -1.116e-05   |Residual|: 2.714e-04   |deigs|: 5.620e-05  t[s]:   6270.73
	Linear fluid (dielectric constant: 78.4, screening length: 5.74355 Bohr) occupying 0.623527 of unit cell:	Completed after 15 iterations at t[s]:   6272.62
	FillingsUpdate:  mu: -0.157883878  nElectrons: 504.000000
	Linear fluid (dielectric constant: 78.4, screening length: 5.74355 Bohr) occupying 0.623516 of unit cell:	Completed after 18 iterations at t[s]:   6357.67
SCF: Cycle: 22   F: -1924.132757380498560   dF: +1.810e-06   |Residual|: 2.867e-04   |deigs|: 1.885e-05  t[s]:   6359.50
	Linear fluid (dielectric constant: 78.4, screening length: 5.74355 Bohr) occupying 0.623517 of unit cell:	Completed after 14 iterations at t[s]:   6361.27
	FillingsUpdate:  mu: -0.158004329  nElectrons: 504.000000
	Linear fluid (dielectric constant: 78.4, screening length: 5.74355 Bohr) occupying 0.623524 of unit cell:	Completed after 9 iterations at t[s]:   6447.32
SCF: Cycle: 23   F: -1924.132760987394704   dF: -3.607e-06   |Residual|: 1.833e-04   |deigs|: 1.207e-04  t[s]:   6449.09
	Linear fluid (dielectric constant: 78.4, screening length: 5.74355 Bohr) occupying 0.623517 of unit cell:	Completed after 9 iterations at t[s]:   6450.44
	FillingsUpdate:  mu: -0.157837537  nElectrons: 504.000000
	Linear fluid (dielectric constant: 78.4, screening length: 5.74355 Bohr) occupying 0.623514 of unit cell:	Completed after 16 iterations at t[s]:   6535.78
SCF: Cycle: 24   F: -1924.132748910439659   dF: +1.208e-05   |Residual|: 3.695e-04   |deigs|: 1.635e-04  t[s]:   6537.68
	Linear fluid (dielectric constant: 78.4, screening length: 5.74355 Bohr) occupying 0.623513 of unit cell:	Completed after 18 iterations at t[s]:   6539.73
	FillingsUpdate:  mu: -0.157875403  nElectrons: 504.000000
	Linear fluid (dielectric constant: 78.4, screening length: 5.74355 Bohr) occupying 0.623516 of unit cell:	Completed after 16 iterations at t[s]:   6624.01
SCF: Cycle: 25   F: -1924.132756707731460   dF: -7.797e-06   |Residual|: 2.700e-04   |deigs|: 3.746e-05  t[s]:   6625.95
	Linear fluid (dielectric constant: 78.4, screening length: 5.74355 Bohr) occupying 0.623505 of unit cell:	Completed after 16 iterations at t[s]:   6627.84
	FillingsUpdate:  mu: -0.157902884  nElectrons: 504.000000
	Linear fluid (dielectric constant: 78.4, screening length: 5.74355 Bohr) occupying 0.623517 of unit cell:	Completed after 15 iterations at t[s]:   6713.11
SCF: Cycle: 26   F: -1924.132758876597563   dF: -2.169e-06   |Residual|: 2.439e-04   |deigs|: 2.782e-05  t[s]:   6714.90
	Linear fluid (dielectric constant: 78.4, screening length: 5.74355 Bohr) occupying 0.623508 of unit cell:	Completed after 14 iterations at t[s]:   6716.70
	FillingsUpdate:  mu: -0.157909896  nElectrons: 504.000000
	Linear fluid (dielectric constant: 78.4, screening length: 5.74355 Bohr) occupying 0.623517 of unit cell:	Completed after 15 iterations at t[s]:   6802.36
SCF: Cycle: 27   F: -1924.132760687347400   dF: -1.811e-06   |Residual|: 2.004e-04   |deigs|: 1.049e-05  t[s]:   6804.28
	Linear fluid (dielectric constant: 78.4, screening length: 5.74355 Bohr) occupying 0.623509 of unit cell:	Completed after 14 iterations at t[s]:   6806.06
	FillingsUpdate:  mu: -0.157930875  nElectrons: 504.000000
	Linear fluid (dielectric constant: 78.4, screening length: 5.74355 Bohr) occupying 0.623519 of unit cell:	Completed after 13 iterations at t[s]:   6891.35
SCF: Cycle: 28   F: -1924.132761739798298   dF: -1.052e-06   |Residual|: 1.740e-04   |deigs|: 2.263e-05  t[s]:   6893.16
	Linear fluid (dielectric constant: 78.4, screening length: 5.74355 Bohr) occupying 0.623518 of unit cell:	Completed after 14 iterations at t[s]:   6894.85
	FillingsUpdate:  mu: -0.157870454  nElectrons: 504.000000
	Linear fluid (dielectric constant: 78.4, screening length: 5.74355 Bohr) occupying 0.623516 of unit cell:	Completed after 16 iterations at t[s]:   6980.19
SCF: Cycle: 29   F: -1924.132755601141980   dF: +6.139e-06   |Residual|: 2.803e-04   |deigs|: 5.960e-05  t[s]:   6982.12
	Linear fluid (dielectric constant: 78.4, screening length: 5.74355 Bohr) occupying 0.623515 of unit cell:	Completed after 17 iterations at t[s]:   6984.07
	FillingsUpdate:  mu: -0.157763155  nElectrons: 504.000000
	Linear fluid (dielectric constant: 78.4, screening length: 5.74355 Bohr) occupying 0.623510 of unit cell:	Completed after 18 iterations at t[s]:   7068.82
SCF: Cycle: 30   F: -1924.132728514452310   dF: +2.709e-05   |Residual|: 4.915e-04   |deigs|: 1.040e-04  t[s]:   7070.81
	Linear fluid (dielectric constant: 78.4, screening length: 5.74355 Bohr) occupying 0.623519 of unit cell:	Completed after 17 iterations at t[s]:   7072.83
	FillingsUpdate:  mu: -0.157758188  nElectrons: 504.000000
	Linear fluid (dielectric constant: 78.4, screening length: 5.74355 Bohr) occupying 0.623510 of unit cell:	Completed after 18 iterations at t[s]:   7149.95
SCF: Cycle: 31   F: -1924.132725089888481   dF: +3.425e-06   |Residual|: 5.258e-04   |deigs|: 6.494e-06  t[s]:   7151.92
	Linear fluid (dielectric constant: 78.4, screening length: 5.74355 Bohr) occupying 0.623518 of unit cell:	Completed after 17 iterations at t[s]:   7153.94
	FillingsUpdate:  mu: -0.157757102  nElectrons: 504.000000
	Linear fluid (dielectric constant: 78.4, screening length: 5.74355 Bohr) occupying 0.623510 of unit cell:	Completed after 18 iterations at t[s]:   7233.56
SCF: Cycle: 32   F: -1924.132724574040139   dF: +5.158e-07   |Residual|: 5.285e-04   |deigs|: 1.902e-06  t[s]:   7235.54
	Linear fluid (dielectric constant: 78.4, screening length: 5.74355 Bohr) occupying 0.623516 of unit cell:	Completed after 17 iterations at t[s]:   7237.57
	FillingsUpdate:  mu: -0.157759051  nElectrons: 504.000000
	Linear fluid (dielectric constant: 78.4, screening length: 5.74355 Bohr) occupying 0.623510 of unit cell:	Completed after 18 iterations at t[s]:   7349.52
SCF: Cycle: 33   F: -1924.132728223895356   dF: -3.650e-06   |Residual|: 5.031e-04   |deigs|: 3.947e-06  t[s]:   7351.51
	Linear fluid (dielectric constant: 78.4, screening length: 5.74355 Bohr) occupying 0.623520 of unit cell:	Completed after 17 iterations at t[s]:   7353.54
	FillingsUpdate:  mu: -0.157732360  nElectrons: 504.000000
	Linear fluid (dielectric constant: 78.4, screening length: 5.74355 Bohr) occupying 0.623509 of unit cell:	Completed after 18 iterations at t[s]:   7430.43
SCF: Cycle: 34   F: -1924.132721363825112   dF: +6.860e-06   |Residual|: 5.401e-04   |deigs|: 2.613e-05  t[s]:   7432.28
	Linear fluid (dielectric constant: 78.4, screening length: 5.74355 Bohr) occupying 0.623519 of unit cell:	Completed after 17 iterations at t[s]:   7434.30
	FillingsUpdate:  mu: -0.157756782  nElectrons: 504.000000
	Linear fluid (dielectric constant: 78.4, screening length: 5.74355 Bohr) occupying 0.623509 of unit cell:	Completed after 18 iterations at t[s]:   7517.97
SCF: Cycle: 35   F: -1924.132736672345345   dF: -1.531e-05   |Residual|: 4.454e-04   |deigs|: 2.498e-05  t[s]:   7519.87
	Linear fluid (dielectric constant: 78.4, screening length: 5.74355 Bohr) occupying 0.623526 of unit cell:	Completed after 17 iterations at t[s]:   7521.87
	FillingsUpdate:  mu: -0.157719850  nElectrons: 504.000000
	Linear fluid (dielectric constant: 78.4, screening length: 5.74355 Bohr) occupying 0.623508 of unit cell:	Completed after 17 iterations at t[s]:   7605.41
SCF: Cycle: 36   F: -1924.132722978119546   dF: +1.369e-05   |Residual|: 5.238e-04   |deigs|: 3.679e-05  t[s]:   7607.22
	Linear fluid (dielectric constant: 78.4, screening length: 5.74355 Bohr) occupying 0.623525 of unit cell:	Completed after 17 iterations at t[s]:   7609.24
	FillingsUpdate:  mu: -0.157783832  nElectrons: 504.000000
	Linear fluid (dielectric constant: 78.4, screening length: 5.74355 Bohr) occupying 0.623511 of unit cell:	Completed after 17 iterations at t[s]:   7695.19
SCF: Cycle: 37   F: -1924.132751122727313   dF: -2.814e-05   |Residual|: 3.776e-04   |deigs|: 6.339e-05  t[s]:   7696.96
	Linear fluid (dielectric constant: 78.4, screening length: 5.74355 Bohr) occupying 0.623528 of unit cell:	Completed after 17 iterations at t[s]:   7699.00
	FillingsUpdate:  mu: -0.157799912  nElectrons: 504.000000
	Linear fluid (dielectric constant: 78.4, screening length: 5.74355 Bohr) occupying 0.623512 of unit cell:	Completed after 18 iterations at t[s]:   7785.46
SCF: Cycle: 38   F: -1924.132750061345178   dF: +1.061e-06   |Residual|: 3.367e-04   |deigs|: 2.195e-05  t[s]:   7787.34
	Linear fluid (dielectric constant: 78.4, screening length: 5.74355 Bohr) occupying 0.623518 of unit cell:	Completed after 17 iterations at t[s]:   7789.37
	FillingsUpdate:  mu: -0.157792226  nElectrons: 504.000000
	Linear fluid (dielectric constant: 78.4, screening length: 5.74355 Bohr) occupying 0.623511 of unit cell:	Completed after 18 iterations at t[s]:   7874.55
SCF: Cycle: 39   F: -1924.132743752517172   dF: +6.309e-06   |Residual|: 3.771e-04   |deigs|: 1.266e-05  t[s]:   7876.53
	Linear fluid (dielectric constant: 78.4, screening length: 5.74355 Bohr) occupying 0.623494 of unit cell:	Completed after 18 iterations at t[s]:   7878.62
	FillingsUpdate:  mu: -0.157853539  nElectrons: 504.000000
	Linear fluid (dielectric constant: 78.4, screening length: 5.74355 Bohr) occupying 0.623514 of unit cell:	Completed after 18 iterations at t[s]:   7962.79
SCF: Cycle: 40   F: -1924.132747631516168   dF: -3.879e-06   |Residual|: 3.388e-04   |deigs|: 6.248e-05  t[s]:   7964.59
	Linear fluid (dielectric constant: 78.4, screening length: 5.74355 Bohr) occupying 0.623471 of unit cell:	Completed after 17 iterations at t[s]:   7966.59
	FillingsUpdate:  mu: -0.158003666  nElectrons: 504.000000
	Linear fluid (dielectric constant: 78.4, screening length: 5.74355 Bohr) occupying 0.623520 of unit cell:	Completed after 14 iterations at t[s]:   8051.02
SCF: Cycle: 41   F: -1924.132760148050920   dF: -1.252e-05   |Residual|: 2.575e-04   |deigs|: 1.449e-04  t[s]:   8052.90
	Linear fluid (dielectric constant: 78.4, screening length: 5.74355 Bohr) occupying 0.623467 of unit cell:	Completed after 14 iterations at t[s]:   8054.64
	FillingsUpdate:  mu: -0.157861841  nElectrons: 504.000000
	Linear fluid (dielectric constant: 78.4, screening length: 5.74355 Bohr) occupying 0.623511 of unit cell:	Completed after 18 iterations at t[s]:   8141.71
SCF: Cycle: 42   F: -1924.132753673817206   dF: +6.474e-06   |Residual|: 3.063e-04   |deigs|: 1.380e-04  t[s]:   8143.67
	Linear fluid (dielectric constant: 78.4, screening length: 5.74355 Bohr) occupying 0.623479 of unit cell:	Completed after 14 iterations at t[s]:   8145.41
	FillingsUpdate:  mu: -0.158120419  nElectrons: 504.000000
	Linear fluid (dielectric constant: 78.4, screening length: 5.74355 Bohr) occupying 0.623527 of unit cell:	Completed after 17 iterations at t[s]:   8231.80
SCF: Cycle: 43   F: -1924.132747266862907   dF: +6.407e-06   |Residual|: 3.583e-04   |deigs|: 2.521e-04  t[s]:   8233.61
	Linear fluid (dielectric constant: 78.4, screening length: 5.74355 Bohr) occupying 0.623506 of unit cell:	Completed after 16 iterations at t[s]:   8235.57
	FillingsUpdate:  mu: -0.157749633  nElectrons: 504.000000
	Linear fluid (dielectric constant: 78.4, screening length: 5.74355 Bohr) occupying 0.623509 of unit cell:	Completed after 18 iterations at t[s]:   8321.61
SCF: Cycle: 44   F: -1924.132726178561597   dF: +2.109e-05   |Residual|: 5.021e-04   |deigs|: 3.608e-04  t[s]:   8323.49
	Linear fluid (dielectric constant: 78.4, screening length: 5.74355 Bohr) occupying 0.623499 of unit cell:	Completed after 17 iterations at t[s]:   8325.54
	FillingsUpdate:  mu: -0.157846132  nElectrons: 504.000000
	Linear fluid (dielectric constant: 78.4, screening length: 5.74355 Bohr) occupying 0.623513 of unit cell:	Completed after 18 iterations at t[s]:   8409.93
SCF: Cycle: 45   F: -1924.132750106110734   dF: -2.393e-05   |Residual|: 3.134e-04   |deigs|: 9.444e-05  t[s]:   8411.88
	Linear fluid (dielectric constant: 78.4, screening length: 5.74355 Bohr) occupying 0.623500 of unit cell:	Completed after 18 iterations at t[s]:   8413.97
	FillingsUpdate:  mu: -0.157871716  nElectrons: 504.000000
	Linear fluid (dielectric constant: 78.4, screening length: 5.74355 Bohr) occupying 0.623514 of unit cell:	Completed after 16 iterations at t[s]:   8515.88
SCF: Cycle: 46   F: -1924.132758924636391   dF: -8.819e-06   |Residual|: 2.239e-04   |deigs|: 2.571e-05  t[s]:   8517.82
	Linear fluid (dielectric constant: 78.4, screening length: 5.74355 Bohr) occupying 0.623498 of unit cell:	Completed after 16 iterations at t[s]:   8519.73
	FillingsUpdate:  mu: -0.157929478  nElectrons: 504.000000
	Linear fluid (dielectric constant: 78.4, screening length: 5.74355 Bohr) occupying 0.623517 of unit cell:	Completed after 9 iterations at t[s]:   8661.97
SCF: Cycle: 47   F: -1924.132762683143710   dF: -3.759e-06   |Residual|: 1.532e-04   |deigs|: 5.626e-05  t[s]:   8664.52
	Linear fluid (dielectric constant: 78.4, screening length: 5.74355 Bohr) occupying 0.623504 of unit cell:	Completed after 8 iterations at t[s]:   8665.93
	FillingsUpdate:  mu: -0.158021045  nElectrons: 504.000000
	Linear fluid (dielectric constant: 78.4, screening length: 5.74355 Bohr) occupying 0.623522 of unit cell:	Completed after 16 iterations at t[s]:   8777.03
SCF: Cycle: 48   F: -1924.132752142546451   dF: +1.054e-05   |Residual|: 3.670e-04   |deigs|: 8.884e-05  t[s]:   8779.71
	Linear fluid (dielectric constant: 78.4, screening length: 5.74355 Bohr) occupying 0.623515 of unit cell:	Completed after 16 iterations at t[s]:   8781.98
	FillingsUpdate:  mu: -0.157831807  nElectrons: 504.000000
	Linear fluid (dielectric constant: 78.4, screening length: 5.74355 Bohr) occupying 0.623512 of unit cell:	Completed after 18 iterations at t[s]:   8881.34
SCF: Cycle: 49   F: -1924.132756340681453   dF: -4.198e-06   |Residual|: 3.386e-04   |deigs|: 1.857e-04  t[s]:   8884.17
	Linear fluid (dielectric constant: 78.4, screening length: 5.74355 Bohr) occupying 0.623517 of unit cell:	Completed after 18 iterations at t[s]:   8886.58
	FillingsUpdate:  mu: -0.157886800  nElectrons: 504.000000
	Linear fluid (dielectric constant: 78.4, screening length: 5.74355 Bohr) occupying 0.623515 of unit cell:	Completed after 13 iterations at t[s]:   8984.45
SCF: Cycle: 50   F: -1924.132757280111719   dF: -9.394e-07   |Residual|: 3.162e-04   |deigs|: 5.424e-05  t[s]:   8987.15
	Linear fluid (dielectric constant: 78.4, screening length: 5.74355 Bohr) occupying 0.623509 of unit cell:	Completed after 12 iterations at t[s]:   8989.20
	FillingsUpdate:  mu: -0.157999569  nElectrons: 504.000000
	Linear fluid (dielectric constant: 78.4, screening length: 5.74355 Bohr) occupying 0.623522 of unit cell:	Completed after 12 iterations at t[s]:   9088.42
SCF: Cycle: 51   F: -1924.132759593562923   dF: -2.313e-06   |Residual|: 2.024e-04   |deigs|: 1.136e-04  t[s]:   9091.28
	Linear fluid (dielectric constant: 78.4, screening length: 5.74355 Bohr) occupying 0.623505 of unit cell:	Completed after 13 iterations at t[s]:   9093.10
	FillingsUpdate:  mu: -0.157733025  nElectrons: 504.000000
	Linear fluid (dielectric constant: 78.4, screening length: 5.74355 Bohr) occupying 0.623506 of unit cell:	Completed after 18 iterations at t[s]:   9185.31
SCF: Cycle: 52   F: -1924.132723135475089   dF: +3.646e-05   |Residual|: 5.595e-04   |deigs|: 2.600e-04  t[s]:   9187.63
	Linear fluid (dielectric constant: 78.4, screening length: 5.74355 Bohr) occupying 0.623504 of unit cell:	Completed after 18 iterations at t[s]:   9190.14
	FillingsUpdate:  mu: -0.157891859  nElectrons: 504.000000
	Linear fluid (dielectric constant: 78.4, screening length: 5.74355 Bohr) occupying 0.623515 of unit cell:	Completed after 14 iterations at t[s]:   9281.51
SCF: Cycle: 53   F: -1924.132758257650039   dF: -3.512e-05   |Residual|: 2.494e-04   |deigs|: 1.552e-04  t[s]:   9284.37
	Linear fluid (dielectric constant: 78.4, screening length: 5.74355 Bohr) occupying 0.623501 of unit cell:	Completed after 13 iterations at t[s]:   9286.21
	FillingsUpdate:  mu: -0.158037740  nElectrons: 504.000000
	Linear fluid (dielectric constant: 78.4, screening length: 5.74355 Bohr) occupying 0.623524 of unit cell:	Completed after 15 iterations at t[s]:   9377.97
SCF: Cycle: 54   F: -1924.132759860466194   dF: -1.603e-06   |Residual|: 1.753e-04   |deigs|: 1.436e-04  t[s]:   9380.04
	Linear fluid (dielectric constant: 78.4, screening length: 5.74355 Bohr) occupying 0.623492 of unit cell:	Completed after 14 iterations at t[s]:   9381.87
	FillingsUpdate:  mu: -0.157822335  nElectrons: 504.000000
	Linear fluid (dielectric constant: 78.4, screening length: 5.74355 Bohr) occupying 0.623511 of unit cell:	Completed after 17 iterations at t[s]:   9471.53
SCF: Cycle: 55   F: -1924.132746583884227   dF: +1.328e-05   |Residual|: 3.581e-04   |deigs|: 2.094e-04  t[s]:   9473.47
	Linear fluid (dielectric constant: 78.4, screening length: 5.74355 Bohr) occupying 0.623495 of unit cell:	Completed after 17 iterations at t[s]:   9475.52
	FillingsUpdate:  mu: -0.157916983  nElectrons: 504.000000
	Linear fluid (dielectric constant: 78.4, screening length: 5.74355 Bohr) occupying 0.623516 of unit cell:	Completed after 13 iterations at t[s]:   9564.38
SCF: Cycle: 56   F: -1924.132762302372385   dF: -1.572e-05   |Residual|: 1.780e-04   |deigs|: 9.149e-05  t[s]:   9566.37
	Linear fluid (dielectric constant: 78.4, screening length: 5.74355 Bohr) occupying 0.623493 of unit cell:	Completed after 10 iterations at t[s]:   9567.84
	FillingsUpdate:  mu: -0.158096104  nElectrons: 504.000000
	Linear fluid (dielectric constant: 78.4, screening length: 5.74355 Bohr) occupying 0.623527 of unit cell:	Completed after 14 iterations at t[s]:   9656.08
SCF: Cycle: 57   F: -1924.132753384915077   dF: +8.917e-06   |Residual|: 3.251e-04   |deigs|: 1.778e-04  t[s]:   9657.91
	Linear fluid (dielectric constant: 78.4, screening length: 5.74355 Bohr) occupying 0.623498 of unit cell:	Completed after 16 iterations at t[s]:   9659.91
	FillingsUpdate:  mu: -0.157880039  nElectrons: 504.000000
	Linear fluid (dielectric constant: 78.4, screening length: 5.74355 Bohr) occupying 0.623513 of unit cell:	Completed after 10 iterations at t[s]:   9748.08
SCF: Cycle: 58   F: -1924.132764017877207   dF: -1.063e-05   |Residual|: 1.645e-04   |deigs|: 2.152e-04  t[s]:   9750.11
	Linear fluid (dielectric constant: 78.4, screening length: 5.74355 Bohr) occupying 0.623512 of unit cell:	Completed after 9 iterations at t[s]:   9751.48
	FillingsUpdate:  mu: -0.158029131  nElectrons: 504.000000
	Linear fluid (dielectric constant: 78.4, screening length: 5.74355 Bohr) occupying 0.623524 of unit cell:	Completed after 15 iterations at t[s]:   9840.03
SCF: Cycle: 59   F: -1924.132760092401213   dF: +3.925e-06   |Residual|: 1.612e-04   |deigs|: 1.473e-04  t[s]:   9842.01
	Linear fluid (dielectric constant: 78.4, screening length: 5.74355 Bohr) occupying 0.623518 of unit cell:	Completed after 13 iterations at t[s]:   9843.75
	FillingsUpdate:  mu: -0.157784371  nElectrons: 504.000000
	Linear fluid (dielectric constant: 78.4, screening length: 5.74355 Bohr) occupying 0.623509 of unit cell:	Completed after 18 iterations at t[s]:   9932.10
SCF: Cycle: 60   F: -1924.132751520456395   dF: +8.572e-06   |Residual|: 3.691e-04   |deigs|: 2.418e-04  t[s]:   9934.22
	Linear fluid (dielectric constant: 78.4, screening length: 5.74355 Bohr) occupying 0.623520 of unit cell:	Completed after 18 iterations at t[s]:   9936.39
	FillingsUpdate:  mu: -0.157848498  nElectrons: 504.000000
	Linear fluid (dielectric constant: 78.4, screening length: 5.74355 Bohr) occupying 0.623513 of unit cell:	Completed after 14 iterations at t[s]:  10025.04
SCF: Cycle: 61   F: -1924.132757587866081   dF: -6.067e-06   |Residual|: 3.141e-04   |deigs|: 6.259e-05  t[s]:  10027.00
	Linear fluid (dielectric constant: 78.4, screening length: 5.74355 Bohr) occupying 0.623518 of unit cell:	Completed after 13 iterations at t[s]:  10028.74
	FillingsUpdate:  mu: -0.158002039  nElectrons: 504.000000
	Linear fluid (dielectric constant: 78.4, screening length: 5.74355 Bohr) occupying 0.623523 of unit cell:	Completed after 16 iterations at t[s]:  10167.39
SCF: Cycle: 62   F: -1924.132757183346257   dF: +4.045e-07   |Residual|: 2.241e-04   |deigs|: 1.539e-04  t[s]:  10169.66
	Linear fluid (dielectric constant: 78.4, screening length: 5.74355 Bohr) occupying 0.623513 of unit cell:	Completed after 13 iterations at t[s]:  10171.47
	FillingsUpdate:  mu: -0.157660272  nElectrons: 504.000000
	Linear fluid (dielectric constant: 78.4, screening length: 5.74355 Bohr) occupying 0.623502 of unit cell:	Completed after 18 iterations at t[s]:  10314.78
SCF: Cycle: 63   F: -1924.132707057295875   dF: +5.013e-05   |Residual|: 6.549e-04   |deigs|: 3.338e-04  t[s]:  10317.02
	Linear fluid (dielectric constant: 78.4, screening length: 5.74355 Bohr) occupying 0.623515 of unit cell:	Completed after 17 iterations at t[s]:  10319.27
	FillingsUpdate:  mu: -0.157873359  nElectrons: 504.000000
	Linear fluid (dielectric constant: 78.4, screening length: 5.74355 Bohr) occupying 0.623514 of unit cell:	Completed after 13 iterations at t[s]:  10410.25
SCF: Cycle: 64   F: -1924.132757236634461   dF: -5.018e-05   |Residual|: 2.830e-04   |deigs|: 2.071e-04  t[s]:  10412.52
	Linear fluid (dielectric constant: 78.4, screening length: 5.74355 Bohr) occupying 0.623519 of unit cell:	Completed after 13 iterations at t[s]:  10414.33
	FillingsUpdate:  mu: -0.157972119  nElectrons: 504.000000
	Linear fluid (dielectric constant: 78.4, screening length: 5.74355 Bohr) occupying 0.623521 of unit cell:	Completed after 13 iterations at t[s]:  10519.45
SCF: Cycle: 65   F: -1924.132761679531768   dF: -4.443e-06   |Residual|: 1.520e-04   |deigs|: 9.788e-05  t[s]:  10521.73
	Linear fluid (dielectric constant: 78.4, screening length: 5.74355 Bohr) occupying 0.623521 of unit cell:	Completed after 10 iterations at t[s]:  10523.24
	FillingsUpdate:  mu: -0.157636210  nElectrons: 504.000000
	Linear fluid (dielectric constant: 78.4, screening length: 5.74355 Bohr) occupying 0.623501 of unit cell:	Completed after 18 iterations at t[s]:  10624.67
SCF: Cycle: 66   F: -1924.132692992549210   dF: +6.869e-05   |Residual|: 7.413e-04   |deigs|: 3.274e-04  t[s]:  10626.90
	Linear fluid (dielectric constant: 78.4, screening length: 5.74355 Bohr) occupying 0.623509 of unit cell:	Completed after 18 iterations at t[s]:  10630.44
	FillingsUpdate:  mu: -0.157914786  nElectrons: 504.000000
	Linear fluid (dielectric constant: 78.4, screening length: 5.74355 Bohr) occupying 0.623516 of unit cell:	Completed after 7 iterations at t[s]:  10771.59
SCF: Cycle: 67   F: -1924.132761452572140   dF: -6.846e-05   |Residual|: 2.040e-04   |deigs|: 2.718e-04  t[s]:  10774.49
	Linear fluid (dielectric constant: 78.4, screening length: 5.74355 Bohr) occupying 0.623512 of unit cell:	Completed after 7 iterations at t[s]:  10775.81
	FillingsUpdate:  mu: -0.157885997  nElectrons: 504.000000
	Linear fluid (dielectric constant: 78.4, screening length: 5.74355 Bohr) occupying 0.623515 of unit cell:	Completed after 8 iterations at t[s]:  10870.76
SCF: Cycle: 68   F: -1924.132761772515096   dF: -3.199e-07   |Residual|: 2.481e-04   |deigs|: 2.992e-05  t[s]:  10873.11
	Linear fluid (dielectric constant: 78.4, screening length: 5.74355 Bohr) occupying 0.623512 of unit cell:	Completed after 8 iterations at t[s]:  10874.48
	FillingsUpdate:  mu: -0.158023795  nElectrons: 504.000000
	Linear fluid (dielectric constant: 78.4, screening length: 5.74355 Bohr) occupying 0.623522 of unit cell:	Completed after 17 iterations at t[s]:  11019.07
SCF: Cycle: 69   F: -1924.132745771595637   dF: +1.600e-05   |Residual|: 3.336e-04   |deigs|: 1.345e-04  t[s]:  11021.75
	Linear fluid (dielectric constant: 78.4, screening length: 5.74355 Bohr) occupying 0.623518 of unit cell:	Completed after 18 iterations at t[s]:  11024.08
	FillingsUpdate:  mu: -0.157813666  nElectrons: 504.000000
	Linear fluid (dielectric constant: 78.4, screening length: 5.74355 Bohr) occupying 0.623511 of unit cell:	Completed after 18 iterations at t[s]:  11140.58
SCF: Cycle: 70   F: -1924.132751679308058   dF: -5.908e-06   |Residual|: 3.560e-04   |deigs|: 2.047e-04  t[s]:  11144.01
	Linear fluid (dielectric constant: 78.4, screening length: 5.74355 Bohr) occupying 0.623512 of unit cell:	Completed after 18 iterations at t[s]:  11146.61
	FillingsUpdate:  mu: -0.157885130  nElectrons: 504.000000
	Linear fluid (dielectric constant: 78.4, screening length: 5.74355 Bohr) occupying 0.623515 of unit cell:	Completed after 8 iterations at t[s]:  11241.80
SCF: Cycle: 71   F: -1924.132762037347447   dF: -1.036e-05   |Residual|: 2.072e-04   |deigs|: 6.994e-05  t[s]:  11244.23
	Linear fluid (dielectric constant: 78.4, screening length: 5.74355 Bohr) occupying 0.623512 of unit cell:	Completed after 8 iterations at t[s]:  11245.60
	FillingsUpdate:  mu: -0.157957410  nElectrons: 504.000000
	Linear fluid (dielectric constant: 78.4, screening length: 5.74355 Bohr) occupying 0.623519 of unit cell:	Completed after 13 iterations at t[s]:  11337.27
SCF: Cycle: 72   F: -1924.132760819267105   dF: +1.218e-06   |Residual|: 2.432e-04   |deigs|: 7.237e-05  t[s]:  11350.43
	Linear fluid (dielectric constant: 78.4, screening length: 5.74355 Bohr) occupying 0.623520 of unit cell:	Completed after 13 iterations at t[s]:  11352.32
	FillingsUpdate:  mu: -0.157716251  nElectrons: 504.000000
	Linear fluid (dielectric constant: 78.4, screening length: 5.74355 Bohr) occupying 0.623506 of unit cell:	Completed after 18 iterations at t[s]:  11507.96
SCF: Cycle: 73   F: -1924.132734349856946   dF: +2.647e-05   |Residual|: 5.178e-04   |deigs|: 2.379e-04  t[s]:  11511.47
	Linear fluid (dielectric constant: 78.4, screening length: 5.74355 Bohr) occupying 0.623521 of unit cell:	Completed after 17 iterations at t[s]:  11514.05
	FillingsUpdate:  mu: -0.157788569  nElectrons: 504.000000
	Linear fluid (dielectric constant: 78.4, screening length: 5.74355 Bohr) occupying 0.623510 of unit cell:	Completed after 17 iterations at t[s]:  11630.78
SCF: Cycle: 74   F: -1924.132748961981861   dF: -1.461e-05   |Residual|: 3.958e-04   |deigs|: 7.258e-05  t[s]:  11633.77
	Linear fluid (dielectric constant: 78.4, screening length: 5.74355 Bohr) occupying 0.623526 of unit cell:	Completed after 18 iterations at t[s]:  11636.29
	FillingsUpdate:  mu: -0.157781308  nElectrons: 504.000000
	Linear fluid (dielectric constant: 78.4, screening length: 5.74355 Bohr) occupying 0.623509 of unit cell:	Completed after 18 iterations at t[s]:  11740.28
SCF: Cycle: 75   F: -1924.132755204056593   dF: -6.242e-06   |Residual|: 3.713e-04   |deigs|: 1.837e-05  t[s]:  11743.00
	Linear fluid (dielectric constant: 78.4, screening length: 5.74355 Bohr) occupying 0.623526 of unit cell:	Completed after 19 iterations at t[s]:  11745.86
	FillingsUpdate:  mu: -0.157781673  nElectrons: 504.000000
	Linear fluid (dielectric constant: 78.4, screening length: 5.74355 Bohr) occupying 0.623509 of unit cell:	Completed after 16 iterations at t[s]:  11851.20
SCF: Cycle: 76   F: -1924.132757963797076   dF: -2.760e-06   |Residual|: 3.527e-04   |deigs|: 1.062e-05  t[s]:  11854.57
	Linear fluid (dielectric constant: 78.4, screening length: 5.74355 Bohr) occupying 0.623524 of unit cell:	Completed after 18 iterations at t[s]:  11857.35
	FillingsUpdate:  mu: -0.157731464  nElectrons: 504.000000
	Linear fluid (dielectric constant: 78.4, screening length: 5.74355 Bohr) occupying 0.623507 of unit cell:	Completed after 18 iterations at t[s]:  11963.55
SCF: Cycle: 77   F: -1924.132727621760523   dF: +3.034e-05   |Residual|: 6.168e-04   |deigs|: 5.204e-05  t[s]:  11966.79
	Linear fluid (dielectric constant: 78.4, screening length: 5.74355 Bohr) occupying 0.623515 of unit cell:	Completed after 16 iterations at t[s]:  11969.11
	FillingsUpdate:  mu: -0.157760664  nElectrons: 504.000000
	Linear fluid (dielectric constant: 78.4, screening length: 5.74355 Bohr) occupying 0.623509 of unit cell:	Completed after 18 iterations at t[s]:  12072.27
SCF: Cycle: 78   F: -1924.132725448390147   dF: +2.173e-06   |Residual|: 5.534e-04   |deigs|: 3.664e-05  t[s]:  12075.91
	Linear fluid (dielectric constant: 78.4, screening length: 5.74355 Bohr) occupying 0.623517 of unit cell:	Completed after 18 iterations at t[s]:  12078.60
	FillingsUpdate:  mu: -0.157769359  nElectrons: 504.000000
	Linear fluid (dielectric constant: 78.4, screening length: 5.74355 Bohr) occupying 0.623509 of unit cell:	Completed after 17 iterations at t[s]:  12184.15
SCF: Cycle: 79   F: -1924.132738496084812   dF: -1.305e-05   |Residual|: 4.930e-04   |deigs|: 1.509e-05  t[s]:  12187.48
	Linear fluid (dielectric constant: 78.4, screening length: 5.74355 Bohr) occupying 0.623515 of unit cell:	Completed after 18 iterations at t[s]:  12190.12
	FillingsUpdate:  mu: -0.157782001  nElectrons: 504.000000
	Linear fluid (dielectric constant: 78.4, screening length: 5.74355 Bohr) occupying 0.623510 of unit cell:	Completed after 17 iterations at t[s]:  12277.52
SCF: Cycle: 80   F: -1924.132743090787926   dF: -4.595e-06   |Residual|: 4.530e-04   |deigs|: 1.271e-05  t[s]:  12280.28
	Linear fluid (dielectric constant: 78.4, screening length: 5.74355 Bohr) occupying 0.623516 of unit cell:	Completed after 17 iterations at t[s]:  12282.80
	FillingsUpdate:  mu: -0.157871832  nElectrons: 504.000000
	Linear fluid (dielectric constant: 78.4, screening length: 5.74355 Bohr) occupying 0.623514 of unit cell:	Completed after 13 iterations at t[s]:  12387.98
SCF: Cycle: 81   F: -1924.132757596514921   dF: -1.451e-05   |Residual|: 2.661e-04   |deigs|: 8.816e-05  t[s]:  12391.07
	Linear fluid (dielectric constant: 78.4, screening length: 5.74355 Bohr) occupying 0.623518 of unit cell:	Completed after 13 iterations at t[s]:  12393.28
	FillingsUpdate:  mu: -0.157939077  nElectrons: 504.000000
	Linear fluid (dielectric constant: 78.4, screening length: 5.74355 Bohr) occupying 0.623519 of unit cell:	Completed after 8 iterations at t[s]:  12497.91
SCF: Cycle: 82   F: -1924.132763229935790   dF: -5.633e-06   |Residual|: 1.302e-04   |deigs|: 7.043e-05  t[s]:  12501.37
	Linear fluid (dielectric constant: 78.4, screening length: 5.74355 Bohr) occupying 0.623524 of unit cell:	Completed after 7 iterations at t[s]:  12503.18
	FillingsUpdate:  mu: -0.157819049  nElectrons: 504.000000
	Linear fluid (dielectric constant: 78.4, screening length: 5.74355 Bohr) occupying 0.623513 of unit cell:	Completed after 16 iterations at t[s]:  12606.91
SCF: Cycle: 83   F: -1924.132752598086881   dF: +1.063e-05   |Residual|: 3.063e-04   |deigs|: 1.172e-04  t[s]:  12609.97
	Linear fluid (dielectric constant: 78.4, screening length: 5.74355 Bohr) occupying 0.623524 of unit cell:	Completed after 16 iterations at t[s]:  12612.44
	FillingsUpdate:  mu: -0.157781201  nElectrons: 504.000000
	Linear fluid (dielectric constant: 78.4, screening length: 5.74355 Bohr) occupying 0.623510 of unit cell:	Completed after 18 iterations at t[s]:  12718.28
SCF: Cycle: 84   F: -1924.132739641277340   dF: +1.296e-05   |Residual|: 4.682e-04   |deigs|: 4.131e-05  t[s]:  12721.64
	Linear fluid (dielectric constant: 78.4, screening length: 5.74355 Bohr) occupying 0.623530 of unit cell:	Completed after 18 iterations at t[s]:  12725.13
	FillingsUpdate:  mu: -0.157769908  nElectrons: 504.000000
	Linear fluid (dielectric constant: 78.4, screening length: 5.74355 Bohr) occupying 0.623510 of unit cell:	Completed after 19 iterations at t[s]:  12828.26
SCF: Cycle: 85   F: -1924.132743260156303   dF: -3.619e-06   |Residual|: 4.142e-04   |deigs|: 2.240e-05  t[s]:  12832.18
	Linear fluid (dielectric constant: 78.4, screening length: 5.74355 Bohr) occupying 0.623525 of unit cell:	Completed after 18 iterations at t[s]:  12835.05
	FillingsUpdate:  mu: -0.157815646  nElectrons: 504.000000
	Linear fluid (dielectric constant: 78.4, screening length: 5.74355 Bohr) occupying 0.623512 of unit cell:	Completed after 18 iterations at t[s]:  12938.98
SCF: Cycle: 86   F: -1924.132755012353982   dF: -1.175e-05   |Residual|: 3.021e-04   |deigs|: 4.622e-05  t[s]:  12941.87
	Linear fluid (dielectric constant: 78.4, screening length: 5.74355 Bohr) occupying 0.623524 of unit cell:	Completed after 19 iterations at t[s]:  12944.73
	FillingsUpdate:  mu: -0.157814765  nElectrons: 504.000000
	Linear fluid (dielectric constant: 78.4, screening length: 5.74355 Bohr) occupying 0.623512 of unit cell:	Completed after 17 iterations at t[s]:  13046.57
SCF: Cycle: 87   F: -1924.132756903955624   dF: -1.892e-06   |Residual|: 2.746e-04   |deigs|: 6.362e-06  t[s]:  13049.62
	Linear fluid (dielectric constant: 78.4, screening length: 5.74355 Bohr) occupying 0.623522 of unit cell:	Completed after 18 iterations at t[s]:  13052.33
	FillingsUpdate:  mu: -0.157851007  nElectrons: 504.000000
	Linear fluid (dielectric constant: 78.4, screening length: 5.74355 Bohr) occupying 0.623513 of unit cell:	Completed after 13 iterations at t[s]:  13156.13
SCF: Cycle: 88   F: -1924.132759281120570   dF: -2.377e-06   |Residual|: 2.488e-04   |deigs|: 3.513e-05  t[s]:  13159.17
	Linear fluid (dielectric constant: 78.4, screening length: 5.74355 Bohr) occupying 0.623527 of unit cell:	Completed after 13 iterations at t[s]:  13161.10
	FillingsUpdate:  mu: -0.157972711  nElectrons: 504.000000
	Linear fluid (dielectric constant: 78.4, screening length: 5.74355 Bohr) occupying 0.623521 of unit cell:	Completed after 19 iterations at t[s]:  13267.17
SCF: Cycle: 89   F: -1924.132750470896553   dF: +8.810e-06   |Residual|: 3.104e-04   |deigs|: 1.197e-04  t[s]:  13269.88
	Linear fluid (dielectric constant: 78.4, screening length: 5.74355 Bohr) occupying 0.623527 of unit cell:	Completed after 18 iterations at t[s]:  13272.84
	FillingsUpdate:  mu: -0.157740488  nElectrons: 504.000000
	Linear fluid (dielectric constant: 78.4, screening length: 5.74355 Bohr) occupying 0.623508 of unit cell:	Completed after 18 iterations at t[s]:  13379.16
SCF: Cycle: 90   F: -1924.132735059952438   dF: +1.541e-05   |Residual|: 5.080e-04   |deigs|: 2.270e-04  t[s]:  13382.76
	Linear fluid (dielectric constant: 78.4, screening length: 5.74355 Bohr) occupying 0.623526 of unit cell:	Completed after 18 iterations at t[s]:  13385.65
	FillingsUpdate:  mu: -0.157822518  nElectrons: 504.000000
	Linear fluid (dielectric constant: 78.4, screening length: 5.74355 Bohr) occupying 0.623512 of unit cell:	Completed after 13 iterations at t[s]:  13490.54
SCF: Cycle: 91   F: -1924.132749078832830   dF: -1.402e-05   |Residual|: 4.043e-04   |deigs|: 8.066e-05  t[s]:  13493.79
	Linear fluid (dielectric constant: 78.4, screening length: 5.74355 Bohr) occupying 0.623516 of unit cell:	Completed after 13 iterations at t[s]:  13495.82
	FillingsUpdate:  mu: -0.158006000  nElectrons: 504.000000
	Linear fluid (dielectric constant: 78.4, screening length: 5.74355 Bohr) occupying 0.623523 of unit cell:	Completed after 16 iterations at t[s]:  13601.23
SCF: Cycle: 92   F: -1924.132758110532905   dF: -9.032e-06   |Residual|: 1.972e-04   |deigs|: 1.830e-04  t[s]:  13605.13
	Linear fluid (dielectric constant: 78.4, screening length: 5.74355 Bohr) occupying 0.623517 of unit cell:	Completed after 13 iterations at t[s]:  13607.39
	FillingsUpdate:  mu: -0.157615708  nElectrons: 504.000000
	Linear fluid (dielectric constant: 78.4, screening length: 5.74355 Bohr) occupying 0.623501 of unit cell:	Completed after 18 iterations at t[s]:  13820.01
SCF: Cycle: 93   F: -1924.132677109277893   dF: +8.100e-05   |Residual|: 7.816e-04   |deigs|: 3.797e-04  t[s]:  13823.00
	Linear fluid (dielectric constant: 78.4, screening length: 5.74355 Bohr) occupying 0.623514 of unit cell:	Completed after 17 iterations at t[s]:  13825.53
	FillingsUpdate:  mu: -0.157911685  nElectrons: 504.000000
	Linear fluid (dielectric constant: 78.4, screening length: 5.74355 Bohr) occupying 0.623516 of unit cell:	Completed after 12 iterations at t[s]:  13929.67
SCF: Cycle: 94   F: -1924.132751124027664   dF: -7.401e-05   |Residual|: 3.309e-04   |deigs|: 2.869e-04  t[s]:  13933.02
	Linear fluid (dielectric constant: 78.4, screening length: 5.74355 Bohr) occupying 0.623517 of unit cell:	Completed after 11 iterations at t[s]:  13935.09
	FillingsUpdate:  mu: -0.157788095  nElectrons: 504.000000
	Linear fluid (dielectric constant: 78.4, screening length: 5.74355 Bohr) occupying 0.623510 of unit cell:	Completed after 16 iterations at t[s]:  14041.44
SCF: Cycle: 95   F: -1924.132750511640552   dF: +6.124e-07   |Residual|: 3.541e-04   |deigs|: 1.211e-04  t[s]:  14044.55
	Linear fluid (dielectric constant: 78.4, screening length: 5.74355 Bohr) occupying 0.623516 of unit cell:	Completed after 18 iterations at t[s]:  14047.22
	FillingsUpdate:  mu: -0.157761573  nElectrons: 504.000000
	Linear fluid (dielectric constant: 78.4, screening length: 5.74355 Bohr) occupying 0.623509 of unit cell:	Completed after 16 iterations at t[s]:  14151.87
SCF: Cycle: 96   F: -1924.132734409074146   dF: +1.610e-05   |Residual|: 5.234e-04   |deigs|: 3.025e-05  t[s]:  14154.87
	Linear fluid (dielectric constant: 78.4, screening length: 5.74355 Bohr) occupying 0.623525 of unit cell:	Completed after 17 iterations at t[s]:  14157.44
	FillingsUpdate:  mu: -0.157632331  nElectrons: 504.000000
	Linear fluid (dielectric constant: 78.4, screening length: 5.74355 Bohr) occupying 0.623502 of unit cell:	Completed after 20 iterations at t[s]:  14271.48
SCF: Cycle: 97   F: -1924.132684474152484   dF: +4.993e-05   |Residual|: 8.279e-04   |deigs|: 1.288e-04  t[s]:  14275.38
	Linear fluid (dielectric constant: 78.4, screening length: 5.74355 Bohr) occupying 0.623522 of unit cell:	Completed after 19 iterations at t[s]:  14278.35
	FillingsUpdate:  mu: -0.157849281  nElectrons: 504.000000
	Linear fluid (dielectric constant: 78.4, screening length: 5.74355 Bohr) occupying 0.623513 of unit cell:	Completed after 13 iterations at t[s]:  14383.35
SCF: Cycle: 98   F: -1924.132750785311146   dF: -6.631e-05   |Residual|: 3.486e-04   |deigs|: 2.119e-04  t[s]:  14386.28
	Linear fluid (dielectric constant: 78.4, screening length: 5.74355 Bohr) occupying 0.623518 of unit cell:	Completed after 12 iterations at t[s]:  14388.26
	FillingsUpdate:  mu: -0.157895260  nElectrons: 504.000000
	Linear fluid (dielectric constant: 78.4, screening length: 5.74355 Bohr) occupying 0.623517 of unit cell:	Completed after 14 iterations at t[s]:  14493.66
SCF: Cycle: 99   F: -1924.132762003879634   dF: -1.122e-05   |Residual|: 2.089e-04   |deigs|: 5.445e-05  t[s]:  14496.64
	Linear fluid (dielectric constant: 78.4, screening length: 5.74355 Bohr) occupying 0.623523 of unit cell:	Completed after 13 iterations at t[s]:  14498.84
	FillingsUpdate:  mu: -0.157818032  nElectrons: 504.000000
	Linear fluid (dielectric constant: 78.4, screening length: 5.74355 Bohr) occupying 0.623513 of unit cell:	Completed after 18 iterations at t[s]:  14616.64
SCF: Cycle: 100   F: -1924.132747475488259   dF: +1.453e-05   |Residual|: 3.965e-04   |deigs|: 7.693e-05  t[s]:  14619.67
	Linear fluid (dielectric constant: 78.4, screening length: 5.74355 Bohr) occupying 0.623526 of unit cell:	Completed after 18 iterations at t[s]:  14622.11
	FillingsUpdate:  mu: -0.157752944  nElectrons: 504.000000
	Linear fluid (dielectric constant: 78.4, screening length: 5.74355 Bohr) occupying 0.623508 of unit cell:	Completed after 19 iterations at t[s]:  14726.79
SCF: Cycle: 101   F: -1924.132745285317014   dF: +2.190e-06   |Residual|: 4.598e-04   |deigs|: 7.242e-05  t[s]:  14729.91
	Linear fluid (dielectric constant: 78.4, screening length: 5.74355 Bohr) occupying 0.623518 of unit cell:	Completed after 18 iterations at t[s]:  14732.88
	FillingsUpdate:  mu: -0.157840199  nElectrons: 504.000000
	Linear fluid (dielectric constant: 78.4, screening length: 5.74355 Bohr) occupying 0.623512 of unit cell:	Completed after 11 iterations at t[s]:  14837.10
SCF: Cycle: 102   F: -1924.132759524767380   dF: -1.424e-05   |Residual|: 3.081e-04   |deigs|: 8.671e-05  t[s]:  14839.91
	Linear fluid (dielectric constant: 78.4, screening length: 5.74355 Bohr) occupying 0.623515 of unit cell:	Completed after 10 iterations at t[s]:  14841.57
	FillingsUpdate:  mu: -0.157987356  nElectrons: 504.000000
	Linear fluid (dielectric constant: 78.4, screening length: 5.74355 Bohr) occupying 0.623521 of unit cell:	Completed after 16 iterations at t[s]:  14948.20
SCF: Cycle: 103   F: -1924.132754897840869   dF: +4.627e-06   |Residual|: 2.557e-04   |deigs|: 1.470e-04  t[s]:  14951.27
	Linear fluid (dielectric constant: 78.4, screening length: 5.74355 Bohr) occupying 0.623515 of unit cell:	Completed after 18 iterations at t[s]:  14953.62
	FillingsUpdate:  mu: -0.157828488  nElectrons: 504.000000
	Linear fluid (dielectric constant: 78.4, screening length: 5.74355 Bohr) occupying 0.623512 of unit cell:	Completed after 14 iterations at t[s]:  15058.57
SCF: Cycle: 104   F: -1924.132758496882161   dF: -3.599e-06   |Residual|: 2.370e-04   |deigs|: 1.554e-04  t[s]:  15061.79
	Linear fluid (dielectric constant: 78.4, screening length: 5.74355 Bohr) occupying 0.623513 of unit cell:	Completed after 14 iterations at t[s]:  15063.78
	FillingsUpdate:  mu: -0.157945265  nElectrons: 504.000000
	Linear fluid (dielectric constant: 78.4, screening length: 5.74355 Bohr) occupying 0.623518 of unit cell:	Completed after 13 iterations at t[s]:  15167.91
SCF: Cycle: 105   F: -1924.132761348204440   dF: -2.851e-06   |Residual|: 1.597e-04   |deigs|: 1.144e-04  t[s]:  15170.84
	Linear fluid (dielectric constant: 78.4, screening length: 5.74355 Bohr) occupying 0.623512 of unit cell:	Completed after 13 iterations at t[s]:  15172.73
	FillingsUpdate:  mu: -0.157804983  nElectrons: 504.000000
	Linear fluid (dielectric constant: 78.4, screening length: 5.74355 Bohr) occupying 0.623510 of unit cell:	Completed after 16 iterations at t[s]:  15278.98
SCF: Cycle: 106   F: -1924.132754924429264   dF: +6.424e-06   |Residual|: 2.658e-04   |deigs|: 1.365e-04  t[s]:  15281.99
	Linear fluid (dielectric constant: 78.4, screening length: 5.74355 Bohr) occupying 0.623511 of unit cell:	Completed after 16 iterations at t[s]:  15284.27
	FillingsUpdate:  mu: -0.157997818  nElectrons: 504.000000
	Linear fluid (dielectric constant: 78.4, screening length: 5.74355 Bohr) occupying 0.623521 of unit cell:	Completed after 15 iterations at t[s]:  15389.76
SCF: Cycle: 107   F: -1924.132758887816181   dF: -3.963e-06   |Residual|: 1.845e-04   |deigs|: 1.873e-04  t[s]:  15392.35
	Linear fluid (dielectric constant: 78.4, screening length: 5.74355 Bohr) occupying 0.623509 of unit cell:	Completed after 15 iterations at t[s]:  15394.46
	FillingsUpdate:  mu: -0.157957914  nElectrons: 504.000000
	Linear fluid (dielectric constant: 78.4, screening length: 5.74355 Bohr) occupying 0.623519 of unit cell:	Completed after 14 iterations at t[s]:  15499.77
SCF: Cycle: 108   F: -1924.132759590878777   dF: -7.031e-07   |Residual|: 2.241e-04   |deigs|: 3.902e-05  t[s]:  15502.97
	Linear fluid (dielectric constant: 78.4, screening length: 5.74355 Bohr) occupying 0.623515 of unit cell:	Completed after 14 iterations at t[s]:  15505.49
	FillingsUpdate:  mu: -0.157807995  nElectrons: 504.000000
	Linear fluid (dielectric constant: 78.4, screening length: 5.74355 Bohr) occupying 0.623510 of unit cell:	Completed after 15 iterations at t[s]:  15644.58
SCF: Cycle: 109   F: -1924.132758014306091   dF: +1.577e-06   |Residual|: 2.780e-04   |deigs|: 1.487e-04  t[s]:  15647.98
	Linear fluid (dielectric constant: 78.4, screening length: 5.74355 Bohr) occupying 0.623511 of unit cell:	Completed after 16 iterations at t[s]:  15650.43
	FillingsUpdate:  mu: -0.157984172  nElectrons: 504.000000
	Linear fluid (dielectric constant: 78.4, screening length: 5.74355 Bohr) occupying 0.623521 of unit cell:	Completed after 15 iterations at t[s]:  15756.72
SCF: Cycle: 110   F: -1924.132759401275507   dF: -1.387e-06   |Residual|: 1.999e-04   |deigs|: 1.743e-04  t[s]:  15759.96
	Linear fluid (dielectric constant: 78.4, screening length: 5.74355 Bohr) occupying 0.623511 of unit cell:	Completed after 15 iterations at t[s]:  15762.31
	FillingsUpdate:  mu: -0.157894063  nElectrons: 504.000000
[...]
    l: 1  eig: 1.000000  rCut: 2.5
    l: 2  eig: -1.293263  rCut: 2.3
    l: 2  eig: -0.500000  rCut: 2.3
  Partial core density with radius 1
  Transforming core density to a uniform radial grid of dG=0.02 with 1670 points.
  Transforming local potential to a uniform radial grid of dG=0.02 with 1670 points.
  Transforming nonlocal projectors to a uniform radial grid of dG=0.02 with 432 points.
  Transforming density augmentations to a uniform radial grid of dG=0.02 with 1670 points.
  Transforming atomic orbitals to a uniform radial grid of dG=0.02 with 432 points.
  Core radius for overlap checks: 2.50 bohrs.

Reading pseudopotential file '/home/guoxy/vasp/jdftx-1.5.0/build/pseudopotentials/GBRV/te_pbe.uspp':
  Title: Te.  Created by USPP 7.3.6 on 14-9-2013
  Reference state energy: -13.134220.  6 valence electrons in orbitals:
    |500>  occupation: 2  eigenvalue: -0.555231
    |510>  occupation: 4  eigenvalue: -0.218781
  lMax: 2  lLocal: 2  QijEcut: 5
  5 projectors sampled on a log grid with 723 points:
    l: 0  eig: -0.555229  rCut: 2.1
    l: 0  eig: 1.000000  rCut: 2.1
    l: 1  eig: -0.218780  rCut: 2.1
    l: 1  eig: 1.000000  rCut: 2.1
    l: 2  eig: 1.000000  rCut: 2.6
  Partial core density with radius 1.8
  Transforming core density to a uniform radial grid of dG=0.02 with 1670 points.
  Transforming local potential to a uniform radial grid of dG=0.02 with 1670 points.
  Transforming nonlocal projectors to a uniform radial grid of dG=0.02 with 432 points.
  Transforming density augmentations to a uniform radial grid of dG=0.02 with 1670 points.
  Transforming atomic orbitals to a uniform radial grid of dG=0.02 with 432 points.
  Core radius for overlap checks: 2.60 bohrs.

Initialized 2 species with 48 total atoms.

Folded 1 k-points by 4x4x1 to 16 k-points.

---------- Setting up k-points, bands, fillings ----------
Adding inversion symmetry to k-mesh for non-inversion-symmetric unit cell.
Reduced to 10 k-points under symmetry. 
Computing the number of bands and number of electrons
Reading initial fillings from file NbTe2.fillings.
nElectrons: 504.000000   nBands: 312   nStates: 10

----- Setting up reduced wavefunction bases (one per k-point) -----
average nbasis = 72473.688 , ideal nbasis = 72469.710

---------- Setting up coulomb interaction ----------
Fluid mode embedding: using embedded box, but periodic Coulomb kernel.
(Fluid response is responsible for (approximate) separation between periodic images.)
Setting up double-sized grid for truncated Coulomb potentials:
R = 
[    16.7546   -8.37728          0  ]
[          0    14.5082          0  ]
[          0          0    139.573  ]
unit cell volume = 33927.2
G =
[   0.375014   0.216539         -0  ]
[          0   0.433077          0  ]
[          0         -0  0.0450173  ]
Chosen fftbox size, S = [  80  80  640  ]
Integer grid location selected as the embedding center:
   Grid: [  0  0  160  ]
   Lattice: [  0  0  0.5  ]
   Cartesian: [  0  0  34.8931  ]
Constructing Wigner-Seitz cell: 8 faces (6 quadrilaterals, 2 hexagons)
Range-separation parameter for embedded mesh potentials due to point charges: 0.589142 bohrs.

Initializing van der Waals corrections
	NOTE: vdW corrections apply only for interactions with fluid.
	Bi:  C6:  893.28 Eh-a0^6  R0: 3.555 a0 (WARNING: beyond Grimme's data set)
	Te:  C6:  550.54 Eh-a0^6  R0: 3.575 a0

---------- Setting up ewald sum ----------
Optimum gaussian width for ewald sums = 6.774632 bohr.
Real space sum over 845 unit cells with max indices [  6  6  2  ]
Reciprocal space sum over 8107 terms with max indices [  5  5  33  ]

---------- Allocating electronic variables ----------
Initializing wave functions:  reading from 'NbTe2.wfns'
----- createFluidSolver() ----- (Fluid-side solver setup)
   Initializing fluid molecule 'H2O'
     Initializing site 'O'
       Electron density: proportional to exp(-r/0.36935)*erfc((r-0.51523)/0.36823) with norm 6.826
       Charge density: gaussian nuclear width 0.478731 with net site charge 0.826
       Polarizability: cuspless exponential with width 0.32 and norm 3.73
       Hard sphere radius: 2.57003 bohrs
       Positions in reference frame:
         [ +0.000000 +0.000000 +0.000000 ]
     Initializing site 'H'
       Electron density: proportional to exp(-r/0.34641)*erfc((r-0)/0.390882) with norm 0.587
       Charge density: gaussian nuclear width 0.377945 with net site charge -0.413
       Polarizability: cuspless exponential with width 0.39 and norm 3.3
       Positions in reference frame:
         [ +0.000000 -1.441945 +1.122523 ]
         [ +0.000000 +1.441945 +1.122523 ]
     Net charge: 0   dipole magnitude: 0.927204
     Initializing spherical shell mfKernel with radius 2.61727 Bohr
     deltaS corrections:
       site 'O': -7.54299
       site 'H': -6.83917
   Initializing fluid molecule 'Na+'
     Initializing site 'Na'
       Electron density: proportional to exp(-r/0.19682)*erfc((r-0.71491)/0.41314) with norm 8.1383
       Charge density: gaussian nuclear width 0.365347 with net site charge -1
       Hard sphere radius: 1.86327 bohrs
       Positions in reference frame:
         [ +0.000000 +0.000000 +0.000000 ]
     Net charge: -1   dipole magnitude: 0
     Initializing gaussian mfKernel with width: 1.55004 Bohr
     deltaS corrections:
       site 'Na': -22.3555
   Initializing fluid molecule 'F-'
     Initializing site 'F'
       Electron density: proportional to exp(-r/0.38886)*erfc((r-0)/0.438782) with norm 8
       Charge density: gaussian nuclear width 0.374796 with net site charge 1
       Hard sphere radius: 2.39995 bohrs
       Positions in reference frame:
         [ +0.000000 +0.000000 +0.000000 ]
     Net charge: 1   dipole magnitude: 0
     Initializing gaussian mfKernel with width: 1.59012 Bohr
     deltaS corrections:
       site 'F': -9.04335

Correction to mu due to finite nuclear width = -0.0147395
   Cavity determined by nc: 0.00142 and sigma: 0.707107
   Nonlocal vdW cavity from gaussian model electron density with norm = 8 and sigma = 0.993594 bohr
   Charge asymmetry in cavity with sensitivity pCavity = 36.5 e-bohr/Eh
   Electrostatic cavity expanded by eta = 1.46 bohrs
   Weighted density cavitation model constrained by Nbulk: 0.0049383 bohr^-3, Pvap: 3.14029 kPa, Rvdw: 2.61727 bohr and sigmaBulk: 4.62e-05 Eh/bohr^2 at T: 298 K.
   Weighted density dispersion model using vdW pair potentials with single solvent site with sqrtC6eff: 0.77 SI.
Reading fluid state from 'NbTe2.fluidState'


---- Citations for features of the code used in this run ----

   Software package:
      R. Sundararaman, K. Letchworth-Weaver, K.A. Schwarz, D. Gunceler, Y. Ozhabes and T.A. Arias, 'JDFTx: software for joint density-functional theory', SoftwareX 6, 278 (2017)

   gga-PBE exchange-correlation functional:
      J.P. Perdew, K. Burke and M. Ernzerhof, Phys. Rev. Lett. 77, 3865 (1996)

   Pseudopotentials:
      KF Garrity, JW Bennett, KM Rabe and D Vanderbilt, Comput. Mater. Sci. 81, 446 (2014)

   Truncated Coulomb potentials:
      R. Sundararaman and T.A. Arias, Phys. Rev. B 87, 165122 (2013)

   Van der Waals correction pair-potentials:
      S. Grimme, J. Comput. Chem. 27, 1787 (2006)

   Charge-asymmetric nonlocally-determined local-electric (CANDLE) solvation model:
      R. Sundararaman and W.A. Goddard III, J. Chem. Phys. 142, 064107 (2015)

   Total energy minimization with Auxiliary Hamiltonian:
      C. Freysoldt, S. Boeck, and J. Neugebauer, Phys. Rev. B 79, 241103(R) (2009)

This list may not be complete. Please suggest additional citations or
report any other bugs at https://github.com/shankar1729/jdftx/issues

Initialization completed successfully at t[s]:     46.58

	Linear fluid (dielectric constant: 78.4, screening length: 5.74355 Bohr) occupying 0.623511 of unit cell:	Completed after 18 iterations at t[s]:     58.33

-------- Electronic minimization -----------
	Linear fluid (dielectric constant: 78.4, screening length: 5.74355 Bohr) occupying 0.623511 of unit cell:	Completed after 0 iterations at t[s]:     86.19
	FillingsUpdate:  mu: -0.159174323  nElectrons: 504.000000
ElecMinimize: Iter:   0  F: -1924.132757466728435  |grad|_K:  7.917e-07  alpha:  1.000e+00
	Linear fluid (dielectric constant: 78.4, screening length: 5.74355 Bohr) occupying 0.623574 of unit cell:	Completed after 27 iterations at t[s]:    125.14
	Linear fluid (dielectric constant: 78.4, screening length: 5.74355 Bohr) occupying 0.623514 of unit cell:	Completed after 28 iterations at t[s]:    142.82
	FillingsUpdate:  mu: -0.157832453  nElectrons: 504.000000
	SubspaceRotationAdjust: set factor to 0.523
ElecMinimize: Iter:   1  F: -1924.132763925394102  |grad|_K:  2.435e-07  alpha:  4.510e-02  linmin:  9.321e-05  t[s]:    161.64
	Linear fluid (dielectric constant: 78.4, screening length: 5.74355 Bohr) occupying 0.623514 of unit cell:	Completed after 3 iterations at t[s]:    177.48
	Linear fluid (dielectric constant: 78.4, screening length: 5.74355 Bohr) occupying 0.623514 of unit cell:	Completed after 4 iterations at t[s]:    191.40
	FillingsUpdate:  mu: -0.157911727  nElectrons: 504.000000
	SubspaceRotationAdjust: set factor to 0.285
ElecMinimize: Iter:   2  F: -1924.132764875129624  |grad|_K:  6.994e-08  alpha:  7.663e-02  linmin:  2.300e-03  t[s]:    208.47
	Linear fluid (dielectric constant: 78.4, screening length: 5.74355 Bohr) occupying 0.623514 of unit cell:	Completed after 0 iterations at t[s]:    223.51
ElecMinimize: 	Predicted alpha/alphaT>3.000000, increasing alphaT to 2.298890e-01.
	Linear fluid (dielectric constant: 78.4, screening length: 5.74355 Bohr) occupying 0.623515 of unit cell:	Completed after 3 iterations at t[s]:    237.14
	Linear fluid (dielectric constant: 78.4, screening length: 5.74355 Bohr) occupying 0.623514 of unit cell:	Completed after 0 iterations at t[s]:    250.76
	FillingsUpdate:  mu: -0.157927910  nElectrons: 504.000000
	SubspaceRotationAdjust: set factor to 0.12
	SubspaceRotationAdjust: resetting CG because factor has changed by 0.11978
	Linear fluid (dielectric constant: 78.4, screening length: 5.74355 Bohr) occupying 0.623514 of unit cell:	Completed after 0 iterations at t[s]:    275.07
ElecMinimize: 	State modified externally: resetting search direction.
ElecMinimize: Iter:   3  F: -1924.132765066846787  |grad|_K:  1.891e-08  alpha:  1.595e-01
	Linear fluid (dielectric constant: 78.4, screening length: 5.74355 Bohr) occupying 0.623514 of unit cell:	Completed after 0 iterations at t[s]:    306.88
ElecMinimize: 	Predicted alpha/alphaT>3.000000, increasing alphaT to 4.785287e-01.
	Linear fluid (dielectric constant: 78.4, screening length: 5.74355 Bohr) occupying 0.623515 of unit cell:	Completed after 2 iterations at t[s]:    320.20
	Linear fluid (dielectric constant: 78.4, screening length: 5.74355 Bohr) occupying 0.623515 of unit cell:	Completed after 0 iterations at t[s]:    333.80
ElecMinimize: 	Step increased F by 2.038018e-08, reducing alpha to 1.920068e-02.
	Linear fluid (dielectric constant: 78.4, screening length: 5.74355 Bohr) occupying 0.623514 of unit cell:	Completed after 0 iterations at t[s]:    362.43
ElecMinimize: 	Step increased F by 2.281308e-08, reducing alpha to 1.920068e-03.
	Linear fluid (dielectric constant: 78.4, screening length: 5.74355 Bohr) occupying 0.623514 of unit cell:	Completed after 0 iterations at t[s]:    391.47
ElecMinimize: 	Step increased F by 2.306138e-08, reducing alpha to 1.920068e-04.
ElecMinimize: 	Step failed to reduce F after 3 attempts. Quitting step.
ElecMinimize: 	Undoing step.
	Linear fluid (dielectric constant: 78.4, screening length: 5.74355 Bohr) occupying 0.623514 of unit cell:	Completed after 0 iterations at t[s]:    420.12
ElecMinimize: 	Step failed along negative gradient direction.
ElecMinimize: Probably at roundoff error limit. (Stopping)
Setting wave functions to eigenvectors of Hamiltonian

# Ionic positions in lattice coordinates:
ion Bi   0.166673839102739   0.333332064207496   0.640922897839289 0
ion Bi   0.666673839102739   0.333332064207496   0.640922897839289 0
ion Bi   0.166673839102739   0.833332064207496   0.640922897839289 0
ion Bi   0.666673839102739   0.833332064207496   0.640922897839289 0
ion Bi   0.333339393087170   0.166679988182355   0.359076201809938 0
ion Bi   0.833339393087170   0.166679988182355   0.359076201809938 0
ion Bi   0.333339393087170   0.666679988182355   0.359076201809938 0
ion Bi   0.833339393087170   0.666679988182355   0.359076201809938 0
ion Bi   0.999958490370009   0.999966605390891   0.249240170045599 0
ion Bi   0.499958490370009   0.999966605390891   0.249240170045599 0
ion Bi   0.999958490370009   0.499966605390891   0.249240170045599 0
ion Bi   0.499958490370009   0.499966605390891   0.249240170045599 0
ion Bi   0.999998912178099   0.999987417573806   0.750760804748779 0
ion Bi   0.499998912178099   0.999987417573806   0.750760804748779 0
ion Bi   0.999998912178099   0.499987417573806   0.750760804748779 0
ion Bi   0.499998912178099   0.499987417573806   0.750760804748779 0
ion Bi   0.333351123144777   0.166689233215259   0.522869874243234 0
ion Bi   0.833351123144777   0.166689233215259   0.522869874243234 0
ion Bi   0.333351123144777   0.666689233215259   0.522869874243234 0
ion Bi   0.833351123144777   0.666689233215259   0.522869874243234 0
ion Bi   0.166679883766500   0.333351067628536   0.477132996748172 0
ion Bi   0.666679883766500   0.333351067628536   0.477132996748172 0
ion Bi   0.166679883766500   0.833351067628536   0.477132996748172 0
ion Bi   0.666679883766500   0.833351067628536   0.477132996748172 0
ion Te   0.166668740115283   0.333328649063045   0.796996469022831 0
ion Te   0.666668740115283   0.333328649063045   0.796996469022831 0
ion Te   0.166668740115283   0.833328649063045   0.796996469022831 0
ion Te   0.666668740115283   0.833328649063045   0.796996469022831 0
ion Te   0.333304122339880   0.166640818202360   0.203003535064902 0
ion Te   0.833304122339880   0.166640818202360   0.203003535064902 0
ion Te   0.333304122339880   0.666640818202360   0.203003535064902 0
ion Te   0.833304122339880   0.666640818202360   0.203003535064902 0
ion Te   0.000017052715980   0.000027778092767   0.406073371553698 0
ion Te   0.500017052715980   0.000027778092767   0.406073371553698 0
ion Te   0.000017052715980   0.500027778092767   0.406073371553698 0
ion Te   0.500017052715980   0.500027778092767   0.406073371553698 0
ion Te   0.000006734975751  -0.000003667418902   0.593924867248981 0
ion Te   0.500006734975751  -0.000003667418902   0.593924867248981 0
ion Te   0.000006734975751   0.499996332581098   0.593924867248981 0
ion Te   0.500006734975751   0.499996332581098   0.593924867248981 0
ion Te   0.333336934218630   0.166663963099732   0.695472962525520 0
ion Te   0.833336934218631   0.166663963099732   0.695472962525520 0
ion Te   0.333336934218630   0.666663963099732   0.695472962525520 0
ion Te   0.833336934218630   0.666663963099732   0.695472962525520 0
ion Te   0.166664773985196   0.333336082762654   0.304525849149058 0
ion Te   0.666664773985196   0.333336082762654   0.304525849149058 0
ion Te   0.166664773985196   0.833336082762654   0.304525849149058 0
ion Te   0.666664773985196   0.833336082762654   0.304525849149058 0


# Forces in Lattice coordinates:
force Bi  -0.000536524852345   0.000524232982958   0.023970230254584 0
force Bi  -0.000536524852345   0.000524232982958   0.023970230254584 0
force Bi  -0.000536524852345   0.000524232982958   0.023970230254584 0
force Bi  -0.000536524852345   0.000524232982958   0.023970230254584 0
force Bi   0.000532255359068  -0.000513723369158  -0.025474734162670 0
force Bi   0.000532255359068  -0.000513723369158  -0.025474734162670 0
force Bi   0.000532255359068  -0.000513723369158  -0.025474734161761 0
force Bi   0.000532255359068  -0.000513723369158  -0.025474734161761 0
force Bi   0.000158323850853   0.000095670938299  -0.116215464730407 0
force Bi   0.000158323850853   0.000095670938299  -0.116215464730408 0
force Bi   0.000158323850853   0.000095670938299  -0.116215464730408 0
force Bi   0.000158323850853   0.000095670938299  -0.116215464730407 0
force Bi  -0.000070863948253   0.000001219258940   0.101498502957012 0
force Bi  -0.000070863948253   0.000001219258940   0.101498502957012 0
force Bi  -0.000070863948253   0.000001219258940   0.101498502958831 0
force Bi  -0.000070863948253   0.000001219258940   0.101498502957012 0
force Bi   0.000572826447101  -0.000481369618939  -0.005410098510046 0
force Bi   0.000572826447101  -0.000481369618939  -0.005410098510273 0
force Bi   0.000572826447101  -0.000481369618939  -0.005410098510046 0
force Bi   0.000572826447101  -0.000481369618939  -0.005410098510046 0
force Bi  -0.000564396123752   0.000464674874029   0.011507743324371 0
force Bi  -0.000564396123752   0.000464674874029   0.011507743324371 0
force Bi  -0.000564396123752   0.000464674874029   0.011507743324371 0
force Bi  -0.000564396123752   0.000464674874029   0.011507743324371 0
force Te  -0.000001799206750   0.000097981461352   0.001528696944976 0
force Te  -0.000001799206750   0.000097981461352   0.001528696944976 0
force Te  -0.000001799206750   0.000097981461352   0.001528696944976 0
force Te  -0.000001799206750   0.000097981461352   0.001528696945431 0
force Te  -0.000001332912975  -0.000089651903951  -0.003576082609174 0
force Te  -0.000001332912975  -0.000089651903951  -0.003576082608719 0
force Te  -0.000001332912975  -0.000089651903951  -0.003576082608719 0
force Te  -0.000001332912975  -0.000089651903951  -0.003576082608719 0
force Te  -0.000025470100839  -0.000001940687009   0.091690588055720 0
force Te  -0.000025470100839  -0.000001940687009   0.091690588055720 0
force Te  -0.000025470100839  -0.000001940687009   0.091690588055720 0
force Te  -0.000025470100839  -0.000001940687009   0.091690588055720 0
force Te  -0.000020748295802  -0.000055523430915  -0.091168286792575 0
force Te  -0.000020748295802  -0.000055523430915  -0.091168286792575 0
force Te  -0.000020748295802  -0.000055523430915  -0.091168286792575 0
force Te  -0.000020748295802  -0.000055523430915  -0.091168286792575 0
force Te   0.000013515074631  -0.000007911916082  -0.042065706190909 0
force Te   0.000013515074631  -0.000007911916082  -0.042065706190909 0
force Te   0.000013515074631  -0.000007911916082  -0.042065706190455 0
force Te   0.000013515074631  -0.000007911916082  -0.042065706190909 0
force Te  -0.000041925520833  -0.000018693136127   0.037212746143908 0
force Te  -0.000041925520833  -0.000018693136127   0.037212746144363 0
force Te  -0.000041925520833  -0.000018693136127   0.037212746143453 0
force Te  -0.000041925520833  -0.000018693136127   0.037212746143453 0

# Energy components:
   A_diel =        0.0046565541146363
   Eewald =    34675.5858928594971076
       EH =    36380.4097907905088505
     Eloc =   -73342.1266903420037124
      Enl =      467.7078537653302988
      Exc =     -948.3954978369060882
 Exc_core =      617.4779510914705725
       KE =      225.2175113506054913
  MuShift =       -0.0000000000000235
-------------------------------------
     Etot =    -1924.1185317673853206
       TS =        0.0142332763843481
-------------------------------------
        F =    -1924.1327650437697230

IonicMinimize: Iter:   0  F: -1924.132765043769723  |grad|_K:  0.000e+00  t[s]:    445.82
IonicMinimize: Converged (|grad|_K<1.000000e-04).

#--- Lowdin population analysis ---
# oxidation-state Bi +0.467 +0.467 +0.467 +0.467 +0.466 +0.466 +0.466 +0.466 +0.501 +0.501 +0.501 +0.501 +0.501 +0.501 +0.501 +0.501 +0.079 +0.079 +0.079 +0.079 +0.079 +0.079 +0.079 +0.079
# oxidation-state Te -0.223 -0.223 -0.223 -0.223 -0.222 -0.222 -0.222 -0.222 -0.235 -0.235 -0.235 -0.235 -0.234 -0.234 -0.234 -0.234 -0.402 -0.402 -0.402 -0.402 -0.402 -0.402 -0.402 -0.402


Dumping 'NbTe2.fillings' ... done
Dumping 'NbTe2.wfns' ... done
Dumping 'NbTe2.fluidState' ... done
Dumping 'NbTe2.eigenvals' ... done
End date and time: Sat Jul 11 15:12:29 2020  (Duration: 0-0:07:39.76)
Done!
