
*************** JDFTx 1.5.0  ***************

Start date and time: Wed Feb  3 17:52:52 2021
Executable jdftx_gpu with command-line: -i Charged.in -o Charged.out
Running on hosts (process indices):  amax (0-6)
Divided in process groups (process indices):  0 (0)  1 (1)  2 (2)  3 (3)  4 (4)  5 (5)  6 (6)
gpuInit: Found compatible cuda device 0 'Tesla K80'
gpuInit: Found compatible cuda device 1 'Tesla K80'
gpuInit: Found compatible cuda device 2 'Tesla K80'
gpuInit: Found compatible cuda device 3 'Tesla K80'
gpuInit: Found compatible cuda device 4 'Tesla K80'
gpuInit: Found compatible cuda device 5 'Tesla K80'
gpuInit: Found compatible cuda device 6 'Tesla K80'
gpuInit: Selected device 0
Resource initialization completed at t[s]:      3.59
Run totals: 7 processes, 24 threads, 7 GPUs


Input parsed successfully to the following command list (including defaults):

basis kpoint-dependent
cache-projectors no
coords-type Lattice
core-overlap-check none
coulomb-interaction Slab 001
coulomb-truncation-embed 0.5 0.5 0.5
davidson-band-ratio 1.1
dump End State
dump-name NbTe2.$VAR
elec-cutoff 20
elec-eigen-algo Davidson
elec-ex-corr gga-PBE
elec-initial-charge 1.000000
elec-initial-magnetization 20.000000 no
elec-smearing Gauss 0.0073499
electronic-minimize  \
	dirUpdateScheme      FletcherReeves \
	linminMethod         DirUpdateRecommended \
	nIterations          200 \
	history              15 \
	knormThreshold       0 \
	energyDiffThreshold  1e-08 \
	nEnergyDiff          2 \
	alphaTstart          1 \
	alphaTmin            1e-10 \
	updateTestStepSize   yes \
	alphaTreduceFactor   0.1 \
	alphaTincreaseFactor 3 \
	nAlphaAdjustMax      3 \
	wolfeEnergy          0.0001 \
	wolfeGradient        0.9 \
	fdTest               no
exchange-regularization WignerSeitzTruncated
fluid LinearPCM 298.000000 1.013250
fluid-anion F- 1 MeanFieldLJ \
	epsBulk 1 \
	pMol 0 \
	epsInf 1 \
	Pvap 0 \
	sigmaBulk 0 \
	Rvdw 2.24877 \
	Res 0 \
	tauNuc 343133
fluid-cation Na+ 1 MeanFieldLJ \
	epsBulk 1 \
	pMol 0 \
	epsInf 1 \
	Pvap 0 \
	sigmaBulk 0 \
	Rvdw 2.19208 \
	Res 0 \
	tauNuc 343133
fluid-ex-corr lda-TF lda-PZ
fluid-gummel-loop 10 1.000000e-05
fluid-minimize  \
	dirUpdateScheme      PolakRibiere \
	linminMethod         DirUpdateRecommended \
	nIterations          400 \
	history              15 \
	knormThreshold       1e-11 \
	energyDiffThreshold  0 \
	nEnergyDiff          2 \
	alphaTstart          1 \
	alphaTmin            1e-10 \
	updateTestStepSize   yes \
	alphaTreduceFactor   0.1 \
	alphaTincreaseFactor 3 \
	nAlphaAdjustMax      6 \
	wolfeEnergy          0.0001 \
	wolfeGradient        0.9 \
	fdTest               no
fluid-solvent H2O 55.338 ScalarEOS \
	epsBulk 78.4 \
	pMol 0.92466 \
	epsInf 1.77 \
	Pvap 1.06736e-10 \
	sigmaBulk 4.62e-05 \
	Rvdw 2.61727 \
	Res 1.42 \
	tauNuc 343133 \
	poleEl 15 7 1
forces-output-coords Positions
initial-state NbTe2.$VAR
ion V   0.083332210555556   0.166667776027779   0.500000008835160 1
ion V   0.333332210555556   0.166667776027779   0.500000008835160 1
ion V   0.583332210555556   0.166667776027779   0.500000008835160 1
ion V   0.833332210555556   0.166667776027779   0.500000008835160 1
ion V   0.083332210555556   0.416667776027779   0.500000008835160 1
ion V   0.333332210555556   0.416667776027779   0.500000008835160 1
ion V   0.583332210555556   0.416667776027779   0.500000008835160 1
ion V   0.833332210555556   0.416667776027779   0.500000008835160 1
ion V   0.083332210555556   0.666667776027778   0.500000008835160 1
ion V   0.333332210555556   0.666667776027778   0.500000008835160 1
ion V   0.583332210555556   0.666667776027778   0.500000008835160 1
ion V   0.833332210555556   0.666667776027778   0.500000008835160 1
ion V   0.083332210555556   0.916667776027778   0.500000008835160 1
ion V   0.333332210555556   0.916667776027778   0.500000008835160 1
ion V   0.583332210555556   0.916667776027778   0.500000008835160 1
ion V   0.833332210555556   0.916667776027778   0.500000008835160 1
ion S  -0.000001122777777   0.000001109361112   0.417322835368676 1
ion S  -0.000001122777777   0.000001109361112   0.582677182301644 1
ion S   0.249998877222223   0.000001109361112   0.417322835368676 1
ion S   0.249998877222223   0.000001109361112   0.582677182301644 1
ion S   0.499998877222223   0.000001109361112   0.417322835368676 1
ion S   0.499998877222223   0.000001109361112   0.582677182301644 1
ion S   0.749998877222223   0.000001109361112   0.417322835368676 1
ion S   0.749998877222223   0.000001109361112   0.582677182301644 1
ion S   0.999998877222223   0.250001109361112   0.417322835368676 1
ion S   0.999998877222223   0.250001109361112   0.582677182301644 1
ion S   0.249998877222223   0.250001109361112   0.417322835368676 1
ion S   0.249998877222223   0.250001109361112   0.582677182301644 1
ion S   0.499998877222223   0.250001109361112   0.417322835368676 1
ion S   0.499998877222223   0.250001109361112   0.582677182301644 1
ion S   0.749998877222223   0.250001109361112   0.417322835368676 1
ion S   0.749998877222223   0.250001109361112   0.582677182301644 1
ion S   0.999998877222223   0.500001109361112   0.417322835368676 1
ion S   0.999998877222223   0.500001109361112   0.582677182301644 1
ion S   0.249998877222223   0.500001109361112   0.417322835368676 1
ion S   0.249998877222223   0.500001109361112   0.582677182301644 1
ion S   0.499998877222223   0.500001109361112   0.417322835368676 1
ion S   0.499998877222223   0.500001109361112   0.582677182301644 1
ion S   0.749998877222223   0.500001109361112   0.417322835368676 1
ion S   0.749998877222223   0.500001109361112   0.582677182301644 1
ion S   0.999998877222223   0.750001109361112   0.417322835368676 1
ion S   0.999998877222223   0.750001109361112   0.582677182301644 1
ion S   0.249998877222223   0.750001109361112   0.417322835368676 1
ion S   0.249998877222223   0.750001109361112   0.582677182301644 1
ion S   0.499998877222223   0.750001109361112   0.417322835368676 1
ion S   0.499998877222223   0.750001109361112   0.582677182301644 1
ion S   0.749998877222223   0.750001109361112   0.417322835368676 1
ion S   0.749998877222223   0.750001109361112   0.582677182301644 1
ion-species GBRV/$ID_pbe.uspp
ion-width Ecut
ionic-minimize  \
	dirUpdateScheme      L-BFGS \
	linminMethod         DirUpdateRecommended \
	nIterations          500 \
	history              15 \
	knormThreshold       0.0001 \
	energyDiffThreshold  1e-06 \
	nEnergyDiff          2 \
	alphaTstart          1 \
	alphaTmin            1e-10 \
	updateTestStepSize   yes \
	alphaTreduceFactor   0.1 \
	alphaTincreaseFactor 3 \
	nAlphaAdjustMax      3 \
	wolfeEnergy          0.0001 \
	wolfeGradient        0.9 \
	fdTest               no
kpoint   0.000000000000   0.000000000000   0.000000000000  1.00000000000000
kpoint-folding 5 5 1 
latt-move-scale 1 1 1
latt-scale 1.88973 1.88973 1.88973 
lattice Triclinic 12.6408 12.6408 17.9799 90 90 120
lattice-minimize  \
	dirUpdateScheme      L-BFGS \
	linminMethod         DirUpdateRecommended \
	nIterations          0 \
	history              15 \
	knormThreshold       0 \
	energyDiffThreshold  1e-06 \
	nEnergyDiff          2 \
	alphaTstart          1 \
	alphaTmin            1e-10 \
	updateTestStepSize   yes \
	alphaTreduceFactor   0.1 \
	alphaTincreaseFactor 3 \
	nAlphaAdjustMax      3 \
	wolfeEnergy          0.0001 \
	wolfeGradient        0.9 \
	fdTest               no
lcao-params -1 1e-06 0.0073499
pcm-variant CANDLE
spintype z-spin
subspace-rotation-factor 1 yes
symmetries automatic
symmetry-threshold 0.0001



---------- Setting up symmetries ----------

Found 24 point-group symmetries of the bravais lattice
Found 192 space-group symmetries with basis
Applied RMS atom displacement 7.95016e-15 bohrs to make symmetries exact.

---------- Initializing the Grid ----------
R = 
[    23.8876   -11.9438          0  ]
[          0    20.6873          0  ]
[          0          0     33.977  ]
unit cell volume = 16790.5
G =
[   0.263031   0.151861         -0  ]
[          0   0.303722          0  ]
[          0         -0   0.184924  ]
Minimum fftbox size, Smin = [  100  100  140  ]
Chosen fftbox size, S = [  100  100  140  ]

---------- Exchange Correlation functional ----------
Initalized PBE GGA exchange.
Initalized PBE GGA correlation.

---------- Setting up pseudopotentials ----------
Width of ionic core gaussian charges (only for fluid interactions / plotting) set to 0.397384

Reading pseudopotential file '/home/guoxy/vasp/jdftx-1.5.0/build/pseudopotentials/GBRV/v_pbe.uspp':
  Title: V.  Created by USPP 7.3.6 on 31-3-15
  Reference state energy: -72.228583.  13 valence electrons in orbitals:
    |300>  occupation: 2  eigenvalue: -2.581040
    |310>  occupation: 6  eigenvalue: -1.618497
    |400>  occupation: 2  eigenvalue: -0.172800
    |320>  occupation: 3  eigenvalue: -0.189802
  lMax: 2  lLocal: 3  QijEcut: 6
  6 projectors sampled on a log grid with 593 points:
    l: 0  eig: -2.581041  rCut: 1.5
    l: 0  eig: -0.172801  rCut: 1.5
    l: 1  eig: -1.618497  rCut: 1.6
    l: 1  eig: 0.150000  rCut: 1.6
    l: 2  eig: -0.189802  rCut: 1.7
    l: 2  eig: 0.150000  rCut: 1.7
  Partial core density with radius 0.8
  Transforming core density to a uniform radial grid of dG=0.02 with 1471 points.
  Transforming local potential to a uniform radial grid of dG=0.02 with 1471 points.
  Transforming nonlocal projectors to a uniform radial grid of dG=0.02 with 432 points.
  Transforming density augmentations to a uniform radial grid of dG=0.02 with 1471 points.
  Transforming atomic orbitals to a uniform radial grid of dG=0.02 with 432 points.
  Core radius for overlap checks: 1.80 bohrs.

Reading pseudopotential file '/home/guoxy/vasp/jdftx-1.5.0/build/pseudopotentials/GBRV/s_pbe.uspp':
  Title: S.  Created by USPP 7.3.6 on 1-4-15
  Reference state energy: -11.898476.  6 valence electrons in orbitals:
    |300>  occupation: 2  eigenvalue: -0.634167
    |310>  occupation: 4  eigenvalue: -0.257568
  lMax: 2  lLocal: 3  QijEcut: 6
  6 projectors sampled on a log grid with 635 points:
    l: 0  eig: -0.634161  rCut: 1.5
    l: 0  eig: 1.500000  rCut: 1.5
    l: 1  eig: -0.257567  rCut: 1.5
    l: 1  eig: 1.500000  rCut: 1.5
    l: 2  eig: -1.000000  rCut: 1.5
    l: 2  eig: 1.500000  rCut: 1.5
  Partial core density with radius 1.15
  Transforming core density to a uniform radial grid of dG=0.02 with 1471 points.
  Transforming local potential to a uniform radial grid of dG=0.02 with 1471 points.
  Transforming nonlocal projectors to a uniform radial grid of dG=0.02 with 432 points.
  Transforming density augmentations to a uniform radial grid of dG=0.02 with 1471 points.
  Transforming atomic orbitals to a uniform radial grid of dG=0.02 with 432 points.
  Core radius for overlap checks: 1.50 bohrs.

Initialized 2 species with 48 total atoms.

Folded 1 k-points by 5x5x1 to 25 k-points.

---------- Setting up k-points, bands, fillings ----------
Adding inversion symmetry to k-mesh for non-inversion-symmetric unit cell.
Reduced to 5 k-points under symmetry. 
Computing the number of bands and number of electrons
Calculating initial fillings.
nElectrons: 401.000000   nBands: 288   nStates: 10

----- Setting up reduced wavefunction bases (one per k-point) -----
average nbasis = 71706.600 , ideal nbasis = 71730.201

---------- Setting up coulomb interaction ----------
Fluid mode embedding: using embedded box, but periodic Coulomb kernel.
(Fluid response is responsible for (approximate) separation between periodic images.)
Setting up double-sized grid for truncated Coulomb potentials:
R = 
[    23.8876   -11.9438          0  ]
[          0    20.6873          0  ]
[          0          0    67.9541  ]
unit cell volume = 33581
G =
[   0.263031   0.151861         -0  ]
[          0   0.303722          0  ]
[          0         -0  0.0924622  ]
Chosen fftbox size, S = [  100  100  280  ]
Integer grid location selected as the embedding center:
   Grid: [  50  50  70  ]
   Lattice: [  0.5  0.5  0.5  ]
   Cartesian: [  5.97191  10.3437  16.9885  ]
Constructing Wigner-Seitz cell: 8 faces (6 quadrilaterals, 2 hexagons)
Range-separation parameter for embedded mesh potentials due to point charges: 0.621497 bohrs.

Initializing van der Waals corrections
	NOTE: vdW corrections apply only for interactions with fluid.
	 V:  C6:  187.33 Eh-a0^6  R0: 2.952 a0
	 S:  C6:   96.61 Eh-a0^6  R0: 3.180 a0

---------- Setting up ewald sum ----------
Optimum gaussian width for ewald sums = 6.751509 bohr.
Real space sum over 605 unit cells with max indices [  5  5  2  ]
Reciprocal space sum over 7875 terms with max indices [  7  7  17  ]

---------- Allocating electronic variables ----------
Initializing wave functions:  linear combination of atomic orbitals
V pseudo-atom occupations:   s ( 2 0 )  p ( 6 )  d ( 5 )
S pseudo-atom occupations:   s ( 2 )  p ( 4 )
	FillingsUpdate:  mu: +3.609810445  nElectrons: 401.000000  magneticMoment: [ Abs: 1.87774  Tot: +1.87769 ]
LCAOMinimize: Iter:   0  F: -1227.1115718492108044  |grad|_K:  1.379e-02  alpha:  1.000e+00
LCAOMinimize: 	Predicted alpha/alphaT>3.000000, increasing alphaT to 3.000000e+00.
	FillingsUpdate:  mu: -0.679680343  nElectrons: 401.000000  magneticMoment: [ Abs: 2.68495  Tot: -2.62857 ]
LCAOMinimize: Iter:   1  F: -1363.1099954157759839  |grad|_K:  4.756e-03  alpha:  1.256e+00  linmin:  1.948e-02  cgtest: -3.999e+00  t[s]:    139.71
LCAOMinimize: 	Bad step direction: g.d > 0.
LCAOMinimize: 	Undoing step.
LCAOMinimize: 	Step failed: resetting search direction.
	FillingsUpdate:  mu: -0.679680343  nElectrons: 401.000000  magneticMoment: [ Abs: 2.68495  Tot: -2.62857 ]
LCAOMinimize: Iter:   2  F: -1363.1099954157759839  |grad|_K:  4.756e-03  alpha:  0.000e+00
	FillingsUpdate:  mu: -0.679113164  nElectrons: 401.000000  magneticMoment: [ Abs: 2.95266  Tot: -2.89660 ]
LCAOMinimize: Iter:   3  F: -1364.3380144351144736  |grad|_K:  3.813e-03  alpha:  8.015e-02  linmin: -2.058e-02  cgtest:  1.144e+00  t[s]:    205.02
LCAOMinimize: Encountered beta<0, resetting CG.
LCAOMinimize: 	Wrong curvature in test step, increasing alphaT to 2.404605e-01.
	FillingsUpdate:  mu: -0.678457358  nElectrons: 401.000000  magneticMoment: [ Abs: 3.11723  Tot: -3.06148 ]
LCAOMinimize: Iter:   4  F: -1365.3359112935431767  |grad|_K:  3.915e-03  alpha: -1.583e+00  linmin: -2.416e-02  cgtest:  8.940e-01  t[s]:    244.22
	FillingsUpdate:  mu: -0.677937472  nElectrons: 401.000000  magneticMoment: [ Abs: 3.11528  Tot: -3.05969 ]
LCAOMinimize: Iter:   5  F: -1366.0634206688639551  |grad|_K:  4.564e-03  alpha:  4.204e-02  linmin: -2.637e-02  cgtest:  8.153e-01  t[s]:    282.70
LCAOMinimize: 	Wrong curvature in test step, increasing alphaT to 1.261052e-01.
	FillingsUpdate:  mu: -0.676847060  nElectrons: 401.000000  magneticMoment: [ Abs: 2.88299  Tot: -2.82749 ]
LCAOMinimize: Iter:   6  F: -1367.7418006315394905  |grad|_K:  6.926e-03  alpha: -3.920e-02  linmin: -3.232e-02  cgtest:  6.163e-01  t[s]:    320.90
LCAOMinimize: 	Step increased F by 3.606400e+01, reducing alpha to 2.112714e-02.
	FillingsUpdate:  mu: -0.672488284  nElectrons: 401.000000  magneticMoment: [ Abs: 2.27951  Tot: -2.22443 ]
LCAOMinimize: Iter:   7  F: -1376.2386352905969034  |grad|_K:  1.780e-02  alpha:  2.113e-02  linmin: -4.747e-02  cgtest:  3.585e-01  t[s]:    387.01
	FillingsUpdate:  mu: -0.640720116  nElectrons: 401.000000  magneticMoment: [ Abs: 0.41278  Tot: -0.35325 ]
LCAOMinimize: Iter:   8  F: -1418.4680919252828062  |grad|_K:  6.182e-03  alpha:  1.800e-02  linmin: -8.703e-02  cgtest:  1.585e+00  t[s]:    425.41
LCAOMinimize: Encountered beta<0, resetting CG.
LCAOMinimize: 	Wrong curvature in test step, increasing alphaT to 5.399705e-02.
	FillingsUpdate:  mu: -0.639238814  nElectrons: 401.000000  magneticMoment: [ Abs: 0.41905  Tot: -0.36053 ]
LCAOMinimize: Iter:   9  F: -1419.0682330368733801  |grad|_K:  6.396e-03  alpha: -2.021e-01  linmin: -1.298e-01  cgtest:  9.466e-01  t[s]:    464.19
	FillingsUpdate:  mu: -0.628719300  nElectrons: 401.000000  magneticMoment: [ Abs: 0.50868  Tot: -0.45668 ]
LCAOMinimize: Iter:  10  F: -1422.9734061973194912  |grad|_K:  8.357e-03  alpha:  7.720e-02  linmin: -1.366e-01  cgtest:  6.868e-01  t[s]:    503.17
LCAOMinimize: 	Wrong curvature in test step, increasing alphaT to 2.316016e-01.
	FillingsUpdate:  mu: -0.452788117  nElectrons: 401.000000  magneticMoment: [ Abs: 2.02226  Tot: -2.02190 ]
LCAOMinimize: Iter:  11  F: -1444.1981053334061471  |grad|_K:  1.226e-02  alpha: -2.810e-02  linmin: -1.799e-01  cgtest:  4.853e-01  t[s]:    541.43
LCAOMinimize: 	Step increased F by 2.379025e+02, reducing alpha to 3.587202e-02.
	FillingsUpdate:  mu: -0.344298174  nElectrons: 401.000000  magneticMoment: [ Abs: 2.82091  Tot: -2.65153 ]
LCAOMinimize: Iter:  12  F: -1464.6856977191550868  |grad|_K:  9.910e-03  alpha:  3.587e-02  linmin: -3.743e-01  cgtest:  6.552e-01  t[s]:    607.35
LCAOMinimize: 	Wrong curvature in test step, increasing alphaT to 1.076161e-01.
	FillingsUpdate:  mu: -0.285188855  nElectrons: 401.000000  magneticMoment: [ Abs: 2.95701  Tot: -2.57530 ]
LCAOMinimize: Iter:  13  F: -1471.4060137912667869  |grad|_K:  7.874e-03  alpha: -3.294e-01  linmin: -4.179e-01  cgtest:  7.680e-01  t[s]:    645.64
	FillingsUpdate:  mu: -0.132088180  nElectrons: 401.000000  magneticMoment: [ Abs: 3.06918  Tot: -2.38477 ]
LCAOMinimize: Iter:  14  F: -1475.6746824216772893  |grad|_K:  1.097e-03  alpha:  1.096e-01  linmin: -4.303e-01  cgtest:  7.448e-01  t[s]:    684.32
LCAOMinimize: Encountered beta<0, resetting CG.
	FillingsUpdate:  mu: -0.087115817  nElectrons: 401.000000  magneticMoment: [ Abs: 3.06446  Tot: -2.35116 ]
LCAOMinimize: Iter:  15  F: -1475.7364926290533731  |grad|_K:  4.049e-04  alpha:  1.241e-01  linmin:  6.685e-02  cgtest: -1.329e-01  t[s]:    723.21
LCAOMinimize: 	Predicted alpha/alphaT>3.000000, increasing alphaT to 3.723995e-01.
	FillingsUpdate:  mu: -0.068731844  nElectrons: 401.000000  magneticMoment: [ Abs: 3.02215  Tot: -2.38072 ]
LCAOMinimize: Iter:  16  F: -1475.7750124148672057  |grad|_K:  3.628e-04  alpha:  6.251e-01  linmin:  2.526e-02  cgtest:  5.051e-01  t[s]:    774.04
	FillingsUpdate:  mu: -0.086444122  nElectrons: 401.000000  magneticMoment: [ Abs: 3.02493  Tot: -2.40623 ]
LCAOMinimize: Iter:  17  F: -1475.7803375838288957  |grad|_K:  4.011e-05  alpha:  1.139e-01  linmin:  2.977e-01  cgtest: -8.477e-01  t[s]:    812.65
LCAOMinimize: 	Predicted alpha/alphaT>3.000000, increasing alphaT to 3.417036e-01.
	FillingsUpdate:  mu: -0.086656026  nElectrons: 401.000000  magneticMoment: [ Abs: 3.03709  Tot: -2.43879 ]
LCAOMinimize: Iter:  18  F: -1475.7803836036862322  |grad|_K:  4.310e-05  alpha:  4.243e-01  linmin: -1.673e-04  cgtest:  9.533e-01  t[s]:    863.19
	FillingsUpdate:  mu: -0.084645571  nElectrons: 401.000000  magneticMoment: [ Abs: 3.04168  Tot: -2.44538 ]
LCAOMinimize: Iter:  19  F: -1475.7804717825938496  |grad|_K:  1.464e-05  alpha:  1.127e-01  linmin: -8.952e-03  cgtest:  1.149e-02  t[s]:    902.27
LCAOMinimize: 	Predicted alpha/alphaT>3.000000, increasing alphaT to 3.380792e-01.
	FillingsUpdate:  mu: -0.085302412  nElectrons: 401.000000  magneticMoment: [ Abs: 3.07649  Tot: -2.49702 ]
LCAOMinimize: Iter:  20  F: -1475.7805369084878748  |grad|_K:  3.186e-06  alpha:  7.207e-01  linmin: -3.850e-03  cgtest:  2.006e-03  t[s]:    953.02
	FillingsUpdate:  mu: -0.085161039  nElectrons: 401.000000  magneticMoment: [ Abs: 3.18527  Tot: -2.61794 ]
LCAOMinimize: Iter:  21  F: -1475.7805451702522532  |grad|_K:  4.901e-06  alpha:  1.948e+00  linmin:  2.598e-03  cgtest: -5.032e-03  t[s]:    991.69
	FillingsUpdate:  mu: -0.085487803  nElectrons: 401.000000  magneticMoment: [ Abs: 3.23496  Tot: -2.66725 ]
LCAOMinimize: Iter:  22  F: -1475.7805476333364822  |grad|_K:  5.465e-06  alpha:  2.470e-01  linmin: -5.725e-04  cgtest:  1.721e-02  t[s]:   1030.25
LCAOMinimize: 	Predicted alpha/alphaT>3.000000, increasing alphaT to 7.409242e-01.
	FillingsUpdate:  mu: -0.085153170  nElectrons: 401.000000  magneticMoment: [ Abs: 3.70653  Tot: -3.09946 ]
LCAOMinimize: Iter:  23  F: -1475.7805664202080607  |grad|_K:  6.306e-06  alpha:  1.493e+00  linmin: -2.428e-03  cgtest: -4.674e-02  t[s]:   1080.92
LCAOMinimize: 	Predicted alpha/alphaT>3.000000, increasing alphaT to 4.479169e+00.
	FillingsUpdate:  mu: -0.086245747  nElectrons: 401.000000  magneticMoment: [ Abs: 5.89240  Tot: -4.88287 ]
LCAOMinimize: Iter:  24  F: -1475.7806397471892979  |grad|_K:  2.491e-05  alpha:  4.195e+00  linmin:  1.576e-02  cgtest:  9.985e-02  t[s]:   1131.55
	FillingsUpdate:  mu: -0.086069252  nElectrons: 401.000000  magneticMoment: [ Abs: 6.10216  Tot: -5.04970 ]
LCAOMinimize: Iter:  25  F: -1475.7806485432984118  |grad|_K:  2.126e-05  alpha:  2.691e-02  linmin: -3.773e-02  cgtest:  9.988e-01  t[s]:   1170.57
LCAOMinimize: Encountered beta<0, resetting CG.
LCAOMinimize: 	Predicted alpha/alphaT>3.000000, increasing alphaT to 8.073807e-02.
	FillingsUpdate:  mu: -0.085059044  nElectrons: 401.000000  magneticMoment: [ Abs: 6.10698  Tot: -5.04503 ]
LCAOMinimize: Iter:  26  F: -1475.7806692138992730  |grad|_K:  6.344e-06  alpha:  1.095e-01  linmin:  1.582e-03  cgtest: -3.912e-03  t[s]:   1221.63
LCAOMinimize: 	Predicted alpha/alphaT>3.000000, increasing alphaT to 3.286072e-01.
LCAOMinimize: 	Predicted alpha/alphaT>3.000000, increasing alphaT to 9.858216e-01.
	FillingsUpdate:  mu: -0.085208645  nElectrons: 401.000000  magneticMoment: [ Abs: 6.16123  Tot: -5.01495 ]
LCAOMinimize: Iter:  27  F: -1475.7806870094962051  |grad|_K:  2.736e-06  alpha:  1.060e+00  linmin:  1.113e-03  cgtest:  9.389e-03  t[s]:   1285.04
	FillingsUpdate:  mu: -0.085223740  nElectrons: 401.000000  magneticMoment: [ Abs: 6.17919  Tot: -5.00459 ]
LCAOMinimize: Iter:  28  F: -1475.7806895600995176  |grad|_K:  9.002e-07  alpha:  8.175e-01  linmin: -4.845e-04  cgtest:  5.093e-03  t[s]:   1324.22
	FillingsUpdate:  mu: -0.085176158  nElectrons: 401.000000  magneticMoment: [ Abs: 6.17989  Tot: -5.00448 ]
LCAOMinimize: Iter:  29  F: -1475.7806896045481153  |grad|_K:  4.577e-07  alpha:  1.312e-01  linmin: -2.745e-04  cgtest:  1.625e-04  t[s]:   1363.17
LCAOMinimize: 	Predicted alpha/alphaT>3.000000, increasing alphaT to 3.935627e-01.
	FillingsUpdate:  mu: -0.085181115  nElectrons: 401.000000  magneticMoment: [ Abs: 6.18283  Tot: -5.00532 ]
LCAOMinimize: Iter:  30  F: -1475.7806896637860063  |grad|_K:  8.625e-08  alpha:  6.769e-01  linmin: -3.337e-04  cgtest:  4.379e-04  t[s]:   1414.26
LCAOMinimize: Converged (|Delta F|<1.000000e-06 for 2 iters).
----- createFluidSolver() ----- (Fluid-side solver setup)
   Initializing fluid molecule 'H2O'
     Initializing site 'O'
       Electron density: proportional to exp(-r/0.36935)*erfc((r-0.51523)/0.36823) with norm 6.826
       Charge density: gaussian nuclear width 0.478731 with net site charge 0.826
       Polarizability: cuspless exponential with width 0.32 and norm 3.73
       Hard sphere radius: 2.57003 bohrs
       Positions in reference frame:
         [ +0.000000 +0.000000 +0.000000 ]
     Initializing site 'H'
       Electron density: proportional to exp(-r/0.34641)*erfc((r-0)/0.390882) with norm 0.587
       Charge density: gaussian nuclear width 0.377945 with net site charge -0.413
       Polarizability: cuspless exponential with width 0.39 and norm 3.3
       Positions in reference frame:
         [ +0.000000 -1.441945 +1.122523 ]
         [ +0.000000 +1.441945 +1.122523 ]
     Net charge: 0   dipole magnitude: 0.927204
     Initializing spherical shell mfKernel with radius 2.61727 Bohr
     deltaS corrections:
       site 'O': -7.54299
       site 'H': -6.83917
   Initializing fluid molecule 'Na+'
     Initializing site 'Na'
       Electron density: proportional to exp(-r/0.19682)*erfc((r-0.71491)/0.41314) with norm 8.1383
       Charge density: gaussian nuclear width 0.365347 with net site charge -1
       Hard sphere radius: 1.86327 bohrs
       Positions in reference frame:
         [ +0.000000 +0.000000 +0.000000 ]
     Net charge: -1   dipole magnitude: 0
     Initializing gaussian mfKernel with width: 1.55004 Bohr
     deltaS corrections:
       site 'Na': -22.3555
   Initializing fluid molecule 'F-'
     Initializing site 'F'
       Electron density: proportional to exp(-r/0.38886)*erfc((r-0)/0.438782) with norm 8
       Charge density: gaussian nuclear width 0.374796 with net site charge 1
       Hard sphere radius: 2.39995 bohrs
       Positions in reference frame:
         [ +0.000000 +0.000000 +0.000000 ]
     Net charge: 1   dipole magnitude: 0
     Initializing gaussian mfKernel with width: 1.59012 Bohr
     deltaS corrections:
       site 'F': -9.04335

Correction to mu due to finite nuclear width = -0.0118186
   Cavity determined by nc: 0.00142 and sigma: 0.707107
   Nonlocal vdW cavity from gaussian model electron density with norm = 8 and sigma = 0.993594 bohr
   Charge asymmetry in cavity with sensitivity pCavity = 36.5 e-bohr/Eh
   Electrostatic cavity expanded by eta = 1.46 bohrs
   Weighted density cavitation model constrained by Nbulk: 0.0049383 bohr^-3, Pvap: 3.14029 kPa, Rvdw: 2.61727 bohr and sigmaBulk: 4.62e-05 Eh/bohr^2 at T: 298 K.
   Weighted density dispersion model using vdW pair potentials with single solvent site with sqrtC6eff: 0.77 SI.


---- Citations for features of the code used in this run ----

   Software package:
      R. Sundararaman, K. Letchworth-Weaver, K.A. Schwarz, D. Gunceler, Y. Ozhabes and T.A. Arias, 'JDFTx: software for joint density-functional theory', SoftwareX 6, 278 (2017)

   gga-PBE exchange-correlation functional:
      J.P. Perdew, K. Burke and M. Ernzerhof, Phys. Rev. Lett. 77, 3865 (1996)

   Pseudopotentials:
      KF Garrity, JW Bennett, KM Rabe and D Vanderbilt, Comput. Mater. Sci. 81, 446 (2014)

   Truncated Coulomb potentials:
      R. Sundararaman and T.A. Arias, Phys. Rev. B 87, 165122 (2013)

   Van der Waals correction pair-potentials:
      S. Grimme, J. Comput. Chem. 27, 1787 (2006)

   Charge-asymmetric nonlocally-determined local-electric (CANDLE) solvation model:
      R. Sundararaman and W.A. Goddard III, J. Chem. Phys. 142, 064107 (2015)

   Total energy minimization with Auxiliary Hamiltonian:
      C. Freysoldt, S. Boeck, and J. Neugebauer, Phys. Rev. B 79, 241103(R) (2009)

This list may not be complete. Please suggest additional citations or
report any other bugs at https://github.com/shankar1729/jdftx/issues

Initialization completed successfully at t[s]:   1419.10

Fluid solver invoked on fresh (partially random / LCAO) wavefunctions
Running a vacuum solve first:

-------- Initial electronic minimization -----------
	FillingsUpdate:  mu: -0.085181115  nElectrons: 401.000000  magneticMoment: [ Abs: 6.18283  Tot: -5.00532 ]
ElecMinimize: Iter:   0  F: -1475.780689663791236  |grad|_K:  1.115e-04  alpha:  1.000e+00
	FillingsUpdate:  mu: -0.033500222  nElectrons: 401.000000  magneticMoment: [ Abs: 6.16326  Tot: -5.00627 ]
	SubspaceRotationAdjust: set factor to 1
ElecMinimize: Iter:   1  F: -1477.354379167657953  |grad|_K:  7.522e-05  alpha:  6.134e-01  linmin:  3.068e-07  t[s]:   1498.45
	FillingsUpdate:  mu: +0.042572257  nElectrons: 401.000000  magneticMoment: [ Abs: 6.55344  Tot: -5.35781 ]
	SubspaceRotationAdjust: set factor to 0.651
ElecMinimize: Iter:   2  F: -1477.937039551168255  |grad|_K:  7.109e-05  alpha:  4.963e-01  linmin:  9.507e-07  t[s]:   1547.28
	FillingsUpdate:  mu: -0.048958363  nElectrons: 401.000000  magneticMoment: [ Abs: 6.67931  Tot: -5.56752 ]
	SubspaceRotationAdjust: set factor to 0.305
ElecMinimize: Iter:   3  F: -1478.101199936380908  |grad|_K:  3.208e-05  alpha:  1.879e-01  linmin:  2.538e-05  t[s]:   1595.54
ElecMinimize: 	Predicted alpha/alphaT>3.000000, increasing alphaT to 5.635862e-01.
	FillingsUpdate:  mu: -0.030921670  nElectrons: 401.000000  magneticMoment: [ Abs: 6.83632  Tot: -5.65467 ]
	SubspaceRotationAdjust: set factor to 0.302
ElecMinimize: Iter:   4  F: -1478.236684479949190  |grad|_K:  1.569e-05  alpha:  7.077e-01  linmin:  2.752e-05  t[s]:   1658.19
	FillingsUpdate:  mu: -0.038856479  nElectrons: 401.000000  magneticMoment: [ Abs: 6.82973  Tot: -5.62514 ]
	SubspaceRotationAdjust: set factor to 0.317
ElecMinimize: Iter:   5  F: -1478.267392296833577  |grad|_K:  1.210e-05  alpha:  6.113e-01  linmin:  2.498e-07  t[s]:   1706.10
	FillingsUpdate:  mu: -0.035573979  nElectrons: 401.000000  magneticMoment: [ Abs: 6.80228  Tot: -5.57679 ]
	SubspaceRotationAdjust: set factor to 0.361
ElecMinimize: Iter:   6  F: -1478.282042464475126  |grad|_K:  6.922e-06  alpha:  4.837e-01  linmin:  5.860e-08  t[s]:   1754.08
	FillingsUpdate:  mu: -0.037172886  nElectrons: 401.000000  magneticMoment: [ Abs: 6.72261  Tot: -5.49150 ]
	SubspaceRotationAdjust: set factor to 0.446
ElecMinimize: Iter:   7  F: -1478.288796696274630  |grad|_K:  4.958e-06  alpha:  6.821e-01  linmin:  3.574e-07  t[s]:   1802.64
	FillingsUpdate:  mu: -0.037798192  nElectrons: 401.000000  magneticMoment: [ Abs: 6.61213  Tot: -5.38548 ]
	SubspaceRotationAdjust: set factor to 0.554
ElecMinimize: Iter:   8  F: -1478.292029816463355  |grad|_K:  3.289e-06  alpha:  6.368e-01  linmin:  2.781e-07  t[s]:   1850.54
	FillingsUpdate:  mu: -0.036010218  nElectrons: 401.000000  magneticMoment: [ Abs: 6.49174  Tot: -5.27434 ]
	SubspaceRotationAdjust: set factor to 0.613
ElecMinimize: Iter:   9  F: -1478.293340125373334  |grad|_K:  2.390e-06  alpha:  5.863e-01  linmin:  3.059e-07  t[s]:   1898.68
	FillingsUpdate:  mu: -0.038397708  nElectrons: 401.000000  magneticMoment: [ Abs: 6.37527  Tot: -5.17210 ]
	SubspaceRotationAdjust: set factor to 0.525
ElecMinimize: Iter:  10  F: -1478.293844586433352  |grad|_K:  1.717e-06  alpha:  4.273e-01  linmin:  6.397e-08  t[s]:   1947.23
	FillingsUpdate:  mu: -0.036426984  nElectrons: 401.000000  magneticMoment: [ Abs: 6.25385  Tot: -5.06525 ]
	SubspaceRotationAdjust: set factor to 0.419
ElecMinimize: Iter:  11  F: -1478.294092913205986  |grad|_K:  1.238e-06  alpha:  4.074e-01  linmin:  2.357e-07  t[s]:   1995.18
	FillingsUpdate:  mu: -0.037449120  nElectrons: 401.000000  magneticMoment: [ Abs: 6.11348  Tot: -4.94670 ]
	SubspaceRotationAdjust: set factor to 0.49
ElecMinimize: Iter:  12  F: -1478.294239601252457  |grad|_K:  8.289e-07  alpha:  4.635e-01  linmin:  7.571e-07  t[s]:   2043.25
	FillingsUpdate:  mu: -0.037723573  nElectrons: 401.000000  magneticMoment: [ Abs: 5.94831  Tot: -4.81138 ]
	SubspaceRotationAdjust: set factor to 0.623
ElecMinimize: Iter:  13  F: -1478.294333683664036  |grad|_K:  6.784e-07  alpha:  6.637e-01  linmin:  1.308e-06  t[s]:   2091.68
	FillingsUpdate:  mu: -0.037092568  nElectrons: 401.000000  magneticMoment: [ Abs: 5.73490  Tot: -4.63877 ]
	SubspaceRotationAdjust: set factor to 0.66
ElecMinimize: Iter:  14  F: -1478.294402813965235  |grad|_K:  7.393e-07  alpha:  7.277e-01  linmin:  3.473e-07  t[s]:   2139.68
	FillingsUpdate:  mu: -0.038024216  nElectrons: 401.000000  magneticMoment: [ Abs: 5.51418  Tot: -4.46150 ]
	SubspaceRotationAdjust: set factor to 0.629
ElecMinimize: Iter:  15  F: -1478.294452343164039  |grad|_K:  7.151e-07  alpha:  4.389e-01  linmin:  7.367e-09  t[s]:   2187.74
	FillingsUpdate:  mu: -0.037299134  nElectrons: 401.000000  magneticMoment: [ Abs: 5.17169  Tot: -4.18618 ]
	SubspaceRotationAdjust: set factor to 0.647
ElecMinimize: Iter:  16  F: -1478.294511007463598  |grad|_K:  6.259e-07  alpha:  5.553e-01  linmin:  5.450e-07  t[s]:   2236.14
	FillingsUpdate:  mu: -0.037549735  nElectrons: 401.000000  magneticMoment: [ Abs: 4.64502  Tot: -3.76498 ]
	SubspaceRotationAdjust: set factor to 0.741
ElecMinimize: Iter:  17  F: -1478.294581398189848  |grad|_K:  6.759e-07  alpha:  8.739e-01  linmin:  4.459e-07  t[s]:   2285.06
	FillingsUpdate:  mu: -0.037567429  nElectrons: 401.000000  magneticMoment: [ Abs: 3.86379  Tot: -3.13965 ]
	SubspaceRotationAdjust: set factor to 0.885
ElecMinimize: Iter:  18  F: -1478.294671663789586  |grad|_K:  7.594e-07  alpha:  9.577e-01  linmin:  1.567e-07  t[s]:   2333.51
	FillingsUpdate:  mu: -0.037115035  nElectrons: 401.000000  magneticMoment: [ Abs: 2.89426  Tot: -2.35920 ]
	SubspaceRotationAdjust: set factor to 0.991
ElecMinimize: Iter:  19  F: -1478.294774387273719  |grad|_K:  8.070e-07  alpha:  8.603e-01  linmin:  3.801e-07  t[s]:   2381.06
	FillingsUpdate:  mu: -0.038142810  nElectrons: 401.000000  magneticMoment: [ Abs: 2.28412  Tot: -1.86483 ]
	SubspaceRotationAdjust: set factor to 0.822
ElecMinimize: Iter:  20  F: -1478.294834977458095  |grad|_K:  8.991e-07  alpha:  4.522e-01  linmin:  1.662e-07  t[s]:   2428.95
	FillingsUpdate:  mu: -0.037297021  nElectrons: 401.000000  magneticMoment: [ Abs: 1.86250  Tot: -1.52121 ]
	SubspaceRotationAdjust: set factor to 0.64
ElecMinimize: Iter:  21  F: -1478.294875686583964  |grad|_K:  5.853e-07  alpha:  2.432e-01  linmin: -1.910e-07  t[s]:   2477.58
	FillingsUpdate:  mu: -0.037603205  nElectrons: 401.000000  magneticMoment: [ Abs: 1.38815  Tot: -1.13297 ]
	SubspaceRotationAdjust: set factor to 0.72
ElecMinimize: Iter:  22  F: -1478.294919379837893  |grad|_K:  4.526e-07  alpha:  6.115e-01  linmin: -4.614e-06  t[s]:   2525.32
	FillingsUpdate:  mu: -0.037825017  nElectrons: 401.000000  magneticMoment: [ Abs: 1.06606  Tot: -0.86903 ]
	SubspaceRotationAdjust: set factor to 0.805
ElecMinimize: Iter:  23  F: -1478.294947735354526  |grad|_K:  4.188e-07  alpha:  6.609e-01  linmin: -7.993e-07  t[s]:   2573.81
	FillingsUpdate:  mu: -0.037297510  nElectrons: 401.000000  magneticMoment: [ Abs: 0.89287  Tot: -0.72708 ]
	SubspaceRotationAdjust: set factor to 0.678
ElecMinimize: Iter:  24  F: -1478.294962185275153  |grad|_K:  4.078e-07  alpha:  3.969e-01  linmin:  4.019e-09  t[s]:   2622.24
	FillingsUpdate:  mu: -0.037695693  nElectrons: 401.000000  magneticMoment: [ Abs: 0.75045  Tot: -0.61064 ]
	SubspaceRotationAdjust: set factor to 0.646
ElecMinimize: Iter:  25  F: -1478.294973510657883  |grad|_K:  2.580e-07  alpha:  3.292e-01  linmin: -2.538e-08  t[s]:   2670.26
	FillingsUpdate:  mu: -0.037610088  nElectrons: 401.000000  magneticMoment: [ Abs: 0.64447  Tot: -0.52464 ]
	SubspaceRotationAdjust: set factor to 0.784
ElecMinimize: Iter:  26  F: -1478.294981324426544  |grad|_K:  1.811e-07  alpha:  5.678e-01  linmin:  4.913e-07  t[s]:   2718.26
	FillingsUpdate:  mu: -0.037516710  nElectrons: 401.000000  magneticMoment: [ Abs: 0.58469  Tot: -0.47676 ]
	SubspaceRotationAdjust: set factor to 0.878
ElecMinimize: Iter:  27  F: -1478.294985241745508  |grad|_K:  1.401e-07  alpha:  5.787e-01  linmin:  6.736e-07  t[s]:   2766.41
	FillingsUpdate:  mu: -0.037673395  nElectrons: 401.000000  magneticMoment: [ Abs: 0.55296  Tot: -0.45169 ]
	SubspaceRotationAdjust: set factor to 0.781
ElecMinimize: Iter:  28  F: -1478.294986976342216  |grad|_K:  1.458e-07  alpha:  4.274e-01  linmin:  7.155e-08  t[s]:   2814.80
	FillingsUpdate:  mu: -0.037520350  nElectrons: 401.000000  magneticMoment: [ Abs: 0.52672  Tot: -0.43101 ]
	SubspaceRotationAdjust: set factor to 0.666
ElecMinimize: Iter:  29  F: -1478.294988218487788  |grad|_K:  9.590e-08  alpha:  2.816e-01  linmin: -3.144e-08  t[s]:   2863.19
	FillingsUpdate:  mu: -0.037557487  nElectrons: 401.000000  magneticMoment: [ Abs: 0.49717  Tot: -0.40759 ]
	SubspaceRotationAdjust: set factor to 0.85
ElecMinimize: Iter:  30  F: -1478.294989316202873  |grad|_K:  7.071e-08  alpha:  5.784e-01  linmin:  7.533e-07  t[s]:   2911.19
	FillingsUpdate:  mu: -0.037590430  nElectrons: 401.000000  magneticMoment: [ Abs: 0.47415  Tot: -0.38908 ]
	SubspaceRotationAdjust: set factor to 1.02
ElecMinimize: Iter:  31  F: -1478.294989967594120  |grad|_K:  6.406e-08  alpha:  6.336e-01  linmin:  2.774e-07  t[s]:   2959.74
	FillingsUpdate:  mu: -0.037512458  nElectrons: 401.000000  magneticMoment: [ Abs: 0.45920  Tot: -0.37672 ]
	SubspaceRotationAdjust: set factor to 0.801
ElecMinimize: Iter:  32  F: -1478.294990286758775  |grad|_K:  7.124e-08  alpha:  3.760e-01  linmin: -1.409e-07  t[s]:   3007.87
	FillingsUpdate:  mu: -0.037583212  nElectrons: 401.000000  magneticMoment: [ Abs: 0.44166  Tot: -0.36197 ]
	SubspaceRotationAdjust: set factor to 0.744
ElecMinimize: Iter:  33  F: -1478.294990591099804  |grad|_K:  4.718e-08  alpha:  2.898e-01  linmin: -2.598e-08  t[s]:   3055.87
	FillingsUpdate:  mu: -0.037569621  nElectrons: 401.000000  magneticMoment: [ Abs: 0.41844  Tot: -0.34228 ]
	SubspaceRotationAdjust: set factor to 0.911
ElecMinimize: Iter:  34  F: -1478.294990894673901  |grad|_K:  4.263e-08  alpha:  6.590e-01  linmin: -3.711e-08  t[s]:   3104.08
	FillingsUpdate:  mu: -0.037559449  nElectrons: 401.000000  magneticMoment: [ Abs: 0.38979  Tot: -0.31817 ]
	SubspaceRotationAdjust: set factor to 1.12
ElecMinimize: Iter:  35  F: -1478.294991189444772  |grad|_K:  4.365e-08  alpha:  7.838e-01  linmin:  3.480e-08  t[s]:   3151.89
	FillingsUpdate:  mu: -0.037594988  nElectrons: 401.000000  magneticMoment: [ Abs: 0.35644  Tot: -0.29045 ]
	SubspaceRotationAdjust: set factor to 1.1
ElecMinimize: Iter:  36  F: -1478.294991467269256  |grad|_K:  5.477e-08  alpha:  7.049e-01  linmin:  8.215e-08  t[s]:   3199.99
	FillingsUpdate:  mu: -0.037530079  nElectrons: 401.000000  magneticMoment: [ Abs: 0.33378  Tot: -0.27182 ]
	SubspaceRotationAdjust: set factor to 0.917
ElecMinimize: Iter:  37  F: -1478.294991633134487  |grad|_K:  5.711e-08  alpha:  2.674e-01  linmin:  3.759e-08  t[s]:   3248.14
	FillingsUpdate:  mu: -0.037576383  nElectrons: 401.000000  magneticMoment: [ Abs: 0.28923  Tot: -0.23550 ]
	SubspaceRotationAdjust: set factor to 0.949
ElecMinimize: Iter:  38  F: -1478.294991928305990  |grad|_K:  4.582e-08  alpha:  4.382e-01  linmin:  3.999e-07  t[s]:   3296.77
	FillingsUpdate:  mu: -0.037582855  nElectrons: 401.000000  magneticMoment: [ Abs: 0.23331  Tot: -0.19032 ]
	SubspaceRotationAdjust: set factor to 1.16
ElecMinimize: Iter:  39  F: -1478.294992262433198  |grad|_K:  4.710e-08  alpha:  7.725e-01  linmin:  1.794e-07  t[s]:   3345.02
	FillingsUpdate:  mu: -0.037533395  nElectrons: 401.000000  magneticMoment: [ Abs: 0.18502  Tot: -0.15136 ]
	SubspaceRotationAdjust: set factor to 0.929
ElecMinimize: Iter:  40  F: -1478.294992532208880  |grad|_K:  6.079e-08  alpha:  5.885e-01  linmin:  1.409e-08  t[s]:   3393.43
	FillingsUpdate:  mu: -0.037597521  nElectrons: 401.000000  magneticMoment: [ Abs: 0.15423  Tot: -0.12643 ]
	SubspaceRotationAdjust: set factor to 0.751
ElecMinimize: Iter:  41  F: -1478.294992697666203  |grad|_K:  4.845e-08  alpha:  2.172e-01  linmin:  4.793e-07  t[s]:   3441.87
	FillingsUpdate:  mu: -0.037581168  nElectrons: 401.000000  magneticMoment: [ Abs: 0.10779  Tot: -0.08866 ]
	SubspaceRotationAdjust: set factor to 0.915
ElecMinimize: Iter:  42  F: -1478.294992939226631  |grad|_K:  3.657e-08  alpha:  4.974e-01  linmin: -4.966e-07  t[s]:   3489.82
	FillingsUpdate:  mu: -0.037542275  nElectrons: 401.000000  magneticMoment: [ Abs: 0.08001  Tot: -0.06591 ]
	SubspaceRotationAdjust: set factor to 0.801
ElecMinimize: Iter:  43  F: -1478.294993079617143  |grad|_K:  4.077e-08  alpha:  5.052e-01  linmin: -5.035e-08  t[s]:   3537.77
	FillingsUpdate:  mu: -0.037582241  nElectrons: 401.000000  magneticMoment: [ Abs: 0.06299  Tot: -0.05189 ]
	SubspaceRotationAdjust: set factor to 0.697
ElecMinimize: Iter:  44  F: -1478.294993163352501  |grad|_K:  2.964e-08  alpha:  2.434e-01  linmin:  2.471e-08  t[s]:   3585.84
	FillingsUpdate:  mu: -0.037573641  nElectrons: 401.000000  magneticMoment: [ Abs: 0.04334  Tot: -0.03559 ]
	SubspaceRotationAdjust: set factor to 0.963
ElecMinimize: Iter:  45  F: -1478.294993257324222  |grad|_K:  2.214e-08  alpha:  5.170e-01  linmin:  3.920e-08  t[s]:   3633.98
	FillingsUpdate:  mu: -0.037549768  nElectrons: 401.000000  magneticMoment: [ Abs: 0.03437  Tot: -0.02813 ]
	SubspaceRotationAdjust: set factor to 0.839
ElecMinimize: Iter:  46  F: -1478.294993298912232  |grad|_K:  2.326e-08  alpha:  4.100e-01  linmin:  6.964e-08  t[s]:   3682.03
	FillingsUpdate:  mu: -0.037572395  nElectrons: 401.000000  magneticMoment: [ Abs: 0.02848  Tot: -0.02323 ]
	SubspaceRotationAdjust: set factor to 0.698
ElecMinimize: Iter:  47  F: -1478.294993325388759  |grad|_K:  1.468e-08  alpha:  2.367e-01  linmin: -1.825e-08  t[s]:   3730.50
	FillingsUpdate:  mu: -0.037571048  nElectrons: 401.000000  magneticMoment: [ Abs: 0.02306  Tot: -0.01876 ]
	SubspaceRotationAdjust: set factor to 0.897
ElecMinimize: Iter:  48  F: -1478.294993348173875  |grad|_K:  1.067e-08  alpha:  5.149e-01  linmin:  7.905e-07  t[s]:   3778.48
	FillingsUpdate:  mu: -0.037560137  nElectrons: 401.000000  magneticMoment: [ Abs: 0.02036  Tot: -0.01656 ]
	SubspaceRotationAdjust: set factor to 0.846
ElecMinimize: Iter:  49  F: -1478.294993358697411  |grad|_K:  1.070e-08  alpha:  4.503e-01  linmin:  9.818e-09  t[s]:   3826.76
	FillingsUpdate:  mu: -0.037571090  nElectrons: 401.000000  magneticMoment: [ Abs: 0.01867  Tot: -0.01520 ]
	SubspaceRotationAdjust: set factor to 0.752
ElecMinimize: Iter:  50  F: -1478.294993364840821  |grad|_K:  7.622e-09  alpha:  2.595e-01  linmin: -1.458e-07  t[s]:   3875.13
	FillingsUpdate:  mu: -0.037568137  nElectrons: 401.000000  magneticMoment: [ Abs: 0.01681  Tot: -0.01372 ]
	SubspaceRotationAdjust: set factor to 0.977
ElecMinimize: Iter:  51  F: -1478.294993370794373  |grad|_K:  5.081e-09  alpha:  4.965e-01  linmin:  6.857e-07  t[s]:   3923.71
ElecMinimize: Converged (|Delta F|<1.000000e-08 for 2 iters).
Setting wave functions to eigenvectors of Hamiltonian
Vacuum energy after initial minimize, F = -1478.294993370794373

	Linear fluid (dielectric constant: 78.4, screening length: 5.74355 Bohr) occupying 0.758709 of unit cell:	Completed after 15 iterations at t[s]:   3937.47

-------- Electronic minimization -----------
	Linear fluid (dielectric constant: 78.4, screening length: 5.74355 Bohr) occupying 0.758709 of unit cell:	Completed after 0 iterations at t[s]:   3954.32
	FillingsUpdate:  mu: -0.192616411  nElectrons: 401.000000  magneticMoment: [ Abs: 0.01639  Tot: -0.01338 ]
ElecMinimize: Iter:   0  F: -1478.400163450854507  |grad|_K:  1.762e-06  alpha:  1.000e+00
	Linear fluid (dielectric constant: 78.4, screening length: 5.74355 Bohr) occupying 0.758956 of unit cell:	Completed after 10 iterations at t[s]:   3993.66
	Linear fluid (dielectric constant: 78.4, screening length: 5.74355 Bohr) occupying 0.758754 of unit cell:	Completed after 11 iterations at t[s]:   4015.20
	FillingsUpdate:  mu: -0.195198540  nElectrons: 401.000000  magneticMoment: [ Abs: 0.01632  Tot: -0.01333 ]
	SubspaceRotationAdjust: set factor to 0.619
ElecMinimize: Iter:   1  F: -1478.400275954848439  |grad|_K:  1.251e-06  alpha:  1.765e-01  linmin:  7.626e-07  t[s]:   4041.21
	Linear fluid (dielectric constant: 78.4, screening length: 5.74355 Bohr) occupying 0.758840 of unit cell:	Completed after 2 iterations at t[s]:   4054.84
	Linear fluid (dielectric constant: 78.4, screening length: 5.74355 Bohr) occupying 0.758994 of unit cell:	Completed after 8 iterations at t[s]:   4074.13
	FillingsUpdate:  mu: -0.195371013  nElectrons: 401.000000  magneticMoment: [ Abs: 0.01602  Tot: -0.01311 ]
	SubspaceRotationAdjust: set factor to 0.641
ElecMinimize: Iter:   2  F: -1478.400438823142849  |grad|_K:  7.488e-07  alpha:  5.039e-01  linmin: -4.525e-07  t[s]:   4098.87
	Linear fluid (dielectric constant: 78.4, screening length: 5.74355 Bohr) occupying 0.759165 of unit cell:	Completed after 7 iterations at t[s]:   4113.38
	Linear fluid (dielectric constant: 78.4, screening length: 5.74355 Bohr) occupying 0.759220 of unit cell:	Completed after 3 iterations at t[s]:   4133.02
	FillingsUpdate:  mu: -0.195246187  nElectrons: 401.000000  magneticMoment: [ Abs: 0.01570  Tot: -0.01287 ]
	SubspaceRotationAdjust: set factor to 0.715
ElecMinimize: Iter:   3  F: -1478.400517186247725  |grad|_K:  4.877e-07  alpha:  6.684e-01  linmin: -1.287e-07  t[s]:   4156.90
	Linear fluid (dielectric constant: 78.4, screening length: 5.74355 Bohr) occupying 0.759355 of unit cell:	Completed after 8 iterations at t[s]:   4171.67
	Linear fluid (dielectric constant: 78.4, screening length: 5.74355 Bohr) occupying 0.759360 of unit cell:	Completed after 0 iterations at t[s]:   4190.78
	FillingsUpdate:  mu: -0.194215049  nElectrons: 401.000000  magneticMoment: [ Abs: 0.01539  Tot: -0.01261 ]
	SubspaceRotationAdjust: set factor to 0.489
ElecMinimize: Iter:   4  F: -1478.400551281331445  |grad|_K:  4.958e-07  alpha:  6.905e-01  linmin: -5.862e-06  t[s]:   4213.96
	Linear fluid (dielectric constant: 78.4, screening length: 5.74355 Bohr) occupying 0.759490 of unit cell:	Completed after 5 iterations at t[s]:   4228.50
	Linear fluid (dielectric constant: 78.4, screening length: 5.74355 Bohr) occupying 0.759404 of unit cell:	Completed after 3 iterations at t[s]:   4247.74
	FillingsUpdate:  mu: -0.194731217  nElectrons: 401.000000  magneticMoment: [ Abs: 0.01522  Tot: -0.01247 ]
	SubspaceRotationAdjust: set factor to 0.27
ElecMinimize: Iter:   5  F: -1478.400563609970504  |grad|_K:  2.127e-07  alpha:  2.333e-01  linmin: -1.712e-07  t[s]:   4271.74
	Linear fluid (dielectric constant: 78.4, screening length: 5.74355 Bohr) occupying 0.759411 of unit cell:	Completed after 2 iterations at t[s]:   4285.32
ElecMinimize: 	Predicted alpha/alphaT>3.000000, increasing alphaT to 6.998835e-01.
	Linear fluid (dielectric constant: 78.4, screening length: 5.74355 Bohr) occupying 0.759425 of unit cell:	Completed after 2 iterations at t[s]:   4303.64
	Linear fluid (dielectric constant: 78.4, screening length: 5.74355 Bohr) occupying 0.759428 of unit cell:	Completed after 0 iterations at t[s]:   4321.71
	FillingsUpdate:  mu: -0.194582487  nElectrons: 401.000000  magneticMoment: [ Abs: 0.01497  Tot: -0.01225 ]
	SubspaceRotationAdjust: set factor to 0.323
ElecMinimize: Iter:   6  F: -1478.400571148974905  |grad|_K:  1.506e-07  alpha:  8.019e-01  linmin: -1.265e-06  t[s]:   4345.36
	Linear fluid (dielectric constant: 78.4, screening length: 5.74355 Bohr) occupying 0.759435 of unit cell:	Completed after 2 iterations at t[s]:   4358.90
	Linear fluid (dielectric constant: 78.4, screening length: 5.74355 Bohr) occupying 0.759432 of unit cell:	Completed after 2 iterations at t[s]:   4377.34
	FillingsUpdate:  mu: -0.194452296  nElectrons: 401.000000  magneticMoment: [ Abs: 0.01483  Tot: -0.01214 ]
	SubspaceRotationAdjust: set factor to 0.325
ElecMinimize: Iter:   7  F: -1478.400573455958693  |grad|_K:  1.149e-07  alpha:  4.926e-01  linmin:  1.626e-08  t[s]:   4401.16
	Linear fluid (dielectric constant: 78.4, screening length: 5.74355 Bohr) occupying 0.759431 of unit cell:	Completed after 3 iterations at t[s]:   4415.22
	Linear fluid (dielectric constant: 78.4, screening length: 5.74355 Bohr) occupying 0.759431 of unit cell:	Completed after 0 iterations at t[s]:   4433.29
	FillingsUpdate:  mu: -0.194534483  nElectrons: 401.000000  magneticMoment: [ Abs: 0.01467  Tot: -0.01201 ]
	SubspaceRotationAdjust: set factor to 0.328
ElecMinimize: Iter:   8  F: -1478.400574969367199  |grad|_K:  7.139e-08  alpha:  5.506e-01  linmin: -2.072e-06  t[s]:   4456.41
	Linear fluid (dielectric constant: 78.4, screening length: 5.74355 Bohr) occupying 0.759428 of unit cell:	Completed after 0 iterations at t[s]:   4469.62
	Linear fluid (dielectric constant: 78.4, screening length: 5.74355 Bohr) occupying 0.759427 of unit cell:	Completed after 0 iterations at t[s]:   4487.05
	FillingsUpdate:  mu: -0.194534416  nElectrons: 401.000000  magneticMoment: [ Abs: 0.01453  Tot: -0.01190 ]
	SubspaceRotationAdjust: set factor to 0.376
ElecMinimize: Iter:   9  F: -1478.400575651118061  |grad|_K:  5.268e-08  alpha:  6.223e-01  linmin:  1.183e-08  t[s]:   4510.25
	Linear fluid (dielectric constant: 78.4, screening length: 5.74355 Bohr) occupying 0.759424 of unit cell:	Completed after 1 iterations at t[s]:   4523.63
	Linear fluid (dielectric constant: 78.4, screening length: 5.74355 Bohr) occupying 0.759426 of unit cell:	Completed after 0 iterations at t[s]:   4541.45
	FillingsUpdate:  mu: -0.194487899  nElectrons: 401.000000  magneticMoment: [ Abs: 0.01446  Tot: -0.01184 ]
	SubspaceRotationAdjust: set factor to 0.348
ElecMinimize: Iter:  10  F: -1478.400575742632554  |grad|_K:  7.616e-08  alpha:  2.510e-01  linmin:  8.701e-06  t[s]:   4564.84
	Linear fluid (dielectric constant: 78.4, screening length: 5.74355 Bohr) occupying 0.759423 of unit cell:	Completed after 2 iterations at t[s]:   4578.62
	Linear fluid (dielectric constant: 78.4, screening length: 5.74355 Bohr) occupying 0.759424 of unit cell:	Completed after 0 iterations at t[s]:   4596.93
	FillingsUpdate:  mu: -0.194555101  nElectrons: 401.000000  magneticMoment: [ Abs: 0.01439  Tot: -0.01178 ]
	SubspaceRotationAdjust: set factor to 0.373
ElecMinimize: Iter:  11  F: -1478.400575781356565  |grad|_K:  3.784e-08  alpha:  1.076e-01  linmin: -1.764e-06  t[s]:   4619.66
	Linear fluid (dielectric constant: 78.4, screening length: 5.74355 Bohr) occupying 0.759424 of unit cell:	Completed after 0 iterations at t[s]:   4632.78
ElecMinimize: 	Predicted alpha/alphaT>3.000000, increasing alphaT to 3.228283e-01.
	Linear fluid (dielectric constant: 78.4, screening length: 5.74355 Bohr) occupying 0.759423 of unit cell:	Completed after 0 iterations at t[s]:   4649.80
	Linear fluid (dielectric constant: 78.4, screening length: 5.74355 Bohr) occupying 0.759423 of unit cell:	Completed after 0 iterations at t[s]:   4667.24
	FillingsUpdate:  mu: -0.194554500  nElectrons: 401.000000  magneticMoment: [ Abs: 0.01426  Tot: -0.01168 ]
	SubspaceRotationAdjust: set factor to 0.38
ElecMinimize: Iter:  12  F: -1478.400575909129429  |grad|_K:  2.514e-08  alpha:  4.186e-01  linmin:  3.415e-08  t[s]:   4690.63
	Linear fluid (dielectric constant: 78.4, screening length: 5.74355 Bohr) occupying 0.759423 of unit cell:	Completed after 2 iterations at t[s]:   4704.43
	Linear fluid (dielectric constant: 78.4, screening length: 5.74355 Bohr) occupying 0.759423 of unit cell:	Completed after 0 iterations at t[s]:   4722.41
ElecMinimize: 	Step increased F by 1.931085e-08, reducing alpha to 1.372759e-02.
	Linear fluid (dielectric constant: 78.4, screening length: 5.74355 Bohr) occupying 0.759423 of unit cell:	Completed after 0 iterations at t[s]:   4757.19
ElecMinimize: 	Step increased F by 1.722060e-08, reducing alpha to 1.372759e-03.
	Linear fluid (dielectric constant: 78.4, screening length: 5.74355 Bohr) occupying 0.759423 of unit cell:	Completed after 0 iterations at t[s]:   4791.44
ElecMinimize: 	Step increased F by 1.747389e-08, reducing alpha to 1.372759e-04.
ElecMinimize: 	Step failed to reduce F after 3 attempts. Quitting step.
ElecMinimize: 	Undoing step.
	Linear fluid (dielectric constant: 78.4, screening length: 5.74355 Bohr) occupying 0.759423 of unit cell:	Completed after 0 iterations at t[s]:   4825.98
ElecMinimize: 	Step failed: resetting search direction.
	FillingsUpdate:  mu: -0.194584133  nElectrons: 401.000000  magneticMoment: [ Abs: 0.01426  Tot: -0.01168 ]
	SubspaceRotationAdjust: set factor to 0.371
ElecMinimize: Iter:  13  F: -1478.400575891691460  |grad|_K:  4.058e-08  alpha:  1.373e-04
	Linear fluid (dielectric constant: 78.4, screening length: 5.74355 Bohr) occupying 0.759423 of unit cell:	Completed after 2 iterations at t[s]:   4862.78
	Linear fluid (dielectric constant: 78.4, screening length: 5.74355 Bohr) occupying 0.759423 of unit cell:	Completed after 0 iterations at t[s]:   4880.90
	FillingsUpdate:  mu: -0.194514444  nElectrons: 401.000000  magneticMoment: [ Abs: 0.01424  Tot: -0.01166 ]
	SubspaceRotationAdjust: set factor to 0.263
ElecMinimize: Iter:  14  F: -1478.400575944388947  |grad|_K:  3.816e-08  alpha:  1.753e-01  linmin:  1.778e-04  t[s]:   4904.37
	Linear fluid (dielectric constant: 78.4, screening length: 5.74355 Bohr) occupying 0.759423 of unit cell:	Completed after 0 iterations at t[s]:   4917.83
	Linear fluid (dielectric constant: 78.4, screening length: 5.74355 Bohr) occupying 0.759423 of unit cell:	Completed after 0 iterations at t[s]:   4934.97
	FillingsUpdate:  mu: -0.194514106  nElectrons: 401.000000  magneticMoment: [ Abs: 0.01415  Tot: -0.01159 ]
	SubspaceRotationAdjust: set factor to 0.4
ElecMinimize: Iter:  15  F: -1478.400575993423445  |grad|_K:  3.763e-08  alpha:  3.230e-01  linmin:  4.679e-07  t[s]:   4958.22
	Linear fluid (dielectric constant: 78.4, screening length: 5.74355 Bohr) occupying 0.759424 of unit cell:	Completed after 2 iterations at t[s]:   4971.87
	Linear fluid (dielectric constant: 78.4, screening length: 5.74355 Bohr) occupying 0.759423 of unit cell:	Completed after 0 iterations at t[s]:   4990.12
ElecMinimize: 	Step increased F by 3.089554e-09, reducing alpha to 8.247668e-03.
	Linear fluid (dielectric constant: 78.4, screening length: 5.74355 Bohr) occupying 0.759423 of unit cell:	Completed after 1 iterations at t[s]:   5024.61
ElecMinimize: 	Step increased F by 4.536764e-08, reducing alpha to 8.247668e-04.
	Linear fluid (dielectric constant: 78.4, screening length: 5.74355 Bohr) occupying 0.759423 of unit cell:	Completed after 0 iterations at t[s]:   5059.30
ElecMinimize: 	Step increased F by 4.477852e-08, reducing alpha to 8.247668e-05.
ElecMinimize: 	Step failed to reduce F after 3 attempts. Quitting step.
ElecMinimize: 	Undoing step.
	Linear fluid (dielectric constant: 78.4, screening length: 5.74355 Bohr) occupying 0.759423 of unit cell:	Completed after 0 iterations at t[s]:   5093.34
ElecMinimize: 	Step failed: resetting search direction.
	FillingsUpdate:  mu: -0.194572679  nElectrons: 401.000000  magneticMoment: [ Abs: 0.01415  Tot: -0.01159 ]
	SubspaceRotationAdjust: set factor to 0.282
ElecMinimize: Iter:  16  F: -1478.400575948578535  |grad|_K:  2.153e-08  alpha:  8.248e-05
	Linear fluid (dielectric constant: 78.4, screening length: 5.74355 Bohr) occupying 0.759424 of unit cell:	Completed after 0 iterations at t[s]:   5129.54
	Linear fluid (dielectric constant: 78.4, screening length: 5.74355 Bohr) occupying 0.759424 of unit cell:	Completed after 1 iterations at t[s]:   5146.88
	FillingsUpdate:  mu: -0.194555268  nElectrons: 401.000000  magneticMoment: [ Abs: 0.01409  Tot: -0.01154 ]
	SubspaceRotationAdjust: set factor to 0.288
ElecMinimize: Iter:  17  F: -1478.400575958743275  |grad|_K:  1.258e-08  alpha:  4.581e-01  linmin:  6.992e-05  t[s]:   5170.75
	Linear fluid (dielectric constant: 78.4, screening length: 5.74355 Bohr) occupying 0.759424 of unit cell:	Completed after 0 iterations at t[s]:   5183.90
	Linear fluid (dielectric constant: 78.4, screening length: 5.74355 Bohr) occupying 0.759424 of unit cell:	Completed after 0 iterations at t[s]:   5201.00
	FillingsUpdate:  mu: -0.194555621  nElectrons: 401.000000  magneticMoment: [ Abs: 0.01398  Tot: -0.01145 ]
	SubspaceRotationAdjust: set factor to 0.296
ElecMinimize: Iter:  18  F: -1478.400575974890216  |grad|_K:  7.605e-09  alpha:  6.631e-01  linmin:  1.570e-06  t[s]:   5224.32
	Linear fluid (dielectric constant: 78.4, screening length: 5.74355 Bohr) occupying 0.759424 of unit cell:	Completed after 0 iterations at t[s]:   5237.37
	Linear fluid (dielectric constant: 78.4, screening length: 5.74355 Bohr) occupying 0.759424 of unit cell:	Completed after 0 iterations at t[s]:   5254.42
	FillingsUpdate:  mu: -0.194555660  nElectrons: 401.000000  magneticMoment: [ Abs: 0.01389  Tot: -0.01138 ]
	SubspaceRotationAdjust: set factor to 0.309
ElecMinimize: Iter:  19  F: -1478.400575981284192  |grad|_K:  5.347e-09  alpha:  5.425e-01  linmin:  7.165e-07  t[s]:   5277.73
	Linear fluid (dielectric constant: 78.4, screening length: 5.74355 Bohr) occupying 0.759424 of unit cell:	Completed after 0 iterations at t[s]:   5291.00
	Linear fluid (dielectric constant: 78.4, screening length: 5.74355 Bohr) occupying 0.759424 of unit cell:	Completed after 0 iterations at t[s]:   5308.13
	FillingsUpdate:  mu: -0.194555620  nElectrons: 401.000000  magneticMoment: [ Abs: 0.01378  Tot: -0.01129 ]
	SubspaceRotationAdjust: set factor to 0.335
ElecMinimize: Iter:  20  F: -1478.400575984625675  |grad|_K:  3.452e-09  alpha:  5.779e-01  linmin:  1.635e-09  t[s]:   5331.20
ElecMinimize: Converged (|Delta F|<1.000000e-08 for 2 iters).
Setting wave functions to eigenvectors of Hamiltonian
Single-point solvation energy estimate, DeltaF = -0.105582613831302

# Ionic positions in lattice coordinates:
ion V   0.083332210555556   0.166667776027779   0.500000008835160 1
ion V   0.333332210555556   0.166667776027779   0.500000008835160 1
ion V   0.583332210555556   0.166667776027779   0.500000008835160 1
ion V   0.833332210555556   0.166667776027779   0.500000008835160 1
ion V   0.083332210555556   0.416667776027779   0.500000008835160 1
ion V   0.333332210555556   0.416667776027779   0.500000008835160 1
ion V   0.583332210555556   0.416667776027779   0.500000008835160 1
ion V   0.833332210555556   0.416667776027779   0.500000008835160 1
ion V   0.083332210555556   0.666667776027779   0.500000008835160 1
ion V   0.333332210555556   0.666667776027779   0.500000008835160 1
ion V   0.583332210555556   0.666667776027779   0.500000008835160 1
ion V   0.833332210555556   0.666667776027779   0.500000008835160 1
ion V   0.083332210555556   0.916667776027779   0.500000008835160 1
ion V   0.333332210555556   0.916667776027779   0.500000008835160 1
ion V   0.583332210555556   0.916667776027779   0.500000008835160 1
ion V   0.833332210555556   0.916667776027779   0.500000008835160 1
ion S  -0.000001122777777   0.000001109361112   0.417322835368676 1
ion S  -0.000001122777777   0.000001109361112   0.582677182301644 1
ion S   0.249998877222223   0.000001109361112   0.417322835368676 1
ion S   0.249998877222223   0.000001109361112   0.582677182301644 1
ion S   0.499998877222223   0.000001109361112   0.417322835368676 1
ion S   0.499998877222223   0.000001109361112   0.582677182301644 1
ion S   0.749998877222223   0.000001109361112   0.417322835368676 1
ion S   0.749998877222223   0.000001109361112   0.582677182301644 1
ion S   0.999998877222223   0.250001109361112   0.417322835368676 1
ion S   0.999998877222223   0.250001109361112   0.582677182301644 1
ion S   0.249998877222223   0.250001109361112   0.417322835368676 1
ion S   0.249998877222223   0.250001109361112   0.582677182301644 1
ion S   0.499998877222223   0.250001109361112   0.417322835368676 1
ion S   0.499998877222223   0.250001109361112   0.582677182301644 1
ion S   0.749998877222223   0.250001109361112   0.417322835368676 1
ion S   0.749998877222223   0.250001109361112   0.582677182301644 1
ion S   0.999998877222223   0.500001109361112   0.417322835368676 1
ion S   0.999998877222223   0.500001109361112   0.582677182301644 1
ion S   0.249998877222223   0.500001109361112   0.417322835368676 1
ion S   0.249998877222223   0.500001109361112   0.582677182301644 1
ion S   0.499998877222223   0.500001109361112   0.417322835368676 1
ion S   0.499998877222223   0.500001109361112   0.582677182301644 1
ion S   0.749998877222223   0.500001109361112   0.417322835368676 1
ion S   0.749998877222223   0.500001109361112   0.582677182301644 1
ion S   0.999998877222223   0.750001109361112   0.417322835368676 1
ion S   0.999998877222223   0.750001109361112   0.582677182301644 1
ion S   0.249998877222223   0.750001109361112   0.417322835368676 1
ion S   0.249998877222223   0.750001109361112   0.582677182301644 1
ion S   0.499998877222223   0.750001109361112   0.417322835368676 1
ion S   0.499998877222223   0.750001109361112   0.582677182301644 1
ion S   0.749998877222223   0.750001109361112   0.417322835368676 1
ion S   0.749998877222223   0.750001109361112   0.582677182301644 1


# Forces in Lattice coordinates:
force V  -0.000000000000000   0.000000000000000  -0.000000000000000 1
force V   0.000000000000000   0.000000000000000  -0.000000000000000 1
force V  -0.000000000000000   0.000000000000000   0.000000000000000 1
force V  -0.000000000000000   0.000000000000000  -0.000000000000000 1
force V   0.000000000000000   0.000000000000000  -0.000000000000000 1
force V  -0.000000000000000   0.000000000000000  -0.000000000000000 1
force V  -0.000000000000000   0.000000000000000   0.000000000000000 1
force V   0.000000000000000   0.000000000000000   0.000000000000000 1
force V  -0.000000000000000   0.000000000000000   0.000000000000000 1
force V  -0.000000000000000   0.000000000000000  -0.000000000000000 1
force V  -0.000000000000000   0.000000000000000   0.000000000000000 1
force V  -0.000000000000000   0.000000000000000   0.000000000000000 1
force V  -0.000000000000000   0.000000000000000  -0.000000000000000 1
force V   0.000000000000000   0.000000000000000  -0.000000000000000 1
force V  -0.000000000000000   0.000000000000000  -0.000000000000000 1
force V   0.000000000000000   0.000000000000000  -0.000000000000000 1
force S   0.000000000000000  -0.000000000000000   0.014193304810187 1
force S  -0.000000000000000  -0.000000000000000  -0.014193304809731 1
force S   0.000000000000000   0.000000000000000   0.014193304809961 1
force S  -0.000000000000000   0.000000000000000  -0.014193304809845 1
force S  -0.000000000000000   0.000000000000000   0.014193304809961 1
force S  -0.000000000000000  -0.000000000000000  -0.014193304809959 1
force S   0.000000000000000  -0.000000000000000   0.014193304809961 1
force S  -0.000000000000000  -0.000000000000000  -0.014193304810072 1
force S   0.000000000000000  -0.000000000000000   0.014193304809960 1
force S   0.000000000000000  -0.000000000000000  -0.014193304809845 1
force S   0.000000000000000  -0.000000000000000   0.014193304809961 1
force S  -0.000000000000000  -0.000000000000000  -0.014193304809959 1
force S   0.000000000000000  -0.000000000000000   0.014193304810075 1
force S   0.000000000000000   0.000000000000000  -0.014193304809960 1
force S   0.000000000000000   0.000000000000000   0.014193304809960 1
force S   0.000000000000000  -0.000000000000000  -0.014193304809960 1
force S  -0.000000000000000  -0.000000000000000   0.014193304810073 1
force S   0.000000000000000   0.000000000000000  -0.014193304809846 1
force S   0.000000000000000  -0.000000000000000   0.014193304809960 1
force S   0.000000000000000   0.000000000000000  -0.014193304809960 1
force S   0.000000000000000   0.000000000000000   0.014193304809846 1
force S  -0.000000000000000   0.000000000000000  -0.014193304809960 1
force S   0.000000000000000  -0.000000000000000   0.014193304809960 1
force S   0.000000000000000   0.000000000000000  -0.014193304809960 1
force S  -0.000000000000000  -0.000000000000000   0.014193304809960 1
force S   0.000000000000000   0.000000000000000  -0.014193304809846 1
force S  -0.000000000000000  -0.000000000000000   0.014193304809960 1
force S  -0.000000000000000  -0.000000000000000  -0.014193304809846 1
force S   0.000000000000000   0.000000000000000   0.014193304809847 1
force S  -0.000000000000000   0.000000000000000  -0.014193304809732 1
force S  -0.000000000000000  -0.000000000000000   0.014193304809961 1
force S  -0.000000000000000   0.000000000000000  -0.014193304809960 1

# Energy components:
   A_diel =       -0.0941540051874783
   Eewald =     8150.9803012085958471
       EH =     9413.1331164758485102
     Eloc =   -19316.0030224975889723
      Enl =       79.7176697886432635
      Exc =     -292.4167666252474760
 Exc_core =       69.5498433525552002
       KE =      416.8466523775592805
  MuShift =       -0.0118186136596549
-------------------------------------
     Etot =    -1478.2981785384822615
       TS =        0.1023974461434729
-------------------------------------
        F =    -1478.4005759846256751

IonicMinimize: Iter:   0  F: -1478.400575984625675  |grad|_K:  1.969e-04  t[s]:   5344.19

#--- Lowdin population analysis ---
# oxidation-state V +0.615 +0.615 +0.615 +0.615 +0.615 +0.615 +0.615 +0.615 +0.615 +0.615 +0.615 +0.615 +0.615 +0.615 +0.615 +0.615
# magnetic-moments V -0.001 -0.001 -0.001 -0.001 -0.001 -0.001 -0.001 -0.001 -0.001 -0.001 -0.001 -0.001 -0.001 -0.001 -0.001 -0.001
# oxidation-state S -0.235 -0.235 -0.235 -0.235 -0.235 -0.235 -0.235 -0.235 -0.235 -0.235 -0.235 -0.235 -0.235 -0.235 -0.235 -0.235 -0.235 -0.235 -0.235 -0.235 -0.235 -0.235 -0.235 -0.235 -0.235 -0.235 -0.235 -0.235 -0.235 -0.235 -0.235 -0.235
# magnetic-moments S +0.000 +0.000 +0.000 +0.000 +0.000 +0.000 +0.000 +0.000 +0.000 +0.000 +0.000 +0.000 +0.000 +0.000 +0.000 +0.000 +0.000 +0.000 +0.000 +0.000 +0.000 +0.000 +0.000 +0.000 +0.000 +0.000 +0.000 +0.000 +0.000 +0.000 +0.000 +0.000

	Linear fluid (dielectric constant: 78.4, screening length: 5.74355 Bohr) occupying 0.759435 of unit cell:	Completed after 2 iterations at t[s]:   5358.72

-------- Electronic minimization -----------
	Linear fluid (dielectric constant: 78.4, screening length: 5.74355 Bohr) occupying 0.759435 of unit cell:	Completed after 0 iterations at t[s]:   5373.96
	FillingsUpdate:  mu: -0.194567197  nElectrons: 401.000000  magneticMoment: [ Abs: 0.01345  Tot: -0.01100 ]
ElecMinimize: Iter:   0  F: -1478.400580765558061  |grad|_K:  5.150e-08  alpha:  1.000e+00
	Linear fluid (dielectric constant: 78.4, screening length: 5.74355 Bohr) occupying 0.759435 of unit cell:	Completed after 2 iterations at t[s]:   5411.80
	Linear fluid (dielectric constant: 78.4, screening length: 5.74355 Bohr) occupying 0.759435 of unit cell:	Completed after 0 iterations at t[s]:   5429.90
	FillingsUpdate:  mu: -0.194557178  nElectrons: 401.000000  magneticMoment: [ Abs: 0.01334  Tot: -0.01092 ]
	SubspaceRotationAdjust: set factor to 0.467
ElecMinimize: Iter:   1  F: -1478.400581234253195  |grad|_K:  2.507e-08  alpha:  8.581e-01  linmin: -6.813e-05  t[s]:   5452.88
	Linear fluid (dielectric constant: 78.4, screening length: 5.74355 Bohr) occupying 0.759435 of unit cell:	Completed after 0 iterations at t[s]:   5466.01
	Linear fluid (dielectric constant: 78.4, screening length: 5.74355 Bohr) occupying 0.759435 of unit cell:	Completed after 0 iterations at t[s]:   5483.55
	FillingsUpdate:  mu: -0.194556435  nElectrons: 401.000000  magneticMoment: [ Abs: 0.01320  Tot: -0.01081 ]
	SubspaceRotationAdjust: set factor to 0.587
ElecMinimize: Iter:   2  F: -1478.400581354919041  |grad|_K:  2.451e-08  alpha:  9.235e-01  linmin: -2.531e-06  t[s]:   5506.77
	Linear fluid (dielectric constant: 78.4, screening length: 5.74355 Bohr) occupying 0.759435 of unit cell:	Completed after 2 iterations at t[s]:   5520.38
	Linear fluid (dielectric constant: 78.4, screening length: 5.74355 Bohr) occupying 0.759435 of unit cell:	Completed after 0 iterations at t[s]:   5538.69
	FillingsUpdate:  mu: -0.194625368  nElectrons: 401.000000  magneticMoment: [ Abs: 0.01311  Tot: -0.01074 ]
	SubspaceRotationAdjust: set factor to 0.389
ElecMinimize: Iter:   3  F: -1478.400581378596826  |grad|_K:  5.633e-08  alpha:  2.889e-01  linmin:  3.676e-04  t[s]:   5561.84
	Linear fluid (dielectric constant: 78.4, screening length: 5.74355 Bohr) occupying 0.759435 of unit cell:	Completed after 0 iterations at t[s]:   5574.68
	Linear fluid (dielectric constant: 78.4, screening length: 5.74355 Bohr) occupying 0.759435 of unit cell:	Completed after 0 iterations at t[s]:   5592.02
	FillingsUpdate:  mu: -0.194625304  nElectrons: 401.000000  magneticMoment: [ Abs: 0.01302  Tot: -0.01067 ]
	SubspaceRotationAdjust: set factor to 0.302
ElecMinimize: Iter:   4  F: -1478.400581396170310  |grad|_K:  4.872e-08  alpha:  5.025e-02  linmin: -2.462e-08  t[s]:   5615.03
	Linear fluid (dielectric constant: 78.4, screening length: 5.74355 Bohr) occupying 0.759435 of unit cell:	Completed after 0 iterations at t[s]:   5628.30
	Linear fluid (dielectric constant: 78.4, screening length: 5.74355 Bohr) occupying 0.759435 of unit cell:	Completed after 2 iterations at t[s]:   5646.54
ElecMinimize: 	Step increased F by 7.260837e-08, reducing alpha to 1.376501e-02.
	Linear fluid (dielectric constant: 78.4, screening length: 5.74355 Bohr) occupying 0.759435 of unit cell:	Completed after 0 iterations at t[s]:   5681.26
	FillingsUpdate:  mu: -0.194554292  nElectrons: 401.000000  magneticMoment: [ Abs: 0.01300  Tot: -0.01065 ]
	SubspaceRotationAdjust: set factor to 0.202
ElecMinimize: Iter:   5  F: -1478.400581408748394  |grad|_K:  1.871e-08  alpha:  1.377e-02  linmin:  1.764e-04  t[s]:   5704.46
	Linear fluid (dielectric constant: 78.4, screening length: 5.74355 Bohr) occupying 0.759435 of unit cell:	Completed after 0 iterations at t[s]:   5717.48
ElecMinimize: 	Predicted alpha/alphaT>3.000000, increasing alphaT to 4.129504e-02.
	Linear fluid (dielectric constant: 78.4, screening length: 5.74355 Bohr) occupying 0.759435 of unit cell:	Completed after 0 iterations at t[s]:   5734.60
ElecMinimize: 	Predicted alpha/alphaT>3.000000, increasing alphaT to 1.238851e-01.
	Linear fluid (dielectric constant: 78.4, screening length: 5.74355 Bohr) occupying 0.759435 of unit cell:	Completed after 0 iterations at t[s]:   5751.77
	Linear fluid (dielectric constant: 78.4, screening length: 5.74355 Bohr) occupying 0.759435 of unit cell:	Completed after 0 iterations at t[s]:   5768.97
	FillingsUpdate:  mu: -0.194554429  nElectrons: 401.000000  magneticMoment: [ Abs: 0.01289  Tot: -0.01056 ]
	SubspaceRotationAdjust: set factor to 0.231
ElecMinimize: Iter:   6  F: -1478.400581427959651  |grad|_K:  1.080e-08  alpha:  3.515e-01  linmin: -6.236e-06  t[s]:   5792.09
	Linear fluid (dielectric constant: 78.4, screening length: 5.74355 Bohr) occupying 0.759435 of unit cell:	Completed after 0 iterations at t[s]:   5805.05
	Linear fluid (dielectric constant: 78.4, screening length: 5.74355 Bohr) occupying 0.759435 of unit cell:	Completed after 0 iterations at t[s]:   5822.17
	FillingsUpdate:  mu: -0.194554350  nElectrons: 401.000000  magneticMoment: [ Abs: 0.01281  Tot: -0.01050 ]
	SubspaceRotationAdjust: set factor to 0.279
ElecMinimize: Iter:   7  F: -1478.400581438957033  |grad|_K:  7.923e-09  alpha:  4.537e-01  linmin:  3.384e-06  t[s]:   5845.01
	Linear fluid (dielectric constant: 78.4, screening length: 5.74355 Bohr) occupying 0.759435 of unit cell:	Completed after 0 iterations at t[s]:   5858.21
	Linear fluid (dielectric constant: 78.4, screening length: 5.74355 Bohr) occupying 0.759435 of unit cell:	Completed after 0 iterations at t[s]:   5875.12
	FillingsUpdate:  mu: -0.194554150  nElectrons: 401.000000  magneticMoment: [ Abs: 0.01274  Tot: -0.01044 ]
	SubspaceRotationAdjust: set factor to 0.34
ElecMinimize: Iter:   8  F: -1478.400581444112049  |grad|_K:  6.338e-09  alpha:  3.994e-01  linmin: -3.621e-06  t[s]:   5898.37
	Linear fluid (dielectric constant: 78.4, screening length: 5.74355 Bohr) occupying 0.759435 of unit cell:	Completed after 1 iterations at t[s]:   5911.81
	Linear fluid (dielectric constant: 78.4, screening length: 5.74355 Bohr) occupying 0.759435 of unit cell:	Completed after 0 iterations at t[s]:   5929.72
ElecMinimize: 	Step increased F by 6.391383e-08, reducing alpha to 1.541451e-03.
	Linear fluid (dielectric constant: 78.4, screening length: 5.74355 Bohr) occupying 0.759435 of unit cell:	Completed after 0 iterations at t[s]:   5963.99
ElecMinimize: 	Step increased F by 6.342930e-08, reducing alpha to 1.541451e-04.
	Linear fluid (dielectric constant: 78.4, screening length: 5.74355 Bohr) occupying 0.759435 of unit cell:	Completed after 0 iterations at t[s]:   5998.20
ElecMinimize: 	Step increased F by 6.336995e-08, reducing alpha to 1.541451e-05.
ElecMinimize: 	Step failed to reduce F after 3 attempts. Quitting step.
ElecMinimize: 	Undoing step.
	Linear fluid (dielectric constant: 78.4, screening length: 5.74355 Bohr) occupying 0.759435 of unit cell:	Completed after 0 iterations at t[s]:   6032.63
ElecMinimize: 	Step failed: resetting search direction.
	FillingsUpdate:  mu: -0.194585059  nElectrons: 401.000000  magneticMoment: [ Abs: 0.01274  Tot: -0.01044 ]
	SubspaceRotationAdjust: set factor to 0.319
ElecMinimize: Iter:   9  F: -1478.400581380675931  |grad|_K:  2.916e-08  alpha:  1.541e-05
	Linear fluid (dielectric constant: 78.4, screening length: 5.74355 Bohr) occupying 0.759435 of unit cell:	Completed after 1 iterations at t[s]:   6069.11
	Linear fluid (dielectric constant: 78.4, screening length: 5.74355 Bohr) occupying 0.759435 of unit cell:	Completed after 0 iterations at t[s]:   6087.01
	FillingsUpdate:  mu: -0.194568895  nElectrons: 401.000000  magneticMoment: [ Abs: 0.01270  Tot: -0.01041 ]
	SubspaceRotationAdjust: set factor to 0.339
ElecMinimize: Iter:  10  F: -1478.400581433470734  |grad|_K:  6.442e-09  alpha:  3.277e-01  linmin: -1.162e-03  t[s]:   6110.27
	Linear fluid (dielectric constant: 78.4, screening length: 5.74355 Bohr) occupying 0.759435 of unit cell:	Completed after 0 iterations at t[s]:   6123.44
ElecMinimize: 	Predicted alpha/alphaT>3.000000, increasing alphaT to 9.831792e-01.
	Linear fluid (dielectric constant: 78.4, screening length: 5.74355 Bohr) occupying 0.759435 of unit cell:	Completed after 1 iterations at t[s]:   6141.32
	Linear fluid (dielectric constant: 78.4, screening length: 5.74355 Bohr) occupying 0.759435 of unit cell:	Completed after 0 iterations at t[s]:   6158.93
ElecMinimize: 	Step increased F by 1.519948e-08, reducing alpha to 1.940977e-02.
	Linear fluid (dielectric constant: 78.4, screening length: 5.74355 Bohr) occupying 0.759435 of unit cell:	Completed after 0 iterations at t[s]:   6193.20
ElecMinimize: 	Step increased F by 1.310377e-08, reducing alpha to 1.940977e-03.
	Linear fluid (dielectric constant: 78.4, screening length: 5.74355 Bohr) occupying 0.759435 of unit cell:	Completed after 0 iterations at t[s]:   6227.89
ElecMinimize: 	Step increased F by 1.287572e-08, reducing alpha to 1.940977e-04.
ElecMinimize: 	Step failed to reduce F after 3 attempts. Quitting step.
ElecMinimize: 	Undoing step.
	Linear fluid (dielectric constant: 78.4, screening length: 5.74355 Bohr) occupying 0.759435 of unit cell:	Completed after 0 iterations at t[s]:   6262.38
ElecMinimize: 	Step failed: resetting search direction.
	FillingsUpdate:  mu: -0.194544594  nElectrons: 401.000000  magneticMoment: [ Abs: 0.01270  Tot: -0.01041 ]
	SubspaceRotationAdjust: set factor to 0.279
ElecMinimize: Iter:  11  F: -1478.400581420529988  |grad|_K:  1.071e-08  alpha:  1.941e-04
	Linear fluid (dielectric constant: 78.4, screening length: 5.74355 Bohr) occupying 0.759435 of unit cell:	Completed after 0 iterations at t[s]:   6298.74
	Linear fluid (dielectric constant: 78.4, screening length: 5.74355 Bohr) occupying 0.759435 of unit cell:	Completed after 1 iterations at t[s]:   6316.69
ElecMinimize: 	Step increased F by 1.887611e-08, reducing alpha to 9.165426e-02.
	Linear fluid (dielectric constant: 78.4, screening length: 5.74355 Bohr) occupying 0.759435 of unit cell:	Completed after 0 iterations at t[s]:   6352.11
	FillingsUpdate:  mu: -0.194569130  nElectrons: 401.000000  magneticMoment: [ Abs: 0.01269  Tot: -0.01040 ]
	SubspaceRotationAdjust: set factor to 0.158
ElecMinimize: Iter:  12  F: -1478.400581431740193  |grad|_K:  6.108e-09  alpha:  9.165e-02  linmin:  4.252e-04  t[s]:   6375.05
	Linear fluid (dielectric constant: 78.4, screening length: 5.74355 Bohr) occupying 0.759435 of unit cell:	Completed after 0 iterations at t[s]:   6387.33
ElecMinimize: 	Predicted alpha/alphaT>3.000000, increasing alphaT to 2.749628e-01.
	Linear fluid (dielectric constant: 78.4, screening length: 5.74355 Bohr) occupying 0.759435 of unit cell:	Completed after 0 iterations at t[s]:   6403.18
ElecMinimize: 	Predicted alpha/alphaT>3.000000, increasing alphaT to 8.248883e-01.
	Linear fluid (dielectric constant: 78.4, screening length: 5.74355 Bohr) occupying 0.759435 of unit cell:	Completed after 0 iterations at t[s]:   6420.24
	Linear fluid (dielectric constant: 78.4, screening length: 5.74355 Bohr) occupying 0.759435 of unit cell:	Completed after 0 iterations at t[s]:   6437.12
	FillingsUpdate:  mu: -0.194569440  nElectrons: 401.000000  magneticMoment: [ Abs: 0.01255  Tot: -0.01028 ]
	SubspaceRotationAdjust: set factor to 0.217
ElecMinimize: Iter:  13  F: -1478.400581437597111  |grad|_K:  6.965e-09  alpha:  1.110e+00  linmin: -8.793e-07  t[s]:   6459.86
	Linear fluid (dielectric constant: 78.4, screening length: 5.74355 Bohr) occupying 0.759434 of unit cell:	Completed after 2 iterations at t[s]:   6473.40
	Linear fluid (dielectric constant: 78.4, screening length: 5.74355 Bohr) occupying 0.759435 of unit cell:	Completed after 0 iterations at t[s]:   6491.18
	FillingsUpdate:  mu: -0.194517559  nElectrons: 401.000000  magneticMoment: [ Abs: 0.01253  Tot: -0.01026 ]
	SubspaceRotationAdjust: set factor to 0.206
ElecMinimize: Iter:  14  F: -1478.400581437844721  |grad|_K:  3.190e-08  alpha:  9.776e-02  linmin:  2.185e-04  t[s]:   6514.25
ElecMinimize: Converged (|Delta F|<1.000000e-08 for 2 iters).
Setting wave functions to eigenvectors of Hamiltonian

# Ionic positions in lattice coordinates:
ion V   0.083332210555556   0.166667776027779   0.500000008835160 1
ion V   0.333332210555556   0.166667776027779   0.500000008835160 1
ion V   0.583332210555556   0.166667776027779   0.500000008835160 1
ion V   0.833332210555556   0.166667776027779   0.500000008835160 1
ion V   0.083332210555556   0.416667776027779   0.500000008835160 1
ion V   0.333332210555556   0.416667776027779   0.500000008835160 1
ion V   0.583332210555556   0.416667776027779   0.500000008835160 1
ion V   0.833332210555556   0.416667776027779   0.500000008835160 1
ion V   0.083332210555556   0.666667776027779   0.500000008835160 1
ion V   0.333332210555556   0.666667776027779   0.500000008835160 1
ion V   0.583332210555556   0.666667776027779   0.500000008835160 1
ion V   0.833332210555556   0.666667776027779   0.500000008835160 1
ion V   0.083332210555556   0.916667776027779   0.500000008835160 1
ion V   0.333332210555556   0.916667776027779   0.500000008835160 1
ion V   0.583332210555556   0.916667776027779   0.500000008835160 1
ion V   0.833332210555556   0.916667776027779   0.500000008835160 1
ion S  -0.000001122777777   0.000001109361112   0.417335129908416 1
ion S  -0.000001122777777   0.000001109361112   0.582664887761904 1
ion S   0.249998877222223   0.000001109361112   0.417335129908416 1
ion S   0.249998877222223   0.000001109361112   0.582664887761904 1
ion S   0.499998877222223   0.000001109361112   0.417335129908416 1
ion S   0.499998877222223   0.000001109361112   0.582664887761904 1
ion S   0.749998877222223   0.000001109361112   0.417335129908416 1
ion S   0.749998877222223   0.000001109361112   0.582664887761904 1
ion S   0.999998877222223   0.250001109361112   0.417335129908416 1
ion S   0.999998877222223   0.250001109361112   0.582664887761904 1
ion S   0.249998877222223   0.250001109361112   0.417335129908416 1
ion S   0.249998877222223   0.250001109361112   0.582664887761904 1
ion S   0.499998877222223   0.250001109361112   0.417335129908416 1
ion S   0.499998877222223   0.250001109361112   0.582664887761904 1
ion S   0.749998877222223   0.250001109361112   0.417335129908416 1
ion S   0.749998877222223   0.250001109361112   0.582664887761904 1
ion S   0.999998877222223   0.500001109361112   0.417335129908416 1
ion S   0.999998877222223   0.500001109361112   0.582664887761904 1
ion S   0.249998877222223   0.500001109361112   0.417335129908416 1
ion S   0.249998877222223   0.500001109361112   0.582664887761904 1
ion S   0.499998877222223   0.500001109361112   0.417335129908416 1
ion S   0.499998877222223   0.500001109361112   0.582664887761904 1
ion S   0.749998877222223   0.500001109361112   0.417335129908416 1
ion S   0.749998877222223   0.500001109361112   0.582664887761904 1
ion S   0.999998877222223   0.750001109361112   0.417335129908416 1
ion S   0.999998877222223   0.750001109361112   0.582664887761904 1
ion S   0.249998877222223   0.750001109361112   0.417335129908416 1
ion S   0.249998877222223   0.750001109361112   0.582664887761904 1
ion S   0.499998877222223   0.750001109361112   0.417335129908416 1
ion S   0.499998877222223   0.750001109361112   0.582664887761904 1
ion S   0.749998877222223   0.750001109361112   0.417335129908416 1
ion S   0.749998877222223   0.750001109361112   0.582664887761904 1


# Forces in Lattice coordinates:
force V  -0.000000000000000   0.000000000000000   0.000000000000000 1
force V  -0.000000000000000   0.000000000000000  -0.000000000000000 1
force V   0.000000000000000   0.000000000000000   0.000000000000000 1
[...]
force S   0.000000000000000  -0.000000000000000  -0.011567362993623 1
force S  -0.000000000000000  -0.000000000000000   0.011567362993736 1
force S  -0.000000000000000   0.000000000000000  -0.011567362993736 1
force S  -0.000000000000000  -0.000000000000000   0.011567362993735 1
force S  -0.000000000000000   0.000000000000000  -0.011567362993735 1
force S  -0.000000000000000  -0.000000000000000   0.011567362993735 1
force S  -0.000000000000000  -0.000000000000000  -0.011567362993509 1
force S  -0.000000000000000   0.000000000000000   0.011567362993508 1
force S  -0.000000000000000  -0.000000000000000  -0.011567362993623 1
force S  -0.000000000000000   0.000000000000000   0.011567362993509 1
force S   0.000000000000000   0.000000000000000  -0.011567362993735 1
force S   0.000000000000000  -0.000000000000000   0.011567362993736 1
force S   0.000000000000000  -0.000000000000000  -0.011567362993735 1
force S  -0.000000000000000  -0.000000000000000   0.011567362993736 1
force S   0.000000000000000  -0.000000000000000  -0.011567362993508 1
force S  -0.000000000000000  -0.000000000000000   0.011567362993509 1
force S   0.000000000000000  -0.000000000000000  -0.011567362993508 1
force S   0.000000000000000  -0.000000000000000   0.011567362993737 1
force S  -0.000000000000000   0.000000000000000  -0.011567362993508 1
force S  -0.000000000000000  -0.000000000000000   0.011567362993736 1
force S   0.000000000000000   0.000000000000000  -0.011567362993507 1
force S   0.000000000000000  -0.000000000000000   0.011567362993736 1
force S   0.000000000000000  -0.000000000000000  -0.011567362993736 1
force S  -0.000000000000000  -0.000000000000000   0.011567362993623 1
force S   0.000000000000000  -0.000000000000000  -0.011567362993621 1

# Energy components:
   A_diel =       -0.0941592614981614
   Eewald =     8151.2389132974240056
       EH =     9413.3797596663462173
     Eloc =   -19316.5127716484203120
      Enl =       79.7176280543576752
      Exc =     -292.4190982703897816
 Exc_core =       69.5498434681476141
       KE =      416.8535019387271632
  MuShift =       -0.0118186136596549
-------------------------------------
     Etot =    -1478.2982013689652376
       TS =        0.1023800688794335
-------------------------------------
        F =    -1478.4005814378447212

IonicMinimize: Iter:   1  F: -1478.400581437844721  |grad|_K:  1.605e-04  alpha:  1.000e+00  linmin: -1.000e+00  t[s]:   6527.02

#--- Lowdin population analysis ---
# oxidation-state V +0.616 +0.616 +0.616 +0.616 +0.616 +0.616 +0.616 +0.616 +0.616 +0.616 +0.616 +0.616 +0.616 +0.616 +0.616 +0.616
# magnetic-moments V -0.001 -0.001 -0.001 -0.001 -0.001 -0.001 -0.001 -0.001 -0.001 -0.001 -0.001 -0.001 -0.001 -0.001 -0.001 -0.001
# oxidation-state S -0.236 -0.236 -0.236 -0.236 -0.236 -0.236 -0.236 -0.236 -0.236 -0.236 -0.236 -0.236 -0.236 -0.236 -0.236 -0.236 -0.236 -0.236 -0.236 -0.236 -0.236 -0.236 -0.236 -0.236 -0.236 -0.236 -0.236 -0.236 -0.236 -0.236 -0.236 -0.236
# magnetic-moments S +0.000 +0.000 +0.000 +0.000 +0.000 +0.000 +0.000 +0.000 +0.000 +0.000 +0.000 +0.000 +0.000 +0.000 +0.000 +0.000 +0.000 +0.000 +0.000 +0.000 +0.000 +0.000 +0.000 +0.000 +0.000 +0.000 +0.000 +0.000 +0.000 +0.000 +0.000 +0.000

	Linear fluid (dielectric constant: 78.4, screening length: 5.74355 Bohr) occupying 0.759480 of unit cell:	Completed after 5 iterations at t[s]:   6541.86

-------- Electronic minimization -----------
	Linear fluid (dielectric constant: 78.4, screening length: 5.74355 Bohr) occupying 0.759480 of unit cell:	Completed after 0 iterations at t[s]:   6557.46
	FillingsUpdate:  mu: -0.195217689  nElectrons: 401.000000  magneticMoment: [ Abs: 0.01221  Tot: -0.00999 ]
ElecMinimize: Iter:   0  F: -1478.400573125368965  |grad|_K:  3.752e-07  alpha:  1.000e+00
	Linear fluid (dielectric constant: 78.4, screening length: 5.74355 Bohr) occupying 0.759488 of unit cell:	Completed after 8 iterations at t[s]:   6596.29
	Linear fluid (dielectric constant: 78.4, screening length: 5.74355 Bohr) occupying 0.759484 of unit cell:	Completed after 7 iterations at t[s]:   6616.78
	FillingsUpdate:  mu: -0.194493278  nElectrons: 401.000000  magneticMoment: [ Abs: 0.01217  Tot: -0.00997 ]
	SubspaceRotationAdjust: set factor to 0.214
ElecMinimize: Iter:   1  F: -1478.400586007101083  |grad|_K:  2.040e-07  alpha:  4.392e-01  linmin:  4.158e-05  t[s]:   6641.14
	Linear fluid (dielectric constant: 78.4, screening length: 5.74355 Bohr) occupying 0.759484 of unit cell:	Completed after 2 iterations at t[s]:   6654.45
	Linear fluid (dielectric constant: 78.4, screening length: 5.74355 Bohr) occupying 0.759484 of unit cell:	Completed after 0 iterations at t[s]:   6672.25
	FillingsUpdate:  mu: -0.194517397  nElectrons: 401.000000  magneticMoment: [ Abs: 0.01212  Tot: -0.00994 ]
	SubspaceRotationAdjust: set factor to 0.281
ElecMinimize: Iter:   2  F: -1478.400590057600539  |grad|_K:  1.065e-07  alpha:  4.695e-01  linmin: -1.422e-03  t[s]:   6695.04
	Linear fluid (dielectric constant: 78.4, screening length: 5.74355 Bohr) occupying 0.759484 of unit cell:	Completed after 0 iterations at t[s]:   6708.10
	Linear fluid (dielectric constant: 78.4, screening length: 5.74355 Bohr) occupying 0.759483 of unit cell:	Completed after 2 iterations at t[s]:   6725.48
	FillingsUpdate:  mu: -0.194625887  nElectrons: 401.000000  magneticMoment: [ Abs: 0.01200  Tot: -0.00985 ]
	SubspaceRotationAdjust: set factor to 0.343
ElecMinimize: Iter:   3  F: -1478.400592517243240  |grad|_K:  9.547e-08  alpha:  1.171e+00  linmin:  1.580e-03  t[s]:   6749.04
	Linear fluid (dielectric constant: 78.4, screening length: 5.74355 Bohr) occupying 0.759483 of unit cell:	Completed after 3 iterations at t[s]:   6762.94
	Linear fluid (dielectric constant: 78.4, screening length: 5.74355 Bohr) occupying 0.759483 of unit cell:	Completed after 1 iterations at t[s]:   6780.82
	FillingsUpdate:  mu: -0.194566651  nElectrons: 401.000000  magneticMoment: [ Abs: 0.01189  Tot: -0.00975 ]
	SubspaceRotationAdjust: set factor to 0.364
ElecMinimize: Iter:   4  F: -1478.400593604112828  |grad|_K:  7.579e-08  alpha:  6.875e-01  linmin:  3.602e-05  t[s]:   6804.21
	Linear fluid (dielectric constant: 78.4, screening length: 5.74355 Bohr) occupying 0.759482 of unit cell:	Completed after 2 iterations at t[s]:   6817.67
	Linear fluid (dielectric constant: 78.4, screening length: 5.74355 Bohr) occupying 0.759483 of unit cell:	Completed after 0 iterations at t[s]:   6835.58
	FillingsUpdate:  mu: -0.194615634  nElectrons: 401.000000  magneticMoment: [ Abs: 0.01179  Tot: -0.00967 ]
	SubspaceRotationAdjust: set factor to 0.367
ElecMinimize: Iter:   5  F: -1478.400594161006211  |grad|_K:  5.850e-08  alpha:  4.673e-01  linmin:  2.543e-04  t[s]:   6858.57
	Linear fluid (dielectric constant: 78.4, screening length: 5.74355 Bohr) occupying 0.759483 of unit cell:	Completed after 2 iterations at t[s]:   6872.16
	Linear fluid (dielectric constant: 78.4, screening length: 5.74355 Bohr) occupying 0.759483 of unit cell:	Completed after 0 iterations at t[s]:   6889.80
	FillingsUpdate:  mu: -0.194558275  nElectrons: 401.000000  magneticMoment: [ Abs: 0.01170  Tot: -0.00959 ]
	SubspaceRotationAdjust: set factor to 0.317
ElecMinimize: Iter:   6  F: -1478.400594394200880  |grad|_K:  3.739e-08  alpha:  3.765e-01  linmin: -2.123e-04  t[s]:   6912.64
	Linear fluid (dielectric constant: 78.4, screening length: 5.74355 Bohr) occupying 0.759482 of unit cell:	Completed after 0 iterations at t[s]:   6925.63
	Linear fluid (dielectric constant: 78.4, screening length: 5.74355 Bohr) occupying 0.759482 of unit cell:	Completed after 2 iterations at t[s]:   6943.10
	FillingsUpdate:  mu: -0.194606958  nElectrons: 401.000000  magneticMoment: [ Abs: 0.01156  Tot: -0.00948 ]
	SubspaceRotationAdjust: set factor to 0.245
ElecMinimize: Iter:   7  F: -1478.400594492284881  |grad|_K:  3.255e-08  alpha:  6.464e-01  linmin:  6.087e-04  t[s]:   6966.64
	Linear fluid (dielectric constant: 78.4, screening length: 5.74355 Bohr) occupying 0.759483 of unit cell:	Completed after 0 iterations at t[s]:   6979.69
	Linear fluid (dielectric constant: 78.4, screening length: 5.74355 Bohr) occupying 0.759482 of unit cell:	Completed after 0 iterations at t[s]:   6996.52
	FillingsUpdate:  mu: -0.194607026  nElectrons: 401.000000  magneticMoment: [ Abs: 0.01147  Tot: -0.00940 ]
	SubspaceRotationAdjust: set factor to 0.309
ElecMinimize: Iter:   8  F: -1478.400594533861977  |grad|_K:  2.281e-08  alpha:  3.427e-01  linmin:  2.021e-07  t[s]:   7019.43
	Linear fluid (dielectric constant: 78.4, screening length: 5.74355 Bohr) occupying 0.759483 of unit cell:	Completed after 0 iterations at t[s]:   7032.42
	Linear fluid (dielectric constant: 78.4, screening length: 5.74355 Bohr) occupying 0.759483 of unit cell:	Completed after 0 iterations at t[s]:   7049.40
	FillingsUpdate:  mu: -0.194603988  nElectrons: 401.000000  magneticMoment: [ Abs: 0.01137  Tot: -0.00932 ]
	SubspaceRotationAdjust: set factor to 0.379
ElecMinimize: Iter:   9  F: -1478.400594575318564  |grad|_K:  2.139e-08  alpha:  4.868e-01  linmin:  6.005e-05  t[s]:   7072.75
	Linear fluid (dielectric constant: 78.4, screening length: 5.74355 Bohr) occupying 0.759484 of unit cell:	Completed after 2 iterations at t[s]:   7086.43
	Linear fluid (dielectric constant: 78.4, screening length: 5.74355 Bohr) occupying 0.759483 of unit cell:	Completed after 0 iterations at t[s]:   7103.99
	FillingsUpdate:  mu: -0.194512389  nElectrons: 401.000000  magneticMoment: [ Abs: 0.01135  Tot: -0.00930 ]
	SubspaceRotationAdjust: set factor to 0.344
ElecMinimize: Iter:  10  F: -1478.400594579786230  |grad|_K:  5.523e-08  alpha:  8.700e-02  linmin:  5.927e-04  t[s]:   7127.14
ElecMinimize: 	Bad step direction: g.d > 0.
ElecMinimize: 	Undoing step.
	Linear fluid (dielectric constant: 78.4, screening length: 5.74355 Bohr) occupying 0.759483 of unit cell:	Completed after 0 iterations at t[s]:   7140.24
ElecMinimize: 	Step failed: resetting search direction.
	FillingsUpdate:  mu: -0.194512389  nElectrons: 401.000000  magneticMoment: [ Abs: 0.01135  Tot: -0.00930 ]
	SubspaceRotationAdjust: set factor to 0.328
ElecMinimize: Iter:  11  F: -1478.400594579760764  |grad|_K:  5.380e-08  alpha:  0.000e+00
	Linear fluid (dielectric constant: 78.4, screening length: 5.74355 Bohr) occupying 0.759483 of unit cell:	Completed after 2 iterations at t[s]:   7176.37
	Linear fluid (dielectric constant: 78.4, screening length: 5.74355 Bohr) occupying 0.759483 of unit cell:	Completed after 0 iterations at t[s]:   7194.17
ElecMinimize: 	Step increased F by 1.836679e-08, reducing alpha to 4.117456e-03.
	Linear fluid (dielectric constant: 78.4, screening length: 5.74355 Bohr) occupying 0.759483 of unit cell:	Completed after 0 iterations at t[s]:   7228.05
ElecMinimize: 	Step increased F by 3.002765e-08, reducing alpha to 4.117456e-04.
	Linear fluid (dielectric constant: 78.4, screening length: 5.74355 Bohr) occupying 0.759483 of unit cell:	Completed after 0 iterations at t[s]:   7261.86
ElecMinimize: 	Step increased F by 3.125501e-08, reducing alpha to 4.117456e-05.
ElecMinimize: 	Step failed to reduce F after 3 attempts. Quitting step.
ElecMinimize: 	Undoing step.
	Linear fluid (dielectric constant: 78.4, screening length: 5.74355 Bohr) occupying 0.759483 of unit cell:	Completed after 0 iterations at t[s]:   7295.51
ElecMinimize: 	Step failed along negative gradient direction.
ElecMinimize: Probably at roundoff error limit. (Stopping)
Setting wave functions to eigenvectors of Hamiltonian

# Ionic positions in lattice coordinates:
ion V   0.083332210555556   0.166667776027779   0.500000008835160 1
ion V   0.333332210555556   0.166667776027779   0.500000008835160 1
ion V   0.583332210555556   0.166667776027779   0.500000008835160 1
ion V   0.833332210555556   0.166667776027779   0.500000008835160 1
ion V   0.083332210555556   0.416667776027779   0.500000008835160 1
ion V   0.333332210555556   0.416667776027779   0.500000008835160 1
ion V   0.583332210555556   0.416667776027779   0.500000008835160 1
ion V   0.833332210555556   0.416667776027779   0.500000008835160 1
ion V   0.083332210555556   0.666667776027779   0.500000008835160 1
ion V   0.333332210555556   0.666667776027779   0.500000008835160 1
ion V   0.583332210555556   0.666667776027779   0.500000008835160 1
ion V   0.833332210555556   0.666667776027779   0.500000008835160 1
ion V   0.083332210555556   0.916667776027779   0.500000008835160 1
ion V   0.333332210555556   0.916667776027779   0.500000008835160 1
ion V   0.583332210555556   0.916667776027779   0.500000008835160 1
ion V   0.833332210555556   0.916667776027779   0.500000008835160 1
ion S  -0.000001122777777   0.000001109361112   0.417389287774035 1
ion S  -0.000001122777777   0.000001109361112   0.582610729896285 1
ion S   0.249998877222223   0.000001109361112   0.417389287774035 1
ion S   0.249998877222223   0.000001109361112   0.582610729896285 1
ion S   0.499998877222223   0.000001109361112   0.417389287774035 1
ion S   0.499998877222223   0.000001109361112   0.582610729896285 1
ion S   0.749998877222223   0.000001109361112   0.417389287774035 1
ion S   0.749998877222223   0.000001109361112   0.582610729896285 1
ion S   0.999998877222223   0.250001109361112   0.417389287774035 1
ion S   0.999998877222223   0.250001109361112   0.582610729896285 1
ion S   0.249998877222223   0.250001109361112   0.417389287774035 1
ion S   0.249998877222223   0.250001109361112   0.582610729896285 1
ion S   0.499998877222223   0.250001109361112   0.417389287774035 1
ion S   0.499998877222223   0.250001109361112   0.582610729896285 1
ion S   0.749998877222223   0.250001109361112   0.417389287774035 1
ion S   0.749998877222223   0.250001109361112   0.582610729896285 1
ion S   0.999998877222223   0.500001109361112   0.417389287774035 1
ion S   0.999998877222223   0.500001109361112   0.582610729896285 1
ion S   0.249998877222223   0.500001109361112   0.417389287774035 1
ion S   0.249998877222223   0.500001109361112   0.582610729896285 1
ion S   0.499998877222223   0.500001109361112   0.417389287774035 1
ion S   0.499998877222223   0.500001109361112   0.582610729896285 1
ion S   0.749998877222223   0.500001109361112   0.417389287774035 1
ion S   0.749998877222223   0.500001109361112   0.582610729896285 1
ion S   0.999998877222223   0.750001109361112   0.417389287774035 1
ion S   0.999998877222223   0.750001109361112   0.582610729896285 1
ion S   0.249998877222223   0.750001109361112   0.417389287774035 1
ion S   0.249998877222223   0.750001109361112   0.582610729896285 1
ion S   0.499998877222223   0.750001109361112   0.417389287774035 1
ion S   0.499998877222223   0.750001109361112   0.582610729896285 1
ion S   0.749998877222223   0.750001109361112   0.417389287774035 1
ion S   0.749998877222223   0.750001109361112   0.582610729896285 1


# Forces in Lattice coordinates:
force V  -0.000000000000000  -0.000000000000000  -0.000000000000000 1
force V   0.000000000000000  -0.000000000000000  -0.000000000000000 1
force V  -0.000000000000000  -0.000000000000000  -0.000000000000000 1
force V  -0.000000000000000  -0.000000000000000  -0.000000000000000 1
force V  -0.000000000000000  -0.000000000000000  -0.000000000000000 1
force V  -0.000000000000000  -0.000000000000000  -0.000000000000000 1
force V   0.000000000000000  -0.000000000000000  -0.000000000000000 1
force V   0.000000000000000  -0.000000000000000  -0.000000000000000 1
force V   0.000000000000000  -0.000000000000000   0.000000000000000 1
force V  -0.000000000000000  -0.000000000000000   0.000000000000000 1
force V  -0.000000000000000  -0.000000000000000   0.000000000000000 1
force V  -0.000000000000000  -0.000000000000000  -0.000000000000000 1
force V  -0.000000000000000   0.000000000000000  -0.000000000000000 1
force V  -0.000000000000000   0.000000000000000   0.000000000000000 1
force V  -0.000000000000000   0.000000000000000   0.000000000000000 1
force V   0.000000000000000  -0.000000000000000  -0.000000000000000 1
force S   0.000000000000000   0.000000000000000   0.003693677265911 1
force S  -0.000000000000000  -0.000000000000000  -0.003693677265911 1
force S   0.000000000000000   0.000000000000000   0.003693677265798 1
force S   0.000000000000000  -0.000000000000000  -0.003693677265797 1
force S   0.000000000000000   0.000000000000000   0.003693677265911 1
force S  -0.000000000000000  -0.000000000000000  -0.003693677265797 1
force S   0.000000000000000   0.000000000000000   0.003693677265797 1
force S  -0.000000000000000  -0.000000000000000  -0.003693677265911 1
force S   0.000000000000000  -0.000000000000000   0.003693677265798 1
force S  -0.000000000000000  -0.000000000000000  -0.003693677265910 1
force S  -0.000000000000000  -0.000000000000000   0.003693677265797 1
force S   0.000000000000000   0.000000000000000  -0.003693677265910 1
force S   0.000000000000000   0.000000000000000   0.003693677265798 1
force S   0.000000000000000  -0.000000000000000  -0.003693677265796 1
force S   0.000000000000000   0.000000000000000   0.003693677265911 1
force S  -0.000000000000000  -0.000000000000000  -0.003693677265796 1
force S  -0.000000000000000  -0.000000000000000   0.003693677265798 1
force S  -0.000000000000000  -0.000000000000000  -0.003693677265798 1
force S  -0.000000000000000   0.000000000000000   0.003693677265798 1
force S  -0.000000000000000  -0.000000000000000  -0.003693677265912 1
force S  -0.000000000000000   0.000000000000000   0.003693677265797 1
force S   0.000000000000000  -0.000000000000000  -0.003693677265912 1
force S   0.000000000000000   0.000000000000000   0.003693677265798 1
force S   0.000000000000000  -0.000000000000000  -0.003693677265798 1
force S  -0.000000000000000   0.000000000000000   0.003693677265798 1
force S  -0.000000000000000  -0.000000000000000  -0.003693677265799 1
force S  -0.000000000000000   0.000000000000000   0.003693677265912 1
force S  -0.000000000000000  -0.000000000000000  -0.003693677265799 1
force S   0.000000000000000   0.000000000000000   0.003693677265912 1
force S  -0.000000000000000  -0.000000000000000  -0.003693677265799 1
force S  -0.000000000000000   0.000000000000000   0.003693677266025 1
force S  -0.000000000000000  -0.000000000000000  -0.003693677265913 1

# Energy components:
   A_diel =       -0.0941698885967125
   Eewald =     8152.3780752789407416
       EH =     9414.5119583570703981
     Eloc =   -19318.8032382936326030
      Enl =       79.7176473950137279
      Exc =     -292.4294423155045024
 Exc_core =       69.5498439487936935
       KE =      416.8828499718659941
  MuShift =       -0.0118186136596549
-------------------------------------
     Etot =    -1478.2982941597083482
       TS =        0.1023003887873272
-------------------------------------
        F =    -1478.4005945484957465

IonicMinimize: Iter:   2  F: -1478.400594548495746  |grad|_K:  5.125e-05  alpha:  1.000e+00  linmin: -1.000e+00  t[s]:   7331.09
IonicMinimize: Converged (|grad|_K<1.000000e-04).

#--- Lowdin population analysis ---
# oxidation-state V +0.614 +0.614 +0.614 +0.614 +0.614 +0.614 +0.614 +0.614 +0.614 +0.614 +0.614 +0.614 +0.614 +0.614 +0.614 +0.614
# magnetic-moments V -0.001 -0.001 -0.001 -0.001 -0.001 -0.001 -0.001 -0.001 -0.001 -0.001 -0.001 -0.001 -0.001 -0.001 -0.001 -0.001
# oxidation-state S -0.235 -0.235 -0.235 -0.235 -0.235 -0.235 -0.235 -0.235 -0.235 -0.235 -0.235 -0.235 -0.235 -0.235 -0.235 -0.235 -0.235 -0.235 -0.235 -0.235 -0.235 -0.235 -0.235 -0.235 -0.235 -0.235 -0.235 -0.235 -0.235 -0.235 -0.235 -0.235
# magnetic-moments S +0.000 +0.000 +0.000 +0.000 +0.000 +0.000 +0.000 +0.000 +0.000 +0.000 +0.000 +0.000 +0.000 +0.000 +0.000 +0.000 +0.000 +0.000 +0.000 +0.000 +0.000 +0.000 +0.000 +0.000 +0.000 +0.000 +0.000 +0.000 +0.000 +0.000 +0.000 +0.000


Dumping 'NbTe2.fillings' ... done
Dumping 'NbTe2.wfns' ... done
Dumping 'NbTe2.fluidState' ... done
Dumping 'NbTe2.ionpos' ... done
Dumping 'NbTe2.eigenvals' ... done
End date and time: Wed Feb  3 19:55:09 2021  (Duration: 0-2:02:16.95)
Done!
