
*************** JDFTx 1.5.0  ***************

Start date and time: Sun Apr 25 14:00:33 2021
Executable jdftx_gpu with command-line: -i Charged.in -o Charged.out
Running on hosts (process indices):  amax (0-6)
Divided in process groups (process indices):  0 (0)  1 (1)  2 (2)  3 (3)  4 (4)  5 (5)  6 (6)
gpuInit: Found compatible cuda device 0 'Tesla K80'
gpuInit: Found compatible cuda device 1 'Tesla K80'
gpuInit: Found compatible cuda device 2 'Tesla K80'
gpuInit: Found compatible cuda device 3 'Tesla K80'
gpuInit: Found compatible cuda device 4 'Tesla K80'
gpuInit: Found compatible cuda device 5 'Tesla K80'
gpuInit: Found compatible cuda device 6 'Tesla K80'
gpuInit: Selected device 0
Resource initialization completed at t[s]:      3.54
Run totals: 7 processes, 24 threads, 7 GPUs


Input parsed successfully to the following command list (including defaults):

basis kpoint-dependent
cache-projectors no
coords-type Lattice
core-overlap-check none
coulomb-interaction Slab 001
coulomb-truncation-embed 0.5 0.5 0.5
davidson-band-ratio 1.1
dump End State
dump-name NbTe2.$VAR
elec-cutoff 20
elec-eigen-algo Davidson
elec-ex-corr gga-PBE
elec-initial-charge 0.000000
elec-smearing Gauss 0.0073499
electronic-minimize  \
	dirUpdateScheme      FletcherReeves \
	linminMethod         DirUpdateRecommended \
	nIterations          200 \
	history              15 \
	knormThreshold       0 \
	energyDiffThreshold  1e-08 \
	nEnergyDiff          2 \
	alphaTstart          1 \
	alphaTmin            1e-10 \
	updateTestStepSize   yes \
	alphaTreduceFactor   0.1 \
	alphaTincreaseFactor 3 \
	nAlphaAdjustMax      3 \
	wolfeEnergy          0.0001 \
	wolfeGradient        0.9 \
	fdTest               no
exchange-regularization WignerSeitzTruncated
fluid LinearPCM 298.000000 1.013250
fluid-anion F- 1 MeanFieldLJ \
	epsBulk 1 \
	pMol 0 \
	epsInf 1 \
	Pvap 0 \
	sigmaBulk 0 \
	Rvdw 2.24877 \
	Res 0 \
	tauNuc 343133
fluid-cation Na+ 1 MeanFieldLJ \
	epsBulk 1 \
	pMol 0 \
	epsInf 1 \
	Pvap 0 \
	sigmaBulk 0 \
	Rvdw 2.19208 \
	Res 0 \
	tauNuc 343133
fluid-ex-corr lda-TF lda-PZ
fluid-gummel-loop 10 1.000000e-05
fluid-minimize  \
	dirUpdateScheme      PolakRibiere \
	linminMethod         DirUpdateRecommended \
	nIterations          400 \
	history              15 \
	knormThreshold       1e-11 \
	energyDiffThreshold  0 \
	nEnergyDiff          2 \
	alphaTstart          1 \
	alphaTmin            1e-10 \
	updateTestStepSize   yes \
	alphaTreduceFactor   0.1 \
	alphaTincreaseFactor 3 \
	nAlphaAdjustMax      6 \
	wolfeEnergy          0.0001 \
	wolfeGradient        0.9 \
	fdTest               no
fluid-solvent H2O 55.338 ScalarEOS \
	epsBulk 78.4 \
	pMol 0.92466 \
	epsInf 1.77 \
	Pvap 1.06736e-10 \
	sigmaBulk 4.62e-05 \
	Rvdw 2.61727 \
	Res 1.42 \
	tauNuc 343133 \
	poleEl 15 7 1
forces-output-coords Positions
initial-state NbTe2.$VAR
ion V   0.166669989000000   0.166669998000000   0.617878539082059 1
ion V   0.000000000000000   0.166669998000000   0.499995005754089 1
ion V   0.166669989000000   0.166669998000000   0.382121438980553 1
ion V   0.500000000000000   0.166669998000000   0.617878539082059 1
ion V   0.333330011000000   0.166669998000000   0.499995005754089 1
ion V   0.500000000000000   0.166669998000000   0.382121438980553 1
ion V   0.833329983000000   0.166669998000000   0.617878539082059 1
ion V   0.666670017000000   0.166669998000000   0.499995005754089 1
ion V   0.833329983000000   0.166669998000000   0.382121438980553 1
ion V   0.166669989000000   0.500000000000000   0.617878539082059 1
ion V   0.000000000000000   0.500000000000000   0.499995005754089 1
ion V   0.166669989000000   0.500000000000000   0.382121438980553 1
ion V   0.500000000000000   0.500000000000000   0.617878539082059 1
ion V   0.333330011000000   0.500000000000000   0.499995005754089 1
ion V   0.500000000000000   0.500000000000000   0.382121438980553 1
ion V   0.833329983000000   0.500000000000000   0.617878539082059 1
ion V   0.666670017000000   0.500000000000000   0.499995005754089 1
ion V   0.833329983000000   0.500000000000000   0.382121438980553 1
ion V   0.166669989000000   0.833330002000000   0.617878539082059 1
ion V   0.000000000000000   0.833330002000000   0.499995005754089 1
ion V   0.166669989000000   0.833330002000000   0.382121438980553 1
ion V   0.500000000000000   0.833330002000000   0.617878539082059 1
ion V   0.333330011000000   0.833330002000000   0.499995005754089 1
ion V   0.500000000000000   0.833330002000000   0.382121438980553 1
ion V   0.833329983000000   0.833330002000000   0.617878539082059 1
ion V   0.666670017000000   0.833330002000000   0.499995005754089 1
ion V   0.833329983000000   0.833330002000000   0.382121438980553 1
ion B   0.000000000000000   0.000000000000000   0.575649054354566 1
ion B   0.166669989000000   0.000000000000000   0.539472335413887 1
ion B   0.000000000000000   0.000000000000000   0.424350924705199 1
ion B   0.166669989000000   0.000000000000000   0.460527643645878 1
ion B   0.333330011000000   0.000000000000000   0.575649054354566 1
ion B   0.500000000000000   0.000000000000000   0.539472335413887 1
ion B   0.333330011000000   0.000000000000000   0.424350924705199 1
ion B   0.500000000000000   0.000000000000000   0.460527643645878 1
ion B   0.666670017000000   0.000000000000000   0.575649054354566 1
ion B   0.833329983000000   0.000000000000000   0.539472335413887 1
ion B   0.666670017000000   0.000000000000000   0.424350924705199 1
ion B   0.833329983000000   0.000000000000000   0.460527643645878 1
ion B   0.000000000000000   0.333330002000000   0.575649054354566 1
ion B   0.166669989000000   0.333330002000000   0.539472335413887 1
ion B   0.000000000000000   0.333330002000000   0.424350924705199 1
ion B   0.166669989000000   0.333330002000000   0.460527643645878 1
ion B   0.333330011000000   0.333330002000000   0.575649054354566 1
ion B   0.500000000000000   0.333330002000000   0.539472335413887 1
ion B   0.333330011000000   0.333330002000000   0.424350924705199 1
ion B   0.500000000000000   0.333330002000000   0.460527643645878 1
ion B   0.666670017000000   0.333330002000000   0.575649054354566 1
ion B   0.833329983000000   0.333330002000000   0.539472335413887 1
ion B   0.666670017000000   0.333330002000000   0.424350924705199 1
ion B   0.833329983000000   0.333330002000000   0.460527643645878 1
ion B   0.000000000000000   0.666669998000000   0.575649054354566 1
ion B   0.166669989000000   0.666669998000000   0.539472335413887 1
ion B   0.000000000000000   0.666669998000000   0.424350924705199 1
ion B   0.166669989000000   0.666669998000000   0.460527643645878 1
ion B   0.333330011000000   0.666669998000000   0.575649054354566 1
ion B   0.500000000000000   0.666669998000000   0.539472335413887 1
ion B   0.333330011000000   0.666669998000000   0.424350924705199 1
ion B   0.500000000000000   0.666669998000000   0.460527643645878 1
ion B   0.666670017000000   0.666669998000000   0.575649054354566 1
ion B   0.833329983000000   0.666669998000000   0.539472335413887 1
ion B   0.666670017000000   0.666669998000000   0.424350924705199 1
ion B   0.833329983000000   0.666669998000000   0.460527643645878 1
ion O   0.000000000000000   0.166669998000000   0.667855949436645 1
ion O   0.000000000000000   0.166669998000000   0.332144050563355 1
ion O   0.333330011000000   0.166669998000000   0.667855949436645 1
ion O   0.333330011000000   0.166669998000000   0.332144050563355 1
ion O   0.666670017000000   0.166669998000000   0.667855949436645 1
ion O   0.666670017000000   0.166669998000000   0.332144050563355 1
ion O   0.000000000000000   0.500000000000000   0.667855949436645 1
ion O   0.000000000000000   0.500000000000000   0.332144050563355 1
ion O   0.333330011000000   0.500000000000000   0.667855949436645 1
ion O   0.333330011000000   0.500000000000000   0.332144050563355 1
ion O   0.666670017000000   0.500000000000000   0.667855949436645 1
ion O   0.666670017000000   0.500000000000000   0.332144050563355 1
ion O   0.000000000000000   0.833330002000000   0.667855949436645 1
ion O   0.000000000000000   0.833330002000000   0.332144050563355 1
ion O   0.333330011000000   0.833330002000000   0.667855949436645 1
ion O   0.333330011000000   0.833330002000000   0.332144050563355 1
ion O   0.666670017000000   0.833330002000000   0.667855949436645 1
ion O   0.666670017000000   0.833330002000000   0.332144050563355 1
ion-species GBRV/$ID_pbe.uspp
ion-width Ecut
ionic-minimize  \
	dirUpdateScheme      L-BFGS \
	linminMethod         DirUpdateRecommended \
	nIterations          500 \
	history              15 \
	knormThreshold       0.0001 \
	energyDiffThreshold  1e-06 \
	nEnergyDiff          2 \
	alphaTstart          1 \
	alphaTmin            1e-10 \
	updateTestStepSize   yes \
	alphaTreduceFactor   0.1 \
	alphaTincreaseFactor 3 \
	nAlphaAdjustMax      3 \
	wolfeEnergy          0.0001 \
	wolfeGradient        0.9 \
	fdTest               no
kpoint   0.000000000000   0.000000000000   0.000000000000  1.00000000000000
kpoint-folding 4 4 1 
latt-move-scale 1 1 1
latt-scale 1.88973 1.88973 1.88973 
lattice Triclinic 8.6349 8.9695 22.5806 90 90 90
lattice-minimize  \
	dirUpdateScheme      L-BFGS \
	linminMethod         DirUpdateRecommended \
	nIterations          0 \
	history              15 \
	knormThreshold       0 \
	energyDiffThreshold  1e-06 \
	nEnergyDiff          2 \
	alphaTstart          1 \
	alphaTmin            1e-10 \
	updateTestStepSize   yes \
	alphaTreduceFactor   0.1 \
	alphaTincreaseFactor 3 \
	nAlphaAdjustMax      3 \
	wolfeEnergy          0.0001 \
	wolfeGradient        0.9 \
	fdTest               no
lcao-params -1 1e-06 0.0073499
pcm-variant CANDLE
spintype no-spin
subspace-rotation-factor 1 yes
symmetries automatic
symmetry-threshold 0.0001



---------- Setting up symmetries ----------

Found 8 point-group symmetries of the bravais lattice
Found 56 space-group symmetries with basis
Applied RMS atom displacement 7.2764e-05 bohrs to make symmetries exact.

---------- Initializing the Grid ----------
R = 
[    16.3176          0          0  ]
[          0    16.9499          0  ]
[          0          0    42.6711  ]
unit cell volume = 11802
G =
[   0.385056          0          0  ]
[          0   0.370692          0  ]
[          0          0   0.147247  ]
Minimum fftbox size, Smin = [  68  72  172  ]
Chosen fftbox size, S = [  70  72  180  ]

---------- Exchange Correlation functional ----------
Initalized PBE GGA exchange.
Initalized PBE GGA correlation.

---------- Setting up pseudopotentials ----------
Width of ionic core gaussian charges (only for fluid interactions / plotting) set to 0.397384

Reading pseudopotential file '/home/guoxy/vasp/jdftx-1.5.0/build/pseudopotentials/GBRV/v_pbe.uspp':
  Title: V.  Created by USPP 7.3.6 on 31-3-15
  Reference state energy: -72.228583.  13 valence electrons in orbitals:
    |300>  occupation: 2  eigenvalue: -2.581040
    |310>  occupation: 6  eigenvalue: -1.618497
    |400>  occupation: 2  eigenvalue: -0.172800
    |320>  occupation: 3  eigenvalue: -0.189802
  lMax: 2  lLocal: 3  QijEcut: 6
  6 projectors sampled on a log grid with 593 points:
    l: 0  eig: -2.581041  rCut: 1.5
    l: 0  eig: -0.172801  rCut: 1.5
    l: 1  eig: -1.618497  rCut: 1.6
    l: 1  eig: 0.150000  rCut: 1.6
    l: 2  eig: -0.189802  rCut: 1.7
    l: 2  eig: 0.150000  rCut: 1.7
  Partial core density with radius 0.8
  Transforming core density to a uniform radial grid of dG=0.02 with 1162 points.
  Transforming local potential to a uniform radial grid of dG=0.02 with 1162 points.
  Transforming nonlocal projectors to a uniform radial grid of dG=0.02 with 432 points.
  Transforming density augmentations to a uniform radial grid of dG=0.02 with 1162 points.
  Transforming atomic orbitals to a uniform radial grid of dG=0.02 with 432 points.
  Core radius for overlap checks: 1.80 bohrs.

Reading pseudopotential file '/home/guoxy/vasp/jdftx-1.5.0/build/pseudopotentials/GBRV/b_pbe.uspp':
  Title: B.  Created by USPP 7.3.6 on 8-4-15
  Reference state energy: -2.950027.  3 valence electrons in orbitals:
    |200>  occupation: 2  eigenvalue: -0.346865
    |210>  occupation: 1  eigenvalue: -0.132618
  lMax: 1  lLocal: 2  QijEcut: 6
  4 projectors sampled on a log grid with 559 points:
    l: 0  eig: -0.346865  rCut: 1.25
    l: 0  eig: -0.500000  rCut: 1.25
    l: 1  eig: -0.346865  rCut: 1.25
    l: 1  eig: -1.000000  rCut: 1.25
  Partial core density with radius 0.9
  Transforming core density to a uniform radial grid of dG=0.02 with 1162 points.
  Transforming local potential to a uniform radial grid of dG=0.02 with 1162 points.
  Transforming nonlocal projectors to a uniform radial grid of dG=0.02 with 432 points.
  Transforming density augmentations to a uniform radial grid of dG=0.02 with 1162 points.
  Transforming atomic orbitals to a uniform radial grid of dG=0.02 with 432 points.
  Core radius for overlap checks: 1.25 bohrs.

Reading pseudopotential file '/home/guoxy/vasp/jdftx-1.5.0/build/pseudopotentials/GBRV/o_pbe.uspp':
  Title: O.  Created by USPP 7.3.6 on 3-2-2014
  Reference state energy: -15.894388.  6 valence electrons in orbitals:
    |200>  occupation: 2  eigenvalue: -0.878823
    |210>  occupation: 4  eigenvalue: -0.332131
  lMax: 2  lLocal: 2  QijEcut: 6
  5 projectors sampled on a log grid with 511 points:
    l: 0  eig: -0.878823  rCut: 1.25
    l: 0  eig: 0.000000  rCut: 1.25
    l: 1  eig: -0.332132  rCut: 1.25
    l: 1  eig: 0.000000  rCut: 1.25
    l: 2  eig: 1.000000  rCut: 1.25
  Partial core density with radius 0.7
  Transforming core density to a uniform radial grid of dG=0.02 with 1162 points.
  Transforming local potential to a uniform radial grid of dG=0.02 with 1162 points.
  Transforming nonlocal projectors to a uniform radial grid of dG=0.02 with 432 points.
  Transforming density augmentations to a uniform radial grid of dG=0.02 with 1162 points.
  Transforming atomic orbitals to a uniform radial grid of dG=0.02 with 432 points.
  Core radius for overlap checks: 1.25 bohrs.

Initialized 3 species with 81 total atoms.

Folded 1 k-points by 4x4x1 to 16 k-points.

---------- Setting up k-points, bands, fillings ----------
Reduced to 9 k-points under symmetry. 
Computing the number of bands and number of electrons
Calculating initial fillings.
nElectrons: 567.000000   nBands: 486   nStates: 9

----- Setting up reduced wavefunction bases (one per k-point) -----
average nbasis = 50406.688 , ideal nbasis = 50419.178

---------- Setting up coulomb interaction ----------
Fluid mode embedding: using embedded box, but periodic Coulomb kernel.
(Fluid response is responsible for (approximate) separation between periodic images.)
Setting up double-sized grid for truncated Coulomb potentials:
R = 
[    16.3176          0          0  ]
[          0    16.9499          0  ]
[          0          0    85.3421  ]
unit cell volume = 23604.1
G =
[   0.385056          0          0  ]
[          0   0.370692          0  ]
[          0          0  0.0736235  ]
Chosen fftbox size, S = [  70  72  360  ]
Integer grid location selected as the embedding center:
   Grid: [  35  36  90  ]
   Lattice: [  0.5  0.5  0.5  ]
   Cartesian: [  8.1588  8.47495  21.3355  ]
Constructing Wigner-Seitz cell: 6 faces (6 quadrilaterals, 0 hexagons)
Range-separation parameter for embedded mesh potentials due to point charges: 0.614244 bohrs.

Initializing van der Waals corrections
	NOTE: vdW corrections apply only for interactions with fluid.
	 V:  C6:  187.33 Eh-a0^6  R0: 2.952 a0
	 B:  C6:   54.29 Eh-a0^6  R0: 2.806 a0
	 O:  C6:   12.14 Eh-a0^6  R0: 2.536 a0

---------- Setting up ewald sum ----------
Optimum gaussian width for ewald sums = 5.501631 bohr.
Real space sum over 605 unit cells with max indices [  5  5  2  ]
Reciprocal space sum over 8619 terms with max indices [  6  6  25  ]

---------- Allocating electronic variables ----------
Initializing wave functions:  linear combination of atomic orbitals
V pseudo-atom occupations:   s ( 2 0 )  p ( 6 )  d ( 5 )
B pseudo-atom occupations:   s ( 2 )  p ( 1 )
O pseudo-atom occupations:   s ( 2 )  p ( 4 )
	FillingsUpdate:  mu: -0.427232412  nElectrons: 567.000000
LCAOMinimize: Iter:   0  F: -2264.3364274225632471  |grad|_K:  7.223e-03  alpha:  1.000e+00
	FillingsUpdate:  mu: -0.520582677  nElectrons: 567.000000
LCAOMinimize: Iter:   1  F: -2283.3404658103481779  |grad|_K:  8.506e-03  alpha:  1.216e-01  linmin: -1.548e-01  cgtest:  6.508e-01  t[s]:    139.16
LCAOMinimize: 	Wrong curvature in test step, increasing alphaT to 3.648675e-01.
	FillingsUpdate:  mu: -0.304294112  nElectrons: 567.000000
LCAOMinimize: Iter:   2  F: -2323.1818380394952328  |grad|_K:  4.849e-03  alpha: -3.463e-01  linmin: -3.167e-01  cgtest:  5.436e-01  t[s]:    193.75
	FillingsUpdate:  mu: -0.161962476  nElectrons: 567.000000
LCAOMinimize: Iter:   3  F: -2327.0163109327145321  |grad|_K:  2.488e-03  alpha:  8.761e-02  linmin: -3.556e-01  cgtest:  8.441e-01  t[s]:    248.80
LCAOMinimize: Encountered beta<0, resetting CG.
	FillingsUpdate:  mu: -0.037139278  nElectrons: 567.000000
LCAOMinimize: Iter:   4  F: -2328.3242989079153631  |grad|_K:  1.459e-03  alpha:  2.199e-01  linmin:  8.436e-02  cgtest: -2.522e-01  t[s]:    304.81
	FillingsUpdate:  mu: -0.064322717  nElectrons: 567.000000
LCAOMinimize: Iter:   5  F: -2328.4750164153956575  |grad|_K:  7.329e-04  alpha:  8.965e-02  linmin: -6.055e-03  cgtest:  7.603e-01  t[s]:    359.83
LCAOMinimize: Encountered beta<0, resetting CG.
	FillingsUpdate:  mu: -0.112330702  nElectrons: 567.000000
LCAOMinimize: Iter:   6  F: -2328.5361137238360243  |grad|_K:  3.041e-04  alpha:  1.058e-01  linmin: -2.903e-02  cgtest:  4.912e-02  t[s]:    415.54
	FillingsUpdate:  mu: -0.100842623  nElectrons: 567.000000
LCAOMinimize: Iter:   7  F: -2328.5454493925253701  |grad|_K:  2.372e-04  alpha:  9.195e-02  linmin:  9.758e-04  cgtest: -3.307e-02  t[s]:    471.30
	FillingsUpdate:  mu: -0.097116384  nElectrons: 567.000000
LCAOMinimize: Iter:   8  F: -2328.5539643537645134  |grad|_K:  9.136e-05  alpha:  1.420e-01  linmin: -3.526e-03  cgtest:  1.126e-01  t[s]:    526.67
LCAOMinimize: 	Predicted alpha/alphaT>3.000000, increasing alphaT to 4.259761e-01.
	FillingsUpdate:  mu: -0.096227463  nElectrons: 567.000000
LCAOMinimize: Iter:   9  F: -2328.5582148444818813  |grad|_K:  9.415e-05  alpha:  4.767e-01  linmin:  2.585e-03  cgtest: -8.861e-03  t[s]:    597.39
	FillingsUpdate:  mu: -0.093309687  nElectrons: 567.000000
LCAOMinimize: Iter:  10  F: -2328.5587071982608904  |grad|_K:  2.532e-05  alpha:  5.006e-02  linmin: -4.087e-02  cgtest:  2.615e-01  t[s]:    652.73
LCAOMinimize: 	Predicted alpha/alphaT>3.000000, increasing alphaT to 1.501826e-01.
	FillingsUpdate:  mu: -0.094551938  nElectrons: 567.000000
LCAOMinimize: Iter:  11  F: -2328.5588388359606142  |grad|_K:  1.504e-05  alpha:  1.921e-01  linmin: -6.240e-05  cgtest: -3.127e-03  t[s]:    723.66
	FillingsUpdate:  mu: -0.093441043  nElectrons: 567.000000
LCAOMinimize: Iter:  12  F: -2328.5588824847186515  |grad|_K:  9.082e-06  alpha:  1.807e-01  linmin:  3.859e-04  cgtest: -2.769e-04  t[s]:    779.06
	FillingsUpdate:  mu: -0.093815417  nElectrons: 567.000000
LCAOMinimize: Iter:  13  F: -2328.5588986802590625  |grad|_K:  1.293e-05  alpha:  1.842e-01  linmin:  3.395e-05  cgtest:  1.266e-03  t[s]:    834.72
	FillingsUpdate:  mu: -0.093532209  nElectrons: 567.000000
LCAOMinimize: Iter:  14  F: -2328.5589227557143204  |grad|_K:  6.344e-07  alpha:  1.349e-01  linmin:  4.816e-04  cgtest: -2.721e-02  t[s]:    890.00
LCAOMinimize: 	Predicted alpha/alphaT>3.000000, increasing alphaT to 4.046373e-01.
	FillingsUpdate:  mu: -0.093578179  nElectrons: 567.000000
LCAOMinimize: Iter:  15  F: -2328.5589229919578429  |grad|_K:  6.782e-07  alpha:  5.502e-01  linmin:  5.196e-05  cgtest: -2.011e-05  t[s]:    961.09
	FillingsUpdate:  mu: -0.093535623  nElectrons: 567.000000
LCAOMinimize: Iter:  16  F: -2328.5589230376594969  |grad|_K:  3.621e-07  alpha:  9.315e-02  linmin: -4.943e-05  cgtest:  1.068e-03  t[s]:   1016.47
LCAOMinimize: Converged (|Delta F|<1.000000e-06 for 2 iters).
----- createFluidSolver() ----- (Fluid-side solver setup)
   Initializing fluid molecule 'H2O'
     Initializing site 'O'
       Electron density: proportional to exp(-r/0.36935)*erfc((r-0.51523)/0.36823) with norm 6.826
       Charge density: gaussian nuclear width 0.478731 with net site charge 0.826
       Polarizability: cuspless exponential with width 0.32 and norm 3.73
       Hard sphere radius: 2.57003 bohrs
       Positions in reference frame:
         [ +0.000000 +0.000000 +0.000000 ]
     Initializing site 'H'
       Electron density: proportional to exp(-r/0.34641)*erfc((r-0)/0.390882) with norm 0.587
       Charge density: gaussian nuclear width 0.377945 with net site charge -0.413
       Polarizability: cuspless exponential with width 0.39 and norm 3.3
       Positions in reference frame:
         [ +0.000000 -1.441945 +1.122523 ]
         [ +0.000000 +1.441945 +1.122523 ]
     Net charge: 0   dipole magnitude: 0.927204
     Initializing spherical shell mfKernel with radius 2.61727 Bohr
     deltaS corrections:
       site 'O': -7.54299
       site 'H': -6.83917
   Initializing fluid molecule 'Na+'
     Initializing site 'Na'
       Electron density: proportional to exp(-r/0.19682)*erfc((r-0.71491)/0.41314) with norm 8.1383
       Charge density: gaussian nuclear width 0.365347 with net site charge -1
       Hard sphere radius: 1.86327 bohrs
       Positions in reference frame:
         [ +0.000000 +0.000000 +0.000000 ]
     Net charge: -1   dipole magnitude: 0
     Initializing gaussian mfKernel with width: 1.55004 Bohr
     deltaS corrections:
       site 'Na': -22.3555
   Initializing fluid molecule 'F-'
     Initializing site 'F'
       Electron density: proportional to exp(-r/0.38886)*erfc((r-0)/0.438782) with norm 8
       Charge density: gaussian nuclear width 0.374796 with net site charge 1
       Hard sphere radius: 2.39995 bohrs
       Positions in reference frame:
         [ +0.000000 +0.000000 +0.000000 ]
     Net charge: 1   dipole magnitude: 0
     Initializing gaussian mfKernel with width: 1.59012 Bohr
     deltaS corrections:
       site 'F': -9.04335

Correction to mu due to finite nuclear width = -0.0238339
   Cavity determined by nc: 0.00142 and sigma: 0.707107
   Nonlocal vdW cavity from gaussian model electron density with norm = 8 and sigma = 0.993594 bohr
   Charge asymmetry in cavity with sensitivity pCavity = 36.5 e-bohr/Eh
   Electrostatic cavity expanded by eta = 1.46 bohrs
   Weighted density cavitation model constrained by Nbulk: 0.0049383 bohr^-3, Pvap: 3.14029 kPa, Rvdw: 2.61727 bohr and sigmaBulk: 4.62e-05 Eh/bohr^2 at T: 298 K.
   Weighted density dispersion model using vdW pair potentials with single solvent site with sqrtC6eff: 0.77 SI.


---- Citations for features of the code used in this run ----

   Software package:
      R. Sundararaman, K. Letchworth-Weaver, K.A. Schwarz, D. Gunceler, Y. Ozhabes and T.A. Arias, 'JDFTx: software for joint density-functional theory', SoftwareX 6, 278 (2017)

   gga-PBE exchange-correlation functional:
      J.P. Perdew, K. Burke and M. Ernzerhof, Phys. Rev. Lett. 77, 3865 (1996)

   Pseudopotentials:
      KF Garrity, JW Bennett, KM Rabe and D Vanderbilt, Comput. Mater. Sci. 81, 446 (2014)

   Truncated Coulomb potentials:
      R. Sundararaman and T.A. Arias, Phys. Rev. B 87, 165122 (2013)

   Van der Waals correction pair-potentials:
      S. Grimme, J. Comput. Chem. 27, 1787 (2006)

   Charge-asymmetric nonlocally-determined local-electric (CANDLE) solvation model:
      R. Sundararaman and W.A. Goddard III, J. Chem. Phys. 142, 064107 (2015)

   Total energy minimization with Auxiliary Hamiltonian:
      C. Freysoldt, S. Boeck, and J. Neugebauer, Phys. Rev. B 79, 241103(R) (2009)

This list may not be complete. Please suggest additional citations or
report any other bugs at https://github.com/shankar1729/jdftx/issues

Initialization completed successfully at t[s]:   1026.66

Fluid solver invoked on fresh (partially random / LCAO) wavefunctions
Running a vacuum solve first:

-------- Initial electronic minimization -----------
	FillingsUpdate:  mu: -0.093535623  nElectrons: 567.000000
ElecMinimize: Iter:   0  F: -2328.558923037638124  |grad|_K:  1.046e-04  alpha:  1.000e+00
	FillingsUpdate:  mu: -0.056037612  nElectrons: 567.000000
	SubspaceRotationAdjust: set factor to 1
ElecMinimize: Iter:   1  F: -2329.888443664044644  |grad|_K:  7.134e-05  alpha:  5.478e-01  linmin:  2.400e-06  t[s]:   1160.19
	FillingsUpdate:  mu: -0.139743421  nElectrons: 567.000000
	SubspaceRotationAdjust: set factor to 0.666
ElecMinimize: Iter:   2  F: -2330.127151002343453  |grad|_K:  6.103e-05  alpha:  2.428e-01  linmin:  3.249e-04  t[s]:   1242.52
	FillingsUpdate:  mu: -0.092624146  nElectrons: 567.000000
	SubspaceRotationAdjust: set factor to 0.465
ElecMinimize: Iter:   3  F: -2330.226509669364077  |grad|_K:  4.867e-05  alpha:  1.256e-01  linmin: -4.161e-05  t[s]:   1324.92
	FillingsUpdate:  mu: -0.072889333  nElectrons: 567.000000
	SubspaceRotationAdjust: set factor to 0.407
ElecMinimize: Iter:   4  F: -2330.304626921189083  |grad|_K:  2.642e-05  alpha:  1.470e-01  linmin:  7.043e-06  t[s]:   1408.30
	FillingsUpdate:  mu: -0.087710168  nElectrons: 567.000000
	SubspaceRotationAdjust: set factor to 0.358
ElecMinimize: Iter:   5  F: -2330.357424606190307  |grad|_K:  1.861e-05  alpha:  3.436e-01  linmin:  4.186e-05  t[s]:   1487.75
	FillingsUpdate:  mu: -0.082067799  nElectrons: 567.000000
	SubspaceRotationAdjust: set factor to 0.269
ElecMinimize: Iter:   6  F: -2330.370099652794579  |grad|_K:  1.203e-05  alpha:  1.652e-01  linmin: -2.190e-05  t[s]:   1571.85
	FillingsUpdate:  mu: -0.089225560  nElectrons: 567.000000
	SubspaceRotationAdjust: set factor to 0.318
ElecMinimize: Iter:   7  F: -2330.382638448024863  |grad|_K:  8.371e-06  alpha:  3.898e-01  linmin:  8.803e-06  t[s]:   1655.58
	FillingsUpdate:  mu: -0.092943947  nElectrons: 567.000000
	SubspaceRotationAdjust: set factor to 0.283
ElecMinimize: Iter:   8  F: -2330.386214876692975  |grad|_K:  5.988e-06  alpha:  2.307e-01  linmin:  6.278e-08  t[s]:   1738.71
	FillingsUpdate:  mu: -0.086763782  nElectrons: 567.000000
	SubspaceRotationAdjust: set factor to 0.336
ElecMinimize: Iter:   9  F: -2330.389175045065258  |grad|_K:  4.230e-06  alpha:  3.739e-01  linmin:  2.689e-05  t[s]:   1821.81
	FillingsUpdate:  mu: -0.085371683  nElectrons: 567.000000
	SubspaceRotationAdjust: set factor to 0.288
ElecMinimize: Iter:  10  F: -2330.390381042946956  |grad|_K:  3.561e-06  alpha:  3.065e-01  linmin:  2.519e-06  t[s]:   1904.58
	FillingsUpdate:  mu: -0.088756899  nElectrons: 567.000000
	SubspaceRotationAdjust: set factor to 0.252
ElecMinimize: Iter:  11  F: -2330.391095996413696  |grad|_K:  2.405e-06  alpha:  2.547e-01  linmin:  2.708e-07  t[s]:   1987.23
	FillingsUpdate:  mu: -0.088923963  nElectrons: 567.000000
	SubspaceRotationAdjust: set factor to 0.266
ElecMinimize: Iter:  12  F: -2330.391604299968549  |grad|_K:  1.839e-06  alpha:  3.969e-01  linmin:  1.606e-06  t[s]:   2069.98
	FillingsUpdate:  mu: -0.087278895  nElectrons: 567.000000
	SubspaceRotationAdjust: set factor to 0.211
ElecMinimize: Iter:  13  F: -2330.391814082442579  |grad|_K:  1.280e-06  alpha:  2.800e-01  linmin:  1.959e-07  t[s]:   2152.20
	FillingsUpdate:  mu: -0.087556155  nElectrons: 567.000000
	SubspaceRotationAdjust: set factor to 0.276
ElecMinimize: Iter:  14  F: -2330.391941965561728  |grad|_K:  8.545e-07  alpha:  3.525e-01  linmin:  1.199e-06  t[s]:   2234.67
	FillingsUpdate:  mu: -0.088176375  nElectrons: 567.000000
	SubspaceRotationAdjust: set factor to 0.246
ElecMinimize: Iter:  15  F: -2330.392003366282552  |grad|_K:  6.494e-07  alpha:  3.800e-01  linmin: -3.555e-07  t[s]:   2317.15
	FillingsUpdate:  mu: -0.087779159  nElectrons: 567.000000
	SubspaceRotationAdjust: set factor to 0.239
ElecMinimize: Iter:  16  F: -2330.392030659213106  |grad|_K:  4.108e-07  alpha:  2.921e-01  linmin: -6.958e-08  t[s]:   2399.51
	FillingsUpdate:  mu: -0.087659094  nElectrons: 567.000000
	SubspaceRotationAdjust: set factor to 0.278
ElecMinimize: Iter:  17  F: -2330.392046572119398  |grad|_K:  2.817e-07  alpha:  4.255e-01  linmin: -2.302e-07  t[s]:   2482.23
	FillingsUpdate:  mu: -0.087863717  nElectrons: 567.000000
	SubspaceRotationAdjust: set factor to 0.284
ElecMinimize: Iter:  18  F: -2330.392052366738426  |grad|_K:  2.032e-07  alpha:  3.295e-01  linmin: -1.998e-08  t[s]:   2564.65
	FillingsUpdate:  mu: -0.087823819  nElectrons: 567.000000
	SubspaceRotationAdjust: set factor to 0.268
ElecMinimize: Iter:  19  F: -2330.392055640488252  |grad|_K:  1.551e-07  alpha:  3.578e-01  linmin:  3.596e-08  t[s]:   2647.19
	FillingsUpdate:  mu: -0.087798077  nElectrons: 567.000000
	SubspaceRotationAdjust: set factor to 0.347
ElecMinimize: Iter:  20  F: -2330.392057655776171  |grad|_K:  9.935e-08  alpha:  3.782e-01  linmin: -4.230e-08  t[s]:   2729.56
	FillingsUpdate:  mu: -0.087823729  nElectrons: 567.000000
	SubspaceRotationAdjust: set factor to 0.359
ElecMinimize: Iter:  21  F: -2330.392058640491086  |grad|_K:  9.094e-08  alpha:  4.503e-01  linmin:  9.171e-09  t[s]:   2812.61
	FillingsUpdate:  mu: -0.087799068  nElectrons: 567.000000
	SubspaceRotationAdjust: set factor to 0.3
ElecMinimize: Iter:  22  F: -2330.392059114001313  |grad|_K:  6.242e-08  alpha:  2.584e-01  linmin: -1.996e-08  t[s]:   2895.15
	FillingsUpdate:  mu: -0.087855136  nElectrons: 567.000000
	SubspaceRotationAdjust: set factor to 0.3
ElecMinimize: Iter:  23  F: -2330.392059414521100  |grad|_K:  4.522e-08  alpha:  3.482e-01  linmin:  5.751e-08  t[s]:   2977.79
	FillingsUpdate:  mu: -0.087831976  nElectrons: 567.000000
	SubspaceRotationAdjust: set factor to 0.376
ElecMinimize: Iter:  24  F: -2330.392059595491446  |grad|_K:  2.888e-08  alpha:  4.000e-01  linmin:  3.445e-08  t[s]:   3060.57
	FillingsUpdate:  mu: -0.087804198  nElectrons: 567.000000
	SubspaceRotationAdjust: set factor to 0.337
ElecMinimize: Iter:  25  F: -2330.392059665639863  |grad|_K:  2.409e-08  alpha:  3.797e-01  linmin: -1.182e-08  t[s]:   3143.12
	FillingsUpdate:  mu: -0.087823332  nElectrons: 567.000000
	SubspaceRotationAdjust: set factor to 0.258
ElecMinimize: Iter:  26  F: -2330.392059698595403  |grad|_K:  1.619e-08  alpha:  2.566e-01  linmin:  8.352e-09  t[s]:   3225.84
	FillingsUpdate:  mu: -0.087826029  nElectrons: 567.000000
	SubspaceRotationAdjust: set factor to 0.256
ElecMinimize: Iter:  27  F: -2330.392059717619304  |grad|_K:  1.029e-08  alpha:  3.263e-01  linmin: -1.087e-08  t[s]:   3308.16
	FillingsUpdate:  mu: -0.087822512  nElectrons: 567.000000
	SubspaceRotationAdjust: set factor to 0.303
ElecMinimize: Iter:  28  F: -2330.392059726677417  |grad|_K:  6.694e-09  alpha:  3.820e-01  linmin: -4.197e-07  t[s]:   3390.59
	FillingsUpdate:  mu: -0.087823734  nElectrons: 567.000000
	SubspaceRotationAdjust: set factor to 0.282
ElecMinimize: Iter:  29  F: -2330.392059730419987  |grad|_K:  5.295e-09  alpha:  3.738e-01  linmin:  2.898e-07  t[s]:   3471.09
ElecMinimize: Converged (|Delta F|<1.000000e-08 for 2 iters).
Setting wave functions to eigenvectors of Hamiltonian
Vacuum energy after initial minimize, F = -2330.392059730419987

	Linear fluid (dielectric constant: 78.4, screening length: 5.74355 Bohr) occupying 0.724582 of unit cell:	Completed after 19 iterations at t[s]:   3491.69

-------- Electronic minimization -----------
	Linear fluid (dielectric constant: 78.4, screening length: 5.74355 Bohr) occupying 0.724582 of unit cell:	Completed after 0 iterations at t[s]:   3510.77
	FillingsUpdate:  mu: -0.235040822  nElectrons: 567.000000
ElecMinimize: Iter:   0  F: -2330.389306614474208  |grad|_K:  4.112e-07  alpha:  1.000e+00
	Linear fluid (dielectric constant: 78.4, screening length: 5.74355 Bohr) occupying 0.724679 of unit cell:	Completed after 12 iterations at t[s]:   3577.83
	Linear fluid (dielectric constant: 78.4, screening length: 5.74355 Bohr) occupying 0.724655 of unit cell:	Completed after 5 iterations at t[s]:   3604.91
	FillingsUpdate:  mu: -0.235673178  nElectrons: 567.000000
	SubspaceRotationAdjust: set factor to 0.204
ElecMinimize: Iter:   1  F: -2330.389334510449316  |grad|_K:  3.780e-07  alpha:  7.447e-01  linmin:  9.556e-08  t[s]:   3639.27
	Linear fluid (dielectric constant: 78.4, screening length: 5.74355 Bohr) occupying 0.724751 of unit cell:	Completed after 11 iterations at t[s]:   3668.72
	Linear fluid (dielectric constant: 78.4, screening length: 5.74355 Bohr) occupying 0.724692 of unit cell:	Completed after 12 iterations at t[s]:   3697.72
	FillingsUpdate:  mu: -0.235003735  nElectrons: 567.000000
	SubspaceRotationAdjust: set factor to 0.154
ElecMinimize: Iter:   2  F: -2330.389343473232657  |grad|_K:  2.420e-07  alpha:  2.868e-01  linmin:  1.452e-07  t[s]:   3732.49
	Linear fluid (dielectric constant: 78.4, screening length: 5.74355 Bohr) occupying 0.724711 of unit cell:	Completed after 3 iterations at t[s]:   3760.82
	Linear fluid (dielectric constant: 78.4, screening length: 5.74355 Bohr) occupying 0.724730 of unit cell:	Completed after 6 iterations at t[s]:   3787.99
	FillingsUpdate:  mu: -0.234683957  nElectrons: 567.000000
	SubspaceRotationAdjust: set factor to 0.191
ElecMinimize: Iter:   3  F: -2330.389350547206050  |grad|_K:  1.616e-07  alpha:  5.547e-01  linmin:  4.043e-07  t[s]:   3822.01
	Linear fluid (dielectric constant: 78.4, screening length: 5.74355 Bohr) occupying 0.724746 of unit cell:	Completed after 4 iterations at t[s]:   3850.29
	Linear fluid (dielectric constant: 78.4, screening length: 5.74355 Bohr) occupying 0.724745 of unit cell:	Completed after 0 iterations at t[s]:   3876.22
	FillingsUpdate:  mu: -0.234738912  nElectrons: 567.000000
	SubspaceRotationAdjust: set factor to 0.225
ElecMinimize: Iter:   4  F: -2330.389353524596117  |grad|_K:  1.095e-07  alpha:  5.214e-01  linmin:  5.411e-07  t[s]:   3910.22
	Linear fluid (dielectric constant: 78.4, screening length: 5.74355 Bohr) occupying 0.724750 of unit cell:	Completed after 2 iterations at t[s]:   3937.92
	Linear fluid (dielectric constant: 78.4, screening length: 5.74355 Bohr) occupying 0.724752 of unit cell:	Completed after 0 iterations at t[s]:   3964.00
	FillingsUpdate:  mu: -0.234723589  nElectrons: 567.000000
	SubspaceRotationAdjust: set factor to 0.259
ElecMinimize: Iter:   5  F: -2330.389355412027271  |grad|_K:  8.108e-08  alpha:  7.092e-01  linmin: -1.489e-06  t[s]:   3997.81
	Linear fluid (dielectric constant: 78.4, screening length: 5.74355 Bohr) occupying 0.724755 of unit cell:	Completed after 2 iterations at t[s]:   4025.61
	Linear fluid (dielectric constant: 78.4, screening length: 5.74355 Bohr) occupying 0.724754 of unit cell:	Completed after 0 iterations at t[s]:   4051.23
	FillingsUpdate:  mu: -0.234711182  nElectrons: 567.000000
	SubspaceRotationAdjust: set factor to 0.296
ElecMinimize: Iter:   6  F: -2330.389356359503836  |grad|_K:  6.706e-08  alpha:  6.104e-01  linmin:  3.655e-07  t[s]:   4085.21
	Linear fluid (dielectric constant: 78.4, screening length: 5.74355 Bohr) occupying 0.724757 of unit cell:	Completed after 3 iterations at t[s]:   4113.09
	Linear fluid (dielectric constant: 78.4, screening length: 5.74355 Bohr) occupying 0.724757 of unit cell:	Completed after 0 iterations at t[s]:   4138.61
	FillingsUpdate:  mu: -0.234715499  nElectrons: 567.000000
	SubspaceRotationAdjust: set factor to 0.322
ElecMinimize: Iter:   7  F: -2330.389356818503529  |grad|_K:  3.953e-08  alpha:  4.727e-01  linmin:  3.957e-07  t[s]:   4172.55
	Linear fluid (dielectric constant: 78.4, screening length: 5.74355 Bohr) occupying 0.724758 of unit cell:	Completed after 1 iterations at t[s]:   4200.20
	Linear fluid (dielectric constant: 78.4, screening length: 5.74355 Bohr) occupying 0.724758 of unit cell:	Completed after 0 iterations at t[s]:   4225.87
	FillingsUpdate:  mu: -0.234696994  nElectrons: 567.000000
	SubspaceRotationAdjust: set factor to 0.35
ElecMinimize: Iter:   8  F: -2330.389356981379933  |grad|_K:  2.207e-08  alpha:  4.793e-01  linmin: -1.623e-06  t[s]:   4259.34
	Linear fluid (dielectric constant: 78.4, screening length: 5.74355 Bohr) occupying 0.724760 of unit cell:	Completed after 0 iterations at t[s]:   4286.98
	Linear fluid (dielectric constant: 78.4, screening length: 5.74355 Bohr) occupying 0.724760 of unit cell:	Completed after 0 iterations at t[s]:   4312.91
	FillingsUpdate:  mu: -0.234698839  nElectrons: 567.000000
	SubspaceRotationAdjust: set factor to 0.457
ElecMinimize: Iter:   9  F: -2330.389357044825829  |grad|_K:  1.319e-08  alpha:  5.429e-01  linmin: -2.220e-06  t[s]:   4346.71
	Linear fluid (dielectric constant: 78.4, screening length: 5.74355 Bohr) occupying 0.724761 of unit cell:	Completed after 2 iterations at t[s]:   4374.78
	Linear fluid (dielectric constant: 78.4, screening length: 5.74355 Bohr) occupying 0.724760 of unit cell:	Completed after 0 iterations at t[s]:   4400.73
ElecMinimize: 	Step increased F by 1.818989e-12, reducing alpha to 1.736115e-02.
	Linear fluid (dielectric constant: 78.4, screening length: 5.74355 Bohr) occupying 0.724760 of unit cell:	Completed after 0 iterations at t[s]:   4456.49
	FillingsUpdate:  mu: -0.234688094  nElectrons: 567.000000
	SubspaceRotationAdjust: set factor to 0.292
ElecMinimize: Iter:  10  F: -2330.389357050488798  |grad|_K:  3.464e-08  alpha:  1.736e-02  linmin:  3.412e-06  t[s]:   4490.60
	Linear fluid (dielectric constant: 78.4, screening length: 5.74355 Bohr) occupying 0.724760 of unit cell:	Completed after 0 iterations at t[s]:   4517.92
	Linear fluid (dielectric constant: 78.4, screening length: 5.74355 Bohr) occupying 0.724761 of unit cell:	Completed after 0 iterations at t[s]:   4543.25
	FillingsUpdate:  mu: -0.234688056  nElectrons: 567.000000
	SubspaceRotationAdjust: set factor to 0.197
ElecMinimize: Iter:  11  F: -2330.389357059287249  |grad|_K:  2.840e-08  alpha:  4.927e-02  linmin: -1.177e-07  t[s]:   4576.89
ElecMinimize: Converged (|Delta F|<1.000000e-08 for 2 iters).
Setting wave functions to eigenvectors of Hamiltonian
Single-point solvation energy estimate, DeltaF = +0.002702671132738

# Ionic positions in lattice coordinates:
ion V   0.166667144322751   0.166667142571429   0.617878145483208 1
ion V   0.000000001037037   0.166667142571429   0.499998171638964 1
ion V   0.166667144322751   0.166667142571429   0.382121045381702 1
ion V   0.500000001037037   0.166667142571429   0.617878145483208 1
ion V   0.333332857751323   0.166667142571429   0.499998171638964 1
ion V   0.500000001037037   0.166667142571429   0.382121045381702 1
ion V   0.833332857751323   0.166667142571429   0.617878145483208 1
ion V   0.666667144322751   0.166667142571429   0.499998171638964 1
ion V   0.833332857751323   0.166667142571429   0.382121045381702 1
ion V   0.166667144322751   0.500000000000000   0.617878145483208 1
ion V   0.000000001037037   0.500000000000000   0.499998171638964 1
ion V   0.166667144322751   0.500000000000000   0.382121045381702 1
ion V   0.500000001037037   0.500000000000000   0.617878145483208 1
ion V   0.333332857751323   0.500000000000000   0.499998171638964 1
ion V   0.500000001037037   0.500000000000000   0.382121045381702 1
ion V   0.833332857751323   0.500000000000000   0.617878145483208 1
ion V   0.666667144322751   0.500000000000000   0.499998171638964 1
ion V   0.833332857751323   0.500000000000000   0.382121045381702 1
ion V   0.166667144322751   0.833332857428571   0.617878145483208 1
ion V   0.000000001037037   0.833332857428571   0.499998171638964 1
ion V   0.166667144322751   0.833332857428571   0.382121045381702 1
ion V   0.500000001037037   0.833332857428571   0.617878145483208 1
ion V   0.333332857751323   0.833332857428571   0.499998171638964 1
ion V   0.500000001037037   0.833332857428571   0.382121045381702 1
ion V   0.833332857751323   0.833332857428571   0.617878145483208 1
ion V   0.666667144322751   0.833332857428571   0.499998171638964 1
ion V   0.833332857751323   0.833332857428571   0.382121045381702 1
ion B   0.000000001037037   0.000000000000000   0.575648660399589 1
ion B   0.166667144322751   0.000000000000000   0.539471941458910 1
ion B   0.000000001037037   0.000000000000000   0.424350530750222 1
ion B   0.166667144322751   0.000000000000000   0.460527249690901 1
ion B   0.333332857751323   0.000000000000000   0.575648660399589 1
ion B   0.500000001037037   0.000000000000000   0.539471941458910 1
ion B   0.333332857751323   0.000000000000000   0.424350530750222 1
ion B   0.500000001037037   0.000000000000000   0.460527249690901 1
ion B   0.666667144322751   0.000000000000000   0.575648660399589 1
ion B   0.833332857751323   0.000000000000000   0.539471941458910 1
ion B   0.666667144322751   0.000000000000000   0.424350530750222 1
ion B   0.833332857751323   0.000000000000000   0.460527249690901 1
ion B   0.000000001037037   0.333332857428571   0.575648660399589 1
ion B   0.166667144322751   0.333332857428571   0.539471941458910 1
ion B   0.000000001037037   0.333332857428571   0.424350530750222 1
ion B   0.166667144322751   0.333332857428571   0.460527249690901 1
ion B   0.333332857751323   0.333332857428571   0.575648660399589 1
ion B   0.500000001037037   0.333332857428571   0.539471941458910 1
ion B   0.333332857751323   0.333332857428571   0.424350530750222 1
ion B   0.500000001037037   0.333332857428571   0.460527249690901 1
ion B   0.666667144322751   0.333332857428571   0.575648660399589 1
ion B   0.833332857751323   0.333332857428571   0.539471941458910 1
ion B   0.666667144322751   0.333332857428571   0.424350530750222 1
ion B   0.833332857751323   0.333332857428571   0.460527249690901 1
ion B   0.000000001037037   0.666667142571429   0.575648660399589 1
ion B   0.166667144322751   0.666667142571429   0.539471941458910 1
ion B   0.000000001037037   0.666667142571429   0.424350530750222 1
ion B   0.166667144322751   0.666667142571429   0.460527249690901 1
ion B   0.333332857751323   0.666667142571429   0.575648660399589 1
ion B   0.500000001037037   0.666667142571429   0.539471941458910 1
ion B   0.333332857751323   0.666667142571429   0.424350530750222 1
ion B   0.500000001037037   0.666667142571429   0.460527249690901 1
ion B   0.666667144322751   0.666667142571429   0.575648660399589 1
ion B   0.833332857751323   0.666667142571429   0.539471941458910 1
ion B   0.666667144322751   0.666667142571429   0.424350530750222 1
ion B   0.833332857751323   0.666667142571429   0.460527249690901 1
ion O   0.000000001037037   0.166667142571429   0.667855548003013 1
ion O   0.000000001037037   0.166667142571429   0.332143649129722 1
ion O   0.333332857751323   0.166667142571429   0.667855548003013 1
ion O   0.333332857751323   0.166667142571429   0.332143649129722 1
ion O   0.666667144322751   0.166667142571429   0.667855548003013 1
ion O   0.666667144322751   0.166667142571429   0.332143649129722 1
ion O   0.000000001037037   0.500000000000000   0.667855548003013 1
ion O   0.000000001037037   0.500000000000000   0.332143649129722 1
ion O   0.333332857751323   0.500000000000000   0.667855548003013 1
ion O   0.333332857751323   0.500000000000000   0.332143649129722 1
ion O   0.666667144322751   0.500000000000000   0.667855548003013 1
ion O   0.666667144322751   0.500000000000000   0.332143649129722 1
ion O   0.000000001037037   0.833332857428571   0.667855548003013 1
ion O   0.000000001037037   0.833332857428571   0.332143649129722 1
ion O   0.333332857751323   0.833332857428571   0.667855548003013 1
ion O   0.333332857751323   0.833332857428571   0.332143649129722 1
ion O   0.666667144322751   0.833332857428571   0.667855548003013 1
ion O   0.666667144322751   0.833332857428571   0.332143649129722 1


# Forces in Lattice coordinates:
force V  -0.001590164088384  -0.001514045919997   0.178046064966615 1
force V   0.000000000000000  -0.001496828316510   0.045161430027521 1
force V  -0.001590177123485  -0.001514075247673  -0.192401897003625 1
force V  -0.000000000000000  -0.001514043615394   0.178142933647899 1
force V   0.001609777034827  -0.001496805252809   0.045160758087352 1
force V   0.000000000000000  -0.001514039556469  -0.192497650709003 1
force V   0.001590164088384  -0.001514045919997   0.178046064964795 1
force V  -0.001609777034827  -0.001496805252809   0.045160758087352 1
force V   0.001590177123485  -0.001514075247673  -0.192401897003625 1
force V  -0.001590140241120  -0.000000000000000   0.177851819763326 1
force V   0.000000000000000  -0.000000000000000   0.045161441963439 1
force V  -0.001590151803544  -0.000000000000000  -0.192207618847314 1
force V   0.000000000000000  -0.000000000000000   0.177948667767527 1
force V   0.001609772255440   0.000000000000000   0.045160773107476 1
force V   0.000000000000000  -0.000000000000000  -0.192303380219416 1
force V   0.001590140241120   0.000000000000000   0.177851819762416 1
force V  -0.001609772255440  -0.000000000000000   0.045160773107476 1
force V   0.001590151803544   0.000000000000000  -0.192207618847312 1
force V  -0.001590164088384   0.001514045919997   0.178046064966160 1
force V   0.000000000000000   0.001496828316510   0.045161430027521 1
force V  -0.001590177123485   0.001514075247673  -0.192401897003625 1
force V   0.000000000000000   0.001514043615394   0.178142933649718 1
force V   0.001609777034827   0.001496805252809   0.045160758087352 1
force V   0.000000000000000   0.001514039556469  -0.192497650709003 1
force V   0.001590164088384   0.001514045919997   0.178046064967070 1
force V  -0.001609777034827   0.001496805252809   0.045160758087352 1
force V   0.001590177123485   0.001514075247673  -0.192401897003626 1
force B  -0.000000000000000  -0.000000000000000  -0.029394117004696 1
force B  -0.000144304141815   0.000000000000000   0.043172862485791 1
force B   0.000000000000000   0.000000000000000   0.028654342575939 1
force B  -0.000144296628461  -0.000000000000000  -0.041408346007328 1
force B   0.000233288827468   0.000000000000000  -0.029683829755096 1
force B  -0.000000000000000  -0.000000000000000   0.042977582242551 1
force B   0.000233329897181   0.000000000000000   0.028943964601527 1
force B   0.000000000000000   0.000000000000000  -0.041213306881793 1
force B  -0.000233288827468   0.000000000000000  -0.029683829755210 1
force B   0.000144304141815   0.000000000000000   0.043172862485848 1
force B  -0.000233329897181   0.000000000000000   0.028943964601413 1
force B   0.000144296628461   0.000000000000000  -0.041408346007328 1
force B   0.000000000000000   0.000000214966646  -0.029419029499778 1
force B  -0.000144290572957   0.000011042952437   0.043172639804084 1
force B   0.000000000000000   0.000000219361859   0.028679260994799 1
force B  -0.000144281288598   0.000011040732343  -0.041408100541685 1
force B   0.000233290736455   0.000000242566907  -0.029708655760184 1
force B   0.000000000000000   0.000011034011649   0.042977361138860 1
force B   0.000233328594199   0.000000245346092   0.028968817096549 1
force B   0.000000000000000   0.000011033590689  -0.041213057560379 1
force B  -0.000233290736455   0.000000242566907  -0.029708655760184 1
force B   0.000144290572957   0.000011042952437   0.043172639804084 1
force B  -0.000233328594199   0.000000245346092   0.028968817096549 1
force B   0.000144281288598   0.000011040732343  -0.041408100541629 1
force B   0.000000000000000  -0.000000214966646  -0.029419029499778 1
force B  -0.000144290572957  -0.000011042952437   0.043172639804198 1
force B   0.000000000000000  -0.000000219361859   0.028679260994913 1
force B  -0.000144281288598  -0.000011040732343  -0.041408100541685 1
force B   0.000233290736455  -0.000000242566907  -0.029708655760297 1
force B   0.000000000000000  -0.000011034011649   0.042977361138803 1
force B   0.000233328594199  -0.000000245346092   0.028968817096436 1
force B  -0.000000000000000  -0.000011033590689  -0.041213057560436 1
force B  -0.000233290736455  -0.000000242566907  -0.029708655760184 1
force B   0.000144290572957  -0.000011042952437   0.043172639804084 1
force B  -0.000233328594199  -0.000000245346092   0.028968817096549 1
force B   0.000144281288598  -0.000011040732343  -0.041408100541685 1
force O   0.000000000000000  -0.000459031019142  -0.030218470616720 1
force O  -0.000000000000000  -0.000459055312945   0.025841729127364 1
force O   0.000181813048863  -0.000459087483582  -0.029842629338471 1
force O   0.000181846162241  -0.000459109498035   0.025465685917556 1
force O  -0.000181813048863  -0.000459087483582  -0.029842629338926 1
force O  -0.000181846162241  -0.000459109498035   0.025465685917094 1
force O   0.000000000000000   0.000000000000000  -0.030199496589752 1
force O   0.000000000000000   0.000000000000000   0.025822788541124 1
force O   0.000181794064012   0.000000000000000  -0.029823693382941 1
force O   0.000181827323165   0.000000000000000   0.025446858207797 1
force O  -0.000181794064012  -0.000000000000000  -0.029823693382486 1
force O  -0.000181827323165   0.000000000000000   0.025446858207790 1
force O  -0.000000000000000   0.000459031019142  -0.030218470616720 1
force O   0.000000000000000   0.000459055312945   0.025841729126910 1
force O   0.000181813048863   0.000459087483582  -0.029842629339374 1
force O   0.000181846162241   0.000459109498035   0.025465685917094 1
force O  -0.000181813048863   0.000459087483582  -0.029842629339374 1
force O  -0.000181846162241   0.000459109498035   0.025465685917094 1

# Energy components:
   A_diel =        0.0026529527332750
   Eewald =    32471.1969047801103443
       EH =    34407.2649006348292460
     Eloc =   -69648.7861974041734356
      Enl =       90.1508247378383771
      Exc =     -385.4085865176115249
 Exc_core =       35.4002272090377943
       KE =      699.8748525226671973
-------------------------------------
     Etot =    -2330.3044210845710040
       TS =        0.0849359747163552
-------------------------------------
        F =    -2330.3893570592872493

IonicMinimize: Iter:   0  F: -2330.389357059287249  |grad|_K:  1.240e-03  t[s]:   4595.01

#--- Lowdin population analysis ---
# oxidation-state V +1.025 +0.819 +1.025 +1.025 +0.819 +1.025 +1.025 +0.819 +1.025 +1.025 +0.819 +1.025 +1.025 +0.819 +1.025 +1.025 +0.819 +1.025 +1.025 +0.819 +1.025 +1.025 +0.819 +1.025 +1.025 +0.819 +1.025
# oxidation-state B -0.487 -0.404 -0.487 -0.404 -0.487 -0.404 -0.487 -0.404 -0.487 -0.404 -0.487 -0.404 -0.487 -0.404 -0.487 -0.404 -0.487 -0.404 -0.487 -0.404 -0.487 -0.404 -0.487 -0.404 -0.487 -0.404 -0.487 -0.404 -0.487 -0.404 -0.487 -0.404 -0.487 -0.404 -0.487 -0.404
# oxidation-state O -0.455 -0.455 -0.455 -0.455 -0.455 -0.455 -0.455 -0.455 -0.455 -0.455 -0.455 -0.455 -0.455 -0.455 -0.455 -0.455 -0.455 -0.455

	Linear fluid (dielectric constant: 78.4, screening length: 5.74355 Bohr) occupying 0.724793 of unit cell:	Completed after 12 iterations at t[s]:   4626.11

-------- Electronic minimization -----------
	Linear fluid (dielectric constant: 78.4, screening length: 5.74355 Bohr) occupying 0.724793 of unit cell:	Completed after 0 iterations at t[s]:   4644.74
	FillingsUpdate:  mu: -0.232960688  nElectrons: 567.000000
ElecMinimize: Iter:   0  F: -2330.389469022846242  |grad|_K:  6.526e-07  alpha:  1.000e+00
	Linear fluid (dielectric constant: 78.4, screening length: 5.74355 Bohr) occupying 0.724783 of unit cell:	Completed after 12 iterations at t[s]:   4711.66
	Linear fluid (dielectric constant: 78.4, screening length: 5.74355 Bohr) occupying 0.724786 of unit cell:	Completed after 10 iterations at t[s]:   4739.69
	FillingsUpdate:  mu: -0.234428946  nElectrons: 567.000000
	SubspaceRotationAdjust: set factor to 0.196
ElecMinimize: Iter:   1  F: -2330.389536539532401  |grad|_K:  5.520e-07  alpha:  7.160e-01  linmin: -1.944e-07  t[s]:   4774.45
	Linear fluid (dielectric constant: 78.4, screening length: 5.74355 Bohr) occupying 0.724777 of unit cell:	Completed after 2 iterations at t[s]:   4802.42
	Linear fluid (dielectric constant: 78.4, screening length: 5.74355 Bohr) occupying 0.724776 of unit cell:	Completed after 2 iterations at t[s]:   4828.68
	FillingsUpdate:  mu: -0.234362777  nElectrons: 567.000000
	SubspaceRotationAdjust: set factor to 0.25
ElecMinimize: Iter:   2  F: -2330.389591104634292  |grad|_K:  5.888e-07  alpha:  8.086e-01  linmin: -3.790e-07  t[s]:   4862.71
	Linear fluid (dielectric constant: 78.4, screening length: 5.74355 Bohr) occupying 0.724762 of unit cell:	Completed after 12 iterations at t[s]:   4892.40
	Linear fluid (dielectric constant: 78.4, screening length: 5.74355 Bohr) occupying 0.724764 of unit cell:	Completed after 2 iterations at t[s]:   4918.94
	FillingsUpdate:  mu: -0.233745477  nElectrons: 567.000000
	SubspaceRotationAdjust: set factor to 0.202
ElecMinimize: Iter:   3  F: -2330.389644115098690  |grad|_K:  5.741e-07  alpha:  6.898e-01  linmin:  2.529e-05  t[s]:   4952.83
	Linear fluid (dielectric constant: 78.4, screening length: 5.74355 Bohr) occupying 0.724750 of unit cell:	Completed after 12 iterations at t[s]:   4982.93
	Linear fluid (dielectric constant: 78.4, screening length: 5.74355 Bohr) occupying 0.724758 of unit cell:	Completed after 12 iterations at t[s]:   5011.40
	FillingsUpdate:  mu: -0.234416594  nElectrons: 567.000000
	SubspaceRotationAdjust: set factor to 0.118
ElecMinimize: Iter:   4  F: -2330.389666550740458  |grad|_K:  3.035e-07  alpha:  3.115e-01  linmin:  7.046e-06  t[s]:   5046.20
	Linear fluid (dielectric constant: 78.4, screening length: 5.74355 Bohr) occupying 0.724757 of unit cell:	Completed after 3 iterations at t[s]:   5074.17
	Linear fluid (dielectric constant: 78.4, screening length: 5.74355 Bohr) occupying 0.724756 of unit cell:	Completed after 3 iterations at t[s]:   5100.82
	FillingsUpdate:  mu: -0.234229226  nElectrons: 567.000000
	SubspaceRotationAdjust: set factor to 0.146
ElecMinimize: Iter:   5  F: -2330.389676627882181  |grad|_K:  1.529e-07  alpha:  4.958e-01  linmin:  9.960e-06  t[s]:   5135.29
	Linear fluid (dielectric constant: 78.4, screening length: 5.74355 Bohr) occupying 0.724757 of unit cell:	Completed after 7 iterations at t[s]:   5163.78
	Linear fluid (dielectric constant: 78.4, screening length: 5.74355 Bohr) occupying 0.724757 of unit cell:	Completed after 0 iterations at t[s]:   5189.70
	FillingsUpdate:  mu: -0.234079223  nElectrons: 567.000000
	SubspaceRotationAdjust: set factor to 0.137
ElecMinimize: Iter:   6  F: -2330.389678734397421  |grad|_K:  8.552e-08  alpha:  4.089e-01  linmin:  5.780e-05  t[s]:   5223.68
	Linear fluid (dielectric constant: 78.4, screening length: 5.74355 Bohr) occupying 0.724758 of unit cell:	Completed after 3 iterations at t[s]:   5251.69
	Linear fluid (dielectric constant: 78.4, screening length: 5.74355 Bohr) occupying 0.724758 of unit cell:	Completed after 0 iterations at t[s]:   5277.40
	FillingsUpdate:  mu: -0.234099235  nElectrons: 567.000000
	SubspaceRotationAdjust: set factor to 0.12
ElecMinimize: Iter:   7  F: -2330.389679329446608  |grad|_K:  4.506e-08  alpha:  3.812e-01  linmin: -1.002e-04  t[s]:   5311.32
	Linear fluid (dielectric constant: 78.4, screening length: 5.74355 Bohr) occupying 0.724758 of unit cell:	Completed after 0 iterations at t[s]:   5338.52
	Linear fluid (dielectric constant: 78.4, screening length: 5.74355 Bohr) occupying 0.724759 of unit cell:	Completed after 1 iterations at t[s]:   5364.34
	FillingsUpdate:  mu: -0.234108951  nElectrons: 567.000000
	SubspaceRotationAdjust: set factor to 0.125
ElecMinimize: Iter:   8  F: -2330.389679538726796  |grad|_K:  3.952e-08  alpha:  6.135e-01  linmin:  1.040e-04  t[s]:   5398.24
	Linear fluid (dielectric constant: 78.4, screening length: 5.74355 Bohr) occupying 0.724760 of unit cell:	Completed after 2 iterations at t[s]:   5426.01
	Linear fluid (dielectric constant: 78.4, screening length: 5.74355 Bohr) occupying 0.724759 of unit cell:	Completed after 0 iterations at t[s]:   5451.74
	FillingsUpdate:  mu: -0.234112977  nElectrons: 567.000000
	SubspaceRotationAdjust: set factor to 0.142
ElecMinimize: Iter:   9  F: -2330.389679644845273  |grad|_K:  2.272e-08  alpha:  4.019e-01  linmin:  3.465e-05  t[s]:   5485.32
	Linear fluid (dielectric constant: 78.4, screening length: 5.74355 Bohr) occupying 0.724759 of unit cell:	Completed after 0 iterations at t[s]:   5512.54
	Linear fluid (dielectric constant: 78.4, screening length: 5.74355 Bohr) occupying 0.724759 of unit cell:	Completed after 0 iterations at t[s]:   5537.77
	FillingsUpdate:  mu: -0.234112862  nElectrons: 567.000000
	SubspaceRotationAdjust: set factor to 0.17
ElecMinimize: Iter:  10  F: -2330.389679707053347  |grad|_K:  1.787e-08  alpha:  5.960e-01  linmin:  3.273e-07  t[s]:   5571.73
	Linear fluid (dielectric constant: 78.4, screening length: 5.74355 Bohr) occupying 0.724760 of unit cell:	Completed after 0 iterations at t[s]:   5599.33
	Linear fluid (dielectric constant: 78.4, screening length: 5.74355 Bohr) occupying 0.724760 of unit cell:	Completed after 0 iterations at t[s]:   5625.00
	FillingsUpdate:  mu: -0.234112761  nElectrons: 567.000000
	SubspaceRotationAdjust: set factor to 0.211
ElecMinimize: Iter:  11  F: -2330.389679748752769  |grad|_K:  1.506e-08  alpha:  5.898e-01  linmin: -1.915e-08  t[s]:   5659.08
	Linear fluid (dielectric constant: 78.4, screening length: 5.74355 Bohr) occupying 0.724760 of unit cell:	Completed after 2 iterations at t[s]:   5687.05
	Linear fluid (dielectric constant: 78.4, screening length: 5.74355 Bohr) occupying 0.724760 of unit cell:	Completed after 0 iterations at t[s]:   5712.79
ElecMinimize: 	Step increased F by 2.301567e-08, reducing alpha to 1.879382e-02.
	Linear fluid (dielectric constant: 78.4, screening length: 5.74355 Bohr) occupying 0.724760 of unit cell:	Completed after 0 iterations at t[s]:   5765.87
ElecMinimize: 	Step increased F by 2.576462e-08, reducing alpha to 1.879382e-03.
	Linear fluid (dielectric constant: 78.4, screening length: 5.74355 Bohr) occupying 0.724760 of unit cell:	Completed after 0 iterations at t[s]:   5821.24
ElecMinimize: 	Step increased F by 2.632714e-08, reducing alpha to 1.879382e-04.
ElecMinimize: 	Step failed to reduce F after 3 attempts. Quitting step.
ElecMinimize: 	Undoing step.
	Linear fluid (dielectric constant: 78.4, screening length: 5.74355 Bohr) occupying 0.724760 of unit cell:	Completed after 0 iterations at t[s]:   5876.95
ElecMinimize: 	Step failed: resetting search direction.
	FillingsUpdate:  mu: -0.234094412  nElectrons: 567.000000
	SubspaceRotationAdjust: set factor to 0.213
ElecMinimize: Iter:  12  F: -2330.389679722429264  |grad|_K:  2.973e-08  alpha:  1.879e-04
	Linear fluid (dielectric constant: 78.4, screening length: 5.74355 Bohr) occupying 0.724760 of unit cell:	Completed after 3 iterations at t[s]:   5938.80
	Linear fluid (dielectric constant: 78.4, screening length: 5.74355 Bohr) occupying 0.724760 of unit cell:	Completed after 1 iterations at t[s]:   5965.16
	FillingsUpdate:  mu: -0.234104685  nElectrons: 567.000000
	SubspaceRotationAdjust: set factor to 0.138
ElecMinimize: Iter:  13  F: -2330.389679747055652  |grad|_K:  1.555e-08  alpha:  2.075e-01  linmin:  5.995e-05  t[s]:   5999.39
	Linear fluid (dielectric constant: 78.4, screening length: 5.74355 Bohr) occupying 0.724760 of unit cell:	Completed after 0 iterations at t[s]:   6026.75
ElecMinimize: 	Predicted alpha/alphaT>3.000000, increasing alphaT to 6.226340e-01.
	Linear fluid (dielectric constant: 78.4, screening length: 5.74355 Bohr) occupying 0.724760 of unit cell:	Completed after 0 iterations at t[s]:   6052.21
	Linear fluid (dielectric constant: 78.4, screening length: 5.74355 Bohr) occupying 0.724760 of unit cell:	Completed after 2 iterations at t[s]:   6078.43
ElecMinimize: 	Step increased F by 1.063700e-08, reducing alpha to 8.383888e-02.
	Linear fluid (dielectric constant: 78.4, screening length: 5.74355 Bohr) occupying 0.724760 of unit cell:	Completed after 2 iterations at t[s]:   6134.62
	FillingsUpdate:  mu: -0.234092507  nElectrons: 567.000000
	SubspaceRotationAdjust: set factor to 0.21
ElecMinimize: Iter:  14  F: -2330.389679754574445  |grad|_K:  9.146e-09  alpha:  8.384e-02  linmin: -8.029e-05  t[s]:   6169.29
	Linear fluid (dielectric constant: 78.4, screening length: 5.74355 Bohr) occupying 0.724760 of unit cell:	Completed after 0 iterations at t[s]:   6196.67
ElecMinimize: 	Predicted alpha/alphaT>3.000000, increasing alphaT to 2.515167e-01.
	Linear fluid (dielectric constant: 78.4, screening length: 5.74355 Bohr) occupying 0.724760 of unit cell:	Completed after 0 iterations at t[s]:   6221.86
	Linear fluid (dielectric constant: 78.4, screening length: 5.74355 Bohr) occupying 0.724760 of unit cell:	Completed after 0 iterations at t[s]:   6247.54
	FillingsUpdate:  mu: -0.234092375  nElectrons: 567.000000
	SubspaceRotationAdjust: set factor to 0.257
ElecMinimize: Iter:  15  F: -2330.389679772114050  |grad|_K:  8.861e-09  alpha:  6.432e-01  linmin: -5.859e-08  t[s]:   6281.15
	Linear fluid (dielectric constant: 78.4, screening length: 5.74355 Bohr) occupying 0.724760 of unit cell:	Completed after 0 iterations at t[s]:   6308.47
	Linear fluid (dielectric constant: 78.4, screening length: 5.74355 Bohr) occupying 0.724760 of unit cell:	Completed after 0 iterations at t[s]:   6333.71
	FillingsUpdate:  mu: -0.234092160  nElectrons: 567.000000
	SubspaceRotationAdjust: set factor to 0.318
ElecMinimize: Iter:  16  F: -2330.389679785189401  |grad|_K:  1.044e-08  alpha:  7.541e-01  linmin:  1.325e-07  t[s]:   6367.27
	Linear fluid (dielectric constant: 78.4, screening length: 5.74355 Bohr) occupying 0.724760 of unit cell:	Completed after 2 iterations at t[s]:   6395.12
	Linear fluid (dielectric constant: 78.4, screening length: 5.74355 Bohr) occupying 0.724760 of unit cell:	Completed after 0 iterations at t[s]:   6421.13
ElecMinimize: 	Step increased F by 1.817807e-08, reducing alpha to 1.265430e-02.
	Linear fluid (dielectric constant: 78.4, screening length: 5.74355 Bohr) occupying 0.724760 of unit cell:	Completed after 0 iterations at t[s]:   6477.04
ElecMinimize: 	Step increased F by 1.217677e-08, reducing alpha to 1.265430e-03.
	Linear fluid (dielectric constant: 78.4, screening length: 5.74355 Bohr) occupying 0.724760 of unit cell:	Completed after 0 iterations at t[s]:   6532.67
ElecMinimize: 	Step increased F by 1.154785e-08, reducing alpha to 1.265430e-04.
ElecMinimize: 	Step failed to reduce F after 3 attempts. Quitting step.
ElecMinimize: 	Undoing step.
	Linear fluid (dielectric constant: 78.4, screening length: 5.74355 Bohr) occupying 0.724760 of unit cell:	Completed after 0 iterations at t[s]:   6587.75
ElecMinimize: 	Step failed: resetting search direction.
	FillingsUpdate:  mu: -0.234120436  nElectrons: 567.000000
	SubspaceRotationAdjust: set factor to 0.255
ElecMinimize: Iter:  17  F: -2330.389679773626540  |grad|_K:  3.270e-08  alpha:  1.265e-04
	Linear fluid (dielectric constant: 78.4, screening length: 5.74355 Bohr) occupying 0.724760 of unit cell:	Completed after 2 iterations at t[s]:   6649.15
	Linear fluid (dielectric constant: 78.4, screening length: 5.74355 Bohr) occupying 0.724760 of unit cell:	Completed after 3 iterations at t[s]:   6675.63
	FillingsUpdate:  mu: -0.234111706  nElectrons: 567.000000
	SubspaceRotationAdjust: set factor to 0.122
ElecMinimize: Iter:  18  F: -2330.389679777455058  |grad|_K:  1.416e-08  alpha:  1.626e-01  linmin:  1.274e-04  t[s]:   6709.51
	Linear fluid (dielectric constant: 78.4, screening length: 5.74355 Bohr) occupying 0.724760 of unit cell:	Completed after 0 iterations at t[s]:   6736.67
ElecMinimize: 	Predicted alpha/alphaT>3.000000, increasing alphaT to 4.877929e-01.
	Linear fluid (dielectric constant: 78.4, screening length: 5.74355 Bohr) occupying 0.724760 of unit cell:	Completed after 0 iterations at t[s]:   6761.76
	Linear fluid (dielectric constant: 78.4, screening length: 5.74355 Bohr) occupying 0.724760 of unit cell:	Completed after 2 iterations at t[s]:   6787.61
ElecMinimize: 	Step increased F by 7.187282e-08, reducing alpha to 1.097021e-01.
	Linear fluid (dielectric constant: 78.4, screening length: 5.74355 Bohr) occupying 0.724760 of unit cell:	Completed after 2 iterations at t[s]:   6843.85
	FillingsUpdate:  mu: -0.234083822  nElectrons: 567.000000
	SubspaceRotationAdjust: set factor to 0.195
ElecMinimize: Iter:  19  F: -2330.389679786221677  |grad|_K:  7.680e-09  alpha:  1.097e-01  linmin: -3.646e-05  t[s]:   6878.04
ElecMinimize: Converged (|Delta F|<1.000000e-08 for 2 iters).
Setting wave functions to eigenvectors of Hamiltonian

# Ionic positions in lattice coordinates:
ion V   0.166667141835410   0.166667140376540   0.617979815692981 1
ion V   0.000000001037037   0.166667140401520   0.499998325756704 1
ion V   0.166667141835390   0.166667140376512   0.382019300305699 1
ion V   0.500000001037037   0.166667140376540   0.617979815715137 1
ion V   0.333332860269353   0.166667140401522   0.499998325756551 1
ion V   0.500000001037037   0.166667140376516   0.382019300283795 1
ion V   0.833332860238664   0.166667140376540   0.617979815692981 1
ion V   0.666667141804722   0.166667140401522   0.499998325756551 1
ion V   0.833332860238684   0.166667140376512   0.382019300305699 1
ion V   0.166667141835412   0.500000000000000   0.617979815648548 1
ion V   0.000000001037037   0.500000000000000   0.499998325756708 1
ion V   0.166667141835392   0.500000000000000   0.382019300350137 1
ion V   0.500000001037037   0.500000000000000   0.617979815670703 1
ion V   0.333332860269352   0.500000000000000   0.499998325756554 1
ion V   0.500000001037037   0.500000000000000   0.382019300328234 1
ion V   0.833332860238662   0.500000000000000   0.617979815648548 1
ion V   0.666667141804722   0.500000000000000   0.499998325756554 1
ion V   0.833332860238682   0.500000000000000   0.382019300350137 1
ion V   0.166667141835410   0.833332859623460   0.617979815692981 1
ion V   0.000000001037037   0.833332859598480   0.499998325756704 1
ion V   0.166667141835390   0.833332859623488   0.382019300305699 1
ion V   0.500000001037037   0.833332859623460   0.617979815715137 1
ion V   0.333332860269353   0.833332859598478   0.499998325756551 1
ion V   0.500000001037037   0.833332859623484   0.382019300283795 1
ion V   0.833332860238664   0.833332859623460   0.617979815692981 1
ion V   0.666667141804722   0.833332859598478   0.499998325756551 1
ion V   0.833332860238684   0.833332859623488   0.382019300305699 1
ion B   0.000000001037037   0.000000000000000   0.575632592574333 1
ion B   0.166667144097042  -0.000000000000000   0.539495123852568 1
ion B   0.000000001037037  -0.000000000000000   0.424366573540215 1
ion B   0.166667144097056  -0.000000000000000   0.460504051427200 1
ion B   0.333332858116238   0.000000000000000   0.575632592508077 1
ion B   0.500000001037037   0.000000000000000   0.539495123807900 1
ion B   0.333332858116299   0.000000000000000   0.424366573606453 1
ion B   0.500000001037037  -0.000000000000000   0.460504051471814 1
ion B   0.666667143957836   0.000000000000000   0.575632592508077 1
ion B   0.833332857977032   0.000000000000000   0.539495123852568 1
ion B   0.666667143957775  -0.000000000000000   0.424366573606453 1
ion B   0.833332857977018   0.000000000000000   0.460504051427200 1
ion B   0.000000001037037   0.333332857428908   0.575632592568647 1
ion B   0.166667144097044   0.333332857444576   0.539495123852517 1
ion B   0.000000001037037   0.333332857428913   0.424366573545905 1
ion B   0.166667144097057   0.333332857444574   0.460504051427257 1
ion B   0.333332858116238   0.333332857428911   0.575632592502392 1
ion B   0.500000001037037   0.333332857444575   0.539495123807849 1
ion B   0.333332858116299   0.333332857428915   0.424366573612143 1
ion B   0.500000001037037   0.333332857444573   0.460504051471871 1
ion B   0.666667143957836   0.333332857428911   0.575632592502392 1
ion B   0.833332857977030   0.333332857444576   0.539495123852517 1
ion B   0.666667143957775   0.333332857428915   0.424366573612143 1
ion B   0.833332857977017   0.333332857444574   0.460504051427257 1
ion B   0.000000001037037   0.666667142571092   0.575632592568647 1
ion B   0.166667144097044   0.666667142555424   0.539495123852517 1
ion B   0.000000001037037   0.666667142571087   0.424366573545905 1
ion B   0.166667144097057   0.666667142555426   0.460504051427257 1
ion B   0.333332858116238   0.666667142571089   0.575632592502392 1
ion B   0.500000001037037   0.666667142555425   0.539495123807849 1
ion B   0.333332858116299   0.666667142571085   0.424366573612143 1
ion B   0.500000001037037   0.666667142555427   0.460504051471871 1
ion B   0.666667143957836   0.666667142571089   0.575632592502392 1
ion B   0.833332857977030   0.666667142555424   0.539495123852517 1
ion B   0.666667143957775   0.666667142571085   0.424366573612143 1
ion B   0.833332857977017   0.666667142555426   0.460504051427257 1
ion O   0.000000001037037   0.166667141905927   0.667840275663029 1
ion O   0.000000001037037   0.166667141905894   0.332158883123562 1
ion O   0.333332858035708   0.166667141905922   0.667840275748996 1
ion O   0.333332858035759   0.166667141905889   0.332158883037555 1
ion O   0.666667144038366   0.166667141905922   0.667840275748996 1
ion O   0.666667144038315   0.166667141905889   0.332158883037555 1
ion O   0.000000001037037   0.500000000000000   0.667840275667363 1
ion O   0.000000001037037   0.500000000000000   0.332158883119246 1
ion O   0.333332858035706   0.500000000000000   0.667840275753330 1
ion O   0.333332858035758   0.500000000000000   0.332158883033240 1
ion O   0.666667144038368   0.500000000000000   0.667840275753330 1
ion O   0.666667144038317   0.500000000000000   0.332158883033240 1
ion O   0.000000001037037   0.833332858094073   0.667840275663029 1
ion O   0.000000001037037   0.833332858094106   0.332158883123562 1
ion O   0.333332858035708   0.833332858094078   0.667840275748996 1
ion O   0.333332858035759   0.833332858094111   0.332158883037555 1
ion O   0.666667144038366   0.833332858094078   0.667840275748996 1
ion O   0.666667144038315   0.833332858094111   0.332158883037555 1


# Forces in Lattice coordinates:
force V  -0.001583209142701  -0.001496938105562   0.129207992036481 1
force V  -0.000000000000000  -0.001487103569366   0.039608494054494 1
force V  -0.001583327692226  -0.001496999066869  -0.140549432931260 1
force V  -0.000000000000000  -0.001496163264046   0.129327008990827 1
force V   0.001602999545211  -0.001486957681928   0.039608716364790 1
force V   0.000000000000000  -0.001496031048087  -0.140667450689415 1
force V   0.001583209142701  -0.001496938105562   0.129207992036026 1
force V  -0.001602999545211  -0.001486957681928   0.039608716364790 1
force V   0.001583327692226  -0.001496999066869  -0.140549432930805 1
force V  -0.001582255005345   0.000000000000000   0.129063597334430 1
force V   0.000000000000000   0.000000000000000   0.039608561478066 1
force V  -0.001582136587909   0.000000000000000  -0.140404556631138 1
force V  -0.000000000000000   0.000000000000000   0.129188196558773 1
force V   0.001603112472016   0.000000000000000   0.039608691786470 1
force V  -0.000000000000000  -0.000000000000000  -0.140529574636173 1
force V   0.001582255005345   0.000000000000000   0.129063597335340 1
force V  -0.001603112472016   0.000000000000000   0.039608691786470 1
force V   0.001582136587909   0.000000000000000  -0.140404556631139 1
force V  -0.001583209142701   0.001496938105562   0.129207992036479 1
force V   0.000000000000000   0.001487103569366   0.039608494054494 1
force V  -0.001583327692226   0.001496999066869  -0.140549432929442 1
force V   0.000000000000000   0.001496163264046   0.129327008991735 1
force V   0.001602999545211   0.001486957681928   0.039608716364790 1
force V   0.000000000000000   0.001496031048087  -0.140667450687597 1
force V   0.001583209142701   0.001496938105562   0.129207992038299 1
force V  -0.001602999545211   0.001486957681928   0.039608716364790 1
force V   0.001583327692226   0.001496999066869  -0.140549432930807 1
force B   0.000000000000000  -0.000000000000000  -0.021571936031712 1
force B  -0.000145115698387  -0.000000000000000   0.039614973601063 1
force B   0.000000000000000  -0.000000000000000   0.020938280560794 1
force B  -0.000145106866307  -0.000000000000000  -0.038080466307745 1
force B   0.000234253298807   0.000000000000000  -0.021859962561668 1
force B   0.000000000000000   0.000000000000000   0.039415439369447 1
force B   0.000234278083935   0.000000000000000   0.021226307152905 1
force B   0.000000000000000  -0.000000000000000  -0.037880978231854 1
force B  -0.000234253298807  -0.000000000000000  -0.021859962561668 1
force B   0.000145115698387   0.000000000000000   0.039614973601063 1
force B  -0.000234278083935   0.000000000000000   0.021226307153018 1
force B   0.000145106866307   0.000000000000000  -0.038080466307802 1
force B  -0.000000000000000   0.000001524492979  -0.021591664018038 1
force B  -0.000145080269670   0.000011885047496   0.039617157081165 1
force B   0.000000000000000   0.000001505178831   0.020958089081898 1
force B  -0.000145063888818   0.000011877352972  -0.038082612270083 1
force B   0.000234327833480   0.000001613147281  -0.021879249292850 1
force B   0.000000000000000   0.000011916744098   0.039417744053722 1
force B   0.000234370347781   0.000001611853390   0.021245536157644 1
force B   0.000000000000000   0.000011915950573  -0.037883305168838 1
force B  -0.000234327833480   0.000001613147281  -0.021879249292850 1
force B   0.000145080269670   0.000011885047496   0.039617157081108 1
force B  -0.000234370347781   0.000001611853390   0.021245536157644 1
force B   0.000145063888818   0.000011877352972  -0.038082612270026 1
force B   0.000000000000000  -0.000001524492979  -0.021591664017924 1
force B  -0.000145080269670  -0.000011885047496   0.039617157081222 1
force B  -0.000000000000000  -0.000001505178831   0.020958089081671 1
force B  -0.000145063888818  -0.000011877352972  -0.038082612270026 1
force B   0.000234327833480  -0.000001613147281  -0.021879249292963 1
force B  -0.000000000000000  -0.000011916744098   0.039417744053722 1
force B   0.000234370347781  -0.000001611853390   0.021245536157644 1
force B   0.000000000000000  -0.000011915950573  -0.037883305168894 1
force B  -0.000234327833480  -0.000001613147281  -0.021879249292963 1
force B   0.000145080269670  -0.000011885047496   0.039617157081108 1
force B  -0.000234370347781  -0.000001611853390   0.021245536157644 1
force B   0.000145063888818  -0.000011877352972  -0.038082612269969 1
force O   0.000000000000000  -0.000448839802453   0.006933093323685 1
force O   0.000000000000000  -0.000449016491774  -0.010792512941020 1
force O   0.000182365802327  -0.000447744214305   0.007307655084066 1
force O   0.000182256043844  -0.000447659535114  -0.011166566386763 1
force O  -0.000182365802327  -0.000447744214305   0.007307655083611 1
force O  -0.000182256043844  -0.000447659535114  -0.011166566386763 1
force O  -0.000000000000000   0.000000000000000   0.006997969636785 1
force O   0.000000000000000   0.000000000000000  -0.010855831900518 1
force O   0.000183503927497   0.000000000000000   0.007381863173375 1
force O   0.000183684646278  -0.000000000000000  -0.011241574793004 1
force O  -0.000183503927497   0.000000000000000   0.007381863172924 1
force O  -0.000183684646278   0.000000000000000  -0.011241574793459 1
force O  -0.000000000000000   0.000448839802453   0.006933093324140 1
force O   0.000000000000000   0.000449016491774  -0.010792512941020 1
force O   0.000182365802327   0.000447744214305   0.007307655083611 1
force O   0.000182256043844   0.000447659535114  -0.011166566387217 1
force O  -0.000182365802327   0.000447744214305   0.007307655084066 1
force O  -0.000182256043844   0.000447659535114  -0.011166566386766 1

# Energy components:
   A_diel =        0.0026317712061227
   Eewald =    32465.6353196303425648
       EH =    34401.8833889147645095
     Eloc =   -69637.8680219834350282
      Enl =       90.1592849662098530
      Exc =     -385.4169731834398362
 Exc_core =       35.4001869225828187
       KE =      699.8995048715174789
-------------------------------------
     Etot =    -2330.3046780902582213
       TS =        0.0850016959636207
-------------------------------------
        F =    -2330.3896797862216772

IonicMinimize: Iter:   1  F: -2330.389679786221677  |grad|_K:  9.088e-04  alpha:  1.000e+00  linmin: -9.572e-01  t[s]:   6896.03

#--- Lowdin population analysis ---
# oxidation-state V +1.026 +0.818 +1.026 +1.026 +0.818 +1.026 +1.026 +0.818 +1.026 +1.026 +0.818 +1.026 +1.026 +0.818 +1.026 +1.026 +0.818 +1.026 +1.026 +0.818 +1.026 +1.026 +0.818 +1.026 +1.026 +0.818 +1.026
# oxidation-state B -0.487 -0.404 -0.487 -0.404 -0.487 -0.404 -0.487 -0.404 -0.487 -0.404 -0.487 -0.404 -0.487 -0.404 -0.487 -0.404 -0.487 -0.404 -0.487 -0.404 -0.487 -0.404 -0.487 -0.404 -0.487 -0.404 -0.487 -0.404 -0.487 -0.404 -0.487 -0.404 -0.487 -0.404 -0.487 -0.404
# oxidation-state O -0.455 -0.455 -0.455 -0.455 -0.455 -0.455 -0.455 -0.455 -0.455 -0.455 -0.455 -0.455 -0.455 -0.455 -0.455 -0.455 -0.455 -0.455

	Linear fluid (dielectric constant: 78.4, screening length: 5.74355 Bohr) occupying 0.724722 of unit cell:	Completed after 15 iterations at t[s]:   6927.41

-------- Electronic minimization -----------
	Linear fluid (dielectric constant: 78.4, screening length: 5.74355 Bohr) occupying 0.724722 of unit cell:	Completed after 0 iterations at t[s]:   6946.75
	FillingsUpdate:  mu: -0.228336915  nElectrons: 567.000000
ElecMinimize: Iter:   0  F: -2330.388089676450818  |grad|_K:  2.516e-06  alpha:  1.000e+00
	Linear fluid (dielectric constant: 78.4, screening length: 5.74355 Bohr) occupying 0.724690 of unit cell:	Completed after 15 iterations at t[s]:   7014.28
	Linear fluid (dielectric constant: 78.4, screening length: 5.74355 Bohr) occupying 0.724709 of unit cell:	Completed after 15 iterations at t[s]:   7043.39
	FillingsUpdate:  mu: -0.233415323  nElectrons: 567.000000
	SubspaceRotationAdjust: set factor to 0.121
ElecMinimize: Iter:   1  F: -2330.388659661826750  |grad|_K:  1.948e-06  alpha:  4.072e-01  linmin:  3.214e-05  t[s]:   7078.47
	Linear fluid (dielectric constant: 78.4, screening length: 5.74355 Bohr) occupying 0.724696 of unit cell:	Completed after 6 iterations at t[s]:   7107.21
	Linear fluid (dielectric constant: 78.4, screening length: 5.74355 Bohr) occupying 0.724691 of unit cell:	Completed after 5 iterations at t[s]:   7134.22
	FillingsUpdate:  mu: -0.233394027  nElectrons: 567.000000
	SubspaceRotationAdjust: set factor to 0.155
ElecMinimize: Iter:   2  F: -2330.389150021007481  |grad|_K:  1.611e-06  alpha:  5.842e-01  linmin:  7.330e-06  t[s]:   7168.24
	Linear fluid (dielectric constant: 78.4, screening length: 5.74355 Bohr) occupying 0.724671 of unit cell:	Completed after 8 iterations at t[s]:   7196.96
	Linear fluid (dielectric constant: 78.4, screening length: 5.74355 Bohr) occupying 0.724664 of unit cell:	Completed after 6 iterations at t[s]:   7224.53
	FillingsUpdate:  mu: -0.232740128  nElectrons: 567.000000
	SubspaceRotationAdjust: set factor to 0.183
ElecMinimize: Iter:   3  F: -2330.389613499856750  |grad|_K:  1.584e-06  alpha:  8.068e-01  linmin: -5.751e-07  t[s]:   7258.60
	Linear fluid (dielectric constant: 78.4, screening length: 5.74355 Bohr) occupying 0.724630 of unit cell:	Completed after 8 iterations at t[s]:   7287.47
	Linear fluid (dielectric constant: 78.4, screening length: 5.74355 Bohr) occupying 0.724630 of unit cell:	Completed after 3 iterations at t[s]:   7314.25
	FillingsUpdate:  mu: -0.232999501  nElectrons: 567.000000
	SubspaceRotationAdjust: set factor to 0.211
ElecMinimize: Iter:   4  F: -2330.390068340290782  |grad|_K:  1.033e-06  alpha:  8.180e-01  linmin:  7.444e-07  t[s]:   7348.64
	Linear fluid (dielectric constant: 78.4, screening length: 5.74355 Bohr) occupying 0.724614 of unit cell:	Completed after 8 iterations at t[s]:   7377.33
	Linear fluid (dielectric constant: 78.4, screening length: 5.74355 Bohr) occupying 0.724619 of unit cell:	Completed after 3 iterations at t[s]:   7403.87
	FillingsUpdate:  mu: -0.233218390  nElectrons: 567.000000
	SubspaceRotationAdjust: set factor to 0.226
[...]
	FillingsUpdate:  mu: -0.233713561  nElectrons: 567.000000
	SubspaceRotationAdjust: set factor to 0.293
ElecMinimize: Iter:  19  F: -2330.390872618940193  |grad|_K:  1.521e-08  alpha:  1.069e-01  linmin:  1.163e-05  t[s]:  17911.53
	Linear fluid (dielectric constant: 78.4, screening length: 5.74355 Bohr) occupying 0.723923 of unit cell:	Completed after 0 iterations at t[s]:  17938.70
	Linear fluid (dielectric constant: 78.4, screening length: 5.74355 Bohr) occupying 0.723923 of unit cell:	Completed after 0 iterations at t[s]:  17964.49
	FillingsUpdate:  mu: -0.233713617  nElectrons: 567.000000
	SubspaceRotationAdjust: set factor to 0.388
ElecMinimize: Iter:  20  F: -2330.390872634219249  |grad|_K:  1.428e-08  alpha:  3.099e-01  linmin: -2.409e-06  t[s]:  17998.06
	Linear fluid (dielectric constant: 78.4, screening length: 5.74355 Bohr) occupying 0.723923 of unit cell:	Completed after 0 iterations at t[s]:  18025.32
	Linear fluid (dielectric constant: 78.4, screening length: 5.74355 Bohr) occupying 0.723923 of unit cell:	Completed after 0 iterations at t[s]:  18050.89
	FillingsUpdate:  mu: -0.233713667  nElectrons: 567.000000
	SubspaceRotationAdjust: set factor to 0.493
	SubspaceRotationAdjust: resetting CG because factor has changed by 7.58629
	Linear fluid (dielectric constant: 78.4, screening length: 5.74355 Bohr) occupying 0.723923 of unit cell:	Completed after 0 iterations at t[s]:  18099.26
ElecMinimize: 	State modified externally: resetting search direction.
ElecMinimize: Iter:  21  F: -2330.390872649143148  |grad|_K:  1.616e-08  alpha:  4.030e-01
	Linear fluid (dielectric constant: 78.4, screening length: 5.74355 Bohr) occupying 0.723923 of unit cell:	Completed after 0 iterations at t[s]:  18159.97
	Linear fluid (dielectric constant: 78.4, screening length: 5.74355 Bohr) occupying 0.723923 of unit cell:	Completed after 0 iterations at t[s]:  18185.69
	FillingsUpdate:  mu: -0.233713612  nElectrons: 567.000000
	SubspaceRotationAdjust: set factor to 0.664
ElecMinimize: Iter:  22  F: -2330.390872678059168  |grad|_K:  1.248e-08  alpha:  4.997e-01  linmin: -1.381e-08  t[s]:  18219.39
	Linear fluid (dielectric constant: 78.4, screening length: 5.74355 Bohr) occupying 0.723923 of unit cell:	Completed after 2 iterations at t[s]:  18247.11
	Linear fluid (dielectric constant: 78.4, screening length: 5.74355 Bohr) occupying 0.723923 of unit cell:	Completed after 0 iterations at t[s]:  18273.00
ElecMinimize: 	Step increased F by 1.682793e-08, reducing alpha to 7.168840e-03.
	Linear fluid (dielectric constant: 78.4, screening length: 5.74355 Bohr) occupying 0.723923 of unit cell:	Completed after 0 iterations at t[s]:  18328.27
ElecMinimize: 	Step increased F by 1.203853e-08, reducing alpha to 7.168840e-04.
	Linear fluid (dielectric constant: 78.4, screening length: 5.74355 Bohr) occupying 0.723923 of unit cell:	Completed after 0 iterations at t[s]:  18383.45
ElecMinimize: 	Step increased F by 1.121225e-08, reducing alpha to 7.168840e-05.
ElecMinimize: 	Step failed to reduce F after 3 attempts. Quitting step.
ElecMinimize: 	Undoing step.
	Linear fluid (dielectric constant: 78.4, screening length: 5.74355 Bohr) occupying 0.723923 of unit cell:	Completed after 0 iterations at t[s]:  18439.17
ElecMinimize: 	Step failed: resetting search direction.
	FillingsUpdate:  mu: -0.233703667  nElectrons: 567.000000
	SubspaceRotationAdjust: set factor to 0.369
ElecMinimize: Iter:  23  F: -2330.390872666851919  |grad|_K:  6.152e-08  alpha:  7.169e-05
	Linear fluid (dielectric constant: 78.4, screening length: 5.74355 Bohr) occupying 0.723923 of unit cell:	Completed after 6 iterations at t[s]:  18501.37
	Linear fluid (dielectric constant: 78.4, screening length: 5.74355 Bohr) occupying 0.723923 of unit cell:	Completed after 2 iterations at t[s]:  18527.79
	FillingsUpdate:  mu: -0.233805767  nElectrons: 567.000000
	SubspaceRotationAdjust: set factor to 0.163
ElecMinimize: Iter:  24  F: -2330.390872708198458  |grad|_K:  3.669e-08  alpha:  6.093e-02  linmin:  3.495e-03  t[s]:  18561.73
	Linear fluid (dielectric constant: 78.4, screening length: 5.74355 Bohr) occupying 0.723923 of unit cell:	Completed after 2 iterations at t[s]:  18590.06
	Linear fluid (dielectric constant: 78.4, screening length: 5.74355 Bohr) occupying 0.723923 of unit cell:	Completed after 0 iterations at t[s]:  18615.58
ElecMinimize: 	Step increased F by 3.856667e-08, reducing alpha to 9.980382e-04.
	Linear fluid (dielectric constant: 78.4, screening length: 5.74355 Bohr) occupying 0.723923 of unit cell:	Completed after 0 iterations at t[s]:  18670.92
ElecMinimize: 	Step increased F by 3.880587e-08, reducing alpha to 9.980382e-05.
	Linear fluid (dielectric constant: 78.4, screening length: 5.74355 Bohr) occupying 0.723923 of unit cell:	Completed after 0 iterations at t[s]:  18726.58
ElecMinimize: 	Step increased F by 3.866035e-08, reducing alpha to 9.980382e-06.
ElecMinimize: 	Step failed to reduce F after 3 attempts. Quitting step.
ElecMinimize: 	Undoing step.
	Linear fluid (dielectric constant: 78.4, screening length: 5.74355 Bohr) occupying 0.723923 of unit cell:	Completed after 0 iterations at t[s]:  18781.62
ElecMinimize: 	Step failed: resetting search direction.
	FillingsUpdate:  mu: -0.233747523  nElectrons: 567.000000
	SubspaceRotationAdjust: set factor to 0.119
ElecMinimize: Iter:  25  F: -2330.390872669487635  |grad|_K:  2.033e-08  alpha:  9.980e-06
	Linear fluid (dielectric constant: 78.4, screening length: 5.74355 Bohr) occupying 0.723923 of unit cell:	Completed after 0 iterations at t[s]:  18842.82
ElecMinimize: 	Predicted alpha/alphaT>3.000000, increasing alphaT to 1.827908e-01.
	Linear fluid (dielectric constant: 78.4, screening length: 5.74355 Bohr) occupying 0.723923 of unit cell:	Completed after 2 iterations at t[s]:  18868.47
	Linear fluid (dielectric constant: 78.4, screening length: 5.74355 Bohr) occupying 0.723923 of unit cell:	Completed after 0 iterations at t[s]:  18894.16
	FillingsUpdate:  mu: -0.233740609  nElectrons: 567.000000
	SubspaceRotationAdjust: set factor to 0.158
ElecMinimize: Iter:  26  F: -2330.390872675725404  |grad|_K:  6.874e-09  alpha:  1.231e-01  linmin: -1.600e-03  t[s]:  18927.58
	Linear fluid (dielectric constant: 78.4, screening length: 5.74355 Bohr) occupying 0.723923 of unit cell:	Completed after 0 iterations at t[s]:  18955.06
ElecMinimize: 	Predicted alpha/alphaT>3.000000, increasing alphaT to 3.692725e-01.
	Linear fluid (dielectric constant: 78.4, screening length: 5.74355 Bohr) occupying 0.723923 of unit cell:	Completed after 0 iterations at t[s]:  18979.87
	Linear fluid (dielectric constant: 78.4, screening length: 5.74355 Bohr) occupying 0.723923 of unit cell:	Completed after 0 iterations at t[s]:  19005.34
	FillingsUpdate:  mu: -0.233740560  nElectrons: 567.000000
	SubspaceRotationAdjust: set factor to 0.192
ElecMinimize: Iter:  27  F: -2330.390872684261012  |grad|_K:  9.138e-09  alpha:  6.675e-01  linmin:  6.670e-06  t[s]:  19039.19
ElecMinimize: Converged (|Delta F|<1.000000e-08 for 2 iters).
Setting wave functions to eigenvectors of Hamiltonian

# Ionic positions in lattice coordinates:
ion V   0.166667052761642   0.166667064367456   0.618872350374505 1
ion V   0.000000001037037   0.166667065049296   0.499999667855423 1
ion V   0.166667052769470   0.166667064359414   0.381126289430597 1
ion V   0.500000001037037   0.166667064368715   0.618872351277120 1
ion V   0.333332948556404   0.166667065049570   0.499999667859065 1
ion V   0.500000001037037   0.166667064360826   0.381126288510940 1
ion V   0.833332949312432   0.166667064367456   0.618872350374505 1
ion V   0.666667053517670   0.166667065049570   0.499999667859065 1
ion V   0.833332949304604   0.166667064359414   0.381126289430597 1
ion V   0.166667052763018   0.500000000000000   0.618872349101079 1
ion V   0.000000001037037   0.500000000000000   0.499999667855274 1
ion V   0.166667052771287   0.500000000000000   0.381126290709042 1
ion V   0.500000001037037   0.500000000000000   0.618872350004712 1
ion V   0.333332948556603   0.500000000000000   0.499999667858959 1
ion V   0.500000001037037   0.500000000000000   0.381126289787843 1
ion V   0.833332949311056   0.500000000000000   0.618872349101079 1
ion V   0.666667053517471   0.500000000000000   0.499999667858959 1
ion V   0.833332949302787   0.500000000000000   0.381126290709042 1
ion V   0.166667052761642   0.833332935632545   0.618872350374505 1
ion V   0.000000001037037   0.833332934950704   0.499999667855423 1
ion V   0.166667052769470   0.833332935640587   0.381126289430597 1
ion V   0.500000001037037   0.833332935631285   0.618872351277120 1
ion V   0.333332948556404   0.833332934950430   0.499999667859065 1
ion V   0.500000001037037   0.833332935639174   0.381126288510940 1
ion V   0.833332949312432   0.833332935632545   0.618872350374505 1
ion V   0.666667053517670   0.833332934950430   0.499999667859065 1
ion V   0.833332949304604   0.833332935640587   0.381126289430597 1
ion B   0.000000001037037   0.000000000000000   0.575866967191817 1
ion B   0.166667135277784  -0.000000000000000   0.539746264868507 1
ion B   0.000000001037037  -0.000000000000000   0.424131901741930 1
ion B   0.166667135278052  -0.000000000000000   0.460252691262105 1
ion B   0.333332871288067   0.000000000000000   0.575866964561529 1
ion B   0.500000001037037  -0.000000000000000   0.539746262802621 1
ion B   0.333332871289000  -0.000000000000000   0.424131904371369 1
ion B   0.500000001037037  -0.000000000000000   0.460252693325236 1
ion B   0.666667130786007   0.000000000000000   0.575866964561529 1
ion B   0.833332866796290   0.000000000000000   0.539746264868507 1
ion B   0.666667130785075  -0.000000000000000   0.424131904371369 1
ion B   0.833332866796022  -0.000000000000000   0.460252691262105 1
ion B   0.000000001037037   0.333332857532070   0.575866967007305 1
ion B   0.166667135277867   0.333332858101126   0.539746264887003 1
ion B   0.000000001037037   0.333332857528512   0.424131901925852 1
ion B   0.166667135278015   0.333332858101007   0.460252691244605 1
ion B   0.333332871287952   0.333332857532244   0.575866964377298 1
ion B   0.500000001037037   0.333332858101111   0.539746262821122 1
ion B   0.333332871289462   0.333332857528641   0.424131904555230 1
ion B   0.500000001037037   0.333332858101125   0.460252693307660 1
ion B   0.666667130786122   0.333332857532244   0.575866964377298 1
ion B   0.833332866796207   0.333332858101126   0.539746264887003 1
ion B   0.666667130784612   0.333332857528641   0.424131904555230 1
ion B   0.833332866796059   0.333332858101007   0.460252691244605 1
ion B   0.000000001037037   0.666667142467930   0.575866967007305 1
ion B   0.166667135277867   0.666667141898874   0.539746264887003 1
ion B   0.000000001037037   0.666667142471489   0.424131901925852 1
ion B   0.166667135278015   0.666667141898993   0.460252691244605 1
ion B   0.333332871287952   0.666667142467755   0.575866964377298 1
ion B   0.500000001037037   0.666667141898889   0.539746262821122 1
ion B   0.333332871289462   0.666667142471359   0.424131904555230 1
ion B   0.500000001037037   0.666667141898875   0.460252693307660 1
ion B   0.666667130786122   0.666667142467755   0.575866964377298 1
ion B   0.833332866796207   0.666667141898874   0.539746264887003 1
ion B   0.666667130784612   0.666667142471359   0.424131904555230 1
ion B   0.833332866796059   0.666667141898993   0.460252691244605 1
ion O   0.000000001037037   0.166667118307555   0.668664938098192 1
ion O   0.000000001037037   0.166667118305148   0.331333871111091 1
ion O   0.333332867557218   0.166667118309262   0.668664940619860 1
ion O   0.333332867557168   0.166667118306899   0.331333868594275 1
ion O   0.666667134516856   0.166667118309262   0.668664940619860 1
ion O   0.666667134516906   0.166667118306899   0.331333868594275 1
ion O   0.000000001037037   0.500000000000000   0.668664938628743 1
ion O   0.000000001037037   0.500000000000000   0.331333870585628 1
ion O   0.333332867558710   0.500000000000000   0.668664941152482 1
ion O   0.333332867559213   0.500000000000000   0.331333868066481 1
ion O   0.666667134515364   0.500000000000000   0.668664941152482 1
ion O   0.666667134514861   0.500000000000000   0.331333868066481 1
ion O   0.000000001037037   0.833332881692445   0.668664938098192 1
ion O   0.000000001037037   0.833332881694852   0.331333871111091 1
ion O   0.333332867557218   0.833332881690738   0.668664940619860 1
ion O   0.333332867557168   0.833332881693101   0.331333868594275 1
ion O   0.666667134516856   0.833332881690738   0.668664940619860 1
ion O   0.666667134516906   0.833332881693101   0.331333868594275 1


# Forces in Lattice coordinates:
force V  -0.001354602518578  -0.001267129941131   0.003649700639853 1
force V   0.000000000000000  -0.001250024872380  -0.008553703654641 1
force V  -0.001354527527188  -0.001267381323140   0.005088188359272 1
force V   0.000000000000000  -0.001267133004088   0.003958231016199 1
force V   0.001380294645130  -0.001250003734550  -0.008554134118135 1
force V  -0.000000000000000  -0.001267396641867   0.004781070317840 1
force V   0.001354602518578  -0.001267129941131   0.003649700639853 1
force V  -0.001380294645130  -0.001250003734550  -0.008554134118135 1
force V   0.001354527527188  -0.001267381323140   0.005088188359272 1
force V  -0.001354568938245   0.000000000000000   0.003486409731350 1
force V  -0.000000000000000  -0.000000000000000  -0.008553452256911 1
force V  -0.001354525816075   0.000000000000000   0.005252591213087 1
force V   0.000000000000000   0.000000000000000   0.003794856888258 1
force V   0.001380284148076   0.000000000000000  -0.008554045875059 1
force V   0.000000000000000   0.000000000000000   0.004945585544105 1
force V   0.001354568938245   0.000000000000000   0.003486409731350 1
force V  -0.001380284148076  -0.000000000000000  -0.008554045875059 1
force V   0.001354525816075   0.000000000000000   0.005252591212177 1
force V  -0.001354602518578   0.001267129941131   0.003649700638944 1
force V   0.000000000000000   0.001250024872380  -0.008553703654641 1
force V  -0.001354527527188   0.001267381323140   0.005088188356999 1
force V  -0.000000000000000   0.001267133004088   0.003958231013470 1
force V   0.001380294645130   0.001250003734550  -0.008554134118135 1
force V   0.000000000000000   0.001267396641867   0.004781070316930 1
force V   0.001354602518578   0.001267129941131   0.003649700638944 1
force V  -0.001380294645130   0.001250003734550  -0.008554134118135 1
force V   0.001354527527188   0.001267381323140   0.005088188357000 1
force B   0.000000000000000  -0.000000000000000  -0.004243271698311 1
force B  -0.000147767652898   0.000000000000000  -0.002218621797459 1
force B   0.000000000000000   0.000000000000000   0.004418097679799 1
force B  -0.000147705492361  -0.000000000000000   0.001814707024083 1
force B   0.000219074966579  -0.000000000000000  -0.004529414384103 1
force B   0.000000000000000   0.000000000000000  -0.002449823097797 1
force B   0.000219148611664   0.000000000000000   0.004704193843459 1
force B   0.000000000000000   0.000000000000000   0.002045789256817 1
force B  -0.000219074966579   0.000000000000000  -0.004529414384217 1
force B   0.000147767652898  -0.000000000000000  -0.002218621797516 1
force B  -0.000219148611664  -0.000000000000000   0.004704193843686 1
force B   0.000147705492361  -0.000000000000000   0.001814707024083 1
force B  -0.000000000000000   0.000002072486758  -0.004267357818494 1
force B  -0.000147732687163   0.000012553036186  -0.002218761799111 1
force B   0.000000000000000   0.000002048977082   0.004442555728549 1
force B  -0.000147705149455   0.000012535644294   0.001815082278784 1
force B   0.000219088286780   0.000002096816889  -0.004553607360970 1
force B   0.000000000000000   0.000012553228063  -0.002450016100898 1
force B   0.000219154421183   0.000002067002808   0.004728710025308 1
force B   0.000000000000000   0.000012534785672   0.002046074710167 1
force B  -0.000219088286780   0.000002096816889  -0.004553607361084 1
force B   0.000147732687163   0.000012553036186  -0.002218761799168 1
force B  -0.000219154421183   0.000002067002808   0.004728710025422 1
force B   0.000147705149455   0.000012535644294   0.001815082278784 1
force B  -0.000000000000000  -0.000002072486758  -0.004267357818494 1
force B  -0.000147732687163  -0.000012553036186  -0.002218761799111 1
force B   0.000000000000000  -0.000002048977082   0.004442555728663 1
force B  -0.000147705149455  -0.000012535644294   0.001815082278728 1
force B   0.000219088286780  -0.000002096816889  -0.004553607361083 1
force B   0.000000000000000  -0.000012553228063  -0.002450016101011 1
force B   0.000219154421183  -0.000002067002808   0.004728710025308 1
force B   0.000000000000000  -0.000012534785672   0.002046074710224 1
force B  -0.000219088286780  -0.000002096816889  -0.004553607361083 1
force B   0.000147732687163  -0.000012553036186  -0.002218761799168 1
force B  -0.000219154421183  -0.000002067002808   0.004728710025422 1
force B   0.000147705149455  -0.000012535644294   0.001815082278784 1
force O   0.000000000000000  -0.000419026512868   0.002265511387460 1
force O   0.000000000000000  -0.000419297983300  -0.001452751013634 1
force O   0.000180871184193  -0.000419050289029   0.002609482862223 1
force O   0.000180943347551  -0.000419306961707  -0.001797918097949 1
force O  -0.000180871184193  -0.000419050289029   0.002609482861772 1
force O  -0.000180943347551  -0.000419306961707  -0.001797918097939 1
force O   0.000000000000000   0.000000000000000   0.002294934240517 1
force O  -0.000000000000000   0.000000000000000  -0.001481046159338 1
force O   0.000180869302456   0.000000000000000   0.002638864521995 1
force O   0.000180921358668  -0.000000000000000  -0.001826137177641 1
force O  -0.000180869302456   0.000000000000000   0.002638864521995 1
force O  -0.000180921358668   0.000000000000000  -0.001826137178544 1
force O   0.000000000000000   0.000419026512868   0.002265511387463 1
force O  -0.000000000000000   0.000419297983300  -0.001452751013641 1
force O   0.000180871184193   0.000419050289029   0.002609482862681 1
force O   0.000180943347551   0.000419306961707  -0.001797918097946 1
force O  -0.000180871184193   0.000419050289029   0.002609482861768 1
force O  -0.000180943347551   0.000419306961707  -0.001797918098390 1

# Energy components:
   A_diel =        0.0026749010168181
   Eewald =    32372.1387224307545694
       EH =    34308.6501000624048174
     Eloc =   -69450.9343898296356201
      Enl =       90.1846458055028535
      Exc =     -385.2980276554435477
 Exc_core =       35.3999596586081537
       KE =      699.5514496374453302
-------------------------------------
     Etot =    -2330.3048649893421498
       TS =        0.0860076949189110
-------------------------------------
        F =    -2330.3908726842610122

IonicMinimize: Iter:   6  F: -2330.390872684261012  |grad|_K:  3.767e-05  alpha:  1.000e+00  linmin:  4.355e-02  t[s]:  19057.46
IonicMinimize: Converged (|grad|_K<1.000000e-04).

#--- Lowdin population analysis ---
# oxidation-state V +1.028 +0.821 +1.028 +1.028 +0.821 +1.028 +1.028 +0.821 +1.028 +1.028 +0.821 +1.028 +1.028 +0.821 +1.028 +1.028 +0.821 +1.028 +1.028 +0.821 +1.028 +1.028 +0.821 +1.028 +1.028 +0.821 +1.028
# oxidation-state B -0.491 -0.404 -0.491 -0.404 -0.491 -0.404 -0.491 -0.404 -0.491 -0.404 -0.491 -0.404 -0.491 -0.404 -0.491 -0.404 -0.491 -0.404 -0.491 -0.404 -0.491 -0.404 -0.491 -0.404 -0.491 -0.404 -0.491 -0.404 -0.491 -0.404 -0.491 -0.404 -0.491 -0.404 -0.491 -0.404
# oxidation-state O -0.456 -0.456 -0.456 -0.456 -0.456 -0.456 -0.456 -0.456 -0.456 -0.456 -0.456 -0.456 -0.456 -0.456 -0.456 -0.456 -0.456 -0.456


Dumping 'NbTe2.fillings' ... done
Dumping 'NbTe2.wfns' ... done
Dumping 'NbTe2.fluidState' ... done
Dumping 'NbTe2.ionpos' ... done
Dumping 'NbTe2.eigenvals' ... done
End date and time: Sun Apr 25 19:18:21 2021  (Duration: 0-5:17:47.81)
Done!
