  COHP#  atomMU  atomNU     distance     translation      ICOHP (at) eF   for spin  1
      1     Ni1     S29      2.31615       0   0   0           -0.84026 
      2     Ni6     S29      2.31640       0  -1   0           -0.84119 
      3      P9     S29      2.17147      -1   0   0           -2.49626 
      4     S17     S29      3.22904       0   0   0           -0.06118 
      5     S18     S29      3.22702       0  -1   0           -0.06160 
      6     S21     S29      3.44965      -1   0   0           -0.02729 
      7     S25     S29      3.19988       0   0   0           -0.10237 
      8     S29     S33      3.22766       1   0   0           -0.06151 
      9     S29     S36      3.22918       0   1   0           -0.06123 
     10     S29     S38      3.45030       0   1   0           -0.02725 
     11     P13     S21      2.17063       1  -1   0           -2.50073 
     12     P13     S27      2.17145       1  -1   0           -2.49629 
     13     P13     S38      2.17019       0   0   0           -2.50174 
  COHP#  atomMU  atomNU     distance     translation      ICOHP (at) eF   for spin  2
      1     Ni1     S29      2.31615       0   0   0           -0.85335 
      2     Ni6     S29      2.31640       0  -1   0           -0.85019 
      3      P9     S29      2.17147      -1   0   0           -2.49514 
      4     S17     S29      3.22904       0   0   0           -0.06103 
      5     S18     S29      3.22702       0  -1   0           -0.06144 
      6     S21     S29      3.44965      -1   0   0           -0.02861 
      7     S25     S29      3.19988       0   0   0           -0.10329 
      8     S29     S33      3.22766       1   0   0           -0.06132 
      9     S29     S36      3.22918       0   1   0           -0.06100 
     10     S29     S38      3.45030       0   1   0           -0.02832 
     11     P13     S21      2.17063       1  -1   0           -2.49872 
     12     P13     S27      2.17145       1  -1   0           -2.49517 
     13     P13     S38      2.17019       0   0   0           -2.50149 
