
*************** JDFTx 1.5.0  ***************

Start date and time: Tue Jul 14 15:37:32 2020
Executable jdftx_gpu with command-line: -i Neutral.in -o Neutral.out
Running on hosts (process indices):  amax (0-3)
Divided in process groups (process indices):  0 (0)  1 (1)  2 (2)  3 (3)
gpuInit: Found compatible cuda device 0 'Tesla K80'
gpuInit: Found compatible cuda device 1 'Tesla K80'
gpuInit: Found compatible cuda device 2 'Tesla K80'
gpuInit: Found compatible cuda device 3 'Tesla K80'
gpuInit: Selected device 0
Resource initialization completed at t[s]:      5.80
Run totals: 4 processes, 24 threads, 4 GPUs


Input parsed successfully to the following command list (including defaults):

basis kpoint-dependent
cache-projectors no
coords-type Lattice
core-overlap-check none
coulomb-interaction Slab 001
coulomb-truncation-embed 0 0 0.5
davidson-band-ratio 1.1
dump End State
dump-name NbTe2.$VAR
elec-cutoff 20 100
elec-eigen-algo Davidson
elec-ex-corr gga-PBE
elec-smearing Gauss 0.0073499
electronic-minimize  \
	dirUpdateScheme      FletcherReeves \
	linminMethod         DirUpdateRecommended \
	nIterations          500 \
	history              15 \
	knormThreshold       0 \
	energyDiffThreshold  1e-08 \
	nEnergyDiff          2 \
	alphaTstart          1 \
	alphaTmin            1e-10 \
	updateTestStepSize   yes \
	alphaTreduceFactor   0.1 \
	alphaTincreaseFactor 3 \
	nAlphaAdjustMax      3 \
	wolfeEnergy          0.0001 \
	wolfeGradient        0.9 \
	fdTest               no
exchange-regularization WignerSeitzTruncated
fluid LinearPCM 298.000000 1.013250
fluid-anion F- 1 MeanFieldLJ \
	epsBulk 1 \
	pMol 0 \
	epsInf 1 \
	Pvap 0 \
	sigmaBulk 0 \
	Rvdw 2.24877 \
	Res 0 \
	tauNuc 343133
fluid-cation Na+ 1 MeanFieldLJ \
	epsBulk 1 \
	pMol 0 \
	epsInf 1 \
	Pvap 0 \
	sigmaBulk 0 \
	Rvdw 2.19208 \
	Res 0 \
	tauNuc 343133
fluid-ex-corr lda-TF lda-PZ
fluid-gummel-loop 10 1.000000e-05
fluid-minimize  \
	dirUpdateScheme      PolakRibiere \
	linminMethod         DirUpdateRecommended \
	nIterations          400 \
	history              15 \
	knormThreshold       1e-11 \
	energyDiffThreshold  0 \
	nEnergyDiff          2 \
	alphaTstart          1 \
	alphaTmin            1e-10 \
	updateTestStepSize   yes \
	alphaTreduceFactor   0.1 \
	alphaTincreaseFactor 3 \
	nAlphaAdjustMax      6 \
	wolfeEnergy          0.0001 \
	wolfeGradient        0.9 \
	fdTest               no
fluid-solvent H2O 55.338 ScalarEOS \
	epsBulk 78.4 \
	pMol 0.92466 \
	epsInf 1.77 \
	Pvap 1.06736e-10 \
	sigmaBulk 4.62e-05 \
	Rvdw 2.61727 \
	Res 1.42 \
	tauNuc 343133 \
	poleEl 15 7 1
forces-output-coords Positions
initial-state NbTe2.$VAR
ion V   0.003239386089764   0.001435698047282   0.500670927518732 0
ion V   0.327114629627498   0.002030811473155   0.501027794989082 0
ion V   0.668927232574207   0.004234541523571   0.499747204204022 0
ion V   0.117599032186579   0.288522621362218   0.497599025835196 0
ion V   0.438330189591135   0.281666542630712   0.490985896895102 0
ion V   0.800870413559396   0.282792147154650   0.491274358848436 0
ion V   0.214829841367526   0.712829813959738   0.506020664526522 0
ion V   0.548109944289958   0.714431344065788   0.498474304587811 0
ion V   0.880829291029262   0.714288510808896   0.505604027367379 0
ion Te   0.147880696494666   0.110396403683035   0.603786606541764 0
ion Te   0.481094968298720   0.115606550285431   0.599834020737794 0
ion Te   0.814069938165055   0.116655830632676   0.600465004341150 0
ion Te   0.184681803116334   0.887421342304757   0.398842641727824 0
ion Te   0.516849497007886   0.898319571171670   0.398942940911439 0
ion Te   0.852711906012997   0.891069149277040   0.399249413617654 0
ion Te   0.267717827049790   0.446439748541367   0.578779719274016 0
ion Te   0.916266966818451   0.448034071794317   0.578658765563157 0
ion Te   0.074604767341024   0.552330529477864   0.422581082928785 0
ion Te   0.409756759324752   0.545985674321725   0.425508178515525 0
ion Te   0.742052708034479   0.546936118154903   0.424851253167365 0
ion Te   0.034925323312620   0.788589400013953   0.606733131294794 0
ion Te   0.373420784313641   0.785879614562313   0.604335565510937 0
ion Te   0.698022323462973   0.788196937706022   0.603753587715574 0
ion Te   0.290982426123269   0.206035630279037   0.392578481710027 0
ion Te   0.631491144393546   0.215728305827582   0.395721081496401 0
ion Te   0.971824240414462   0.205162168940315   0.392460220173510 0
ion-species GBRV/$ID_pbe.uspp
ion-width Ecut
ionic-minimize  \
	dirUpdateScheme      L-BFGS \
	linminMethod         DirUpdateRecommended \
	nIterations          0 \
	history              15 \
	knormThreshold       0.0001 \
	energyDiffThreshold  1e-06 \
	nEnergyDiff          2 \
	alphaTstart          1 \
	alphaTmin            1e-10 \
	updateTestStepSize   yes \
	alphaTreduceFactor   0.1 \
	alphaTincreaseFactor 3 \
	nAlphaAdjustMax      3 \
	wolfeEnergy          0.0001 \
	wolfeGradient        0.9 \
	fdTest               no
kpoint   0.000000000000   0.000000000000   0.000000000000  1.00000000000000
kpoint-folding 3 4 1 
latt-move-scale 1 1 1
latt-scale 1 1 1 
lattice Triclinic 19.0519 17.837 35.2048 90 90 79.7456
lattice-minimize  \
	dirUpdateScheme      L-BFGS \
	linminMethod         DirUpdateRecommended \
	nIterations          0 \
	history              15 \
	knormThreshold       0 \
	energyDiffThreshold  1e-06 \
	nEnergyDiff          2 \
	alphaTstart          1 \
	alphaTmin            1e-10 \
	updateTestStepSize   yes \
	alphaTreduceFactor   0.1 \
	alphaTincreaseFactor 3 \
	nAlphaAdjustMax      3 \
	wolfeEnergy          0.0001 \
	wolfeGradient        0.9 \
	fdTest               no
lcao-params -1 1e-06 0.0073499
pcm-variant CANDLE
spintype no-spin
subspace-rotation-factor 1 yes
symmetries automatic
symmetry-threshold 0.0001



---------- Setting up symmetries ----------

Found 4 point-group symmetries of the bravais lattice
Found 1 space-group symmetries with basis
Applied RMS atom displacement 0 bohrs to make symmetries exact.

---------- Initializing the Grid ----------
R = 
[    19.0519    3.17532          0  ]
[          0    17.5521          0  ]
[          0          0    35.2048  ]
unit cell volume = 11772.5
G =
[   0.329793 -0.0596624          0  ]
[          0   0.357974          0  ]
[          0          0   0.178475  ]
Minimum fftbox size, Smin = [  88  84  160  ]
Chosen fftbox size, S = [  90  84  160  ]

---------- Initializing tighter grid for wavefunction operations ----------
R = 
[    19.0519    3.17532          0  ]
[          0    17.5521          0  ]
[          0          0    35.2048  ]
unit cell volume = 11772.5
G =
[   0.329793 -0.0596624          0  ]
[          0   0.357974          0  ]
[          0          0   0.178475  ]
Minimum fftbox size, Smin = [  80  72  144  ]
Chosen fftbox size, S = [  80  72  144  ]

---------- Exchange Correlation functional ----------
Initalized PBE GGA exchange.
Initalized PBE GGA correlation.

---------- Setting up pseudopotentials ----------
Width of ionic core gaussian charges (only for fluid interactions / plotting) set to 0.397384

Reading pseudopotential file '/home/guoxy/vasp/jdftx-1.5.0/build/pseudopotentials/GBRV/v_pbe.uspp':
  Title: V.  Created by USPP 7.3.6 on 31-3-15
  Reference state energy: -72.228583.  13 valence electrons in orbitals:
    |300>  occupation: 2  eigenvalue: -2.581040
    |310>  occupation: 6  eigenvalue: -1.618497
    |400>  occupation: 2  eigenvalue: -0.172800
    |320>  occupation: 3  eigenvalue: -0.189802
  lMax: 2  lLocal: 3  QijEcut: 6
  6 projectors sampled on a log grid with 593 points:
    l: 0  eig: -2.581041  rCut: 1.5
    l: 0  eig: -0.172801  rCut: 1.5
    l: 1  eig: -1.618497  rCut: 1.6
    l: 1  eig: 0.150000  rCut: 1.6
    l: 2  eig: -0.189802  rCut: 1.7
    l: 2  eig: 0.150000  rCut: 1.7
  Partial core density with radius 0.8
  Transforming core density to a uniform radial grid of dG=0.02 with 1364 points.
  Transforming local potential to a uniform radial grid of dG=0.02 with 1364 points.
  Transforming nonlocal projectors to a uniform radial grid of dG=0.02 with 432 points.
  Transforming density augmentations to a uniform radial grid of dG=0.02 with 1364 points.
  Transforming atomic orbitals to a uniform radial grid of dG=0.02 with 432 points.
  Core radius for overlap checks: 1.80 bohrs.

Reading pseudopotential file '/home/guoxy/vasp/jdftx-1.5.0/build/pseudopotentials/GBRV/te_pbe.uspp':
  Title: Te.  Created by USPP 7.3.6 on 14-9-2013
  Reference state energy: -13.134220.  6 valence electrons in orbitals:
    |500>  occupation: 2  eigenvalue: -0.555231
    |510>  occupation: 4  eigenvalue: -0.218781
  lMax: 2  lLocal: 2  QijEcut: 5
  5 projectors sampled on a log grid with 723 points:
    l: 0  eig: -0.555229  rCut: 2.1
    l: 0  eig: 1.000000  rCut: 2.1
    l: 1  eig: -0.218780  rCut: 2.1
    l: 1  eig: 1.000000  rCut: 2.1
    l: 2  eig: 1.000000  rCut: 2.6
  Partial core density with radius 1.8
  Transforming core density to a uniform radial grid of dG=0.02 with 1364 points.
  Transforming local potential to a uniform radial grid of dG=0.02 with 1364 points.
  Transforming nonlocal projectors to a uniform radial grid of dG=0.02 with 432 points.
  Transforming density augmentations to a uniform radial grid of dG=0.02 with 1364 points.
  Transforming atomic orbitals to a uniform radial grid of dG=0.02 with 432 points.
  Core radius for overlap checks: 2.60 bohrs.

Initialized 2 species with 26 total atoms.

Folded 1 k-points by 3x4x1 to 12 k-points.

---------- Setting up k-points, bands, fillings ----------
Adding inversion symmetry to k-mesh for non-inversion-symmetric unit cell.
Reduced to 7 k-points under symmetry. 
Computing the number of bands and number of electrons
Calculating initial fillings.
nElectrons: 219.000000   nBands: 158   nStates: 7

----- Setting up reduced wavefunction bases (one per k-point) -----
average nbasis = 50306.750 , ideal nbasis = 50293.014

---------- Setting up coulomb interaction ----------
Fluid mode embedding: using embedded box, but periodic Coulomb kernel.
(Fluid response is responsible for (approximate) separation between periodic images.)
Setting up double-sized grid for truncated Coulomb potentials:
R = 
[    19.0519    3.17532          0  ]
[          0    17.5521          0  ]
[          0          0    70.4095  ]
unit cell volume = 23545
G =
[   0.329793 -0.0596624          0  ]
[          0   0.357974          0  ]
[          0          0  0.0892377  ]
Chosen fftbox size, S = [  90  84  320  ]
Integer grid location selected as the embedding center:
   Grid: [  0  0  80  ]
   Lattice: [  0  0  0.5  ]
   Cartesian: [  0  0  17.6024  ]
Constructing Wigner-Seitz cell: 8 faces (6 quadrilaterals, 2 hexagons)
Range-separation parameter for embedded mesh potentials due to point charges: 0.591767 bohrs.

Initializing van der Waals corrections
	NOTE: vdW corrections apply only for interactions with fluid.
	 V:  C6:  187.33 Eh-a0^6  R0: 2.952 a0
	Te:  C6:  550.54 Eh-a0^6  R0: 3.575 a0

---------- Setting up ewald sum ----------
Optimum gaussian width for ewald sums = 6.643252 bohr.
Real space sum over 605 unit cells with max indices [  5  5  2  ]
Reciprocal space sum over 6253 terms with max indices [  6  6  18  ]

---------- Allocating electronic variables ----------
Initializing wave functions:  linear combination of atomic orbitals
V pseudo-atom occupations:   s ( 2 0 )  p ( 6 )  d ( 5 )
Te pseudo-atom occupations:   s ( 2 )  p ( 4 )
	FillingsUpdate:  mu: -0.647595892  nElectrons: 219.000000
LCAOMinimize: Iter:   0  F: -757.0740204118163774  |grad|_K:  1.652e-02  alpha:  1.000e+00
	FillingsUpdate:  mu: -0.545337631  nElectrons: 219.000000
LCAOMinimize: Iter:   1  F: -770.6047826674645194  |grad|_K:  2.222e-02  alpha:  1.425e-01  linmin: -2.825e-01  cgtest:  4.642e-01  t[s]:     38.08
	FillingsUpdate:  mu: -0.485000694  nElectrons: 219.000000
LCAOMinimize: Iter:   2  F: -775.6080092730049955  |grad|_K:  2.162e-02  alpha:  1.943e-02  linmin: -3.331e-01  cgtest:  8.081e-01  t[s]:     47.70
LCAOMinimize: 	Wrong curvature in test step, increasing alphaT to 5.827623e-02.
	FillingsUpdate:  mu: -0.447841166  nElectrons: 219.000000
LCAOMinimize: Iter:   3  F: -778.2001817533040366  |grad|_K:  2.074e-02  alpha: -1.951e-01  linmin: -3.652e-01  cgtest:  8.737e-01  t[s]:     58.12
LCAOMinimize: 	Step increased F by 2.150812e+01, reducing alpha to 1.995083e-02.
	FillingsUpdate:  mu: -0.420043394  nElectrons: 219.000000
LCAOMinimize: Iter:   4  F: -779.9819965558831427  |grad|_K:  1.944e-02  alpha:  1.995e-02  linmin: -3.774e-01  cgtest:  9.040e-01  t[s]:     75.38
LCAOMinimize: 	Wrong curvature in test step, increasing alphaT to 5.985248e-02.
	FillingsUpdate:  mu: -0.395413727  nElectrons: 219.000000
LCAOMinimize: Iter:   5  F: -781.3781931783624941  |grad|_K:  1.794e-02  alpha: -2.623e+00  linmin: -3.917e-01  cgtest:  9.169e-01  t[s]:     84.72
	FillingsUpdate:  mu: +0.335621821  nElectrons: 219.000000
LCAOMinimize: Iter:   6  F: -781.7241671413594304  |grad|_K:  2.734e-02  alpha:  1.586e-01  linmin:  4.124e-01  cgtest: -6.236e-01  t[s]:     94.19
LCAOMinimize: 	Bad step direction: g.d > 0.
LCAOMinimize: 	Undoing step.
LCAOMinimize: 	Step failed: resetting search direction.
	FillingsUpdate:  mu: +0.335621821  nElectrons: 219.000000
LCAOMinimize: Iter:   7  F: -781.7241671413594304  |grad|_K:  2.734e-02  alpha:  0.000e+00
	FillingsUpdate:  mu: -0.127881748  nElectrons: 219.000000
LCAOMinimize: Iter:   8  F: -784.8369760416295549  |grad|_K:  1.206e-02  alpha:  7.487e-02  linmin:  2.273e-01  cgtest: -7.330e-01  t[s]:    109.61
	FillingsUpdate:  mu: -0.194231620  nElectrons: 219.000000
LCAOMinimize: Iter:   9  F: -785.0065565569392447  |grad|_K:  8.935e-03  alpha:  3.219e-02  linmin:  1.144e-02  cgtest:  8.304e-01  t[s]:    118.96
LCAOMinimize: Encountered beta<0, resetting CG.
	FillingsUpdate:  mu: -0.147583587  nElectrons: 219.000000
LCAOMinimize: Iter:  10  F: -785.3624202448652341  |grad|_K:  4.701e-03  alpha:  6.048e-02  linmin:  2.420e-01  cgtest: -5.009e-01  t[s]:    129.27
	FillingsUpdate:  mu: -0.123903087  nElectrons: 219.000000
LCAOMinimize: Iter:  11  F: -785.3772246391336012  |grad|_K:  4.569e-03  alpha:  2.341e-02  linmin: -3.354e-03  cgtest:  9.413e-01  t[s]:    140.78
	FillingsUpdate:  mu: -0.109572248  nElectrons: 219.000000
LCAOMinimize: Iter:  12  F: -785.4418852099851165  |grad|_K:  5.800e-04  alpha:  3.455e-02  linmin: -1.551e-01  cgtest:  2.579e-01  t[s]:    151.23
LCAOMinimize: Encountered beta<0, resetting CG.
LCAOMinimize: 	Predicted alpha/alphaT>3.000000, increasing alphaT to 1.036448e-01.
	FillingsUpdate:  mu: -0.114609649  nElectrons: 219.000000
LCAOMinimize: Iter:  13  F: -785.4472968010259137  |grad|_K:  9.861e-04  alpha:  1.837e-01  linmin:  2.903e-03  cgtest:  6.315e-04  t[s]:    165.02
	FillingsUpdate:  mu: -0.121109240  nElectrons: 219.000000
LCAOMinimize: Iter:  14  F: -785.4573498552144883  |grad|_K:  3.853e-04  alpha:  1.187e-01  linmin: -4.166e-04  cgtest:  2.515e-02  t[s]:    175.61
	FillingsUpdate:  mu: -0.119963721  nElectrons: 219.000000
LCAOMinimize: Iter:  15  F: -785.4581523324952741  |grad|_K:  2.746e-04  alpha:  6.066e-02  linmin: -7.671e-04  cgtest:  6.723e-03  t[s]:    186.09
	FillingsUpdate:  mu: -0.117787082  nElectrons: 219.000000
LCAOMinimize: Iter:  16  F: -785.4590807855319099  |grad|_K:  1.437e-04  alpha:  1.386e-01  linmin: -5.669e-04  cgtest:  8.048e-03  t[s]:    196.25
	FillingsUpdate:  mu: -0.118426981  nElectrons: 219.000000
LCAOMinimize: Iter:  17  F: -785.4591874523250681  |grad|_K:  8.468e-05  alpha:  5.814e-02  linmin: -5.691e-04  cgtest: -3.988e-03  t[s]:    206.69
	FillingsUpdate:  mu: -0.119256232  nElectrons: 219.000000
LCAOMinimize: Iter:  18  F: -785.4592459147893351  |grad|_K:  5.360e-05  alpha:  9.204e-02  linmin:  1.082e-04  cgtest: -3.023e-03  t[s]:    216.99
	FillingsUpdate:  mu: -0.118800605  nElectrons: 219.000000
LCAOMinimize: Iter:  19  F: -785.4592858065328755  |grad|_K:  6.282e-05  alpha:  1.571e-01  linmin:  3.638e-04  cgtest: -2.746e-04  t[s]:    227.84
	FillingsUpdate:  mu: -0.118582831  nElectrons: 219.000000
LCAOMinimize: Iter:  20  F: -785.4593074019900314  |grad|_K:  2.554e-05  alpha:  6.174e-02  linmin: -1.035e-03  cgtest:  1.968e-02  t[s]:    238.87
	FillingsUpdate:  mu: -0.118898081  nElectrons: 219.000000
LCAOMinimize: Iter:  21  F: -785.4593140167135061  |grad|_K:  2.661e-05  alpha:  1.143e-01  linmin:  1.725e-05  cgtest: -3.708e-03  t[s]:    248.70
	FillingsUpdate:  mu: -0.119064944  nElectrons: 219.000000
LCAOMinimize: Iter:  22  F: -785.4593196789269314  |grad|_K:  1.882e-05  alpha:  9.038e-02  linmin:  3.750e-05  cgtest:  2.642e-03  t[s]:    258.86
	FillingsUpdate:  mu: -0.118728904  nElectrons: 219.000000
LCAOMinimize: Iter:  23  F: -785.4593229918267525  |grad|_K:  6.321e-06  alpha:  1.057e-01  linmin:  3.410e-04  cgtest: -2.630e-04  t[s]:    269.50
	FillingsUpdate:  mu: -0.118702306  nElectrons: 219.000000
LCAOMinimize: Iter:  24  F: -785.4593231710298369  |grad|_K:  4.016e-06  alpha:  5.072e-02  linmin: -5.389e-05  cgtest:  1.525e-03  t[s]:    281.64
LCAOMinimize: 	Predicted alpha/alphaT>3.000000, increasing alphaT to 1.521676e-01.
	FillingsUpdate:  mu: -0.118711183  nElectrons: 219.000000
LCAOMinimize: Iter:  25  F: -785.4593236368643829  |grad|_K:  3.049e-06  alpha:  3.265e-01  linmin:  7.948e-05  cgtest: -3.225e-03  t[s]:    295.62
LCAOMinimize: Converged (|Delta F|<1.000000e-06 for 2 iters).
----- createFluidSolver() ----- (Fluid-side solver setup)
   Initializing fluid molecule 'H2O'
     Initializing site 'O'
       Electron density: proportional to exp(-r/0.36935)*erfc((r-0.51523)/0.36823) with norm 6.826
       Charge density: gaussian nuclear width 0.478731 with net site charge 0.826
       Polarizability: cuspless exponential with width 0.32 and norm 3.73
       Hard sphere radius: 2.57003 bohrs
       Positions in reference frame:
         [ +0.000000 +0.000000 +0.000000 ]
     Initializing site 'H'
       Electron density: proportional to exp(-r/0.34641)*erfc((r-0)/0.390882) with norm 0.587
       Charge density: gaussian nuclear width 0.377945 with net site charge -0.413
       Polarizability: cuspless exponential with width 0.39 and norm 3.3
       Positions in reference frame:
         [ +0.000000 -1.441945 +1.122523 ]
         [ +0.000000 +1.441945 +1.122523 ]
     Net charge: 0   dipole magnitude: 0.927204
     Initializing spherical shell mfKernel with radius 2.61727 Bohr
     deltaS corrections:
       site 'O': -7.54299
       site 'H': -6.83917
   Initializing fluid molecule 'Na+'
     Initializing site 'Na'
       Electron density: proportional to exp(-r/0.19682)*erfc((r-0.71491)/0.41314) with norm 8.1383
       Charge density: gaussian nuclear width 0.365347 with net site charge -1
       Hard sphere radius: 1.86327 bohrs
       Positions in reference frame:
         [ +0.000000 +0.000000 +0.000000 ]
     Net charge: -1   dipole magnitude: 0
     Initializing gaussian mfKernel with width: 1.55004 Bohr
     deltaS corrections:
       site 'Na': -22.3555
   Initializing fluid molecule 'F-'
     Initializing site 'F'
       Electron density: proportional to exp(-r/0.38886)*erfc((r-0)/0.438782) with norm 8
       Charge density: gaussian nuclear width 0.374796 with net site charge 1
       Hard sphere radius: 2.39995 bohrs
       Positions in reference frame:
         [ +0.000000 +0.000000 +0.000000 ]
     Net charge: 1   dipole magnitude: 0
     Initializing gaussian mfKernel with width: 1.59012 Bohr
     deltaS corrections:
       site 'F': -9.04335

Correction to mu due to finite nuclear width = -0.0092288
   Cavity determined by nc: 0.00142 and sigma: 0.707107
   Nonlocal vdW cavity from gaussian model electron density with norm = 8 and sigma = 0.993594 bohr
   Charge asymmetry in cavity with sensitivity pCavity = 36.5 e-bohr/Eh
   Electrostatic cavity expanded by eta = 1.46 bohrs
   Weighted density cavitation model constrained by Nbulk: 0.0049383 bohr^-3, Pvap: 3.14029 kPa, Rvdw: 2.61727 bohr and sigmaBulk: 4.62e-05 Eh/bohr^2 at T: 298 K.
   Weighted density dispersion model using vdW pair potentials with single solvent site with sqrtC6eff: 0.77 SI.


---- Citations for features of the code used in this run ----

   Software package:
      R. Sundararaman, K. Letchworth-Weaver, K.A. Schwarz, D. Gunceler, Y. Ozhabes and T.A. Arias, 'JDFTx: software for joint density-functional theory', SoftwareX 6, 278 (2017)

   gga-PBE exchange-correlation functional:
      J.P. Perdew, K. Burke and M. Ernzerhof, Phys. Rev. Lett. 77, 3865 (1996)

   Pseudopotentials:
      KF Garrity, JW Bennett, KM Rabe and D Vanderbilt, Comput. Mater. Sci. 81, 446 (2014)

   Truncated Coulomb potentials:
      R. Sundararaman and T.A. Arias, Phys. Rev. B 87, 165122 (2013)

   Van der Waals correction pair-potentials:
      S. Grimme, J. Comput. Chem. 27, 1787 (2006)

   Charge-asymmetric nonlocally-determined local-electric (CANDLE) solvation model:
      R. Sundararaman and W.A. Goddard III, J. Chem. Phys. 142, 064107 (2015)

   Total energy minimization with Auxiliary Hamiltonian:
      C. Freysoldt, S. Boeck, and J. Neugebauer, Phys. Rev. B 79, 241103(R) (2009)

This list may not be complete. Please suggest additional citations or
report any other bugs at https://github.com/shankar1729/jdftx/issues

Initialization completed successfully at t[s]:    298.24

Fluid solver invoked on fresh (partially random / LCAO) wavefunctions
Running a vacuum solve first:

-------- Initial electronic minimization -----------
	FillingsUpdate:  mu: -0.118711183  nElectrons: 219.000000
ElecMinimize: Iter:   0  F: -785.459323636862791  |grad|_K:  1.525e-04  alpha:  1.000e+00
	FillingsUpdate:  mu: -0.106292904  nElectrons: 219.000000
	SubspaceRotationAdjust: set factor to 1
ElecMinimize: Iter:   1  F: -786.183213341165015  |grad|_K:  1.202e-04  alpha:  5.597e-01  linmin:  5.028e-06  t[s]:    318.92
	FillingsUpdate:  mu: +0.004375034  nElectrons: 219.000000
	SubspaceRotationAdjust: set factor to 0.642
ElecMinimize: Iter:   2  F: -786.357292063621912  |grad|_K:  1.349e-04  alpha:  2.073e-01  linmin: -7.012e-05  t[s]:    332.47
	FillingsUpdate:  mu: -0.059316728  nElectrons: 219.000000
	SubspaceRotationAdjust: set factor to 0.417
ElecMinimize: Iter:   3  F: -786.627435294871134  |grad|_K:  8.868e-05  alpha:  2.549e-01  linmin: -1.787e-04  t[s]:    346.32
	FillingsUpdate:  mu: -0.067567559  nElectrons: 219.000000
	SubspaceRotationAdjust: set factor to 0.218
ElecMinimize: Iter:   4  F: -786.662955594642312  |grad|_K:  4.473e-05  alpha:  7.758e-02  linmin:  1.095e-05  t[s]:    360.59
ElecMinimize: 	Predicted alpha/alphaT>3.000000, increasing alphaT to 2.327258e-01.
	FillingsUpdate:  mu: -0.097331748  nElectrons: 219.000000
	SubspaceRotationAdjust: set factor to 0.18
ElecMinimize: Iter:   5  F: -786.718257127062657  |grad|_K:  4.233e-05  alpha:  4.966e-01  linmin: -4.771e-05  t[s]:    379.43
	FillingsUpdate:  mu: -0.088722642  nElectrons: 219.000000
	SubspaceRotationAdjust: set factor to 0.172
ElecMinimize: Iter:   6  F: -786.747555231951310  |grad|_K:  2.800e-05  alpha:  2.910e-01  linmin: -3.079e-05  t[s]:    393.33
	FillingsUpdate:  mu: -0.068021740  nElectrons: 219.000000
	SubspaceRotationAdjust: set factor to 0.178
ElecMinimize: Iter:   7  F: -786.764815953573361  |grad|_K:  2.044e-05  alpha:  3.948e-01  linmin:  3.805e-05  t[s]:    407.06
	FillingsUpdate:  mu: -0.068577824  nElectrons: 219.000000
	SubspaceRotationAdjust: set factor to 0.161
ElecMinimize: Iter:   8  F: -786.773305222173576  |grad|_K:  1.593e-05  alpha:  3.660e-01  linmin: -7.301e-07  t[s]:    422.15
	FillingsUpdate:  mu: -0.074523383  nElectrons: 219.000000
	SubspaceRotationAdjust: set factor to 0.166
ElecMinimize: Iter:   9  F: -786.778393671697927  |grad|_K:  1.116e-05  alpha:  3.598e-01  linmin: -9.229e-07  t[s]:    436.12
	FillingsUpdate:  mu: -0.074834488  nElectrons: 219.000000
	SubspaceRotationAdjust: set factor to 0.17
ElecMinimize: Iter:  10  F: -786.781466698687723  |grad|_K:  9.551e-06  alpha:  4.431e-01  linmin:  9.232e-07  t[s]:    449.68
	FillingsUpdate:  mu: -0.073978541  nElectrons: 219.000000
	SubspaceRotationAdjust: set factor to 0.161
ElecMinimize: Iter:  11  F: -786.783340614382496  |grad|_K:  7.503e-06  alpha:  3.688e-01  linmin: -3.799e-07  t[s]:    464.07
	FillingsUpdate:  mu: -0.075247861  nElectrons: 219.000000
	SubspaceRotationAdjust: set factor to 0.192
ElecMinimize: Iter:  12  F: -786.784861233112338  |grad|_K:  6.009e-06  alpha:  4.848e-01  linmin:  2.236e-06  t[s]:    478.23
	FillingsUpdate:  mu: -0.075586518  nElectrons: 219.000000
	SubspaceRotationAdjust: set factor to 0.178
ElecMinimize: Iter:  13  F: -786.785558696292583  |grad|_K:  4.768e-06  alpha:  3.470e-01  linmin: -1.345e-07  t[s]:    492.05
	FillingsUpdate:  mu: -0.074236072  nElectrons: 219.000000
	SubspaceRotationAdjust: set factor to 0.186
ElecMinimize: Iter:  14  F: -786.786185569207419  |grad|_K:  4.142e-06  alpha:  4.951e-01  linmin:  3.191e-06  t[s]:    506.53
	FillingsUpdate:  mu: -0.073606415  nElectrons: 219.000000
	SubspaceRotationAdjust: set factor to 0.195
ElecMinimize: Iter:  15  F: -786.786542087062230  |grad|_K:  3.004e-06  alpha:  3.734e-01  linmin:  5.069e-07  t[s]:    520.27
	FillingsUpdate:  mu: -0.074409308  nElectrons: 219.000000
	SubspaceRotationAdjust: set factor to 0.173
ElecMinimize: Iter:  16  F: -786.786743086724755  |grad|_K:  2.622e-06  alpha:  3.997e-01  linmin:  9.413e-07  t[s]:    534.16
	FillingsUpdate:  mu: -0.075215810  nElectrons: 219.000000
	SubspaceRotationAdjust: set factor to 0.185
ElecMinimize: Iter:  17  F: -786.786892349290270  |grad|_K:  1.740e-06  alpha:  3.896e-01  linmin:  1.697e-06  t[s]:    548.58
	FillingsUpdate:  mu: -0.074699884  nElectrons: 219.000000
	SubspaceRotationAdjust: set factor to 0.169
ElecMinimize: Iter:  18  F: -786.786970166712990  |grad|_K:  1.546e-06  alpha:  4.618e-01  linmin:  4.327e-07  t[s]:    561.99
	FillingsUpdate:  mu: -0.074358224  nElectrons: 219.000000
	SubspaceRotationAdjust: set factor to 0.149
ElecMinimize: Iter:  19  F: -786.787013878745142  |grad|_K:  1.004e-06  alpha:  3.284e-01  linmin: -4.888e-08  t[s]:    575.68
	FillingsUpdate:  mu: -0.074522114  nElectrons: 219.000000
	SubspaceRotationAdjust: set factor to 0.155
ElecMinimize: Iter:  20  F: -786.787041550415097  |grad|_K:  8.215e-07  alpha:  4.924e-01  linmin:  9.128e-07  t[s]:    589.32
	FillingsUpdate:  mu: -0.074570071  nElectrons: 219.000000
	SubspaceRotationAdjust: set factor to 0.141
ElecMinimize: Iter:  21  F: -786.787056250030332  |grad|_K:  6.111e-07  alpha:  3.909e-01  linmin:  1.548e-07  t[s]:    602.83
	FillingsUpdate:  mu: -0.074511006  nElectrons: 219.000000
	SubspaceRotationAdjust: set factor to 0.149
ElecMinimize: Iter:  22  F: -786.787065861347173  |grad|_K:  4.735e-07  alpha:  4.618e-01  linmin: -1.091e-07  t[s]:    617.02
	FillingsUpdate:  mu: -0.074539476  nElectrons: 219.000000
	SubspaceRotationAdjust: set factor to 0.144
ElecMinimize: Iter:  23  F: -786.787071189286053  |grad|_K:  3.713e-07  alpha:  4.264e-01  linmin:  1.070e-07  t[s]:    630.92
	FillingsUpdate:  mu: -0.074581563  nElectrons: 219.000000
	SubspaceRotationAdjust: set factor to 0.158
ElecMinimize: Iter:  24  F: -786.787074679585544  |grad|_K:  2.861e-07  alpha:  4.543e-01  linmin:  3.520e-07  t[s]:    644.97
	FillingsUpdate:  mu: -0.074533243  nElectrons: 219.000000
	SubspaceRotationAdjust: set factor to 0.162
ElecMinimize: Iter:  25  F: -786.787076822536392  |grad|_K:  2.451e-07  alpha:  4.697e-01  linmin:  4.841e-08  t[s]:    660.12
	FillingsUpdate:  mu: -0.074497135  nElectrons: 219.000000
	SubspaceRotationAdjust: set factor to 0.166
ElecMinimize: Iter:  26  F: -786.787078214306803  |grad|_K:  1.902e-07  alpha:  4.158e-01  linmin:  1.534e-07  t[s]:    674.57
	FillingsUpdate:  mu: -0.074543609  nElectrons: 219.000000
	SubspaceRotationAdjust: set factor to 0.19
ElecMinimize: Iter:  27  F: -786.787079250388501  |grad|_K:  1.608e-07  alpha:  5.140e-01  linmin:  5.533e-07  t[s]:    688.50
	FillingsUpdate:  mu: -0.074563456  nElectrons: 219.000000
	SubspaceRotationAdjust: set factor to 0.175
ElecMinimize: Iter:  28  F: -786.787079855334355  |grad|_K:  1.425e-07  alpha:  4.199e-01  linmin:  1.352e-07  t[s]:    701.85
	FillingsUpdate:  mu: -0.074535003  nElectrons: 219.000000
	SubspaceRotationAdjust: set factor to 0.182
ElecMinimize: Iter:  29  F: -786.787080330692334  |grad|_K:  1.043e-07  alpha:  4.200e-01  linmin:  2.704e-07  t[s]:    717.15
	FillingsUpdate:  mu: -0.074520599  nElectrons: 219.000000
	SubspaceRotationAdjust: set factor to 0.181
ElecMinimize: Iter:  30  F: -786.787080622800545  |grad|_K:  8.930e-08  alpha:  4.816e-01  linmin:  1.509e-07  t[s]:    730.48
	FillingsUpdate:  mu: -0.074533483  nElectrons: 219.000000
	SubspaceRotationAdjust: set factor to 0.155
ElecMinimize: Iter:  31  F: -786.787080792904476  |grad|_K:  6.834e-08  alpha:  3.829e-01  linmin: -3.875e-08  t[s]:    743.53
	FillingsUpdate:  mu: -0.074547375  nElectrons: 219.000000
	SubspaceRotationAdjust: set factor to 0.158
ElecMinimize: Iter:  32  F: -786.787080910332975  |grad|_K:  5.117e-08  alpha:  4.512e-01  linmin:  9.795e-08  t[s]:    757.91
	FillingsUpdate:  mu: -0.074540239  nElectrons: 219.000000
	SubspaceRotationAdjust: set factor to 0.142
ElecMinimize: Iter:  33  F: -786.787080973888806  |grad|_K:  4.098e-08  alpha:  4.356e-01  linmin: -2.235e-07  t[s]:    772.32
	FillingsUpdate:  mu: -0.074531338  nElectrons: 219.000000
	SubspaceRotationAdjust: set factor to 0.141
ElecMinimize: Iter:  34  F: -786.787081015149511  |grad|_K:  3.067e-08  alpha:  4.408e-01  linmin:  1.832e-07  t[s]:    785.78
	FillingsUpdate:  mu: -0.074534902  nElectrons: 219.000000
	SubspaceRotationAdjust: set factor to 0.144
ElecMinimize: Iter:  35  F: -786.787081040698581  |grad|_K:  2.441e-08  alpha:  4.877e-01  linmin:  8.780e-08  t[s]:    799.02
	FillingsUpdate:  mu: -0.074537043  nElectrons: 219.000000
	SubspaceRotationAdjust: set factor to 0.14
ElecMinimize: Iter:  36  F: -786.787081055019826  |grad|_K:  1.923e-08  alpha:  4.310e-01  linmin: -5.134e-07  t[s]:    814.47
	FillingsUpdate:  mu: -0.074534860  nElectrons: 219.000000
	SubspaceRotationAdjust: set factor to 0.157
ElecMinimize: Iter:  37  F: -786.787081065422058  |grad|_K:  1.502e-08  alpha:  5.056e-01  linmin:  8.369e-07  t[s]:    827.93
	FillingsUpdate:  mu: -0.074535753  nElectrons: 219.000000
	SubspaceRotationAdjust: set factor to 0.164
ElecMinimize: Iter:  38  F: -786.787081071383000  |grad|_K:  1.325e-08  alpha:  4.746e-01  linmin:  8.232e-07  t[s]:    842.04
	FillingsUpdate:  mu: -0.074536784  nElectrons: 219.000000
	SubspaceRotationAdjust: set factor to 0.174
ElecMinimize: Iter:  39  F: -786.787081075821220  |grad|_K:  1.017e-08  alpha:  4.528e-01  linmin: -1.290e-06  t[s]:    856.04
ElecMinimize: Converged (|Delta F|<1.000000e-08 for 2 iters).
Setting wave functions to eigenvectors of Hamiltonian
Vacuum energy after initial minimize, F = -786.787081075821220

	Linear fluid (dielectric constant: 78.4, screening length: 5.74355 Bohr) occupying 0.735921 of unit cell:	Completed after 21 iterations at t[s]:    863.67

-------- Electronic minimization -----------
	Linear fluid (dielectric constant: 78.4, screening length: 5.74355 Bohr) occupying 0.735921 of unit cell:	Completed after 0 iterations at t[s]:    868.14
	FillingsUpdate:  mu: -0.158378313  nElectrons: 219.000000
ElecMinimize: Iter:   0  F: -786.782323313946108  |grad|_K:  1.423e-06  alpha:  1.000e+00
	Linear fluid (dielectric constant: 78.4, screening length: 5.74355 Bohr) occupying 0.736283 of unit cell:	Completed after 13 iterations at t[s]:    881.46
	Linear fluid (dielectric constant: 78.4, screening length: 5.74355 Bohr) occupying 0.736404 of unit cell:	Completed after 8 iterations at t[s]:    888.47
	FillingsUpdate:  mu: -0.157239379  nElectrons: 219.000000
	SubspaceRotationAdjust: set factor to 0.127
ElecMinimize: Iter:   1  F: -786.782474460168942  |grad|_K:  1.791e-06  alpha:  1.339e+00  linmin: -1.718e-06  t[s]:    894.24
	Linear fluid (dielectric constant: 78.4, screening length: 5.74355 Bohr) occupying 0.737306 of unit cell:	Completed after 14 iterations at t[s]:    901.75
	Linear fluid (dielectric constant: 78.4, screening length: 5.74355 Bohr) occupying 0.736598 of unit cell:	Completed after 13 iterations at t[s]:    909.66
	FillingsUpdate:  mu: -0.156667608  nElectrons: 219.000000
	SubspaceRotationAdjust: set factor to 0.0924
ElecMinimize: Iter:   2  F: -786.782524854116218  |grad|_K:  8.703e-07  alpha:  2.835e-01  linmin:  1.763e-06  t[s]:    916.37
	Linear fluid (dielectric constant: 78.4, screening length: 5.74355 Bohr) occupying 0.736651 of unit cell:	Completed after 3 iterations at t[s]:    921.12
	Linear fluid (dielectric constant: 78.4, screening length: 5.74355 Bohr) occupying 0.736725 of unit cell:	Completed after 6 iterations at t[s]:    927.40
	FillingsUpdate:  mu: -0.156635038  nElectrons: 219.000000
	SubspaceRotationAdjust: set factor to 0.113
ElecMinimize: Iter:   3  F: -786.782553358712789  |grad|_K:  5.753e-07  alpha:  6.839e-01  linmin:  3.330e-06  t[s]:    933.45
	Linear fluid (dielectric constant: 78.4, screening length: 5.74355 Bohr) occupying 0.736776 of unit cell:	Completed after 4 iterations at t[s]:    938.21
	Linear fluid (dielectric constant: 78.4, screening length: 5.74355 Bohr) occupying 0.736782 of unit cell:	Completed after 2 iterations at t[s]:    945.25
	FillingsUpdate:  mu: -0.156635094  nElectrons: 219.000000
	SubspaceRotationAdjust: set factor to 0.117
ElecMinimize: Iter:   4  F: -786.782567160923691  |grad|_K:  4.163e-07  alpha:  7.562e-01  linmin: -1.817e-06  t[s]:    951.55
	Linear fluid (dielectric constant: 78.4, screening length: 5.74355 Bohr) occupying 0.736806 of unit cell:	Completed after 3 iterations at t[s]:    957.71
	Linear fluid (dielectric constant: 78.4, screening length: 5.74355 Bohr) occupying 0.736799 of unit cell:	Completed after 2 iterations at t[s]:    963.71
	FillingsUpdate:  mu: -0.156573744  nElectrons: 219.000000
	SubspaceRotationAdjust: set factor to 0.114
ElecMinimize: Iter:   5  F: -786.782572452085219  |grad|_K:  3.487e-07  alpha:  5.467e-01  linmin:  1.373e-07  t[s]:    969.78
	Linear fluid (dielectric constant: 78.4, screening length: 5.74355 Bohr) occupying 0.736808 of unit cell:	Completed after 3 iterations at t[s]:    974.42
	Linear fluid (dielectric constant: 78.4, screening length: 5.74355 Bohr) occupying 0.736810 of unit cell:	Completed after 0 iterations at t[s]:    978.80
	FillingsUpdate:  mu: -0.156533617  nElectrons: 219.000000
	SubspaceRotationAdjust: set factor to 0.131
ElecMinimize: Iter:   6  F: -786.782576859385586  |grad|_K:  2.183e-07  alpha:  6.463e-01  linmin: -9.664e-06  t[s]:    982.32
	Linear fluid (dielectric constant: 78.4, screening length: 5.74355 Bohr) occupying 0.736811 of unit cell:	Completed after 3 iterations at t[s]:    985.41
	Linear fluid (dielectric constant: 78.4, screening length: 5.74355 Bohr) occupying 0.736811 of unit cell:	Completed after 0 iterations at t[s]:    988.53
	FillingsUpdate:  mu: -0.156535622  nElectrons: 219.000000
	SubspaceRotationAdjust: set factor to 0.156
ElecMinimize: Iter:   7  F: -786.782579013366785  |grad|_K:  2.038e-07  alpha:  7.661e-01  linmin: -8.675e-06  t[s]:    991.90
	Linear fluid (dielectric constant: 78.4, screening length: 5.74355 Bohr) occupying 0.736812 of unit cell:	Completed after 3 iterations at t[s]:    995.13
	Linear fluid (dielectric constant: 78.4, screening length: 5.74355 Bohr) occupying 0.736812 of unit cell:	Completed after 3 iterations at t[s]:    998.95
	FillingsUpdate:  mu: -0.156581168  nElectrons: 219.000000
	SubspaceRotationAdjust: set factor to 0.145
ElecMinimize: Iter:   8  F: -786.782580164651222  |grad|_K:  1.805e-07  alpha:  4.677e-01  linmin:  1.078e-06  t[s]:   1002.60
	Linear fluid (dielectric constant: 78.4, screening length: 5.74355 Bohr) occupying 0.736814 of unit cell:	Completed after 2 iterations at t[s]:   1005.96
	Linear fluid (dielectric constant: 78.4, screening length: 5.74355 Bohr) occupying 0.736814 of unit cell:	Completed after 0 iterations at t[s]:   1009.26
	FillingsUpdate:  mu: -0.156591306  nElectrons: 219.000000
	SubspaceRotationAdjust: set factor to 0.163
ElecMinimize: Iter:   9  F: -786.782581085451511  |grad|_K:  1.411e-07  alpha:  5.098e-01  linmin: -3.605e-06  t[s]:   1012.50
	Linear fluid (dielectric constant: 78.4, screening length: 5.74355 Bohr) occupying 0.736819 of unit cell:	Completed after 2 iterations at t[s]:   1015.63
	Linear fluid (dielectric constant: 78.4, screening length: 5.74355 Bohr) occupying 0.736819 of unit cell:	Completed after 0 iterations at t[s]:   1018.62
	FillingsUpdate:  mu: -0.156560452  nElectrons: 219.000000
	SubspaceRotationAdjust: set factor to 0.167
ElecMinimize: Iter:  10  F: -786.782581615476033  |grad|_K:  1.323e-07  alpha:  4.627e-01  linmin:  9.458e-07  t[s]:   1021.74
	Linear fluid (dielectric constant: 78.4, screening length: 5.74355 Bohr) occupying 0.736824 of unit cell:	Completed after 2 iterations at t[s]:   1024.62
	Linear fluid (dielectric constant: 78.4, screening length: 5.74355 Bohr) occupying 0.736823 of unit cell:	Completed after 0 iterations at t[s]:   1027.74
	FillingsUpdate:  mu: -0.156522087  nElectrons: 219.000000
	SubspaceRotationAdjust: set factor to 0.137
ElecMinimize: Iter:  11  F: -786.782581953533736  |grad|_K:  1.082e-07  alpha:  3.486e-01  linmin:  8.710e-06  t[s]:   1031.08
	Linear fluid (dielectric constant: 78.4, screening length: 5.74355 Bohr) occupying 0.736827 of unit cell:	Completed after 2 iterations at t[s]:   1034.06
	Linear fluid (dielectric constant: 78.4, screening length: 5.74355 Bohr) occupying 0.736826 of unit cell:	Completed after 0 iterations at t[s]:   1037.00
	FillingsUpdate:  mu: -0.156511847  nElectrons: 219.000000
	SubspaceRotationAdjust: set factor to 0.126
ElecMinimize: Iter:  12  F: -786.782582131567438  |grad|_K:  6.645e-08  alpha:  3.113e-01  linmin: -9.093e-06  t[s]:   1040.26
	Linear fluid (dielectric constant: 78.4, screening length: 5.74355 Bohr) occupying 0.736828 of unit cell:	Completed after 0 iterations at t[s]:   1043.43
	Linear fluid (dielectric constant: 78.4, screening length: 5.74355 Bohr) occupying 0.736829 of unit cell:	Completed after 0 iterations at t[s]:   1046.76
	FillingsUpdate:  mu: -0.156511719  nElectrons: 219.000000
	SubspaceRotationAdjust: set factor to 0.15
ElecMinimize: Iter:  13  F: -786.782582292268671  |grad|_K:  5.311e-08  alpha:  6.082e-01  linmin:  4.250e-08  t[s]:   1050.46
	Linear fluid (dielectric constant: 78.4, screening length: 5.74355 Bohr) occupying 0.736831 of unit cell:	Completed after 3 iterations at t[s]:   1053.96
	Linear fluid (dielectric constant: 78.4, screening length: 5.74355 Bohr) occupying 0.736830 of unit cell:	Completed after 0 iterations at t[s]:   1057.24
	FillingsUpdate:  mu: -0.156523848  nElectrons: 219.000000
	SubspaceRotationAdjust: set factor to 0.128
ElecMinimize: Iter:  14  F: -786.782582318500658  |grad|_K:  1.004e-07  alpha:  2.190e-01  linmin:  4.393e-05  t[s]:   1060.45
	Linear fluid (dielectric constant: 78.4, screening length: 5.74355 Bohr) occupying 0.736833 of unit cell:	Completed after 0 iterations at t[s]:   1063.11
	Linear fluid (dielectric constant: 78.4, screening length: 5.74355 Bohr) occupying 0.736831 of unit cell:	Completed after 0 iterations at t[s]:   1066.15
	FillingsUpdate:  mu: -0.156523824  nElectrons: 219.000000
	SubspaceRotationAdjust: set factor to 0.113
ElecMinimize: Iter:  15  F: -786.782582338630959  |grad|_K:  9.421e-08  alpha:  7.510e-02  linmin:  1.312e-08  t[s]:   1069.47
	Linear fluid (dielectric constant: 78.4, screening length: 5.74355 Bohr) occupying 0.736832 of unit cell:	Completed after 1 iterations at t[s]:   1072.27
	Linear fluid (dielectric constant: 78.4, screening length: 5.74355 Bohr) occupying 0.736831 of unit cell:	Completed after 0 iterations at t[s]:   1075.28
ElecMinimize: 	Step increased F by 1.167462e-08, reducing alpha to 3.257676e-03.
	Linear fluid (dielectric constant: 78.4, screening length: 5.74355 Bohr) occupying 0.736831 of unit cell:	Completed after 0 iterations at t[s]:   1080.75
ElecMinimize: 	Step increased F by 1.787203e-08, reducing alpha to 3.257676e-04.
	Linear fluid (dielectric constant: 78.4, screening length: 5.74355 Bohr) occupying 0.736831 of unit cell:	Completed after 0 iterations at t[s]:   1086.20
ElecMinimize: 	Step increased F by 1.871831e-08, reducing alpha to 3.257676e-05.
ElecMinimize: 	Step failed to reduce F after 3 attempts. Quitting step.
ElecMinimize: 	Undoing step.
	Linear fluid (dielectric constant: 78.4, screening length: 5.74355 Bohr) occupying 0.736831 of unit cell:	Completed after 0 iterations at t[s]:   1091.88
ElecMinimize: 	Step failed: resetting search direction.
	FillingsUpdate:  mu: -0.156515134  nElectrons: 219.000000
	SubspaceRotationAdjust: set factor to 0.188
ElecMinimize: Iter:  16  F: -786.782582319869334  |grad|_K:  3.973e-08  alpha:  3.258e-05
	Linear fluid (dielectric constant: 78.4, screening length: 5.74355 Bohr) occupying 0.736831 of unit cell:	Completed after 0 iterations at t[s]:   1098.25
ElecMinimize: 	Predicted alpha/alphaT>3.000000, increasing alphaT to 2.253088e-01.
	Linear fluid (dielectric constant: 78.4, screening length: 5.74355 Bohr) occupying 0.736831 of unit cell:	Completed after 0 iterations at t[s]:   1101.62
	Linear fluid (dielectric constant: 78.4, screening length: 5.74355 Bohr) occupying 0.736831 of unit cell:	Completed after 0 iterations at t[s]:   1105.00
	FillingsUpdate:  mu: -0.156515423  nElectrons: 219.000000
	SubspaceRotationAdjust: set factor to 0.226
ElecMinimize: Iter:  17  F: -786.782582378599841  |grad|_K:  3.474e-08  alpha:  6.693e-01  linmin:  7.411e-06  t[s]:   1108.26
	Linear fluid (dielectric constant: 78.4, screening length: 5.74355 Bohr) occupying 0.736830 of unit cell:	Completed after 2 iterations at t[s]:   1111.21
	Linear fluid (dielectric constant: 78.4, screening length: 5.74355 Bohr) occupying 0.736831 of unit cell:	Completed after 2 iterations at t[s]:   1114.35
ElecMinimize: 	Step increased F by 2.215074e-08, reducing alpha to 1.166464e-02.
	Linear fluid (dielectric constant: 78.4, screening length: 5.74355 Bohr) occupying 0.736831 of unit cell:	Completed after 0 iterations at t[s]:   1119.74
ElecMinimize: 	Step increased F by 1.233241e-08, reducing alpha to 1.166464e-03.
	Linear fluid (dielectric constant: 78.4, screening length: 5.74355 Bohr) occupying 0.736831 of unit cell:	Completed after 0 iterations at t[s]:   1125.81
ElecMinimize: 	Step increased F by 1.143724e-08, reducing alpha to 1.166464e-04.
ElecMinimize: 	Step failed to reduce F after 3 attempts. Quitting step.
ElecMinimize: 	Undoing step.
	Linear fluid (dielectric constant: 78.4, screening length: 5.74355 Bohr) occupying 0.736831 of unit cell:	Completed after 0 iterations at t[s]:   1131.01
ElecMinimize: 	Step failed: resetting search direction.
	FillingsUpdate:  mu: -0.156490031  nElectrons: 219.000000
	SubspaceRotationAdjust: set factor to 0.188
ElecMinimize: Iter:  18  F: -786.782582367140208  |grad|_K:  5.717e-08  alpha:  1.166e-04
	Linear fluid (dielectric constant: 78.4, screening length: 5.74355 Bohr) occupying 0.736830 of unit cell:	Completed after 3 iterations at t[s]:   1137.15
	Linear fluid (dielectric constant: 78.4, screening length: 5.74355 Bohr) occupying 0.736831 of unit cell:	Completed after 1 iterations at t[s]:   1140.37
	FillingsUpdate:  mu: -0.156504667  nElectrons: 219.000000
	SubspaceRotationAdjust: set factor to 0.0979
ElecMinimize: Iter:  19  F: -786.782582369026727  |grad|_K:  3.866e-08  alpha:  1.444e-01  linmin:  1.499e-03  t[s]:   1143.61
	Linear fluid (dielectric constant: 78.4, screening length: 5.74355 Bohr) occupying 0.736830 of unit cell:	Completed after 0 iterations at t[s]:   1146.40
	Linear fluid (dielectric constant: 78.4, screening length: 5.74355 Bohr) occupying 0.736830 of unit cell:	Completed after 0 iterations at t[s]:   1149.45
	FillingsUpdate:  mu: -0.156504503  nElectrons: 219.000000
	SubspaceRotationAdjust: set factor to 0.141
ElecMinimize: Iter:  20  F: -786.782582393528173  |grad|_K:  3.911e-08  alpha:  4.321e-01  linmin:  6.742e-06  t[s]:   1159.91
	Linear fluid (dielectric constant: 78.4, screening length: 5.74355 Bohr) occupying 0.736829 of unit cell:	Completed after 3 iterations at t[s]:   1164.19
	Linear fluid (dielectric constant: 78.4, screening length: 5.74355 Bohr) occupying 0.736830 of unit cell:	Completed after 0 iterations at t[s]:   1168.77
	FillingsUpdate:  mu: -0.156526008  nElectrons: 219.000000
	SubspaceRotationAdjust: set factor to 0.11
ElecMinimize: Iter:  21  F: -786.782582409779252  |grad|_K:  9.815e-08  alpha:  8.238e-02  linmin:  9.613e-04  t[s]:   1173.69
ElecMinimize: 	Bad step direction: g.d > 0.
ElecMinimize: 	Undoing step.
	Linear fluid (dielectric constant: 78.4, screening length: 5.74355 Bohr) occupying 0.736830 of unit cell:	Completed after 0 iterations at t[s]:   1177.61
ElecMinimize: 	Step failed: resetting search direction.
	FillingsUpdate:  mu: -0.156526008  nElectrons: 219.000000
	SubspaceRotationAdjust: set factor to 0.0935
ElecMinimize: Iter:  22  F: -786.782582409781526  |grad|_K:  9.071e-08  alpha:  0.000e+00
	Linear fluid (dielectric constant: 78.4, screening length: 5.74355 Bohr) occupying 0.736830 of unit cell:	Completed after 1 iterations at t[s]:   1187.55
	Linear fluid (dielectric constant: 78.4, screening length: 5.74355 Bohr) occupying 0.736830 of unit cell:	Completed after 0 iterations at t[s]:   1193.67
ElecMinimize: 	Step increased F by 3.325579e-08, reducing alpha to 3.016574e-03.
	Linear fluid (dielectric constant: 78.4, screening length: 5.74355 Bohr) occupying 0.736830 of unit cell:	Completed after 0 iterations at t[s]:   1203.12
ElecMinimize: 	Step increased F by 3.692253e-08, reducing alpha to 3.016574e-04.
	Linear fluid (dielectric constant: 78.4, screening length: 5.74355 Bohr) occupying 0.736830 of unit cell:	Completed after 0 iterations at t[s]:   1212.51
ElecMinimize: 	Step increased F by 3.730588e-08, reducing alpha to 3.016574e-05.
ElecMinimize: 	Step failed to reduce F after 3 attempts. Quitting step.
ElecMinimize: 	Undoing step.
	Linear fluid (dielectric constant: 78.4, screening length: 5.74355 Bohr) occupying 0.736830 of unit cell:	Completed after 0 iterations at t[s]:   1221.71
ElecMinimize: 	Step failed along negative gradient direction.
ElecMinimize: Probably at roundoff error limit. (Stopping)
Setting wave functions to eigenvectors of Hamiltonian
Single-point solvation energy estimate, DeltaF = +0.004498703341142

# Ionic positions in lattice coordinates:
ion V   0.003239386089764   0.001435698047282   0.500670927518732 0
ion V   0.327114629627498   0.002030811473155   0.501027794989082 0
ion V   0.668927232574207   0.004234541523571   0.499747204204022 0
ion V   0.117599032186579   0.288522621362218   0.497599025835196 0
ion V   0.438330189591135   0.281666542630712   0.490985896895102 0
ion V   0.800870413559396   0.282792147154650   0.491274358848436 0
ion V   0.214829841367526   0.712829813959738   0.506020664526522 0
ion V   0.548109944289958   0.714431344065788   0.498474304587811 0
ion V   0.880829291029262   0.714288510808896   0.505604027367379 0
ion Te   0.147880696494666   0.110396403683035   0.603786606541764 0
ion Te   0.481094968298720   0.115606550285431   0.599834020737794 0
ion Te   0.814069938165055   0.116655830632676   0.600465004341150 0
ion Te   0.184681803116334   0.887421342304757   0.398842641727824 0
ion Te   0.516849497007886   0.898319571171670   0.398942940911439 0
ion Te   0.852711906012997   0.891069149277040   0.399249413617654 0
ion Te   0.267717827049790   0.446439748541367   0.578779719274016 0
ion Te   0.916266966818451   0.448034071794317   0.578658765563157 0
ion Te   0.074604767341024   0.552330529477864   0.422581082928785 0
ion Te   0.409756759324752   0.545985674321725   0.425508178515525 0
ion Te   0.742052708034479   0.546936118154903   0.424851253167365 0
ion Te   0.034925323312620   0.788589400013953   0.606733131294794 0
ion Te   0.373420784313641   0.785879614562313   0.604335565510937 0
ion Te   0.698022323462973   0.788196937706022   0.603753587715574 0
ion Te   0.290982426123269   0.206035630279037   0.392578481710027 0
ion Te   0.631491144393546   0.215728305827582   0.395721081496401 0
ion Te   0.971824240414462   0.205162168940315   0.392460220173510 0


# Forces in Lattice coordinates:
force V  -0.018536121283915  -0.015818223045560  -0.000628101389766 0
force V   0.001203359675832  -0.012440920395502  -0.011182304789863 0
force V  -0.002623491206872   0.009259241061456   0.018158754205077 0
force V   0.005231170899753   0.031691768360225   0.026160234226823 0
force V   0.018574218680538   0.040497526527424  -0.015097072857131 0
force V  -0.019964969952021   0.038611138435723  -0.001485750063701 0
force V  -0.014181570508814  -0.029935609544660  -0.004785945920763 0
force V  -0.008072128647842  -0.020825286365191   0.064415960918467 0
force V  -0.003318557588627  -0.026393727795267  -0.007894282525063 0
force Te  -0.001570311689060  -0.003539090578891   0.060792102114150 0
force Te   0.005865592078308  -0.017816365775400   0.080593372611006 0
force Te  -0.009388544503444  -0.021721117594555   0.079763049976784 0
force Te   0.008196422360978  -0.001026706702012  -0.059146638630103 0
force Te  -0.003358131762364  -0.007258118898739  -0.067548859162306 0
force Te  -0.004894840498250  -0.002698245784864  -0.040245001523571 0
force Te  -0.008814798308018  -0.001934849732808   0.060878505528337 0
force Te   0.008615287352330  -0.003191436852206   0.065292214129940 0
force Te  -0.002145393646363  -0.003724594865189  -0.010819257427359 0
force Te   0.010092201032890  -0.002390363955855  -0.076162712823833 0
force Te  -0.009162437819947  -0.005243195831639  -0.071185741189056 0
force Te  -0.000698410258214  -0.003858650219283   0.046048965671433 0
force Te   0.010939877350158  -0.002586939055143   0.058937455583864 0
force Te  -0.001366722591448   0.001647625955269   0.050325076950381 0
force Te   0.012406781014556   0.024504954418773  -0.069771215519654 0
force Te  -0.003814218101032   0.008165813268970  -0.062717401585587 0
force Te  -0.006339914181491   0.020830664774322  -0.068736001185807 0

# Energy components:
   A_diel =        0.0041874682410564
   Eewald =     3589.8265042904777147
       EH =     4247.2874247968593409
     Eloc =    -8667.1118310027031839
      Enl =      -42.2846487445212631
      Exc =     -211.4559344403637056
 Exc_core =       91.5352702176041362
       KE =      205.4673009327986506
-------------------------------------
     Etot =     -786.7317264816072111
       TS =        0.0508558908728419
-------------------------------------
        F =     -786.7825823724800784

IonicMinimize: Iter:   0  F: -786.782582372480078  |grad|_K:  0.000e+00  t[s]:   1231.65
IonicMinimize: Converged (|grad|_K<1.000000e-04).

#--- Lowdin population analysis ---
# oxidation-state V +0.325 +0.325 +0.337 +0.363 +0.385 +0.384 +0.358 +0.399 +0.357
# oxidation-state Te -0.021 -0.049 -0.048 -0.029 +0.007 -0.039 -0.155 -0.155 -0.116 -0.114 -0.113 -0.049 -0.064 -0.056 -0.012 -0.102 -0.011


Dumping 'NbTe2.fillings' ... done
Dumping 'NbTe2.wfns' ... done
Dumping 'NbTe2.fluidState' ... done
Dumping 'NbTe2.eigenvals' ... done
End date and time: Tue Jul 14 15:58:05 2020  (Duration: 0-0:20:33.50)
Done!
