
*************** JDFTx 1.5.0  ***************

Start date and time: Thu Jul  9 04:01:42 2020
Executable jdftx_gpu with command-line: -i Charged.in -o Charged.out
Running on hosts (process indices):  amax (0)
Divided in process groups (process indices):  0 (0)
gpuInit: Found compatible cuda device 0 'Tesla K80'
gpuInit: Selected device 0
Resource initialization completed at t[s]:     27.82
Run totals: 1 processes, 24 threads, 1 GPUs


Input parsed successfully to the following command list (including defaults):

basis kpoint-dependent
cache-projectors no
coords-type Lattice
core-overlap-check none
coulomb-interaction Slab 001
coulomb-truncation-embed 0 0 0.5
davidson-band-ratio 1.1
dump End State
dump-name NbTe2.$VAR
elec-cutoff 20 100
elec-eigen-algo Davidson
elec-ex-corr gga-PBE
elec-smearing Gauss 0.0073499
electronic-minimize  \
	dirUpdateScheme      FletcherReeves \
	linminMethod         DirUpdateRecommended \
	nIterations          100 \
	history              15 \
	knormThreshold       0 \
	energyDiffThreshold  1e-08 \
	nEnergyDiff          2 \
	alphaTstart          1 \
	alphaTmin            1e-10 \
	updateTestStepSize   yes \
	alphaTreduceFactor   0.1 \
	alphaTincreaseFactor 3 \
	nAlphaAdjustMax      3 \
	wolfeEnergy          0.0001 \
	wolfeGradient        0.9 \
	fdTest               no
electronic-scf  \
	nIterations	500 \
	energyDiffThreshold	1e-08 \
	residualThreshold	1e-07 \
	mixFraction	0.5 \
	qMetric	0.8 \
	history	10 \
	nEigSteps	2 \
	eigDiffThreshold	1e-08 \
	mixedVariable	Density \
	qKerker	0.8 \
	qKappa	-1 \
	verbose	no \
	mixFractionMag	1.5
exchange-regularization WignerSeitzTruncated
fluid LinearPCM 298.000000 1.013250
fluid-anion F- 1 MeanFieldLJ \
	epsBulk 1 \
	pMol 0 \
	epsInf 1 \
	Pvap 0 \
	sigmaBulk 0 \
	Rvdw 2.24877 \
	Res 0 \
	tauNuc 343133
fluid-cation Na+ 1 MeanFieldLJ \
	epsBulk 1 \
	pMol 0 \
	epsInf 1 \
	Pvap 0 \
	sigmaBulk 0 \
	Rvdw 2.19208 \
	Res 0 \
	tauNuc 343133
fluid-ex-corr lda-TF lda-PZ
fluid-gummel-loop 10 1.000000e-05
fluid-minimize  \
	dirUpdateScheme      PolakRibiere \
	linminMethod         DirUpdateRecommended \
	nIterations          400 \
	history              15 \
	knormThreshold       1e-11 \
	energyDiffThreshold  0 \
	nEnergyDiff          2 \
	alphaTstart          1 \
	alphaTmin            1e-10 \
	updateTestStepSize   yes \
	alphaTreduceFactor   0.1 \
	alphaTincreaseFactor 3 \
	nAlphaAdjustMax      6 \
	wolfeEnergy          0.0001 \
	wolfeGradient        0.9 \
	fdTest               no
fluid-solvent H2O 55.338 ScalarEOS \
	epsBulk 78.4 \
	pMol 0.92466 \
	epsInf 1.77 \
	Pvap 1.06736e-10 \
	sigmaBulk 4.62e-05 \
	Rvdw 2.61727 \
	Res 1.42 \
	tauNuc 343133 \
	poleEl 15 7 1
forces-output-coords Positions
initial-state NbTe2.$VAR
ion Ge  -0.000000000000000  -0.000000000000000   0.500000000000000 0
ion Ge   0.166669986000002   0.333329999999997   0.679352563727309 0
ion Ge   0.333330011999998   0.166669996000003   0.589460263466365 0
ion Ge   0.333330011999998   0.166669996000003   0.320647460272693 0
ion Ge   0.166669986000002   0.333329999999997   0.410549788533629 0
ion Ge   0.500000000000000  -0.000000000000000   0.500000000000000 0
ion Ge   0.666669986000002   0.333329999999997   0.679352563727309 0
ion Ge   0.833329984000002   0.166669996000003   0.589460263466365 0
ion Ge   0.833329984000002   0.166669996000003   0.320647460272693 0
ion Ge   0.666669986000002   0.333329999999997   0.410549788533629 0
ion Ge   0.999999998000000   0.499999996000000   0.500000000000000 0
ion Ge   0.166670013000001   0.833329996000003   0.679352563727309 0
ion Ge   0.333330009999997   0.666669992999999   0.589460263466365 0
ion Ge   0.333330009999997   0.666669992999999   0.320647460272693 0
ion Ge   0.166670013000001   0.833329996000003   0.410549788533629 0
ion Ge   0.499999998000000   0.499999996000000   0.500000000000000 0
ion Ge   0.666670013000001   0.833329996000003   0.679352563727309 0
ion Ge   0.833330009999997   0.666669992999999   0.589460263466365 0
ion Ge   0.833330009999997   0.666669992999999   0.320647460272693 0
ion Ge   0.666670013000001   0.833329996000003   0.410549788533629 0
ion Te   0.333330011999998   0.166669996000003   0.722912546491148 0
ion Te   0.333330011999998   0.166669996000003   0.455502088423613 0
ion Te   0.166669986000002   0.333329999999997   0.277087404508851 0
ion Te   0.166669986000002   0.333329999999997   0.544497863576383 0
ion Te  -0.000000000000000  -0.000000000000000   0.366283319527982 0
ion Te  -0.000000000000000  -0.000000000000000   0.633716680472018 0
ion Te   0.333330011999998   0.166669996000003   0.190994300142854 0
ion Te   0.166669986000002   0.333329999999997   0.809005699857146 0
ion Te   0.833329984000002   0.166669996000003   0.722912546491148 0
ion Te   0.833329984000002   0.166669996000003   0.455502088423613 0
ion Te   0.666669986000002   0.333329999999997   0.277087404508851 0
ion Te   0.666669986000002   0.333329999999997   0.544497863576383 0
ion Te   0.500000000000000  -0.000000000000000   0.366283319527982 0
ion Te   0.500000000000000  -0.000000000000000   0.633716680472018 0
ion Te   0.833329984000002   0.166669996000003   0.190994300142854 0
ion Te   0.666669986000002   0.333329999999997   0.809005699857146 0
ion Te   0.333330009999997   0.666669992999999   0.722912546491148 0
ion Te   0.333330009999997   0.666669992999999   0.455502088423613 0
ion Te   0.166670013000001   0.833329996000003   0.277087404508851 0
ion Te   0.166670013000001   0.833329996000003   0.544497863576383 0
ion Te   0.999999998000000   0.499999996000000   0.366283319527982 0
ion Te   0.999999998000000   0.499999996000000   0.633716680472018 0
ion Te   0.333330009999997   0.666669992999999   0.190994300142854 0
ion Te   0.166670013000001   0.833329996000003   0.809005699857146 0
ion Te   0.833330009999997   0.666669992999999   0.722912546491148 0
ion Te   0.833330009999997   0.666669992999999   0.455502088423613 0
ion Te   0.666670013000001   0.833329996000003   0.277087404508851 0
ion Te   0.666670013000001   0.833329996000003   0.544497863576383 0
ion Te   0.499999998000000   0.499999996000000   0.366283319527982 0
ion Te   0.499999998000000   0.499999996000000   0.633716680472018 0
ion Te   0.833330009999997   0.666669992999999   0.190994300142854 0
ion Te   0.666670013000001   0.833329996000003   0.809005699857146 0
ion As   0.000000000000000  -0.000000000000000   0.229782760168296 0
ion As   0.000000000000000  -0.000000000000000   0.770217264831702 0
ion As   0.500000000000000  -0.000000000000000   0.229782760168296 0
ion As   0.500000000000000  -0.000000000000000   0.770217264831702 0
ion As   0.999999998000000   0.499999996000000   0.229782760168296 0
ion As   0.999999998000000   0.499999996000000   0.770217264831702 0
ion As   0.499999998000000   0.499999996000000   0.229782760168296 0
ion As   0.499999998000000   0.499999996000000   0.770217264831702 0
ion-species GBRV/$ID_pbe.uspp
ion-width Ecut
ionic-minimize  \
	dirUpdateScheme      L-BFGS \
	linminMethod         DirUpdateRecommended \
	nIterations          0 \
	history              15 \
	knormThreshold       0.0001 \
	energyDiffThreshold  1e-06 \
	nEnergyDiff          2 \
	alphaTstart          1 \
	alphaTmin            1e-10 \
	updateTestStepSize   yes \
	alphaTreduceFactor   0.1 \
	alphaTincreaseFactor 3 \
	nAlphaAdjustMax      3 \
	wolfeEnergy          0.0001 \
	wolfeGradient        0.9 \
	fdTest               no
kpoint   0.000000000000   0.000000000000   0.000000000000  1.00000000000000
kpoint-folding 5 5 1 
latt-move-scale 1 1 1
latt-scale 1 1 1 
lattice Triclinic 15.7231 15.7231 74.2237 90 90 120
lattice-minimize  \
	dirUpdateScheme      L-BFGS \
	linminMethod         DirUpdateRecommended \
	nIterations          0 \
	history              15 \
	knormThreshold       0 \
	energyDiffThreshold  1e-06 \
	nEnergyDiff          2 \
	alphaTstart          1 \
	alphaTmin            1e-10 \
	updateTestStepSize   yes \
	alphaTreduceFactor   0.1 \
	alphaTincreaseFactor 3 \
	nAlphaAdjustMax      3 \
	wolfeEnergy          0.0001 \
	wolfeGradient        0.9 \
	fdTest               no
lcao-params -1 1e-06 0.0073499
pcm-variant CANDLE
spintype no-spin
subspace-rotation-factor 1 yes
symmetries automatic
symmetry-threshold 0.0001
target-mu -0.24475 no




---------- Setting up symmetries ----------

Found 24 point-group symmetries of the bravais lattice
Found 48 space-group symmetries with basis
Applied RMS atom displacement 0.000146946 bohrs to make symmetries exact.

---------- Initializing the Grid ----------
R = 
[    15.7231   -7.86154          0  ]
[          0    13.6166          0  ]
[          0          0    74.2237  ]
unit cell volume = 15890.9
G =
[   0.399615   0.230718         -0  ]
[          0   0.461436          0  ]
[          0         -0   0.084652  ]
Minimum fftbox size, Smin = [  72  72  336  ]
Chosen fftbox size, S = [  72  72  336  ]

---------- Initializing tighter grid for wavefunction operations ----------
R = 
[    15.7231   -7.86154          0  ]
[          0    13.6166          0  ]
[          0          0    74.2237  ]
unit cell volume = 15890.9
G =
[   0.399615   0.230718         -0  ]
[          0   0.461436          0  ]
[          0         -0   0.084652  ]
Minimum fftbox size, Smin = [  64  64  300  ]
Chosen fftbox size, S = [  64  64  300  ]

---------- Exchange Correlation functional ----------
Initalized PBE GGA exchange.
Initalized PBE GGA correlation.

---------- Setting up pseudopotentials ----------
Width of ionic core gaussian charges (only for fluid interactions / plotting) set to 0.397384

Reading pseudopotential file '/home/guoxy/vasp/jdftx-1.5.0/build/pseudopotentials/GBRV/ge_pbe.uspp':
  Title: Ge.  Created by USPP 7.3.6 on 31-3-15
  Reference state energy: -106.660278.  14 valence electrons in orbitals:
    |320>  occupation: 10  eigenvalue: -1.077168
    |400>  occupation: 2  eigenvalue: -0.431112
    |410>  occupation: 2  eigenvalue: -0.143157
  lMax: 2  lLocal: 3  QijEcut: 6
  6 projectors sampled on a log grid with 621 points:
    l: 0  eig: -0.431110  rCut: 1.9
    l: 0  eig: 1.000000  rCut: 1.9
    l: 1  eig: -0.143157  rCut: 1.9
    l: 1  eig: 1.000000  rCut: 1.9
    l: 2  eig: -1.077168  rCut: 1.7
    l: 2  eig: 0.000000  rCut: 1.7
  Partial core density with radius 0.8
  Transforming core density to a uniform radial grid of dG=0.02 with 1610 points.
  Transforming local potential to a uniform radial grid of dG=0.02 with 1610 points.
  Transforming nonlocal projectors to a uniform radial grid of dG=0.02 with 432 points.
  Transforming density augmentations to a uniform radial grid of dG=0.02 with 1610 points.
  Transforming atomic orbitals to a uniform radial grid of dG=0.02 with 432 points.
  Core radius for overlap checks: 2.00 bohrs.

Reading pseudopotential file '/home/guoxy/vasp/jdftx-1.5.0/build/pseudopotentials/GBRV/te_pbe.uspp':
  Title: Te.  Created by USPP 7.3.6 on 14-9-2013
  Reference state energy: -13.134220.  6 valence electrons in orbitals:
    |500>  occupation: 2  eigenvalue: -0.555231
    |510>  occupation: 4  eigenvalue: -0.218781
  lMax: 2  lLocal: 2  QijEcut: 5
  5 projectors sampled on a log grid with 723 points:
    l: 0  eig: -0.555229  rCut: 2.1
    l: 0  eig: 1.000000  rCut: 2.1
    l: 1  eig: -0.218780  rCut: 2.1
    l: 1  eig: 1.000000  rCut: 2.1
    l: 2  eig: 1.000000  rCut: 2.6
  Partial core density with radius 1.8
  Transforming core density to a uniform radial grid of dG=0.02 with 1610 points.
  Transforming local potential to a uniform radial grid of dG=0.02 with 1610 points.
  Transforming nonlocal projectors to a uniform radial grid of dG=0.02 with 432 points.
  Transforming density augmentations to a uniform radial grid of dG=0.02 with 1610 points.
  Transforming atomic orbitals to a uniform radial grid of dG=0.02 with 432 points.
  Core radius for overlap checks: 2.60 bohrs.

Reading pseudopotential file '/home/guoxy/vasp/jdftx-1.5.0/build/pseudopotentials/GBRV/as_pbe.uspp':
  Title: As.  Created by USPP 7.3.6 on 14-9-2013
  Reference state energy: -19.965231.  5 valence electrons in orbitals:
    |400>  occupation: 2  eigenvalue: -0.532639
    |410>  occupation: 3  eigenvalue: -0.190915
  lMax: 2  lLocal: 2  QijEcut: 5
  6 projectors sampled on a log grid with 623 points:
    l: 0  eig: -0.532635  rCut: 1.5
    l: 0  eig: 0.500000  rCut: 1.5
    l: 1  eig: -0.190916  rCut: 1.5
    l: 1  eig: 0.500000  rCut: 1.5
    l: 2  eig: 0.000000  rCut: 1.9
    l: 2  eig: 1.000000  rCut: 1.9
  Partial core density with radius 1.2
  Transforming core density to a uniform radial grid of dG=0.02 with 1610 points.
  Transforming local potential to a uniform radial grid of dG=0.02 with 1610 points.
  Transforming nonlocal projectors to a uniform radial grid of dG=0.02 with 432 points.
  Transforming density augmentations to a uniform radial grid of dG=0.02 with 1610 points.
  Transforming atomic orbitals to a uniform radial grid of dG=0.02 with 432 points.
  Core radius for overlap checks: 1.90 bohrs.

Initialized 3 species with 60 total atoms.

Folded 1 k-points by 5x5x1 to 25 k-points.

---------- Setting up k-points, bands, fillings ----------
Reduced to 5 k-points under symmetry. 
Computing the number of bands and number of electrons
Reading initial fillings from file NbTe2.fillings.
nElectrons: 512.000000   nBands: 340   nStates: 5

----- Setting up reduced wavefunction bases (one per k-point) -----
average nbasis = 67873.400 , ideal nbasis = 67887.206

---------- Setting up coulomb interaction ----------
Fluid mode embedding: using embedded box, but periodic Coulomb kernel.
(Fluid response is responsible for (approximate) separation between periodic images.)
Setting up double-sized grid for truncated Coulomb potentials:
R = 
[    15.7231   -7.86154          0  ]
[          0    13.6166          0  ]
[          0          0    148.447  ]
unit cell volume = 31781.8
G =
[   0.399615   0.230718         -0  ]
[          0   0.461436          0  ]
[          0         -0   0.042326  ]
Chosen fftbox size, S = [  72  72  672  ]
Integer grid location selected as the embedding center:
   Grid: [  0  0  168  ]
   Lattice: [  0  0  0.5  ]
   Cartesian: [  0  0  37.1119  ]
Constructing Wigner-Seitz cell: 8 faces (6 quadrilaterals, 2 hexagons)
Range-separation parameter for embedded mesh potentials due to point charges: 0.592941 bohrs.

Initializing van der Waals corrections
	NOTE: vdW corrections apply only for interactions with fluid.
	Ge:  C6:  296.60 Eh-a0^6  R0: 3.264 a0
	Te:  C6:  550.54 Eh-a0^6  R0: 3.575 a0
	As:  C6:  283.94 Eh-a0^6  R0: 3.326 a0

---------- Setting up ewald sum ----------
Optimum gaussian width for ewald sums = 6.386719 bohr.
Real space sum over 845 unit cells with max indices [  6  6  2  ]
Reciprocal space sum over 9075 terms with max indices [  5  5  37  ]

---------- Allocating electronic variables ----------
Initializing wave functions:  reading from 'NbTe2.wfns'
----- createFluidSolver() ----- (Fluid-side solver setup)
   Initializing fluid molecule 'H2O'
     Initializing site 'O'
       Electron density: proportional to exp(-r/0.36935)*erfc((r-0.51523)/0.36823) with norm 6.826
       Charge density: gaussian nuclear width 0.478731 with net site charge 0.826
       Polarizability: cuspless exponential with width 0.32 and norm 3.73
       Hard sphere radius: 2.57003 bohrs
       Positions in reference frame:
         [ +0.000000 +0.000000 +0.000000 ]
     Initializing site 'H'
       Electron density: proportional to exp(-r/0.34641)*erfc((r-0)/0.390882) with norm 0.587
       Charge density: gaussian nuclear width 0.377945 with net site charge -0.413
       Polarizability: cuspless exponential with width 0.39 and norm 3.3
       Positions in reference frame:
         [ +0.000000 -1.441945 +1.122523 ]
         [ +0.000000 +1.441945 +1.122523 ]
     Net charge: 0   dipole magnitude: 0.927204
     Initializing spherical shell mfKernel with radius 2.61727 Bohr
     deltaS corrections:
       site 'O': -7.54299
       site 'H': -6.83917
   Initializing fluid molecule 'Na+'
     Initializing site 'Na'
       Electron density: proportional to exp(-r/0.19682)*erfc((r-0.71491)/0.41314) with norm 8.1383
       Charge density: gaussian nuclear width 0.365347 with net site charge -1
       Hard sphere radius: 1.86327 bohrs
       Positions in reference frame:
         [ +0.000000 +0.000000 +0.000000 ]
     Net charge: -1   dipole magnitude: 0
     Initializing gaussian mfKernel with width: 1.55004 Bohr
     deltaS corrections:
       site 'Na': -22.3555
   Initializing fluid molecule 'F-'
     Initializing site 'F'
       Electron density: proportional to exp(-r/0.38886)*erfc((r-0)/0.438782) with norm 8
       Charge density: gaussian nuclear width 0.374796 with net site charge 1
       Hard sphere radius: 2.39995 bohrs
       Positions in reference frame:
         [ +0.000000 +0.000000 +0.000000 ]
     Net charge: 1   dipole magnitude: 0
     Initializing gaussian mfKernel with width: 1.59012 Bohr
     deltaS corrections:
       site 'F': -9.04335

Correction to mu due to finite nuclear width = -0.0159842
   Cavity determined by nc: 0.00142 and sigma: 0.707107
   Nonlocal vdW cavity from gaussian model electron density with norm = 8 and sigma = 0.993594 bohr
   Charge asymmetry in cavity with sensitivity pCavity = 36.5 e-bohr/Eh
   Electrostatic cavity expanded by eta = 1.46 bohrs
   Weighted density cavitation model constrained by Nbulk: 0.0049383 bohr^-3, Pvap: 3.14029 kPa, Rvdw: 2.61727 bohr and sigmaBulk: 4.62e-05 Eh/bohr^2 at T: 298 K.
   Weighted density dispersion model using vdW pair potentials with single solvent site with sqrtC6eff: 0.77 SI.
Reading fluid state from 'NbTe2.fluidState'


---- Citations for features of the code used in this run ----

   Software package:
      R. Sundararaman, K. Letchworth-Weaver, K.A. Schwarz, D. Gunceler, Y. Ozhabes and T.A. Arias, 'JDFTx: software for joint density-functional theory', SoftwareX 6, 278 (2017)

   gga-PBE exchange-correlation functional:
      J.P. Perdew, K. Burke and M. Ernzerhof, Phys. Rev. Lett. 77, 3865 (1996)

   Pseudopotentials:
      KF Garrity, JW Bennett, KM Rabe and D Vanderbilt, Comput. Mater. Sci. 81, 446 (2014)

   Truncated Coulomb potentials:
      R. Sundararaman and T.A. Arias, Phys. Rev. B 87, 165122 (2013)

   Van der Waals correction pair-potentials:
      S. Grimme, J. Comput. Chem. 27, 1787 (2006)

   Charge-asymmetric nonlocally-determined local-electric (CANDLE) solvation model:
      R. Sundararaman and W.A. Goddard III, J. Chem. Phys. 142, 064107 (2015)

   Grand-canonical (fixed-potential) DFT:
      R. Sundararaman, W. A. Goddard III and T. A. Arias, J. Chem. Phys. 146, 114104 (2017)

This list may not be complete. Please suggest additional citations or
report any other bugs at https://github.com/shankar1729/jdftx/issues

Initialization completed successfully at t[s]:     47.39

Shifting auxilliary hamiltonian by -0.093326 to set nElectrons=512.000000
	Linear fluid (dielectric constant: 78.4, screening length: 5.74355 Bohr) occupying 0.614147 of unit cell:	Completed after 0 iterations at t[s]:     54.41

-------- Electronic minimization -----------
Will mix electronic density at each iteration.
	FillingsUpdate:  mu: -0.244750400  nElectrons: 512.000000
	Linear fluid (dielectric constant: 78.4, screening length: 5.74355 Bohr) occupying 0.614147 of unit cell:	Completed after 0 iterations at t[s]:     61.65
	FillingsUpdate:  mu: -0.244750400  nElectrons: 425.037759
	Linear fluid (dielectric constant: 78.4, screening length: 5.74355 Bohr) occupying 0.622535 of unit cell:	Completed after 400 iterations at t[s]:    146.66
SCF: Cycle:  0   G: -1511.299179351307885   dG: +5.676e+02   |Residual|: 1.022e+00   |deigs|: 3.271e-07  t[s]:    147.70
	Linear fluid (dielectric constant: 78.4, screening length: 5.74355 Bohr) occupying 0.603275 of unit cell:	Completed after 31 iterations at t[s]:    150.39
	FillingsUpdate:  mu: -0.244750400  nElectrons: 680.000000
	Linear fluid (dielectric constant: 78.4, screening length: 5.74355 Bohr) occupying 0.656445 of unit cell:	Completed after 244 iterations at t[s]:    240.09
SCF: Cycle:  1   G: +4576.966260902858266   dG: +6.088e+03   |Residual|: 2.691e+00   |deigs|: 7.450e-01  t[s]:    241.12
	Linear fluid (dielectric constant: 78.4, screening length: 5.74355 Bohr) occupying 0.598880 of unit cell:	Completed after 33 iterations at t[s]:    243.93
	FillingsUpdate:  mu: -0.244750400  nElectrons: 621.336184
	Linear fluid (dielectric constant: 78.4, screening length: 5.74355 Bohr) occupying 0.645086 of unit cell:	Completed after 31 iterations at t[s]:    318.71
SCF: Cycle:  2   G: -756.519968811329932   dG: -5.333e+03   |Residual|: 1.353e+00   |deigs|: 5.275e-01  t[s]:    319.69
	Linear fluid (dielectric constant: 78.4, screening length: 5.74355 Bohr) occupying 0.601785 of unit cell:	Completed after 29 iterations at t[s]:    322.21
	FillingsUpdate:  mu: -0.244750400  nElectrons: 510.772760
	Linear fluid (dielectric constant: 78.4, screening length: 5.74355 Bohr) occupying 0.617904 of unit cell:	Completed after 27 iterations at t[s]:    396.19
SCF: Cycle:  3   G: -2078.761178869564446   dG: -1.322e+03   |Residual|: 2.867e-01   |deigs|: 1.415e-01  t[s]:    397.23
	Linear fluid (dielectric constant: 78.4, screening length: 5.74355 Bohr) occupying 0.601252 of unit cell:	Completed after 23 iterations at t[s]:    399.30
	FillingsUpdate:  mu: -0.244750400  nElectrons: 509.974517
	Linear fluid (dielectric constant: 78.4, screening length: 5.74355 Bohr) occupying 0.617929 of unit cell:	Completed after 27 iterations at t[s]:    473.44
SCF: Cycle:  4   G: -2078.808524588270302   dG: -4.735e-02   |Residual|: 1.774e-01   |deigs|: 5.716e-03  t[s]:    474.47
	Linear fluid (dielectric constant: 78.4, screening length: 5.74355 Bohr) occupying 0.599572 of unit cell:	Completed after 22 iterations at t[s]:    476.51
	FillingsUpdate:  mu: -0.244750400  nElectrons: 507.244439
	Linear fluid (dielectric constant: 78.4, screening length: 5.74355 Bohr) occupying 0.618267 of unit cell:	Completed after 26 iterations at t[s]:    550.38
SCF: Cycle:  5   G: -2077.545639263104931   dG: +1.263e+00   |Residual|: 5.145e-02   |deigs|: 6.779e-03  t[s]:    551.38
	Linear fluid (dielectric constant: 78.4, screening length: 5.74355 Bohr) occupying 0.597829 of unit cell:	Completed after 23 iterations at t[s]:    553.45
	FillingsUpdate:  mu: -0.244750400  nElectrons: 505.264747
	Linear fluid (dielectric constant: 78.4, screening length: 5.74355 Bohr) occupying 0.618360 of unit cell:	Completed after 27 iterations at t[s]:    627.57
SCF: Cycle:  6   G: -2075.140417138339672   dG: +2.405e+00   |Residual|: 7.476e-02   |deigs|: 2.599e-03  t[s]:    628.63
	Linear fluid (dielectric constant: 78.4, screening length: 5.74355 Bohr) occupying 0.593968 of unit cell:	Completed after 22 iterations at t[s]:    630.66
	FillingsUpdate:  mu: -0.244750400  nElectrons: 504.349751
	Linear fluid (dielectric constant: 78.4, screening length: 5.74355 Bohr) occupying 0.618494 of unit cell:	Completed after 28 iterations at t[s]:    705.59
SCF: Cycle:  7   G: -2073.305201063686582   dG: +1.835e+00   |Residual|: 8.201e-02   |deigs|: 1.939e-03  t[s]:    706.64
	Linear fluid (dielectric constant: 78.4, screening length: 5.74355 Bohr) occupying 0.591474 of unit cell:	Completed after 22 iterations at t[s]:    708.72
	FillingsUpdate:  mu: -0.244750400  nElectrons: 504.177757
	Linear fluid (dielectric constant: 78.4, screening length: 5.74355 Bohr) occupying 0.618884 of unit cell:	Completed after 28 iterations at t[s]:    782.52
SCF: Cycle:  8   G: -2073.241264876023706   dG: +6.394e-02   |Residual|: 8.686e-02   |deigs|: 5.162e-04  t[s]:    783.48
	Linear fluid (dielectric constant: 78.4, screening length: 5.74355 Bohr) occupying 0.588598 of unit cell:	Completed after 22 iterations at t[s]:    785.48
	FillingsUpdate:  mu: -0.244750400  nElectrons: 505.568148
	Linear fluid (dielectric constant: 78.4, screening length: 5.74355 Bohr) occupying 0.619295 of unit cell:	Completed after 27 iterations at t[s]:    859.26
SCF: Cycle:  9   G: -2075.652633734315259   dG: -2.411e+00   |Residual|: 6.694e-02   |deigs|: 1.928e-03  t[s]:    860.22
	Linear fluid (dielectric constant: 78.4, screening length: 5.74355 Bohr) occupying 0.587850 of unit cell:	Completed after 17 iterations at t[s]:    861.93
	FillingsUpdate:  mu: -0.244750400  nElectrons: 506.138339
	Linear fluid (dielectric constant: 78.4, screening length: 5.74355 Bohr) occupying 0.619520 of unit cell:	Completed after 27 iterations at t[s]:    936.13
SCF: Cycle: 10   G: -2076.450919270926533   dG: -7.983e-01   |Residual|: 5.667e-02   |deigs|: 7.546e-04  t[s]:    937.15
	Linear fluid (dielectric constant: 78.4, screening length: 5.74355 Bohr) occupying 0.593526 of unit cell:	Completed after 26 iterations at t[s]:    939.53
	FillingsUpdate:  mu: -0.244750400  nElectrons: 506.833567
	Linear fluid (dielectric constant: 78.4, screening length: 5.74355 Bohr) occupying 0.620702 of unit cell:	Completed after 28 iterations at t[s]:   1013.28
SCF: Cycle: 11   G: -2077.427100645445535   dG: -9.762e-01   |Residual|: 3.996e-02   |deigs|: 1.076e-03  t[s]:   1014.34
	Linear fluid (dielectric constant: 78.4, screening length: 5.74355 Bohr) occupying 0.598550 of unit cell:	Completed after 26 iterations at t[s]:   1016.66
	FillingsUpdate:  mu: -0.244750400  nElectrons: 508.089898
	Linear fluid (dielectric constant: 78.4, screening length: 5.74355 Bohr) occupying 0.620968 of unit cell:	Completed after 27 iterations at t[s]:   1091.14
SCF: Cycle: 12   G: -2078.502046246280770   dG: -1.075e+00   |Residual|: 2.300e-02   |deigs|: 2.384e-03  t[s]:   1092.15
	Linear fluid (dielectric constant: 78.4, screening length: 5.74355 Bohr) occupying 0.605765 of unit cell:	Completed after 26 iterations at t[s]:   1094.49
	FillingsUpdate:  mu: -0.244750400  nElectrons: 509.316365
	Linear fluid (dielectric constant: 78.4, screening length: 5.74355 Bohr) occupying 0.621120 of unit cell:	Completed after 24 iterations at t[s]:   1168.57
SCF: Cycle: 13   G: -2078.994598263698208   dG: -4.926e-01   |Residual|: 1.191e-02   |deigs|: 3.398e-03  t[s]:   1169.65
	Linear fluid (dielectric constant: 78.4, screening length: 5.74355 Bohr) occupying 0.611772 of unit cell:	Completed after 24 iterations at t[s]:   1171.87
	FillingsUpdate:  mu: -0.244750400  nElectrons: 510.605693
	Linear fluid (dielectric constant: 78.4, screening length: 5.74355 Bohr) occupying 0.620830 of unit cell:	Completed after 24 iterations at t[s]:   1245.59
SCF: Cycle: 14   G: -2078.986187676176996   dG: +8.411e-03   |Residual|: 1.022e-02   |deigs|: 3.960e-03  t[s]:   1246.56
	Linear fluid (dielectric constant: 78.4, screening length: 5.74355 Bohr) occupying 0.614990 of unit cell:	Completed after 23 iterations at t[s]:   1248.64
	FillingsUpdate:  mu: -0.244750400  nElectrons: 509.281516
	Linear fluid (dielectric constant: 78.4, screening length: 5.74355 Bohr) occupying 0.620717 of unit cell:	Completed after 25 iterations at t[s]:   1322.63
SCF: Cycle: 15   G: -2078.954813312696842   dG: +3.137e-02   |Residual|: 1.199e-02   |deigs|: 4.382e-03  t[s]:   1323.62
	Linear fluid (dielectric constant: 78.4, screening length: 5.74355 Bohr) occupying 0.617408 of unit cell:	Completed after 23 iterations at t[s]:   1325.77
	FillingsUpdate:  mu: -0.244750400  nElectrons: 509.040982
	Linear fluid (dielectric constant: 78.4, screening length: 5.74355 Bohr) occupying 0.620649 of unit cell:	Completed after 25 iterations at t[s]:   1399.90
SCF: Cycle: 16   G: -2078.884482126514285   dG: +7.033e-02   |Residual|: 1.511e-02   |deigs|: 5.571e-04  t[s]:   1400.99
	Linear fluid (dielectric constant: 78.4, screening length: 5.74355 Bohr) occupying 0.620319 of unit cell:	Completed after 24 iterations at t[s]:   1403.20
	FillingsUpdate:  mu: -0.244750400  nElectrons: 508.688881
	Linear fluid (dielectric constant: 78.4, screening length: 5.74355 Bohr) occupying 0.620878 of unit cell:	Completed after 24 iterations at t[s]:   1477.63
SCF: Cycle: 17   G: -2078.793068070144272   dG: +9.141e-02   |Residual|: 1.656e-02   |deigs|: 7.911e-04  t[s]:   1478.61
	Linear fluid (dielectric constant: 78.4, screening length: 5.74355 Bohr) occupying 0.621502 of unit cell:	Completed after 24 iterations at t[s]:   1480.79
	FillingsUpdate:  mu: -0.244750400  nElectrons: 509.830753
	Linear fluid (dielectric constant: 78.4, screening length: 5.74355 Bohr) occupying 0.621135 of unit cell:	Completed after 18 iterations at t[s]:   1554.56
SCF: Cycle: 18   G: -2079.040948189173832   dG: -2.479e-01   |Residual|: 2.578e-03   |deigs|: 3.129e-03  t[s]:   1555.60
	Linear fluid (dielectric constant: 78.4, screening length: 5.74355 Bohr) occupying 0.621391 of unit cell:	Completed after 17 iterations at t[s]:   1557.30
	FillingsUpdate:  mu: -0.244750400  nElectrons: 509.890463
	Linear fluid (dielectric constant: 78.4, screening length: 5.74355 Bohr) occupying 0.621094 of unit cell:	Completed after 17 iterations at t[s]:   1630.05
SCF: Cycle: 19   G: -2079.040886782197504   dG: +6.141e-05   |Residual|: 1.877e-03   |deigs|: 1.587e-04  t[s]:   1631.06
	Linear fluid (dielectric constant: 78.4, screening length: 5.74355 Bohr) occupying 0.621119 of unit cell:	Completed after 16 iterations at t[s]:   1632.69
	FillingsUpdate:  mu: -0.244750400  nElectrons: 509.657886
	Linear fluid (dielectric constant: 78.4, screening length: 5.74355 Bohr) occupying 0.621054 of unit cell:	Completed after 23 iterations at t[s]:   1700.93
SCF: Cycle: 20   G: -2079.034001093038114   dG: +6.886e-03   |Residual|: 2.968e-03   |deigs|: 6.920e-04  t[s]:   1701.95
	Linear fluid (dielectric constant: 78.4, screening length: 5.74355 Bohr) occupying 0.621184 of unit cell:	Completed after 22 iterations at t[s]:   1703.97
	FillingsUpdate:  mu: -0.244750400  nElectrons: 509.777943
	Linear fluid (dielectric constant: 78.4, screening length: 5.74355 Bohr) occupying 0.621108 of unit cell:	Completed after 21 iterations at t[s]:   1777.69
SCF: Cycle: 21   G: -2079.039976623387702   dG: -5.976e-03   |Residual|: 1.155e-03   |deigs|: 3.600e-04  t[s]:   1778.70
	Linear fluid (dielectric constant: 78.4, screening length: 5.74355 Bohr) occupying 0.621255 of unit cell:	Completed after 18 iterations at t[s]:   1780.42
	FillingsUpdate:  mu: -0.244750400  nElectrons: 509.836729
	Linear fluid (dielectric constant: 78.4, screening length: 5.74355 Bohr) occupying 0.621140 of unit cell:	Completed after 14 iterations at t[s]:   1846.04
SCF: Cycle: 22   G: -2079.040985247262142   dG: -1.009e-03   |Residual|: 3.398e-04   |deigs|: 1.875e-04  t[s]:   1847.15
	Linear fluid (dielectric constant: 78.4, screening length: 5.74355 Bohr) occupying 0.621202 of unit cell:	Completed after 18 iterations at t[s]:   1848.94
	FillingsUpdate:  mu: -0.244750400  nElectrons: 509.851832
	Linear fluid (dielectric constant: 78.4, screening length: 5.74355 Bohr) occupying 0.621136 of unit cell:	Completed after 17 iterations at t[s]:   1904.35
SCF: Cycle: 23   G: -2079.041002181065778   dG: -1.693e-05   |Residual|: 2.892e-04   |deigs|: 5.094e-05  t[s]:   1905.32
	Linear fluid (dielectric constant: 78.4, screening length: 5.74355 Bohr) occupying 0.621207 of unit cell:	Completed after 19 iterations at t[s]:   1907.13
	FillingsUpdate:  mu: -0.244750400  nElectrons: 509.861302
	Linear fluid (dielectric constant: 78.4, screening length: 5.74355 Bohr) occupying 0.621138 of unit cell:	Completed after 17 iterations at t[s]:   1952.11
SCF: Cycle: 24   G: -2079.040963578423543   dG: +3.860e-05   |Residual|: 2.340e-04   |deigs|: 3.455e-05  t[s]:   1953.15
	Linear fluid (dielectric constant: 78.4, screening length: 5.74355 Bohr) occupying 0.621172 of unit cell:	Completed after 16 iterations at t[s]:   1954.76
	FillingsUpdate:  mu: -0.244750400  nElectrons: 509.856248
	Linear fluid (dielectric constant: 78.4, screening length: 5.74355 Bohr) occupying 0.621135 of unit cell:	Completed after 14 iterations at t[s]:   2000.23
SCF: Cycle: 25   G: -2079.041002437494626   dG: -3.886e-05   |Residual|: 1.947e-04   |deigs|: 3.088e-05  t[s]:   2001.25
	Linear fluid (dielectric constant: 78.4, screening length: 5.74355 Bohr) occupying 0.621150 of unit cell:	Completed after 17 iterations at t[s]:   2002.91
	FillingsUpdate:  mu: -0.244750400  nElectrons: 509.853126
	Linear fluid (dielectric constant: 78.4, screening length: 5.74355 Bohr) occupying 0.621133 of unit cell:	Completed after 8 iterations at t[s]:   2047.60
SCF: Cycle: 26   G: -2079.041006269553691   dG: -3.832e-06   |Residual|: 1.634e-04   |deigs|: 1.785e-05  t[s]:   2048.62
	Linear fluid (dielectric constant: 78.4, screening length: 5.74355 Bohr) occupying 0.621141 of unit cell:	Completed after 3 iterations at t[s]:   2049.32
	FillingsUpdate:  mu: -0.244750400  nElectrons: 509.816715
	Linear fluid (dielectric constant: 78.4, screening length: 5.74355 Bohr) occupying 0.621128 of unit cell:	Completed after 16 iterations at t[s]:   2096.84
SCF: Cycle: 27   G: -2079.040739683232005   dG: +2.666e-04   |Residual|: 5.041e-04   |deigs|: 1.164e-04  t[s]:   2097.84
	Linear fluid (dielectric constant: 78.4, screening length: 5.74355 Bohr) occupying 0.621143 of unit cell:	Completed after 15 iterations at t[s]:   2099.37
	FillingsUpdate:  mu: -0.244750400  nElectrons: 509.852564
	Linear fluid (dielectric constant: 78.4, screening length: 5.74355 Bohr) occupying 0.621132 of unit cell:	Completed after 13 iterations at t[s]:   2145.15
SCF: Cycle: 28   G: -2079.041005081654930   dG: -2.654e-04   |Residual|: 9.296e-05   |deigs|: 1.180e-04  t[s]:   2146.15
	Linear fluid (dielectric constant: 78.4, screening length: 5.74355 Bohr) occupying 0.621137 of unit cell:	Completed after 15 iterations at t[s]:   2147.72
	FillingsUpdate:  mu: -0.244750400  nElectrons: 509.857011
	Linear fluid (dielectric constant: 78.4, screening length: 5.74355 Bohr) occupying 0.621131 of unit cell:	Completed after 15 iterations at t[s]:   2192.97
SCF: Cycle: 29   G: -2079.040987350243086   dG: +1.773e-05   |Residual|: 1.670e-04   |deigs|: 2.144e-05  t[s]:   2193.97
	Linear fluid (dielectric constant: 78.4, screening length: 5.74355 Bohr) occupying 0.621139 of unit cell:	Completed after 16 iterations at t[s]:   2195.56
	FillingsUpdate:  mu: -0.244750400  nElectrons: 509.854258
	Linear fluid (dielectric constant: 78.4, screening length: 5.74355 Bohr) occupying 0.621132 of unit cell:	Completed after 14 iterations at t[s]:   2240.92
SCF: Cycle: 30   G: -2079.041000818327575   dG: -1.347e-05   |Residual|: 1.003e-04   |deigs|: 1.297e-05  t[s]:   2241.91
	Linear fluid (dielectric constant: 78.4, screening length: 5.74355 Bohr) occupying 0.621140 of unit cell:	Completed after 15 iterations at t[s]:   2243.46
	FillingsUpdate:  mu: -0.244750400  nElectrons: 509.854981
	Linear fluid (dielectric constant: 78.4, screening length: 5.74355 Bohr) occupying 0.621132 of unit cell:	Completed after 16 iterations at t[s]:   2288.70
SCF: Cycle: 31   G: -2079.040998912698342   dG: +1.906e-06   |Residual|: 1.253e-04   |deigs|: 1.054e-05  t[s]:   2289.75
	Linear fluid (dielectric constant: 78.4, screening length: 5.74355 Bohr) occupying 0.621141 of unit cell:	Completed after 15 iterations at t[s]:   2291.30
	FillingsUpdate:  mu: -0.244750400  nElectrons: 509.854260
	Linear fluid (dielectric constant: 78.4, screening length: 5.74355 Bohr) occupying 0.621131 of unit cell:	Completed after 18 iterations at t[s]:   2338.38
SCF: Cycle: 32   G: -2079.040992012999141   dG: +6.900e-06   |Residual|: 1.937e-04   |deigs|: 1.950e-05  t[s]:   2339.45
	Linear fluid (dielectric constant: 78.4, screening length: 5.74355 Bohr) occupying 0.621140 of unit cell:	Completed after 18 iterations at t[s]:   2341.22
	FillingsUpdate:  mu: -0.244750400  nElectrons: 509.855843
	Linear fluid (dielectric constant: 78.4, screening length: 5.74355 Bohr) occupying 0.621132 of unit cell:	Completed after 14 iterations at t[s]:   2386.42
SCF: Cycle: 33   G: -2079.040998260180913   dG: -6.247e-06   |Residual|: 8.522e-05   |deigs|: 1.625e-05  t[s]:   2387.45
	Linear fluid (dielectric constant: 78.4, screening length: 5.74355 Bohr) occupying 0.621139 of unit cell:	Completed after 14 iterations at t[s]:   2388.93
	FillingsUpdate:  mu: -0.244750400  nElectrons: 509.852200
	Linear fluid (dielectric constant: 78.4, screening length: 5.74355 Bohr) occupying 0.621132 of unit cell:	Completed after 16 iterations at t[s]:   2435.70
SCF: Cycle: 34   G: -2079.041000969168181   dG: -2.709e-06   |Residual|: 1.139e-04   |deigs|: 1.593e-05  t[s]:   2436.77
	Linear fluid (dielectric constant: 78.4, screening length: 5.74355 Bohr) occupying 0.621138 of unit cell:	Completed after 17 iterations at t[s]:   2438.47
	FillingsUpdate:  mu: -0.244750400  nElectrons: 509.854252
	Linear fluid (dielectric constant: 78.4, screening length: 5.74355 Bohr) occupying 0.621132 of unit cell:	Completed after 15 iterations at t[s]:   2485.06
SCF: Cycle: 35   G: -2079.041000280263688   dG: +6.889e-07   |Residual|: 9.321e-05   |deigs|: 1.251e-05  t[s]:   2486.08
	Linear fluid (dielectric constant: 78.4, screening length: 5.74355 Bohr) occupying 0.621138 of unit cell:	Completed after 14 iterations at t[s]:   2487.57
	FillingsUpdate:  mu: -0.244750400  nElectrons: 509.851417
	Linear fluid (dielectric constant: 78.4, screening length: 5.74355 Bohr) occupying 0.621131 of unit cell:	Completed after 18 iterations at t[s]:   2546.28
SCF: Cycle: 36   G: -2079.040995684994868   dG: +4.595e-06   |Residual|: 2.093e-04   |deigs|: 2.195e-05  t[s]:   2547.38
	Linear fluid (dielectric constant: 78.4, screening length: 5.74355 Bohr) occupying 0.621137 of unit cell:	Completed after 18 iterations at t[s]:   2549.19
	FillingsUpdate:  mu: -0.244750400  nElectrons: 509.851648
	Linear fluid (dielectric constant: 78.4, screening length: 5.74355 Bohr) occupying 0.621131 of unit cell:	Completed after 16 iterations at t[s]:   2596.90
SCF: Cycle: 37   G: -2079.041004324216829   dG: -8.639e-06   |Residual|: 5.419e-05   |deigs|: 1.898e-05  t[s]:   2597.98
	Linear fluid (dielectric constant: 78.4, screening length: 5.74355 Bohr) occupying 0.621134 of unit cell:	Completed after 14 iterations at t[s]:   2599.49
	FillingsUpdate:  mu: -0.244750400  nElectrons: 509.851704
	Linear fluid (dielectric constant: 78.4, screening length: 5.74355 Bohr) occupying 0.621131 of unit cell:	Completed after 16 iterations at t[s]:   2647.08
SCF: Cycle: 38   G: -2079.041002220767496   dG: +2.103e-06   |Residual|: 1.042e-04   |deigs|: 8.123e-06  t[s]:   2648.22
	Linear fluid (dielectric constant: 78.4, screening length: 5.74355 Bohr) occupying 0.621133 of unit cell:	Completed after 16 iterations at t[s]:   2649.84
	FillingsUpdate:  mu: -0.244750400  nElectrons: 509.845384
	Linear fluid (dielectric constant: 78.4, screening length: 5.74355 Bohr) occupying 0.621130 of unit cell:	Completed after 14 iterations at t[s]:   2695.73
SCF: Cycle: 39   G: -2079.041003289408764   dG: -1.069e-06   |Residual|: 1.590e-04   |deigs|: 2.324e-05  t[s]:   2696.69
	Linear fluid (dielectric constant: 78.4, screening length: 5.74355 Bohr) occupying 0.621132 of unit cell:	Completed after 14 iterations at t[s]:   2698.14
	FillingsUpdate:  mu: -0.244750400  nElectrons: 509.849990
	Linear fluid (dielectric constant: 78.4, screening length: 5.74355 Bohr) occupying 0.621130 of unit cell:	Completed after 18 iterations at t[s]:   2745.32
SCF: Cycle: 40   G: -2079.041002417320215   dG: +8.721e-07   |Residual|: 1.119e-04   |deigs|: 1.977e-05  t[s]:   2746.39
	Linear fluid (dielectric constant: 78.4, screening length: 5.74355 Bohr) occupying 0.621132 of unit cell:	Completed after 17 iterations at t[s]:   2748.08
	FillingsUpdate:  mu: -0.244750400  nElectrons: 509.854033
	Linear fluid (dielectric constant: 78.4, screening length: 5.74355 Bohr) occupying 0.621131 of unit cell:	Completed after 14 iterations at t[s]:   2794.74
SCF: Cycle: 41   G: -2079.041000300065662   dG: +2.117e-06   |Residual|: 9.334e-05   |deigs|: 1.695e-05  t[s]:   2795.74
	Linear fluid (dielectric constant: 78.4, screening length: 5.74355 Bohr) occupying 0.621131 of unit cell:	Completed after 15 iterations at t[s]:   2797.25
	FillingsUpdate:  mu: -0.244750400  nElectrons: 509.847595
	Linear fluid (dielectric constant: 78.4, screening length: 5.74355 Bohr) occupying 0.621130 of unit cell:	Completed after 10 iterations at t[s]:   2842.43
SCF: Cycle: 42   G: -2079.041002047292295   dG: -1.747e-06   |Residual|: 1.510e-04   |deigs|: 2.649e-05  t[s]:   2843.40
	Linear fluid (dielectric constant: 78.4, screening length: 5.74355 Bohr) occupying 0.621133 of unit cell:	Completed after 9 iterations at t[s]:   2844.48
	FillingsUpdate:  mu: -0.244750400  nElectrons: 509.876605
	Linear fluid (dielectric constant: 78.4, screening length: 5.74355 Bohr) occupying 0.621133 of unit cell:	Completed after 14 iterations at t[s]:   2890.87
SCF: Cycle: 43   G: -2079.040830977515725   dG: +1.711e-04   |Residual|: 4.034e-04   |deigs|: 9.524e-05  t[s]:   2891.87
	Linear fluid (dielectric constant: 78.4, screening length: 5.74355 Bohr) occupying 0.621131 of unit cell:	Completed after 15 iterations at t[s]:   2893.42
	FillingsUpdate:  mu: -0.244750400  nElectrons: 509.847266
	Linear fluid (dielectric constant: 78.4, screening length: 5.74355 Bohr) occupying 0.621130 of unit cell:	Completed after 13 iterations at t[s]:   2935.65
SCF: Cycle: 44   G: -2079.041002150429449   dG: -1.712e-04   |Residual|: 1.122e-04   |deigs|: 9.704e-05  t[s]:   2936.62
	Linear fluid (dielectric constant: 78.4, screening length: 5.74355 Bohr) occupying 0.621133 of unit cell:	Completed after 14 iterations at t[s]:   2938.10
	FillingsUpdate:  mu: -0.244750400  nElectrons: 509.853942
	Linear fluid (dielectric constant: 78.4, screening length: 5.74355 Bohr) occupying 0.621130 of unit cell:	Completed after 16 iterations at t[s]:   2979.89
SCF: Cycle: 45   G: -2079.040993281981173   dG: +8.868e-06   |Residual|: 1.425e-04   |deigs|: 2.532e-05  t[s]:   2980.86
	Linear fluid (dielectric constant: 78.4, screening length: 5.74355 Bohr) occupying 0.621133 of unit cell:	Completed after 17 iterations at t[s]:   2982.52
	FillingsUpdate:  mu: -0.244750400  nElectrons: 509.851480
	Linear fluid (dielectric constant: 78.4, screening length: 5.74355 Bohr) occupying 0.621131 of unit cell:	Completed after 12 iterations at t[s]:   3025.85
SCF: Cycle: 46   G: -2079.041003855084909   dG: -1.057e-05   |Residual|: 7.259e-05   |deigs|: 1.816e-05  t[s]:   3026.83
	Linear fluid (dielectric constant: 78.4, screening length: 5.74355 Bohr) occupying 0.621134 of unit cell:	Completed after 11 iterations at t[s]:   3028.05
	FillingsUpdate:  mu: -0.244750400  nElectrons: 509.845172
	Linear fluid (dielectric constant: 78.4, screening length: 5.74355 Bohr) occupying 0.621132 of unit cell:	Completed after 17 iterations at t[s]:   3072.85
SCF: Cycle: 47   G: -2079.040982998896652   dG: +2.086e-05   |Residual|: 2.086e-04   |deigs|: 2.812e-05  t[s]:   3073.84
	Linear fluid (dielectric constant: 78.4, screening length: 5.74355 Bohr) occupying 0.621134 of unit cell:	Completed after 17 iterations at t[s]:   3075.51
	FillingsUpdate:  mu: -0.244750400  nElectrons: 509.849028
	Linear fluid (dielectric constant: 78.4, screening length: 5.74355 Bohr) occupying 0.621131 of unit cell:	Completed after 13 iterations at t[s]:   3121.39
SCF: Cycle: 48   G: -2079.041002392134942   dG: -1.939e-05   |Residual|: 1.433e-04   |deigs|: 2.288e-05  t[s]:   3122.37
	Linear fluid (dielectric constant: 78.4, screening length: 5.74355 Bohr) occupying 0.621133 of unit cell:	Completed after 13 iterations at t[s]:   3123.75
	FillingsUpdate:  mu: -0.244750400  nElectrons: 509.849897
	Linear fluid (dielectric constant: 78.4, screening length: 5.74355 Bohr) occupying 0.621131 of unit cell:	Completed after 16 iterations at t[s]:   3167.01
SCF: Cycle: 49   G: -2079.041002472498349   dG: -8.036e-08   |Residual|: 8.891e-05   |deigs|: 1.136e-05  t[s]:   3168.00
	Linear fluid (dielectric constant: 78.4, screening length: 5.74355 Bohr) occupying 0.621133 of unit cell:	Completed after 16 iterations at t[s]:   3169.58
	FillingsUpdate:  mu: -0.244750400  nElectrons: 509.849839
	Linear fluid (dielectric constant: 78.4, screening length: 5.74355 Bohr) occupying 0.621131 of unit cell:	Completed after 3 iterations at t[s]:   3236.23
SCF: Cycle: 50   G: -2079.041003414851275   dG: -9.424e-07   |Residual|: 1.127e-04   |deigs|: 1.262e-05  t[s]:   3237.20
	Linear fluid (dielectric constant: 78.4, screening length: 5.74355 Bohr) occupying 0.621134 of unit cell:	Completed after 5 iterations at t[s]:   3238.01
	FillingsUpdate:  mu: -0.244750400  nElectrons: 509.840430
	Linear fluid (dielectric constant: 78.4, screening length: 5.74355 Bohr) occupying 0.621130 of unit cell:	Completed after 12 iterations at t[s]:   3283.21
SCF: Cycle: 51   G: -2079.040985882710629   dG: +1.753e-05   |Residual|: 1.402e-04   |deigs|: 3.298e-05  t[s]:   3284.21
	Linear fluid (dielectric constant: 78.4, screening length: 5.74355 Bohr) occupying 0.621133 of unit cell:	Completed after 14 iterations at t[s]:   3285.66
	FillingsUpdate:  mu: -0.244750400  nElectrons: 509.849059
	Linear fluid (dielectric constant: 78.4, screening length: 5.74355 Bohr) occupying 0.621132 of unit cell:	Completed after 17 iterations at t[s]:   3330.77
SCF: Cycle: 52   G: -2079.040993791018082   dG: -7.908e-06   |Residual|: 1.895e-04   |deigs|: 3.281e-05  t[s]:   3331.75
	Linear fluid (dielectric constant: 78.4, screening length: 5.74355 Bohr) occupying 0.621132 of unit cell:	Completed after 18 iterations at t[s]:   3333.49
	FillingsUpdate:  mu: -0.244750400  nElectrons: 509.848525
	Linear fluid (dielectric constant: 78.4, screening length: 5.74355 Bohr) occupying 0.621131 of unit cell:	Completed after 15 iterations at t[s]:   3378.09
SCF: Cycle: 53   G: -2079.041001368052548   dG: -7.577e-06   |Residual|: 1.125e-04   |deigs|: 2.008e-05  t[s]:   3379.06
	Linear fluid (dielectric constant: 78.4, screening length: 5.74355 Bohr) occupying 0.621132 of unit cell:	Completed after 14 iterations at t[s]:   3380.51
	FillingsUpdate:  mu: -0.244750400  nElectrons: 509.856371
	Linear fluid (dielectric constant: 78.4, screening length: 5.74355 Bohr) occupying 0.621132 of unit cell:	Completed after 12 iterations at t[s]:   3424.67
SCF: Cycle: 54   G: -2079.040998126760314   dG: +3.241e-06   |Residual|: 2.186e-04   |deigs|: 3.350e-05  t[s]:   3425.67
	Linear fluid (dielectric constant: 78.4, screening length: 5.74355 Bohr) occupying 0.621133 of unit cell:	Completed after 9 iterations at t[s]:   3426.78
	FillingsUpdate:  mu: -0.244750400  nElectrons: 509.821440
	Linear fluid (dielectric constant: 78.4, screening length: 5.74355 Bohr) occupying 0.621129 of unit cell:	Completed after 18 iterations at t[s]:   3473.00
SCF: Cycle: 55   G: -2079.040821113500442   dG: +1.770e-04   |Residual|: 4.110e-04   |deigs|: 1.085e-04  t[s]:   3473.96
	Linear fluid (dielectric constant: 78.4, screening length: 5.74355 Bohr) occupying 0.621133 of unit cell:	Completed after 16 iterations at t[s]:   3475.55
	FillingsUpdate:  mu: -0.244750400  nElectrons: 509.848112
	Linear fluid (dielectric constant: 78.4, screening length: 5.74355 Bohr) occupying 0.621131 of unit cell:	Completed after 14 iterations at t[s]:   3519.70
SCF: Cycle: 56   G: -2079.040999822636877   dG: -1.787e-04   |Residual|: 1.861e-04   |deigs|: 8.782e-05  t[s]:   3520.67
	Linear fluid (dielectric constant: 78.4, screening length: 5.74355 Bohr) occupying 0.621133 of unit cell:	Completed after 14 iterations at t[s]:   3522.14
	FillingsUpdate:  mu: -0.244750400  nElectrons: 509.857468
	Linear fluid (dielectric constant: 78.4, screening length: 5.74355 Bohr) occupying 0.621130 of unit cell:	Completed after 18 iterations at t[s]:   3567.00
SCF: Cycle: 57   G: -2079.040973857526296   dG: +2.597e-05   |Residual|: 2.153e-04   |deigs|: 3.827e-05  t[s]:   3567.98
	Linear fluid (dielectric constant: 78.4, screening length: 5.74355 Bohr) occupying 0.621133 of unit cell:	Completed after 17 iterations at t[s]:   3569.65
	FillingsUpdate:  mu: -0.244750400  nElectrons: 509.851150
	Linear fluid (dielectric constant: 78.4, screening length: 5.74355 Bohr) occupying 0.621131 of unit cell:	Completed after 3 iterations at t[s]:   3614.50
SCF: Cycle: 58   G: -2079.041002735772963   dG: -2.888e-05   |Residual|: 8.845e-05   |deigs|: 3.164e-05  t[s]:   3615.46
	Linear fluid (dielectric constant: 78.4, screening length: 5.74355 Bohr) occupying 0.621132 of unit cell:	Completed after 3 iterations at t[s]:   3616.13
	FillingsUpdate:  mu: -0.244750400  nElectrons: 509.838504
	Linear fluid (dielectric constant: 78.4, screening length: 5.74355 Bohr) occupying 0.621129 of unit cell:	Completed after 13 iterations at t[s]:   3660.80
SCF: Cycle: 59   G: -2079.040979165203225   dG: +2.357e-05   |Residual|: 1.965e-04   |deigs|: 4.357e-05  t[s]:   3661.76
	Linear fluid (dielectric constant: 78.4, screening length: 5.74355 Bohr) occupying 0.621133 of unit cell:	Completed after 14 iterations at t[s]:   3663.22
	FillingsUpdate:  mu: -0.244750400  nElectrons: 509.852755
	Linear fluid (dielectric constant: 78.4, screening length: 5.74355 Bohr) occupying 0.621130 of unit cell:	Completed after 18 iterations at t[s]:   3706.61
SCF: Cycle: 60   G: -2079.040995337830282   dG: -1.617e-05   |Residual|: 1.345e-04   |deigs|: 4.774e-05  t[s]:   3707.57
	Linear fluid (dielectric constant: 78.4, screening length: 5.74355 Bohr) occupying 0.621133 of unit cell:	Completed after 17 iterations at t[s]:   3709.28
	FillingsUpdate:  mu: -0.244750400  nElectrons: 509.850824
	Linear fluid (dielectric constant: 78.4, screening length: 5.74355 Bohr) occupying 0.621131 of unit cell:	Completed after 12 iterations at t[s]:   3752.53
SCF: Cycle: 61   G: -2079.041002513034073   dG: -7.175e-06   |Residual|: 8.118e-05   |deigs|: 1.617e-05  t[s]:   3753.49
	Linear fluid (dielectric constant: 78.4, screening length: 5.74355 Bohr) occupying 0.621133 of unit cell:	Completed after 6 iterations at t[s]:   3754.37
	FillingsUpdate:  mu: -0.244750400  nElectrons: 509.757849
	Linear fluid (dielectric constant: 78.4, screening length: 5.74355 Bohr) occupying 0.621125 of unit cell:	Completed after 15 iterations at t[s]:   3822.18
SCF: Cycle: 62   G: -2079.038811814203200   dG: +2.191e-03   |Residual|: 1.429e-03   |deigs|: 3.079e-04  t[s]:   3823.12
	Linear fluid (dielectric constant: 78.4, screening length: 5.74355 Bohr) occupying 0.621133 of unit cell:	Completed after 16 iterations at t[s]:   3824.71
	FillingsUpdate:  mu: -0.244750400  nElectrons: 509.850813
	Linear fluid (dielectric constant: 78.4, screening length: 5.74355 Bohr) occupying 0.621131 of unit cell:	Completed after 3 iterations at t[s]:   3873.50
SCF: Cycle: 63   G: -2079.041002830510479   dG: -2.191e-03   |Residual|: 5.555e-05   |deigs|: 3.048e-04  t[s]:   3874.47
	Linear fluid (dielectric constant: 78.4, screening length: 5.74355 Bohr) occupying 0.621133 of unit cell:	Completed after 3 iterations at t[s]:   3875.13
	FillingsUpdate:  mu: -0.244750400  nElectrons: 509.857596
	Linear fluid (dielectric constant: 78.4, screening length: 5.74355 Bohr) occupying 0.621130 of unit cell:	Completed after 17 iterations at t[s]:   3923.58
SCF: Cycle: 64   G: -2079.040978749661008   dG: +2.408e-05   |Residual|: 1.863e-04   |deigs|: 3.077e-05  t[s]:   3924.55
	Linear fluid (dielectric constant: 78.4, screening length: 5.74355 Bohr) occupying 0.621133 of unit cell:	Completed after 18 iterations at t[s]:   3926.29
	FillingsUpdate:  mu: -0.244750400  nElectrons: 509.851717
	Linear fluid (dielectric constant: 78.4, screening length: 5.74355 Bohr) occupying 0.621131 of unit cell:	Completed after 12 iterations at t[s]:   3970.18
SCF: Cycle: 65   G: -2079.041002337536611   dG: -2.359e-05   |Residual|: 5.243e-05   |deigs|: 2.644e-05  t[s]:   3971.16
	Linear fluid (dielectric constant: 78.4, screening length: 5.74355 Bohr) occupying 0.621133 of unit cell:	Completed after 11 iterations at t[s]:   3972.40
	FillingsUpdate:  mu: -0.244750400  nElectrons: 509.852197
	Linear fluid (dielectric constant: 78.4, screening length: 5.74355 Bohr) occupying 0.621131 of unit cell:	Completed after 8 iterations at t[s]:   4017.85
SCF: Cycle: 66   G: -2079.041001430365213   dG: +9.072e-07   |Residual|: 1.244e-04   |deigs|: 1.140e-05  t[s]:   4018.83
	Linear fluid (dielectric constant: 78.4, screening length: 5.74355 Bohr) occupying 0.621133 of unit cell:	Completed after 7 iterations at t[s]:   4019.78
	FillingsUpdate:  mu: -0.244750400  nElectrons: 509.853235
	Linear fluid (dielectric constant: 78.4, screening length: 5.74355 Bohr) occupying 0.621131 of unit cell:	Completed after 14 iterations at t[s]:   4070.98
SCF: Cycle: 67   G: -2079.040999013434430   dG: +2.417e-06   |Residual|: 8.496e-05   |deigs|: 1.360e-05  t[s]:   4071.95
	Linear fluid (dielectric constant: 78.4, screening length: 5.74355 Bohr) occupying 0.621133 of unit cell:	Completed after 14 iterations at t[s]:   4073.39
	FillingsUpdate:  mu: -0.244750400  nElectrons: 509.847979
	Linear fluid (dielectric constant: 78.4, screening length: 5.74355 Bohr) occupying 0.621130 of unit cell:	Completed after 9 iterations at t[s]:   4123.72
SCF: Cycle: 68   G: -2079.040997452015290   dG: +1.561e-06   |Residual|: 2.032e-04   |deigs|: 2.773e-05  t[s]:   4124.68
	Linear fluid (dielectric constant: 78.4, screening length: 5.74355 Bohr) occupying 0.621133 of unit cell:	Completed after 8 iterations at t[s]:   4125.69
	FillingsUpdate:  mu: -0.244750400  nElectrons: 509.833909
	Linear fluid (dielectric constant: 78.4, screening length: 5.74355 Bohr) occupying 0.621130 of unit cell:	Completed after 16 iterations at t[s]:   4177.05
SCF: Cycle: 69   G: -2079.040919708014826   dG: +7.774e-05   |Residual|: 3.038e-04   |deigs|: 5.880e-05  t[s]:   4178.06
	Linear fluid (dielectric constant: 78.4, screening length: 5.74355 Bohr) occupying 0.621133 of unit cell:	Completed after 15 iterations at t[s]:   4179.57
	FillingsUpdate:  mu: -0.244750400  nElectrons: 509.853166
	Linear fluid (dielectric constant: 78.4, screening length: 5.74355 Bohr) occupying 0.621131 of unit cell:	Completed after 8 iterations at t[s]:   4227.29
SCF: Cycle: 70   G: -2079.040999234999617   dG: -7.953e-05   |Residual|: 1.715e-04   |deigs|: 6.580e-05  t[s]:   4228.27
	Linear fluid (dielectric constant: 78.4, screening length: 5.74355 Bohr) occupying 0.621133 of unit cell:	Completed after 8 iterations at t[s]:   4229.29
	FillingsUpdate:  mu: -0.244750400  nElectrons: 509.838838
	Linear fluid (dielectric constant: 78.4, screening length: 5.74355 Bohr) occupying 0.621130 of unit cell:	Completed after 13 iterations at t[s]:   4278.63
SCF: Cycle: 71   G: -2079.040972351338496   dG: +2.688e-05   |Residual|: 1.686e-04   |deigs|: 4.871e-05  t[s]:   4279.58
	Linear fluid (dielectric constant: 78.4, screening length: 5.74355 Bohr) occupying 0.621132 of unit cell:	Completed after 14 iterations at t[s]:   4281.02
	FillingsUpdate:  mu: -0.244750400  nElectrons: 509.851124
	Linear fluid (dielectric constant: 78.4, screening length: 5.74355 Bohr) occupying 0.621131 of unit cell:	Completed after 3 iterations at t[s]:   4329.22
SCF: Cycle: 72   G: -2079.041001773550306   dG: -2.942e-05   |Residual|: 7.874e-05   |deigs|: 4.093e-05  t[s]:   4330.19
	Linear fluid (dielectric constant: 78.4, screening length: 5.74355 Bohr) occupying 0.621132 of unit cell:	Completed after 4 iterations at t[s]:   4330.92
	FillingsUpdate:  mu: -0.244750400  nElectrons: 509.854906
	Linear fluid (dielectric constant: 78.4, screening length: 5.74355 Bohr) occupying 0.621130 of unit cell:	Completed after 16 iterations at t[s]:   4380.89
SCF: Cycle: 73   G: -2079.040988297275362   dG: +1.348e-05   |Residual|: 1.596e-04   |deigs|: 2.563e-05  t[s]:   4381.87
	Linear fluid (dielectric constant: 78.4, screening length: 5.74355 Bohr) occupying 0.621132 of unit cell:	Completed after 17 iterations at t[s]:   4383.50
	FillingsUpdate:  mu: -0.244750400  nElectrons: 509.852111
	Linear fluid (dielectric constant: 78.4, screening length: 5.74355 Bohr) occupying 0.621131 of unit cell:	Completed after 13 iterations at t[s]:   4432.98
SCF: Cycle: 74   G: -2079.041000716269082   dG: -1.242e-05   |Residual|: 1.060e-04   |deigs|: 2.207e-05  t[s]:   4433.94
	Linear fluid (dielectric constant: 78.4, screening length: 5.74355 Bohr) occupying 0.621132 of unit cell:	Completed after 12 iterations at t[s]:   4435.24
	FillingsUpdate:  mu: -0.244750400  nElectrons: 509.843260
	Linear fluid (dielectric constant: 78.4, screening length: 5.74355 Bohr) occupying 0.621131 of unit cell:	Completed after 18 iterations at t[s]:   4484.30
SCF: Cycle: 75   G: -2079.040959665406263   dG: +4.105e-05   |Residual|: 2.960e-04   |deigs|: 3.984e-05  t[s]:   4485.27
	Linear fluid (dielectric constant: 78.4, screening length: 5.74355 Bohr) occupying 0.621132 of unit cell:	Completed after 17 iterations at t[s]:   4486.94
	FillingsUpdate:  mu: -0.244750400  nElectrons: 509.850439
	Linear fluid (dielectric constant: 78.4, screening length: 5.74355 Bohr) occupying 0.621131 of unit cell:	Completed after 6 iterations at t[s]:   4536.40
SCF: Cycle: 76   G: -2079.041000928661106   dG: -4.126e-05   |Residual|: 1.435e-04   |deigs|: 3.573e-05  t[s]:   4537.36
	Linear fluid (dielectric constant: 78.4, screening length: 5.74355 Bohr) occupying 0.621132 of unit cell:	Completed after 4 iterations at t[s]:   4538.09
	FillingsUpdate:  mu: -0.244750400  nElectrons: 509.870244
	Linear fluid (dielectric constant: 78.4, screening length: 5.74355 Bohr) occupying 0.621132 of unit cell:	Completed after 13 iterations at t[s]:   4586.09
SCF: Cycle: 77   G: -2079.040935980619452   dG: +6.495e-05   |Residual|: 2.678e-04   |deigs|: 6.547e-05  t[s]:   4587.07
	Linear fluid (dielectric constant: 78.4, screening length: 5.74355 Bohr) occupying 0.621132 of unit cell:	Completed after 13 iterations at t[s]:   4588.45
	FillingsUpdate:  mu: -0.244750400  nElectrons: 509.851707
	Linear fluid (dielectric constant: 78.4, screening length: 5.74355 Bohr) occupying 0.621130 of unit cell:	Completed after 18 iterations at t[s]:   4637.66
SCF: Cycle: 78   G: -2079.040994530858825   dG: -5.855e-05   |Residual|: 1.552e-04   |deigs|: 5.894e-05  t[s]:   4638.62
	Linear fluid (dielectric constant: 78.4, screening length: 5.74355 Bohr) occupying 0.621132 of unit cell:	Completed after 17 iterations at t[s]:   4640.31
	FillingsUpdate:  mu: -0.244750400  nElectrons: 509.850550
	Linear fluid (dielectric constant: 78.4, screening length: 5.74355 Bohr) occupying 0.621131 of unit cell:	Completed after 4 iterations at t[s]:   4687.78
SCF: Cycle: 79   G: -2079.041000996494404   dG: -6.466e-06   |Residual|: 1.104e-04   |deigs|: 2.004e-05  t[s]:   4688.77
	Linear fluid (dielectric constant: 78.4, screening length: 5.74355 Bohr) occupying 0.621132 of unit cell:	Completed after 2 iterations at t[s]:   4689.37
	FillingsUpdate:  mu: -0.244750400  nElectrons: 509.835762
	Linear fluid (dielectric constant: 78.4, screening length: 5.74355 Bohr) occupying 0.621129 of unit cell:	Completed after 14 iterations at t[s]:   4739.19
SCF: Cycle: 80   G: -2079.040968179232095   dG: +3.282e-05   |Residual|: 2.392e-04   |deigs|: 5.082e-05  t[s]:   4740.16
	Linear fluid (dielectric constant: 78.4, screening length: 5.74355 Bohr) occupying 0.621132 of unit cell:	Completed after 14 iterations at t[s]:   4741.63
	FillingsUpdate:  mu: -0.244750400  nElectrons: 509.857034
	Linear fluid (dielectric constant: 78.4, screening length: 5.74355 Bohr) occupying 0.621130 of unit cell:	Completed after 18 iterations at t[s]:   4790.17
SCF: Cycle: 81   G: -2079.040964123676986   dG: +4.056e-06   |Residual|: 2.615e-04   |deigs|: 7.144e-05  t[s]:   4791.14
	Linear fluid (dielectric constant: 78.4, screening length: 5.74355 Bohr) occupying 0.621132 of unit cell:	Completed after 19 iterations at t[s]:   4792.97
	FillingsUpdate:  mu: -0.244750400  nElectrons: 509.852863
	Linear fluid (dielectric constant: 78.4, screening length: 5.74355 Bohr) occupying 0.621131 of unit cell:	Completed after 12 iterations at t[s]:   4842.85
SCF: Cycle: 82   G: -2079.041000673800681   dG: -3.655e-05   |Residual|: 5.677e-05   |deigs|: 2.962e-05  t[s]:   4843.82
	Linear fluid (dielectric constant: 78.4, screening length: 5.74355 Bohr) occupying 0.621132 of unit cell:	Completed after 11 iterations at t[s]:   4845.05
	FillingsUpdate:  mu: -0.244750400  nElectrons: 509.843421
	Linear fluid (dielectric constant: 78.4, screening length: 5.74355 Bohr) occupying 0.621131 of unit cell:	Completed after 18 iterations at t[s]:   4892.93
SCF: Cycle: 83   G: -2079.040969949168357   dG: +3.072e-05   |Residual|: 2.398e-04   |deigs|: 3.680e-05  t[s]:   4893.89
	Linear fluid (dielectric constant: 78.4, screening length: 5.74355 Bohr) occupying 0.621132 of unit cell:	Completed after 17 iterations at t[s]:   4895.55
	FillingsUpdate:  mu: -0.244750400  nElectrons: 509.850345
	Linear fluid (dielectric constant: 78.4, screening length: 5.74355 Bohr) occupying 0.621131 of unit cell:	Completed after 3 iterations at t[s]:   4939.42
SCF: Cycle: 84   G: -2079.041000675328178   dG: -3.073e-05   |Residual|: 1.218e-04   |deigs|: 3.102e-05  t[s]:   4940.37
	Linear fluid (dielectric constant: 78.4, screening length: 5.74355 Bohr) occupying 0.621132 of unit cell:	Completed after 4 iterations at t[s]:   4941.10
	FillingsUpdate:  mu: -0.244750400  nElectrons: 509.865366
	Linear fluid (dielectric constant: 78.4, screening length: 5.74355 Bohr) occupying 0.621131 of unit cell:	Completed after 13 iterations at t[s]:   4984.93
SCF: Cycle: 85   G: -2079.040964061205614   dG: +3.661e-05   |Residual|: 2.133e-04   |deigs|: 5.076e-05  t[s]:   4985.89
	Linear fluid (dielectric constant: 78.4, screening length: 5.74355 Bohr) occupying 0.621132 of unit cell:	Completed after 13 iterations at t[s]:   4987.25
	FillingsUpdate:  mu: -0.244750400  nElectrons: 509.851004
	Linear fluid (dielectric constant: 78.4, screening length: 5.74355 Bohr) occupying 0.621131 of unit cell:	Completed after 3 iterations at t[s]:   5028.02
SCF: Cycle: 86   G: -2079.041001300665812   dG: -3.724e-05   |Residual|: 5.417e-05   |deigs|: 4.509e-05  t[s]:   5029.01
	Linear fluid (dielectric constant: 78.4, screening length: 5.74355 Bohr) occupying 0.621132 of unit cell:	Completed after 3 iterations at t[s]:   5029.68
	FillingsUpdate:  mu: -0.244750400  nElectrons: 509.848195
	Linear fluid (dielectric constant: 78.4, screening length: 5.74355 Bohr) occupying 0.621130 of unit cell:	Completed after 13 iterations at t[s]:   5073.13
SCF: Cycle: 87   G: -2079.040999236097377   dG: +2.065e-06   |Residual|: 1.438e-04   |deigs|: 1.799e-05  t[s]:   5074.12
	Linear fluid (dielectric constant: 78.4, screening length: 5.74355 Bohr) occupying 0.621132 of unit cell:	Completed after 12 iterations at t[s]:   5075.43
	FillingsUpdate:  mu: -0.244750400  nElectrons: 509.892506
	Linear fluid (dielectric constant: 78.4, screening length: 5.74355 Bohr) occupying 0.621133 of unit cell:	Completed after 16 iterations at t[s]:   5139.56
SCF: Cycle: 88   G: -2079.040481663278570   dG: +5.176e-04   |Residual|: 7.219e-04   |deigs|: 1.511e-04  t[s]:   5140.53
	Linear fluid (dielectric constant: 78.4, screening length: 5.74355 Bohr) occupying 0.621132 of unit cell:	Completed after 15 iterations at t[s]:   5142.07
	FillingsUpdate:  mu: -0.244750400  nElectrons: 509.850963
	Linear fluid (dielectric constant: 78.4, screening length: 5.74355 Bohr) occupying 0.621131 of unit cell:	Completed after 3 iterations at t[s]:   5185.54
SCF: Cycle: 89   G: -2079.041000777378486   dG: -5.191e-04   |Residual|: 1.019e-04   |deigs|: 1.437e-04  t[s]:   5186.52
	Linear fluid (dielectric constant: 78.4, screening length: 5.74355 Bohr) occupying 0.621132 of unit cell:	Completed after 3 iterations at t[s]:   5187.21
	FillingsUpdate:  mu: -0.244750400  nElectrons: 509.845612
	Linear fluid (dielectric constant: 78.4, screening length: 5.74355 Bohr) occupying 0.621130 of unit cell:	Completed after 17 iterations at t[s]:   5231.10
SCF: Cycle: 90   G: -2079.040988671235937   dG: +1.211e-05   |Residual|: 1.501e-04   |deigs|: 2.507e-05  t[s]:   5232.11
	Linear fluid (dielectric constant: 78.4, screening length: 5.74355 Bohr) occupying 0.621132 of unit cell:	Completed after 18 iterations at t[s]:   5233.84
	FillingsUpdate:  mu: -0.244750400  nElectrons: 509.850443
	Linear fluid (dielectric constant: 78.4, screening length: 5.74355 Bohr) occupying 0.621131 of unit cell:	Completed after 3 iterations at t[s]:   5277.07
SCF: Cycle: 91   G: -2079.041000891686963   dG: -1.222e-05   |Residual|: 7.899e-05   |deigs|: 1.990e-05  t[s]:   5278.05
	Linear fluid (dielectric constant: 78.4, screening length: 5.74355 Bohr) occupying 0.621132 of unit cell:	Completed after 3 iterations at t[s]:   5278.73
	FillingsUpdate:  mu: -0.244750400  nElectrons: 509.871934
	Linear fluid (dielectric constant: 78.4, screening length: 5.74355 Bohr) occupying 0.621131 of unit cell:	Completed after 18 iterations at t[s]:   5322.96
SCF: Cycle: 92   G: -2079.040880366211695   dG: +1.205e-04   |Residual|: 3.427e-04   |deigs|: 7.436e-05  t[s]:   5323.94
	Linear fluid (dielectric constant: 78.4, screening length: 5.74355 Bohr) occupying 0.621132 of unit cell:	Completed after 18 iterations at t[s]:   5325.69
	FillingsUpdate:  mu: -0.244750400  nElectrons: 509.851526
	Linear fluid (dielectric constant: 78.4, screening length: 5.74355 Bohr) occupying 0.621131 of unit cell:	Completed after 12 iterations at t[s]:   5369.51
SCF: Cycle: 93   G: -2079.040999709618518   dG: -1.193e-04   |Residual|: 1.063e-04   |deigs|: 6.889e-05  t[s]:   5370.48
	Linear fluid (dielectric constant: 78.4, screening length: 5.74355 Bohr) occupying 0.621132 of unit cell:	Completed after 11 iterations at t[s]:   5371.73
	FillingsUpdate:  mu: -0.244750400  nElectrons: 509.810443
	Linear fluid (dielectric constant: 78.4, screening length: 5.74355 Bohr) occupying 0.621127 of unit cell:	Completed after 18 iterations at t[s]:   5415.92
SCF: Cycle: 94   G: -2079.040671282779385   dG: +3.284e-04   |Residual|: 5.480e-04   |deigs|: 1.321e-04  t[s]:   5416.92
	Linear fluid (dielectric constant: 78.4, screening length: 5.74355 Bohr) occupying 0.621132 of unit cell:	Completed after 19 iterations at t[s]:   5418.70
	FillingsUpdate:  mu: -0.244750400  nElectrons: 509.852261
	Linear fluid (dielectric constant: 78.4, screening length: 5.74355 Bohr) occupying 0.621131 of unit cell:	Completed after 6 iterations at t[s]:   5460.28
SCF: Cycle: 95   G: -2079.041000314471148   dG: -3.290e-04   |Residual|: 8.080e-05   |deigs|: 1.333e-04  t[s]:   5461.26
	Linear fluid (dielectric constant: 78.4, screening length: 5.74355 Bohr) occupying 0.621132 of unit cell:	Completed after 4 iterations at t[s]:   5462.01
	FillingsUpdate:  mu: -0.244750400  nElectrons: 509.845458
	Linear fluid (dielectric constant: 78.4, screening length: 5.74355 Bohr) occupying 0.621129 of unit cell:	Completed after 16 iterations at t[s]:   5506.73
SCF: Cycle: 96   G: -2079.040997851877364   dG: +2.463e-06   |Residual|: 1.292e-04   |deigs|: 2.612e-05  t[s]:   5507.68
	Linear fluid (dielectric constant: 78.4, screening length: 5.74355 Bohr) occupying 0.621132 of unit cell:	Completed after 16 iterations at t[s]:   5509.26
	FillingsUpdate:  mu: -0.244750400  nElectrons: 509.859763
	Linear fluid (dielectric constant: 78.4, screening length: 5.74355 Bohr) occupying 0.621131 of unit cell:	Completed after 16 iterations at t[s]:   5555.06
SCF: Cycle: 97   G: -2079.040971982407427   dG: +2.587e-05   |Residual|: 1.863e-04   |deigs|: 4.785e-05  t[s]:   5556.02
	Linear fluid (dielectric constant: 78.4, screening length: 5.74355 Bohr) occupying 0.621132 of unit cell:	Completed after 16 iterations at t[s]:   5557.58
	FillingsUpdate:  mu: -0.244750400  nElectrons: 509.849361
	Linear fluid (dielectric constant: 78.4, screening length: 5.74355 Bohr) occupying 0.621131 of unit cell:	Completed after 8 iterations at t[s]:   5601.18
SCF: Cycle: 98   G: -2079.040996017943598   dG: -2.404e-05   |Residual|: 2.013e-04   |deigs|: 4.063e-05  t[s]:   5602.15
	Linear fluid (dielectric constant: 78.4, screening length: 5.74355 Bohr) occupying 0.621132 of unit cell:	Completed after 8 iterations at t[s]:   5603.17
	FillingsUpdate:  mu: -0.244750400  nElectrons: 509.816293
	Linear fluid (dielectric constant: 78.4, screening length: 5.74355 Bohr) occupying 0.621129 of unit cell:	Completed after 17 iterations at t[s]:   5649.44
SCF: Cycle: 99   G: -2079.040687533805340   dG: +3.085e-04   |Residual|: 5.652e-04   |deigs|: 1.163e-04  t[s]:   5650.43
	Linear fluid (dielectric constant: 78.4, screening length: 5.74355 Bohr) occupying 0.621132 of unit cell:	Completed after 18 iterations at t[s]:   5652.16
	FillingsUpdate:  mu: -0.244750400  nElectrons: 509.852651
	Linear fluid (dielectric constant: 78.4, screening length: 5.74355 Bohr) occupying 0.621131 of unit cell:	Completed after 8 iterations at t[s]:   5696.74
SCF: Cycle: 100   G: -2079.040999628836744   dG: -3.121e-04   |Residual|: 9.133e-05   |deigs|: 1.200e-04  t[s]:   5697.70
	Linear fluid (dielectric constant: 78.4, screening length: 5.74355 Bohr) occupying 0.621132 of unit cell:	Completed after 4 iterations at t[s]:   5698.42
	FillingsUpdate:  mu: -0.244750400  nElectrons: 509.828279
	Linear fluid (dielectric constant: 78.4, screening length: 5.74355 Bohr) occupying 0.621128 of unit cell:	Completed after 14 iterations at t[s]:   5741.90
SCF: Cycle: 101   G: -2079.040913670685768   dG: +8.596e-05   |Residual|: 2.853e-04   |deigs|: 7.749e-05  t[s]:   5742.87
	Linear fluid (dielectric constant: 78.4, screening length: 5.74355 Bohr) occupying 0.621132 of unit cell:	Completed after 17 iterations at t[s]:   5744.52
	FillingsUpdate:  mu: -0.244750400  nElectrons: 509.852283
	Linear fluid (dielectric constant: 78.4, screening length: 5.74355 Bohr) occupying 0.621131 of unit cell:	Completed after 8 iterations at t[s]:   5786.62
SCF: Cycle: 102   G: -2079.040997929559580   dG: -8.426e-05   |Residual|: 1.408e-04   |deigs|: 7.666e-05  t[s]:   5787.66
	Linear fluid (dielectric constant: 78.4, screening length: 5.74355 Bohr) occupying 0.621132 of unit cell:	Completed after 8 iterations at t[s]:   5788.71
	FillingsUpdate:  mu: -0.244750400  nElectrons: 509.872478
	Linear fluid (dielectric constant: 78.4, screening length: 5.74355 Bohr) occupying 0.621132 of unit cell:	Completed after 18 iterations at t[s]:   5834.97
SCF: Cycle: 103   G: -2079.040866412982268   dG: +1.315e-04   |Residual|: 3.669e-04   |deigs|: 7.416e-05  t[s]:   5835.95
	Linear fluid (dielectric constant: 78.4, screening length: 5.74355 Bohr) occupying 0.621132 of unit cell:	Completed after 17 iterations at t[s]:   5837.63
	FillingsUpdate:  mu: -0.244750400  nElectrons: 509.851244
	Linear fluid (dielectric constant: 78.4, screening length: 5.74355 Bohr) occupying 0.621131 of unit cell:	Completed after 13 iterations at t[s]:   5882.01
SCF: Cycle: 104   G: -2079.040998455695899   dG: -1.320e-04   |Residual|: 1.336e-04   |deigs|: 7.279e-05  t[s]:   5882.97
	Linear fluid (dielectric constant: 78.4, screening length: 5.74355 Bohr) occupying 0.621132 of unit cell:	Completed after 12 iterations at t[s]:   5884.26
	FillingsUpdate:  mu: -0.244750400  nElectrons: 509.811291
	Linear fluid (dielectric constant: 78.4, screening length: 5.74355 Bohr) occupying 0.621127 of unit cell:	Completed after 18 iterations at t[s]:   5929.92
SCF: Cycle: 105   G: -2079.040664630600077   dG: +3.338e-04   |Residual|: 5.571e-04   |deigs|: 1.303e-04  t[s]:   5930.89
	Linear fluid (dielectric constant: 78.4, screening length: 5.74355 Bohr) occupying 0.621132 of unit cell:	Completed after 19 iterations at t[s]:   5932.67
	FillingsUpdate:  mu: -0.244750400  nElectrons: 509.852360
	Linear fluid (dielectric constant: 78.4, screening length: 5.74355 Bohr) occupying 0.621131 of unit cell:	Completed after 6 iterations at t[s]:   5973.63
SCF: Cycle: 106   G: -2079.040999809475579   dG: -3.352e-04   |Residual|: 7.096e-05   |deigs|: 1.321e-04  t[s]:   5974.61
	Linear fluid (dielectric constant: 78.4, screening length: 5.74355 Bohr) occupying 0.621132 of unit cell:	Completed after 4 iterations at t[s]:   5975.35
	FillingsUpdate:  mu: -0.244750400  nElectrons: 509.837268
	Linear fluid (dielectric constant: 78.4, screening length: 5.74355 Bohr) occupying 0.621128 of unit cell:	Completed after 13 iterations at t[s]:   6019.08
SCF: Cycle: 107   G: -2079.040969722484533   dG: +3.009e-05   |Residual|: 2.050e-04   |deigs|: 4.940e-05  t[s]:   6020.05
	Linear fluid (dielectric constant: 78.4, screening length: 5.74355 Bohr) occupying 0.621132 of unit cell:	Completed after 13 iterations at t[s]:   6021.40
	FillingsUpdate:  mu: -0.244750400  nElectrons: 509.852135
	Linear fluid (dielectric constant: 78.4, screening length: 5.74355 Bohr) occupying 0.621131 of unit cell:	Completed after 3 iterations at t[s]:   6065.27
SCF: Cycle: 108   G: -2079.040999839356573   dG: -3.012e-05   |Residual|: 9.433e-05   |deigs|: 4.731e-05  t[s]:   6066.23
	Linear fluid (dielectric constant: 78.4, screening length: 5.74355 Bohr) occupying 0.621132 of unit cell:	Completed after 3 iterations at t[s]:   6066.91
	FillingsUpdate:  mu: -0.244750400  nElectrons: 509.846169
	Linear fluid (dielectric constant: 78.4, screening length: 5.74355 Bohr) occupying 0.621130 of unit cell:	Completed after 13 iterations at t[s]:   6110.89
SCF: Cycle: 109   G: -2079.040995523690526   dG: +4.316e-06   |Residual|: 8.224e-05   |deigs|: 2.057e-05  t[s]:   6111.88
	Linear fluid (dielectric constant: 78.4, screening length: 5.74355 Bohr) occupying 0.621132 of unit cell:	Completed after 15 iterations at t[s]:   6113.40
	FillingsUpdate:  mu: -0.244750400  nElectrons: 509.852944
	Linear fluid (dielectric constant: 78.4, screening length: 5.74355 Bohr) occupying 0.621131 of unit cell:	Completed after 7 iterations at t[s]:   6157.65
SCF: Cycle: 110   G: -2079.040999303604622   dG: -3.780e-06   |Residual|: 1.414e-04   |deigs|: 2.275e-05  t[s]:   6158.62
	Linear fluid (dielectric constant: 78.4, screening length: 5.74355 Bohr) occupying 0.621132 of unit cell:	Completed after 3 iterations at t[s]:   6159.28
	FillingsUpdate:  mu: -0.244750400  nElectrons: 509.851741
	Linear fluid (dielectric constant: 78.4, screening length: 5.74355 Bohr) occupying 0.621129 of unit cell:	Completed after 14 iterations at t[s]:   6204.74
SCF: Cycle: 111   G: -2079.040997752992098   dG: +1.551e-06   |Residual|: 6.730e-05   |deigs|: 1.254e-05  t[s]:   6205.70
	Linear fluid (dielectric constant: 78.4, screening length: 5.74355 Bohr) occupying 0.621132 of unit cell:	Completed after 15 iterations at t[s]:   6207.25
	FillingsUpdate:  mu: -0.244750400  nElectrons: 509.852664
	Linear fluid (dielectric constant: 78.4, screening length: 5.74355 Bohr) occupying 0.621131 of unit cell:	Completed after 13 iterations at t[s]:   6252.09
SCF: Cycle: 112   G: -2079.040999035605637   dG: -1.283e-06   |Residual|: 6.840e-05   |deigs|: 9.376e-06  t[s]:   6253.04
	Linear fluid (dielectric constant: 78.4, screening length: 5.74355 Bohr) occupying 0.621132 of unit cell:	Completed after 13 iterations at t[s]:   6254.43
	FillingsUpdate:  mu: -0.244750400  nElectrons: 509.841635
	Linear fluid (dielectric constant: 78.4, screening length: 5.74355 Bohr) occupying 0.621131 of unit cell:	Completed after 17 iterations at t[s]:   6299.74
SCF: Cycle: 113   G: -2079.040957868872738   dG: +4.117e-05   |Residual|: 2.640e-04   |deigs|: 4.125e-05  t[s]:   6300.69
	Linear fluid (dielectric constant: 78.4, screening length: 5.74355 Bohr) occupying 0.621132 of unit cell:	Completed after 17 iterations at t[s]:   6302.38
	FillingsUpdate:  mu: -0.244750400  nElectrons: 509.851279
	Linear fluid (dielectric constant: 78.4, screening length: 5.74355 Bohr) occupying 0.621131 of unit cell:	Completed after 3 iterations at t[s]:   6345.43
SCF: Cycle: 114   G: -2079.040998532794219   dG: -4.066e-05   |Residual|: 1.603e-04   |deigs|: 4.096e-05  t[s]:   6346.38
	Linear fluid (dielectric constant: 78.4, screening length: 5.74355 Bohr) occupying 0.621132 of unit cell:	Completed after 5 iterations at t[s]:   6347.19
	FillingsUpdate:  mu: -0.244750400  nElectrons: 509.850884
	Linear fluid (dielectric constant: 78.4, screening length: 5.74355 Bohr) occupying 0.621131 of unit cell:	Completed after 18 iterations at t[s]:   6391.28
SCF: Cycle: 115   G: -2079.040995167611072   dG: +3.365e-06   |Residual|: 1.562e-04   |deigs|: 2.043e-05  t[s]:   6392.23
	Linear fluid (dielectric constant: 78.4, screening length: 5.74355 Bohr) occupying 0.621132 of unit cell:	Completed after 18 iterations at t[s]:   6393.95
	FillingsUpdate:  mu: -0.244750400  nElectrons: 509.850671
	Linear fluid (dielectric constant: 78.4, screening length: 5.74355 Bohr) occupying 0.621131 of unit cell:	Completed after 3 iterations at t[s]:   6437.42
SCF: Cycle: 116   G: -2079.040999351805112   dG: -4.184e-06   |Residual|: 1.047e-04   |deigs|: 1.461e-05  t[s]:   6438.37
	Linear fluid (dielectric constant: 78.4, screening length: 5.74355 Bohr) occupying 0.621132 of unit cell:	Completed after 3 iterations at t[s]:   6439.04
	FillingsUpdate:  mu: -0.244750400  nElectrons: 509.867720
	Linear fluid (dielectric constant: 78.4, screening length: 5.74355 Bohr) occupying 0.621131 of unit cell:	Completed after 18 iterations at t[s]:   6484.72
SCF: Cycle: 117   G: -2079.040936645258171   dG: +6.271e-05   |Residual|: 2.576e-04   |deigs|: 5.828e-05  t[s]:   6485.69
	Linear fluid (dielectric constant: 78.4, screening length: 5.74355 Bohr) occupying 0.621132 of unit cell:	Completed after 17 iterations at t[s]:   6487.35
	FillingsUpdate:  mu: -0.244750400  nElectrons: 509.852284
	Linear fluid (dielectric constant: 78.4, screening length: 5.74355 Bohr) occupying 0.621130 of unit cell:	Completed after 19 iterations at t[s]:   6531.85
SCF: Cycle: 118   G: -2079.040994095930728   dG: -5.745e-05   |Residual|: 1.420e-04   |deigs|: 5.243e-05  t[s]:   6532.80
	Linear fluid (dielectric constant: 78.4, screening length: 5.74355 Bohr) occupying 0.621132 of unit cell:	Completed after 16 iterations at t[s]:   6534.39
	FillingsUpdate:  mu: -0.244750400  nElectrons: 509.849137
	Linear fluid (dielectric constant: 78.4, screening length: 5.74355 Bohr) occupying 0.621130 of unit cell:	Completed after 3 iterations at t[s]:   6578.17
SCF: Cycle: 119   G: -2079.040999545230989   dG: -5.449e-06   |Residual|: 5.436e-05   |deigs|: 1.602e-05  t[s]:   6579.14
	Linear fluid (dielectric constant: 78.4, screening length: 5.74355 Bohr) occupying 0.621132 of unit cell:	Completed after 3 iterations at t[s]:   6579.82
	FillingsUpdate:  mu: -0.244750400  nElectrons: 509.856202
	Linear fluid (dielectric constant: 78.4, screening length: 5.74355 Bohr) occupying 0.621131 of unit cell:	Completed after 13 iterations at t[s]:   6624.61
SCF: Cycle: 120   G: -2079.040993260263804   dG: +6.285e-06   |Residual|: 9.136e-05   |deigs|: 2.230e-05  t[s]:   6625.56
	Linear fluid (dielectric constant: 78.4, screening length: 5.74355 Bohr) occupying 0.621132 of unit cell:	Completed after 15 iterations at t[s]:   6627.09
	FillingsUpdate:  mu: -0.244750400  nElectrons: 509.852694
	Linear fluid (dielectric constant: 78.4, screening length: 5.74355 Bohr) occupying 0.621130 of unit cell:	Completed after 14 iterations at t[s]:   6671.82
SCF: Cycle: 121   G: -2079.040997246012012   dG: -3.986e-06   |Residual|: 8.397e-05   |deigs|: 1.329e-05  t[s]:   6672.79
	Linear fluid (dielectric constant: 78.4, screening length: 5.74355 Bohr) occupying 0.621132 of unit cell:	Completed after 15 iterations at t[s]:   6674.30
	FillingsUpdate:  mu: -0.244750400  nElectrons: 509.851055
	Linear fluid (dielectric constant: 78.4, screening length: 5.74355 Bohr) occupying 0.621130 of unit cell:	Completed after 16 iterations at t[s]:   6719.39
SCF: Cycle: 122   G: -2079.040996048774559   dG: +1.197e-06   |Residual|: 1.330e-04   |deigs|: 1.606e-05  t[s]:   6720.35
	Linear fluid (dielectric constant: 78.4, screening length: 5.74355 Bohr) occupying 0.621131 of unit cell:	Completed after 18 iterations at t[s]:   6722.12
	FillingsUpdate:  mu: -0.244750400  nElectrons: 509.852664
[...]
     Initializing gaussian mfKernel with width: 1.55004 Bohr
     deltaS corrections:
       site 'Na': -22.3555
   Initializing fluid molecule 'F-'
     Initializing site 'F'
       Electron density: proportional to exp(-r/0.38886)*erfc((r-0)/0.438782) with norm 8
       Charge density: gaussian nuclear width 0.374796 with net site charge 1
       Hard sphere radius: 2.39995 bohrs
       Positions in reference frame:
         [ +0.000000 +0.000000 +0.000000 ]
     Net charge: 1   dipole magnitude: 0
     Initializing gaussian mfKernel with width: 1.59012 Bohr
     deltaS corrections:
       site 'F': -9.04335

Correction to mu due to finite nuclear width = -0.0159842
   Cavity determined by nc: 0.00142 and sigma: 0.707107
   Nonlocal vdW cavity from gaussian model electron density with norm = 8 and sigma = 0.993594 bohr
   Charge asymmetry in cavity with sensitivity pCavity = 36.5 e-bohr/Eh
   Electrostatic cavity expanded by eta = 1.46 bohrs
   Weighted density cavitation model constrained by Nbulk: 0.0049383 bohr^-3, Pvap: 3.14029 kPa, Rvdw: 2.61727 bohr and sigmaBulk: 4.62e-05 Eh/bohr^2 at T: 298 K.
   Weighted density dispersion model using vdW pair potentials with single solvent site with sqrtC6eff: 0.77 SI.
Reading fluid state from 'NbTe2.fluidState'


---- Citations for features of the code used in this run ----

   Software package:
      R. Sundararaman, K. Letchworth-Weaver, K.A. Schwarz, D. Gunceler, Y. Ozhabes and T.A. Arias, 'JDFTx: software for joint density-functional theory', SoftwareX 6, 278 (2017)

   gga-PBE exchange-correlation functional:
      J.P. Perdew, K. Burke and M. Ernzerhof, Phys. Rev. Lett. 77, 3865 (1996)

   Pseudopotentials:
      KF Garrity, JW Bennett, KM Rabe and D Vanderbilt, Comput. Mater. Sci. 81, 446 (2014)

   Truncated Coulomb potentials:
      R. Sundararaman and T.A. Arias, Phys. Rev. B 87, 165122 (2013)

   Van der Waals correction pair-potentials:
      S. Grimme, J. Comput. Chem. 27, 1787 (2006)

   Charge-asymmetric nonlocally-determined local-electric (CANDLE) solvation model:
      R. Sundararaman and W.A. Goddard III, J. Chem. Phys. 142, 064107 (2015)

   Total energy minimization with Auxiliary Hamiltonian:
      C. Freysoldt, S. Boeck, and J. Neugebauer, Phys. Rev. B 79, 241103(R) (2009)

   Grand-canonical (fixed-potential) DFT:
      R. Sundararaman, W. A. Goddard III and T. A. Arias, J. Chem. Phys. 146, 114104 (2017)

This list may not be complete. Please suggest additional citations or
report any other bugs at https://github.com/shankar1729/jdftx/issues

Initialization completed successfully at t[s]:     33.48

Shifting auxilliary hamiltonian by -0.000038 to set nElectrons=509.850620
	Linear fluid (dielectric constant: 78.4, screening length: 5.74355 Bohr) occupying 0.621128 of unit cell:	Completed after 16 iterations at t[s]:     40.98

-------- Electronic minimization -----------
	Linear fluid (dielectric constant: 78.4, screening length: 5.74355 Bohr) occupying 0.621128 of unit cell:	Completed after 0 iterations at t[s]:     47.22
	FillingsUpdate:  mu: -0.244750400  nElectrons: 509.850620
ElecMinimize: Iter:   0  G: -2079.040980178067457  |grad|_K:  3.256e-06  alpha:  1.000e+00
	Linear fluid (dielectric constant: 78.4, screening length: 5.74355 Bohr) occupying 0.621165 of unit cell:	Completed after 22 iterations at t[s]:     66.60
	Linear fluid (dielectric constant: 78.4, screening length: 5.74355 Bohr) occupying 0.621128 of unit cell:	Completed after 23 iterations at t[s]:     78.08
	FillingsUpdate:  mu: -0.244750400  nElectrons: 509.857336
	SubspaceRotationAdjust: set factor to 0.388
ElecMinimize: Iter:   1  G: -2079.040990045912622  |grad|_K:  7.892e-07  alpha:  9.684e-03  linmin:  3.068e-02  cgtest: -7.069e-01  t[s]:     87.43
	Linear fluid (dielectric constant: 78.4, screening length: 5.74355 Bohr) occupying 0.621128 of unit cell:	Completed after 0 iterations at t[s]:     95.27
ElecMinimize: 	Predicted alpha/alphaT>3.000000, increasing alphaT to 2.905244e-02.
	Linear fluid (dielectric constant: 78.4, screening length: 5.74355 Bohr) occupying 0.621128 of unit cell:	Completed after 3 iterations at t[s]:    103.11
	Linear fluid (dielectric constant: 78.4, screening length: 5.74355 Bohr) occupying 0.621128 of unit cell:	Completed after 5 iterations at t[s]:    111.41
	FillingsUpdate:  mu: -0.244750400  nElectrons: 509.852925
	SubspaceRotationAdjust: set factor to 0.197
ElecMinimize: Iter:   2  G: -2079.040991768409185  |grad|_K:  4.616e-07  alpha:  6.325e-02  linmin:  6.440e-03  cgtest:  4.502e-01  t[s]:    120.25
	Linear fluid (dielectric constant: 78.4, screening length: 5.74355 Bohr) occupying 0.621128 of unit cell:	Completed after 10 iterations at t[s]:    130.34
	Linear fluid (dielectric constant: 78.4, screening length: 5.74355 Bohr) occupying 0.621128 of unit cell:	Completed after 11 iterations at t[s]:    138.77
	FillingsUpdate:  mu: -0.244750400  nElectrons: 509.851504
	SubspaceRotationAdjust: set factor to 0.0851
	SubspaceRotationAdjust: resetting CG because factor has changed by 0.0850863
	Linear fluid (dielectric constant: 78.4, screening length: 5.74355 Bohr) occupying 0.621128 of unit cell:	Completed after 0 iterations at t[s]:    152.38
ElecMinimize: 	State modified externally: resetting search direction.
ElecMinimize: Iter:   3  G: -2079.040992059150085  |grad|_K:  7.008e-08  alpha:  1.862e-02
	Linear fluid (dielectric constant: 78.4, screening length: 5.74355 Bohr) occupying 0.621128 of unit cell:	Completed after 0 iterations at t[s]:    168.89
ElecMinimize: 	Predicted alpha/alphaT>3.000000, increasing alphaT to 5.584783e-02.
	Linear fluid (dielectric constant: 78.4, screening length: 5.74355 Bohr) occupying 0.621128 of unit cell:	Completed after 0 iterations at t[s]:    176.53
ElecMinimize: 	Predicted alpha/alphaT>3.000000, increasing alphaT to 1.675435e-01.
	Linear fluid (dielectric constant: 78.4, screening length: 5.74355 Bohr) occupying 0.621128 of unit cell:	Completed after 0 iterations at t[s]:    184.10
ElecMinimize: 	Predicted alpha/alphaT>3.000000, increasing alphaT to 5.026305e-01.
	Linear fluid (dielectric constant: 78.4, screening length: 5.74355 Bohr) occupying 0.621129 of unit cell:	Completed after 13 iterations at t[s]:    194.73
ElecMinimize: 	Step increased G by 1.783621e-06, reducing alpha to 1.189811e-01.
	Linear fluid (dielectric constant: 78.4, screening length: 5.74355 Bohr) occupying 0.621128 of unit cell:	Completed after 13 iterations at t[s]:    211.56
	FillingsUpdate:  mu: -0.244750400  nElectrons: 509.851821
	SubspaceRotationAdjust: set factor to 0.0497
ElecMinimize: Iter:   4  G: -2079.040992143755830  |grad|_K:  6.257e-08  alpha:  1.190e-01  linmin: -2.288e-02  cgtest:  4.504e-01  t[s]:    220.05
	Linear fluid (dielectric constant: 78.4, screening length: 5.74355 Bohr) occupying 0.621128 of unit cell:	Completed after 0 iterations at t[s]:    227.93
ElecMinimize: 	Predicted alpha/alphaT>3.000000, increasing alphaT to 3.569432e-01.
	Linear fluid (dielectric constant: 78.4, screening length: 5.74355 Bohr) occupying 0.621128 of unit cell:	Completed after 3 iterations at t[s]:    236.21
	Linear fluid (dielectric constant: 78.4, screening length: 5.74355 Bohr) occupying 0.621128 of unit cell:	Completed after 0 iterations at t[s]:    243.76
	FillingsUpdate:  mu: -0.244750400  nElectrons: 509.851710
	SubspaceRotationAdjust: set factor to 0.0449
ElecMinimize: Iter:   5  G: -2079.040992302562699  |grad|_K:  2.162e-08  alpha:  2.597e-01  linmin:  1.356e-02  cgtest: -1.484e-01  t[s]:    252.79
	Linear fluid (dielectric constant: 78.4, screening length: 5.74355 Bohr) occupying 0.621128 of unit cell:	Completed after 0 iterations at t[s]:    260.71
ElecMinimize: 	Predicted alpha/alphaT>3.000000, increasing alphaT to 7.791019e-01.
	Linear fluid (dielectric constant: 78.4, screening length: 5.74355 Bohr) occupying 0.621128 of unit cell:	Completed after 0 iterations at t[s]:    269.47
ElecMinimize: 	Predicted alpha/alphaT>3.000000, increasing alphaT to 2.337306e+00.
	Linear fluid (dielectric constant: 78.4, screening length: 5.74355 Bohr) occupying 0.621127 of unit cell:	Completed after 9 iterations at t[s]:    278.25
	Linear fluid (dielectric constant: 78.4, screening length: 5.74355 Bohr) occupying 0.621128 of unit cell:	Completed after 9 iterations at t[s]:    287.37
ElecMinimize: 	Step increased G by 2.348406e-08, reducing alpha to 2.534628e-02.
	Linear fluid (dielectric constant: 78.4, screening length: 5.74355 Bohr) occupying 0.621128 of unit cell:	Completed after 0 iterations at t[s]:    303.09
	FillingsUpdate:  mu: -0.244750400  nElectrons: 509.851687
	SubspaceRotationAdjust: set factor to 0.0244
ElecMinimize: Iter:   6  G: -2079.040992304771862  |grad|_K:  5.874e-08  alpha:  2.535e-02  linmin:  3.224e-02  cgtest: -1.771e-01  t[s]:    312.09
	Linear fluid (dielectric constant: 78.4, screening length: 5.74355 Bohr) occupying 0.621128 of unit cell:	Completed after 0 iterations at t[s]:    320.20
ElecMinimize: 	Predicted alpha/alphaT>3.000000, increasing alphaT to 7.603885e-02.
	Linear fluid (dielectric constant: 78.4, screening length: 5.74355 Bohr) occupying 0.621128 of unit cell:	Completed after 0 iterations at t[s]:    334.36
ElecMinimize: 	Predicted alpha/alphaT>3.000000, increasing alphaT to 2.281165e-01.
	Linear fluid (dielectric constant: 78.4, screening length: 5.74355 Bohr) occupying 0.621128 of unit cell:	Completed after 0 iterations at t[s]:    343.19
	Linear fluid (dielectric constant: 78.4, screening length: 5.74355 Bohr) occupying 0.621127 of unit cell:	Completed after 2 iterations at t[s]:    351.78
	FillingsUpdate:  mu: -0.244750400  nElectrons: 509.851109
	SubspaceRotationAdjust: set factor to 0.0176
ElecMinimize: Iter:   7  G: -2079.040992312709477  |grad|_K:  4.209e-08  alpha:  3.685e-01  linmin:  4.428e-03  cgtest:  5.962e-01  t[s]:    360.67
ElecMinimize: Converged (|Delta G|<1.000000e-08 for 2 iters).
Setting wave functions to eigenvectors of Hamiltonian

# Ionic positions in lattice coordinates:
ion Ge   0.000000000833333  -0.000000003166666   0.500000666933333 0
ion Ge   0.166666667500000   0.333333330166667   0.679353218660641 0
ion Ge   0.333333334166667   0.166666663500000   0.589455904399701 0
ion Ge   0.333333334166667   0.166666663500000   0.320648115206025 0
ion Ge   0.166666667500000   0.333333330166667   0.410545429466965 0
ion Ge   0.500000000833333  -0.000000003166666   0.500000666933333 0
ion Ge   0.666666667500000   0.333333330166667   0.679353218660641 0
ion Ge   0.833333334166667   0.166666663500000   0.589455904399701 0
ion Ge   0.833333334166667   0.166666663500000   0.320648115206025 0
ion Ge   0.666666667500000   0.333333330166667   0.410545429466965 0
ion Ge   1.000000000833333   0.499999996833334   0.500000666933333 0
ion Ge   0.166666667500000   0.833333330166667   0.679353218660641 0
ion Ge   0.333333334166667   0.666666663500000   0.589455904399701 0
ion Ge   0.333333334166667   0.666666663500000   0.320648115206025 0
ion Ge   0.166666667500000   0.833333330166667   0.410545429466965 0
ion Ge   0.500000000833333   0.499999996833334   0.500000666933333 0
ion Ge   0.666666667500000   0.833333330166667   0.679353218660641 0
ion Ge   0.833333334166667   0.666666663500000   0.589455904399701 0
ion Ge   0.833333334166667   0.666666663500000   0.320648115206025 0
ion Ge   0.666666667500000   0.833333330166667   0.410545429466965 0
ion Te   0.333333334166667   0.166666663500000   0.722913237924481 0
ion Te   0.333333334166667   0.166666663500000   0.455502779356947 0
ion Te   0.166666667500000   0.333333330166667   0.277088095942184 0
ion Te   0.166666667500000   0.333333330166667   0.544498554509718 0
ion Te   0.000000000833333  -0.000000003166666   0.366283986461315 0
ion Te   0.000000000833333  -0.000000003166666   0.633717347405350 0
ion Te   0.333333334166667   0.166666663500000   0.190994967076186 0
ion Te   0.166666667500000   0.333333330166667   0.809006366790479 0
ion Te   0.833333334166667   0.166666663500000   0.722913237924481 0
ion Te   0.833333334166667   0.166666663500000   0.455502779356947 0
ion Te   0.666666667500000   0.333333330166667   0.277088095942184 0
ion Te   0.666666667500000   0.333333330166667   0.544498554509718 0
ion Te   0.500000000833333  -0.000000003166666   0.366283986461315 0
ion Te   0.500000000833333  -0.000000003166666   0.633717347405350 0
ion Te   0.833333334166667   0.166666663500000   0.190994967076186 0
ion Te   0.666666667500000   0.333333330166667   0.809006366790479 0
ion Te   0.333333334166667   0.666666663500000   0.722913237924481 0
ion Te   0.333333334166667   0.666666663500000   0.455502779356947 0
ion Te   0.166666667500000   0.833333330166667   0.277088095942184 0
ion Te   0.166666667500000   0.833333330166667   0.544498554509718 0
ion Te   1.000000000833333   0.499999996833334   0.366283986461315 0
ion Te   1.000000000833333   0.499999996833334   0.633717347405350 0
ion Te   0.333333334166667   0.666666663500000   0.190994967076186 0
ion Te   0.166666667500000   0.833333330166667   0.809006366790479 0
ion Te   0.833333334166667   0.666666663500000   0.722913237924481 0
ion Te   0.833333334166667   0.666666663500000   0.455502779356947 0
ion Te   0.666666667500000   0.833333330166667   0.277088095942184 0
ion Te   0.666666667500000   0.833333330166667   0.544498554509718 0
ion Te   0.500000000833333   0.499999996833334   0.366283986461315 0
ion Te   0.500000000833333   0.499999996833334   0.633717347405350 0
ion Te   0.833333334166667   0.666666663500000   0.190994967076186 0
ion Te   0.666666667500000   0.833333330166667   0.809006366790479 0
ion As   0.000000000833333  -0.000000003166666   0.229783414601629 0
ion As   0.000000000833333  -0.000000003166666   0.770217919265036 0
ion As   0.500000000833333  -0.000000003166666   0.229783414601629 0
ion As   0.500000000833333  -0.000000003166666   0.770217919265036 0
ion As   1.000000000833333   0.499999996833334   0.229783414601629 0
ion As   1.000000000833333   0.499999996833334   0.770217919265036 0
ion As   0.500000000833333   0.499999996833334   0.229783414601629 0
ion As   0.500000000833333   0.499999996833334   0.770217919265036 0


# Forces in Lattice coordinates:
force Ge  -0.000000000000000   0.000000000000000   0.000000000000000 0
force Ge  -0.000000000000000  -0.000000000000000   0.423360503741026 0
force Ge  -0.000000000000000  -0.000000000000000   0.201119806759111 0
force Ge  -0.000000000000000  -0.000000000000000  -0.423360503736478 0
force Ge  -0.000000000000000   0.000000000000000  -0.201119806758657 0
force Ge   0.000000000000000   0.000000000000000  -0.000000000000000 0
force Ge  -0.000000000000000   0.000000000000000   0.423360503741026 0
force Ge  -0.000000000000000   0.000000000000000   0.201119806758656 0
force Ge   0.000000000000000  -0.000000000000000  -0.423360503738297 0
force Ge   0.000000000000000  -0.000000000000000  -0.201119806758657 0
force Ge  -0.000000000000000  -0.000000000000000  -0.000000000000000 0
force Ge  -0.000000000000000   0.000000000000000   0.423360503740116 0
force Ge  -0.000000000000000   0.000000000000000   0.201119806759111 0
force Ge  -0.000000000000000   0.000000000000000  -0.423360503740116 0
force Ge   0.000000000000000  -0.000000000000000  -0.201119806757293 0
force Ge   0.000000000000000   0.000000000000000   0.000000000000000 0
force Ge   0.000000000000000   0.000000000000000   0.423360503740116 0
force Ge   0.000000000000000  -0.000000000000000   0.201119806760020 0
force Ge  -0.000000000000000   0.000000000000000  -0.423360503736478 0
force Ge  -0.000000000000000   0.000000000000000  -0.201119806758657 0
force Te  -0.000000000000000  -0.000000000000000  -0.599473103231404 0
force Te   0.000000000000000   0.000000000000000   0.071336305056691 0
force Te   0.000000000000000   0.000000000000000   0.599473103231858 0
force Te   0.000000000000000  -0.000000000000000  -0.071336305056691 0
force Te   0.000000000000000  -0.000000000000000   0.281397942861238 0
force Te  -0.000000000000000  -0.000000000000000  -0.281397942860783 0
force Te   0.000000000000000   0.000000000000000   0.006074531774278 0
force Te   0.000000000000000   0.000000000000000  -0.006074531775187 0
force Te   0.000000000000000   0.000000000000000  -0.599473103231859 0
force Te   0.000000000000000  -0.000000000000000   0.071336305056805 0
force Te   0.000000000000000   0.000000000000000   0.599473103231859 0
force Te   0.000000000000000  -0.000000000000000  -0.071336305056805 0
force Te   0.000000000000000  -0.000000000000000   0.281397942861238 0
force Te  -0.000000000000000  -0.000000000000000  -0.281397942860783 0
force Te   0.000000000000000  -0.000000000000000   0.006074531774278 0
force Te   0.000000000000000   0.000000000000000  -0.006074531773368 0
force Te  -0.000000000000000   0.000000000000000  -0.599473103231404 0
force Te   0.000000000000000   0.000000000000000   0.071336305056805 0
force Te   0.000000000000000  -0.000000000000000   0.599473103231859 0
force Te   0.000000000000000  -0.000000000000000  -0.071336305056691 0
force Te   0.000000000000000   0.000000000000000   0.281397942861238 0
force Te  -0.000000000000000  -0.000000000000000  -0.281397942860329 0
force Te  -0.000000000000000  -0.000000000000000   0.006074531774278 0
force Te   0.000000000000000  -0.000000000000000  -0.006074531775187 0
force Te   0.000000000000000  -0.000000000000000  -0.599473103231404 0
force Te  -0.000000000000000  -0.000000000000000   0.071336305056691 0
force Te  -0.000000000000000   0.000000000000000   0.599473103231404 0
force Te   0.000000000000000  -0.000000000000000  -0.071336305056805 0
force Te   0.000000000000000   0.000000000000000   0.281397942861238 0
force Te  -0.000000000000000  -0.000000000000000  -0.281397942860783 0
force Te  -0.000000000000000   0.000000000000000   0.006074531774278 0
force Te   0.000000000000000  -0.000000000000000  -0.006074531775187 0
force As   0.000000000000000   0.000000000000000  -0.448991288538206 0
force As   0.000000000000000  -0.000000000000000   0.448991288538206 0
force As   0.000000000000000   0.000000000000000  -0.448991288538206 0
force As  -0.000000000000000  -0.000000000000000   0.448991288537750 0
force As  -0.000000000000000   0.000000000000000  -0.448991288539116 0
force As  -0.000000000000000  -0.000000000000000   0.448991288538206 0
force As   0.000000000000000  -0.000000000000000  -0.448991288539116 0
force As   0.000000000000000   0.000000000000000   0.448991288538204 0

# Energy components:
   A_diel =       -0.1827886107296921
   Eewald =    45480.9959674288911629
       EH =    47322.8744557413083385
     Eloc =   -94999.3831202128203586
      Enl =      167.5918690010706200
      Exc =     -938.5059487964772416
 Exc_core =      517.4309263107044217
       KE =      245.3517746156396697
  MuShift =        0.0343482869907465
-------------------------------------
     Etot =    -2203.7925162354281383
       TS =        0.0347388493089278
-------------------------------------
        F =    -2203.8272550847368620
      muN =     -124.7862627720272286
-------------------------------------
        G =    -2079.0409923127094771

IonicMinimize: Iter:   0  G: -2079.040992312709477  |grad|_K:  0.000e+00  t[s]:    367.15
IonicMinimize: Converged (|grad|_K<1.000000e-04).

#--- Lowdin population analysis ---
# oxidation-state Ge -0.098 -0.098 -0.096 -0.098 -0.096 -0.098 -0.098 -0.096 -0.098 -0.096 -0.098 -0.098 -0.096 -0.098 -0.096 -0.098 -0.098 -0.096 -0.098 -0.096
# oxidation-state Te +0.089 +0.153 +0.089 +0.153 +0.148 +0.148 +0.350 +0.350 +0.089 +0.153 +0.089 +0.153 +0.148 +0.148 +0.350 +0.350 +0.089 +0.153 +0.089 +0.153 +0.148 +0.148 +0.350 +0.350 +0.089 +0.153 +0.089 +0.153 +0.148 +0.148 +0.350 +0.350
# oxidation-state As +0.019 +0.019 +0.019 +0.019 +0.019 +0.019 +0.019 +0.019


Dumping 'NbTe2.fillings' ... done
Dumping 'NbTe2.wfns' ... done
Dumping 'NbTe2.fluidState' ... done
Dumping 'NbTe2.eigenvals' ... done
End date and time: Sat Jul 11 14:07:47 2020  (Duration: 0-0:06:11.37)
Done!
