
*************** JDFTx 1.5.0  ***************

Start date and time: Thu Jan  7 15:05:50 2021
Executable jdftx_gpu with command-line: -i Charged.in -o Charged.out
Running on hosts (process indices):  amax (0-4)
Divided in process groups (process indices):  0 (0)  1 (1)  2 (2)  3 (3)  4 (4)
gpuInit: Found compatible cuda device 0 'Tesla K80'
gpuInit: Found compatible cuda device 1 'Tesla K80'
gpuInit: Found compatible cuda device 2 'Tesla K80'
gpuInit: Found compatible cuda device 3 'Tesla K80'
gpuInit: Found compatible cuda device 4 'Tesla K80'
gpuInit: Selected device 0
Resource initialization completed at t[s]:      2.91
Run totals: 5 processes, 24 threads, 5 GPUs


Input parsed successfully to the following command list (including defaults):

basis kpoint-dependent
cache-projectors no
coords-type Lattice
core-overlap-check none
coulomb-interaction Slab 001
coulomb-truncation-embed 0.5 0.5 0.5
davidson-band-ratio 1.1
dump End State
dump-name NbTe2.$VAR
elec-cutoff 20
elec-eigen-algo Davidson
elec-ex-corr gga-PBE
elec-initial-charge -0.500000
elec-initial-magnetization 5.000000 no
elec-smearing Gauss 0.0073499
electronic-minimize  \
	dirUpdateScheme      FletcherReeves \
	linminMethod         DirUpdateRecommended \
	nIterations          200 \
	history              15 \
	knormThreshold       0 \
	energyDiffThreshold  1e-08 \
	nEnergyDiff          2 \
	alphaTstart          1 \
	alphaTmin            1e-10 \
	updateTestStepSize   yes \
	alphaTreduceFactor   0.1 \
	alphaTincreaseFactor 3 \
	nAlphaAdjustMax      3 \
	wolfeEnergy          0.0001 \
	wolfeGradient        0.9 \
	fdTest               no
exchange-regularization WignerSeitzTruncated
fluid LinearPCM 298.000000 1.013250
fluid-anion F- 1 MeanFieldLJ \
	epsBulk 1 \
	pMol 0 \
	epsInf 1 \
	Pvap 0 \
	sigmaBulk 0 \
	Rvdw 2.24877 \
	Res 0 \
	tauNuc 343133
fluid-cation Na+ 1 MeanFieldLJ \
	epsBulk 1 \
	pMol 0 \
	epsInf 1 \
	Pvap 0 \
	sigmaBulk 0 \
	Rvdw 2.19208 \
	Res 0 \
	tauNuc 343133
fluid-ex-corr lda-TF lda-PZ
fluid-gummel-loop 10 1.000000e-05
fluid-minimize  \
	dirUpdateScheme      PolakRibiere \
	linminMethod         DirUpdateRecommended \
	nIterations          400 \
	history              15 \
	knormThreshold       1e-11 \
	energyDiffThreshold  0 \
	nEnergyDiff          2 \
	alphaTstart          1 \
	alphaTmin            1e-10 \
	updateTestStepSize   yes \
	alphaTreduceFactor   0.1 \
	alphaTincreaseFactor 3 \
	nAlphaAdjustMax      6 \
	wolfeEnergy          0.0001 \
	wolfeGradient        0.9 \
	fdTest               no
fluid-solvent H2O 55.338 ScalarEOS \
	epsBulk 78.4 \
	pMol 0.92466 \
	epsInf 1.77 \
	Pvap 1.06736e-10 \
	sigmaBulk 4.62e-05 \
	Rvdw 2.61727 \
	Res 1.42 \
	tauNuc 343133 \
	poleEl 15 7 1
forces-output-coords Positions
initial-state NbTe2.$VAR
ion Ta   0.166669984000002   0.083329999999997   0.500000000000000 1
ion Ta   0.416670001999996   0.083329999999997   0.500000000000000 1
ion Ta   0.666670019999998   0.083329999999997   0.500000000000000 1
ion Ta   0.916670037999999   0.083329999999997   0.500000000000000 1
ion Ta   0.166669994000003   0.333330001000000   0.500000000000000 1
ion Ta   0.416669994000003   0.333330001000000   0.500000000000000 1
ion Ta   0.666670011999997   0.333330001000000   0.500000000000000 1
ion Ta   0.916669994000003   0.333330001000000   0.500000000000000 1
ion Ta   0.166669994000003   0.583329982000002   0.500000000000000 1
ion Ta   0.416669994000003   0.583329982000002   0.500000000000000 1
ion Ta   0.666669994000003   0.583329982000002   0.500000000000000 1
ion Ta   0.916670011000001   0.583329982000002   0.500000000000000 1
ion Ta   0.166669992999999   0.833329962999997   0.500000000000000 1
ion Ta   0.416669992999999   0.833329962999997   0.500000000000000 1
ion Ta   0.666670011000001   0.833329962999997   0.500000000000000 1
ion Ta   0.916670029000002   0.833329962999997   0.500000000000000 1
ion S   0.000000000000000   0.000000000000000   0.586319975000002 1
ion S   0.000000000000000   0.000000000000000   0.413679999000003 1
ion S   0.250000000000000   0.000000000000000   0.586319975000002 1
ion S   0.250000000000000   0.000000000000000   0.413679999000003 1
ion S   0.500000000000000   0.000000000000000   0.586319975000002 1
ion S   0.500000000000000   0.000000000000000   0.413679999000003 1
ion S   0.749999981999999   0.000000000000000   0.586319975000002 1
ion S   0.749999981999999   0.000000000000000   0.413679999000003 1
ion S   0.000000000999996   0.250000002000000   0.586319975000002 1
ion S   0.000000000999996   0.250000002000000   0.413679999000003 1
ion S   0.250000000999996   0.250000002000000   0.586319975000002 1
ion S   0.250000000999996   0.250000002000000   0.413679999000003 1
ion S   0.499999991999999   0.250000002000000   0.586319975000002 1
ion S   0.499999991999999   0.250000002000000   0.413679999000003 1
ion S   0.750000010000001   0.250000002000000   0.586319975000002 1
ion S   0.750000010000001   0.250000002000000   0.413679999000003 1
ion S   0.000000002000000   0.500000002999997   0.586319975000002 1
ion S   0.000000002000000   0.500000002999997   0.413679999000003 1
ion S   0.250000002000000   0.500000002999997   0.586319975000002 1
ion S   0.250000002000000   0.500000002999997   0.413679999000003 1
ion S   0.500000002000000   0.500000002999997   0.586319975000002 1
ion S   0.500000002000000   0.500000002999997   0.413679999000003 1
ion S   0.749999965999997   0.500000002999997   0.586319975000002 1
ion S   0.749999965999997   0.500000002999997   0.413679999000003 1
ion S   0.000000022000002   0.750000026000002   0.586319975000002 1
ion S   0.000000022000002   0.750000026000002   0.413679999000003 1
ion S   0.250000022000002   0.750000026000002   0.586319975000002 1
ion S   0.250000022000002   0.750000026000002   0.413679999000003 1
ion S   0.500000022000002   0.750000026000002   0.586319975000002 1
ion S   0.500000022000002   0.750000026000002   0.413679999000003 1
ion S   0.750000004000000   0.750000026000002   0.586319975000002 1
ion S   0.750000004000000   0.750000026000002   0.413679999000003 1
ion-species GBRV/$ID_pbe.uspp
ion-width Ecut
ionic-minimize  \
	dirUpdateScheme      L-BFGS \
	linminMethod         DirUpdateRecommended \
	nIterations          500 \
	history              15 \
	knormThreshold       0.0001 \
	energyDiffThreshold  1e-06 \
	nEnergyDiff          2 \
	alphaTstart          1 \
	alphaTmin            1e-10 \
	updateTestStepSize   yes \
	alphaTreduceFactor   0.1 \
	alphaTincreaseFactor 3 \
	nAlphaAdjustMax      3 \
	wolfeEnergy          0.0001 \
	wolfeGradient        0.9 \
	fdTest               no
kpoint   0.000000000000   0.000000000000   0.000000000000  1.00000000000000
kpoint-folding 4 4 1 
latt-move-scale 1 1 1
latt-scale 1.88973 1.88973 1.88973 
lattice Triclinic 13.3213 13.3213 18.1305 90 90 120
lattice-minimize  \
	dirUpdateScheme      L-BFGS \
	linminMethod         DirUpdateRecommended \
	nIterations          0 \
	history              15 \
	knormThreshold       0 \
	energyDiffThreshold  1e-06 \
	nEnergyDiff          2 \
	alphaTstart          1 \
	alphaTmin            1e-10 \
	updateTestStepSize   yes \
	alphaTreduceFactor   0.1 \
	alphaTincreaseFactor 3 \
	nAlphaAdjustMax      3 \
	wolfeEnergy          0.0001 \
	wolfeGradient        0.9 \
	fdTest               no
lcao-params -1 1e-06 0.0073499
pcm-variant CANDLE
spintype z-spin
subspace-rotation-factor 1 yes
symmetries automatic
symmetry-threshold 0.0001



---------- Setting up symmetries ----------

Found 24 point-group symmetries of the bravais lattice
Found 192 space-group symmetries with basis
Applied RMS atom displacement 6.87527e-05 bohrs to make symmetries exact.

---------- Initializing the Grid ----------
R = 
[    25.1736   -12.5868          0  ]
[          0     21.801          0  ]
[          0          0    34.2617  ]
unit cell volume = 18803.1
G =
[   0.249594   0.144103         -0  ]
[          0   0.288207          0  ]
[          0         -0   0.183388  ]
Minimum fftbox size, Smin = [  104  104  140  ]
Chosen fftbox size, S = [  108  108  140  ]

---------- Exchange Correlation functional ----------
Initalized PBE GGA exchange.
Initalized PBE GGA correlation.

---------- Setting up pseudopotentials ----------
Width of ionic core gaussian charges (only for fluid interactions / plotting) set to 0.397384

Reading pseudopotential file '/home/guoxy/vasp/jdftx-1.5.0/build/pseudopotentials/GBRV/ta_pbe.uspp':
  Title: Ta.  Created by USPP 7.3.6 on 14-9-2013
  Reference state energy: -70.583193.  13 valence electrons in orbitals:
    |500>  occupation: 2  eigenvalue: -2.682396
    |510>  occupation: 6  eigenvalue: -1.447928
    |520>  occupation: 3  eigenvalue: -0.131987
    |600>  occupation: 2  eigenvalue: -0.199982
    |610>  occupation: 0  eigenvalue: -0.051129
  lMax: 3  lLocal: 3  QijEcut: 5
  7 projectors sampled on a log grid with 667 points:
    l: 0  eig: -2.682397  rCut: 1.4
    l: 0  eig: -0.199983  rCut: 1.4
    l: 1  eig: -1.447928  rCut: 1.5
    l: 1  eig: -0.051130  rCut: 1.5
    l: 2  eig: -0.131987  rCut: 1.7
    l: 2  eig: 0.150000  rCut: 1.7
    l: 3  eig: 0.250000  rCut: 2.3
  Partial core density with radius 1.2
  Transforming core density to a uniform radial grid of dG=0.02 with 1498 points.
  Transforming local potential to a uniform radial grid of dG=0.02 with 1498 points.
  Transforming nonlocal projectors to a uniform radial grid of dG=0.02 with 432 points.
  Transforming density augmentations to a uniform radial grid of dG=0.02 with 1498 points.
  Transforming atomic orbitals to a uniform radial grid of dG=0.02 with 432 points.
  Core radius for overlap checks: 2.30 bohrs.

Reading pseudopotential file '/home/guoxy/vasp/jdftx-1.5.0/build/pseudopotentials/GBRV/s_pbe.uspp':
  Title: S.  Created by USPP 7.3.6 on 1-4-15
  Reference state energy: -11.898476.  6 valence electrons in orbitals:
    |300>  occupation: 2  eigenvalue: -0.634167
    |310>  occupation: 4  eigenvalue: -0.257568
  lMax: 2  lLocal: 3  QijEcut: 6
  6 projectors sampled on a log grid with 635 points:
    l: 0  eig: -0.634161  rCut: 1.5
    l: 0  eig: 1.500000  rCut: 1.5
    l: 1  eig: -0.257567  rCut: 1.5
    l: 1  eig: 1.500000  rCut: 1.5
    l: 2  eig: -1.000000  rCut: 1.5
    l: 2  eig: 1.500000  rCut: 1.5
  Partial core density with radius 1.15
  Transforming core density to a uniform radial grid of dG=0.02 with 1498 points.
  Transforming local potential to a uniform radial grid of dG=0.02 with 1498 points.
  Transforming nonlocal projectors to a uniform radial grid of dG=0.02 with 432 points.
  Transforming density augmentations to a uniform radial grid of dG=0.02 with 1498 points.
  Transforming atomic orbitals to a uniform radial grid of dG=0.02 with 432 points.
  Core radius for overlap checks: 1.50 bohrs.

Initialized 2 species with 48 total atoms.

Folded 1 k-points by 4x4x1 to 16 k-points.

---------- Setting up k-points, bands, fillings ----------
Adding inversion symmetry to k-mesh for non-inversion-symmetric unit cell.
Reduced to 4 k-points under symmetry. 
Computing the number of bands and number of electrons
Calculating initial fillings.
nElectrons: 399.500000   nBands: 336   nStates: 8

----- Setting up reduced wavefunction bases (one per k-point) -----
average nbasis = 80337.188 , ideal nbasis = 80328.404

---------- Setting up coulomb interaction ----------
Fluid mode embedding: using embedded box, but periodic Coulomb kernel.
(Fluid response is responsible for (approximate) separation between periodic images.)
Setting up double-sized grid for truncated Coulomb potentials:
R = 
[    25.1736   -12.5868          0  ]
[          0     21.801          0  ]
[          0          0    68.5234  ]
unit cell volume = 37606.3
G =
[   0.249594   0.144103         -0  ]
[          0   0.288207          0  ]
[          0         -0  0.0916941  ]
Chosen fftbox size, S = [  108  108  280  ]
Integer grid location selected as the embedding center:
   Grid: [  54  54  70  ]
   Lattice: [  0.5  0.5  0.5  ]
   Cartesian: [  6.2934  10.9005  17.1308  ]
Constructing Wigner-Seitz cell: 8 faces (6 quadrilaterals, 2 hexagons)
Range-separation parameter for embedded mesh potentials due to point charges: 0.624095 bohrs.

Initializing van der Waals corrections
	NOTE: vdW corrections apply only for interactions with fluid.
	Ta:  C6:  815.23 Eh-a0^6  R0: 3.326 a0 (WARNING: beyond Grimme's data set)
	 S:  C6:   96.61 Eh-a0^6  R0: 3.180 a0

---------- Setting up ewald sum ----------
Optimum gaussian width for ewald sums = 7.011160 bohr.
Real space sum over 605 unit cells with max indices [  5  5  2  ]
Reciprocal space sum over 7425 terms with max indices [  7  7  16  ]

---------- Allocating electronic variables ----------
Initializing wave functions:  linear combination of atomic orbitals
Ta pseudo-atom occupations:   s ( 2 2 )  p ( 6 0 )  d ( 3 )
S pseudo-atom occupations:   s ( 2 )  p ( 4 )
	FillingsUpdate:  mu: +0.682415004  nElectrons: 399.500000  magneticMoment: [ Abs: 1.45941  Tot: +1.39464 ]
LCAOMinimize: Iter:   0  F: -1215.7329108897436072  |grad|_K:  2.875e-02  alpha:  1.000e+00
	FillingsUpdate:  mu: -1.026296242  nElectrons: 399.500000  magneticMoment: [ Abs: 1.12258  Tot: +1.11799 ]
LCAOMinimize: Iter:   1  F: -1225.8954317393447582  |grad|_K:  1.373e-02  alpha:  4.759e-01  linmin:  1.619e-01  cgtest: -2.192e+00  t[s]:    207.32
LCAOMinimize: 	Bad step direction: g.d > 0.
LCAOMinimize: 	Undoing step.
LCAOMinimize: 	Step failed: resetting search direction.
	FillingsUpdate:  mu: -1.026296242  nElectrons: 399.500000  magneticMoment: [ Abs: 1.12258  Tot: +1.11799 ]
LCAOMinimize: Iter:   2  F: -1225.8954317393447582  |grad|_K:  1.373e-02  alpha:  0.000e+00
	FillingsUpdate:  mu: -0.533551558  nElectrons: 399.500000  magneticMoment: [ Abs: 2.30729  Tot: +2.30080 ]
LCAOMinimize: Iter:   3  F: -1255.5541843080839044  |grad|_K:  7.808e-03  alpha:  1.810e-01  linmin: -3.631e-01  cgtest:  9.169e-01  t[s]:    316.43
LCAOMinimize: Encountered beta<0, resetting CG.
LCAOMinimize: 	Predicted alpha/alphaT>3.000000, increasing alphaT to 5.431248e-01.
	FillingsUpdate:  mu: -0.446060986  nElectrons: 399.500000  magneticMoment: [ Abs: 2.16705  Tot: +2.14847 ]
LCAOMinimize: Iter:   4  F: -1261.3181830063529105  |grad|_K:  6.653e-03  alpha:  1.021e-01  linmin: -3.622e-01  cgtest:  8.378e-01  t[s]:    399.69
LCAOMinimize: 	Predicted alpha/alphaT>3.000000, increasing alphaT to 3.062866e-01.
	FillingsUpdate:  mu: -0.157074303  nElectrons: 399.500000  magneticMoment: [ Abs: 1.67942  Tot: +1.64970 ]
LCAOMinimize: Iter:   5  F: -1268.0163360388833098  |grad|_K:  1.604e-03  alpha:  2.692e-01  linmin:  3.888e-01  cgtest: -6.425e-01  t[s]:    483.23
LCAOMinimize: 	Bad step direction: g.d > 0.
LCAOMinimize: 	Undoing step.
LCAOMinimize: 	Step failed: resetting search direction.
	FillingsUpdate:  mu: -0.157074303  nElectrons: 399.500000  magneticMoment: [ Abs: 1.67942  Tot: +1.64970 ]
LCAOMinimize: Iter:   6  F: -1268.0163360388833098  |grad|_K:  1.604e-03  alpha:  0.000e+00
	FillingsUpdate:  mu: -0.228508424  nElectrons: 399.500000  magneticMoment: [ Abs: 1.62598  Tot: +1.58627 ]
LCAOMinimize: Iter:   7  F: -1268.1971790090299237  |grad|_K:  6.910e-05  alpha:  1.725e-01  linmin: -2.967e-02  cgtest: -4.485e-02  t[s]:    592.77
LCAOMinimize: 	Predicted alpha/alphaT>3.000000, increasing alphaT to 5.174154e-01.
	FillingsUpdate:  mu: -0.228323623  nElectrons: 399.500000  magneticMoment: [ Abs: 1.10897  Tot: +1.06189 ]
LCAOMinimize: Iter:   8  F: -1268.1990910014203564  |grad|_K:  3.236e-05  alpha:  8.785e-01  linmin:  2.308e-03  cgtest:  4.423e-02  t[s]:    675.85
	FillingsUpdate:  mu: -0.226662600  nElectrons: 399.500000  magneticMoment: [ Abs: 0.97910  Tot: +0.93345 ]
LCAOMinimize: Iter:   9  F: -1268.1992107293040135  |grad|_K:  1.736e-05  alpha:  2.489e-01  linmin: -4.955e-03  cgtest:  4.399e-02  t[s]:    740.30
LCAOMinimize: 	Predicted alpha/alphaT>3.000000, increasing alphaT to 7.466024e-01.
	FillingsUpdate:  mu: -0.227366937  nElectrons: 399.500000  magneticMoment: [ Abs: 0.13818  Tot: +0.09706 ]
LCAOMinimize: Iter:  10  F: -1268.1994515505164145  |grad|_K:  6.268e-06  alpha:  1.741e+00  linmin:  3.708e-03  cgtest: -1.712e-01  t[s]:    824.18
	FillingsUpdate:  mu: -0.227060103  nElectrons: 399.500000  magneticMoment: [ Abs: 0.02110  Tot: -0.00504 ]
LCAOMinimize: Iter:  11  F: -1268.1994664148051015  |grad|_K:  4.276e-06  alpha:  8.356e-01  linmin: -1.322e-04  cgtest:  6.817e-03  t[s]:    888.77
	FillingsUpdate:  mu: -0.227234920  nElectrons: 399.500000  magneticMoment: [ Abs: 0.01819  Tot: -0.01666 ]
LCAOMinimize: Iter:  12  F: -1268.1994682892079709  |grad|_K:  8.368e-07  alpha:  2.261e-01  linmin:  2.343e-03  cgtest: -1.189e-02  t[s]:    953.40
LCAOMinimize: 	Predicted alpha/alphaT>3.000000, increasing alphaT to 6.781803e-01.
	FillingsUpdate:  mu: -0.227192729  nElectrons: 399.500000  magneticMoment: [ Abs: 0.01188  Tot: -0.01114 ]
LCAOMinimize: Iter:  13  F: -1268.1994685712143109  |grad|_K:  2.654e-07  alpha:  8.886e-01  linmin:  3.162e-04  cgtest:  4.736e-03  t[s]:   1037.20
	FillingsUpdate:  mu: -0.227212377  nElectrons: 399.500000  magneticMoment: [ Abs: 0.00884  Tot: -0.00791 ]
LCAOMinimize: Iter:  14  F: -1268.1994685910822227  |grad|_K:  2.881e-07  alpha:  6.203e-01  linmin:  8.791e-05  cgtest:  1.174e-04  t[s]:   1101.17
LCAOMinimize: Converged (|Delta F|<1.000000e-06 for 2 iters).
----- createFluidSolver() ----- (Fluid-side solver setup)
   Initializing fluid molecule 'H2O'
     Initializing site 'O'
       Electron density: proportional to exp(-r/0.36935)*erfc((r-0.51523)/0.36823) with norm 6.826
       Charge density: gaussian nuclear width 0.478731 with net site charge 0.826
       Polarizability: cuspless exponential with width 0.32 and norm 3.73
       Hard sphere radius: 2.57003 bohrs
       Positions in reference frame:
         [ +0.000000 +0.000000 +0.000000 ]
     Initializing site 'H'
       Electron density: proportional to exp(-r/0.34641)*erfc((r-0)/0.390882) with norm 0.587
       Charge density: gaussian nuclear width 0.377945 with net site charge -0.413
       Polarizability: cuspless exponential with width 0.39 and norm 3.3
       Positions in reference frame:
         [ +0.000000 -1.441945 +1.122523 ]
         [ +0.000000 +1.441945 +1.122523 ]
     Net charge: 0   dipole magnitude: 0.927204
     Initializing spherical shell mfKernel with radius 2.61727 Bohr
     deltaS corrections:
       site 'O': -7.54299
       site 'H': -6.83917
   Initializing fluid molecule 'Na+'
     Initializing site 'Na'
       Electron density: proportional to exp(-r/0.19682)*erfc((r-0.71491)/0.41314) with norm 8.1383
       Charge density: gaussian nuclear width 0.365347 with net site charge -1
       Hard sphere radius: 1.86327 bohrs
       Positions in reference frame:
         [ +0.000000 +0.000000 +0.000000 ]
     Net charge: -1   dipole magnitude: 0
     Initializing gaussian mfKernel with width: 1.55004 Bohr
     deltaS corrections:
       site 'Na': -22.3555
   Initializing fluid molecule 'F-'
     Initializing site 'F'
       Electron density: proportional to exp(-r/0.38886)*erfc((r-0)/0.438782) with norm 8
       Charge density: gaussian nuclear width 0.374796 with net site charge 1
       Hard sphere radius: 2.39995 bohrs
       Positions in reference frame:
         [ +0.000000 +0.000000 +0.000000 ]
     Net charge: 1   dipole magnitude: 0
     Initializing gaussian mfKernel with width: 1.59012 Bohr
     deltaS corrections:
       site 'F': -9.04335

Correction to mu due to finite nuclear width = -0.0105536
   Cavity determined by nc: 0.00142 and sigma: 0.707107
   Nonlocal vdW cavity from gaussian model electron density with norm = 8 and sigma = 0.993594 bohr
   Charge asymmetry in cavity with sensitivity pCavity = 36.5 e-bohr/Eh
   Electrostatic cavity expanded by eta = 1.46 bohrs
   Weighted density cavitation model constrained by Nbulk: 0.0049383 bohr^-3, Pvap: 3.14029 kPa, Rvdw: 2.61727 bohr and sigmaBulk: 4.62e-05 Eh/bohr^2 at T: 298 K.
   Weighted density dispersion model using vdW pair potentials with single solvent site with sqrtC6eff: 0.77 SI.


---- Citations for features of the code used in this run ----

   Software package:
      R. Sundararaman, K. Letchworth-Weaver, K.A. Schwarz, D. Gunceler, Y. Ozhabes and T.A. Arias, 'JDFTx: software for joint density-functional theory', SoftwareX 6, 278 (2017)

   gga-PBE exchange-correlation functional:
      J.P. Perdew, K. Burke and M. Ernzerhof, Phys. Rev. Lett. 77, 3865 (1996)

   Pseudopotentials:
      KF Garrity, JW Bennett, KM Rabe and D Vanderbilt, Comput. Mater. Sci. 81, 446 (2014)

   Truncated Coulomb potentials:
      R. Sundararaman and T.A. Arias, Phys. Rev. B 87, 165122 (2013)

   Van der Waals correction pair-potentials:
      S. Grimme, J. Comput. Chem. 27, 1787 (2006)

   Charge-asymmetric nonlocally-determined local-electric (CANDLE) solvation model:
      R. Sundararaman and W.A. Goddard III, J. Chem. Phys. 142, 064107 (2015)

   Total energy minimization with Auxiliary Hamiltonian:
      C. Freysoldt, S. Boeck, and J. Neugebauer, Phys. Rev. B 79, 241103(R) (2009)

This list may not be complete. Please suggest additional citations or
report any other bugs at https://github.com/shankar1729/jdftx/issues

Initialization completed successfully at t[s]:   1111.19

Fluid solver invoked on fresh (partially random / LCAO) wavefunctions
Running a vacuum solve first:

-------- Initial electronic minimization -----------
	FillingsUpdate:  mu: -0.227212377  nElectrons: 399.500000  magneticMoment: [ Abs: 0.00884  Tot: -0.00791 ]
ElecMinimize: Iter:   0  F: -1268.199468591049254  |grad|_K:  8.733e-05  alpha:  1.000e+00
	FillingsUpdate:  mu: -0.123353913  nElectrons: 399.500000  magneticMoment: [ Abs: 0.00612  Tot: -0.00553 ]
	SubspaceRotationAdjust: set factor to 0.904
ElecMinimize: Iter:   1  F: -1269.515760616688112  |grad|_K:  5.011e-05  alpha:  8.010e-01  linmin: -2.695e-05  t[s]:   1258.83
	FillingsUpdate:  mu: -0.182267494  nElectrons: 399.500000  magneticMoment: [ Abs: 0.00514  Tot: -0.00465 ]
	SubspaceRotationAdjust: set factor to 0.585
ElecMinimize: Iter:   2  F: -1269.713648247704896  |grad|_K:  3.375e-05  alpha:  4.040e-01  linmin:  3.720e-04  t[s]:   1348.74
	FillingsUpdate:  mu: -0.156856049  nElectrons: 399.500000  magneticMoment: [ Abs: 0.00397  Tot: -0.00356 ]
	SubspaceRotationAdjust: set factor to 0.493
ElecMinimize: Iter:   3  F: -1269.825424286199450  |grad|_K:  1.406e-05  alpha:  4.713e-01  linmin:  1.709e-04  t[s]:   1439.14
	FillingsUpdate:  mu: -0.159778146  nElectrons: 399.500000  magneticMoment: [ Abs: 0.00332  Tot: -0.00298 ]
	SubspaceRotationAdjust: set factor to 0.545
ElecMinimize: Iter:   4  F: -1269.851164839665898  |grad|_K:  8.671e-06  alpha:  6.148e-01  linmin:  1.727e-05  t[s]:   1529.99
	FillingsUpdate:  mu: -0.164765575  nElectrons: 399.500000  magneticMoment: [ Abs: 0.00278  Tot: -0.00250 ]
	SubspaceRotationAdjust: set factor to 0.607
ElecMinimize: Iter:   5  F: -1269.861396485729983  |grad|_K:  5.121e-06  alpha:  6.313e-01  linmin:  1.559e-05  t[s]:   1620.44
	FillingsUpdate:  mu: -0.161646983  nElectrons: 399.500000  magneticMoment: [ Abs: 0.00229  Tot: -0.00205 ]
	SubspaceRotationAdjust: set factor to 0.687
ElecMinimize: Iter:   6  F: -1269.865163945123186  |grad|_K:  3.176e-06  alpha:  6.661e-01  linmin:  2.204e-05  t[s]:   1710.69
	FillingsUpdate:  mu: -0.162673224  nElectrons: 399.500000  magneticMoment: [ Abs: 0.00188  Tot: -0.00168 ]
	SubspaceRotationAdjust: set factor to 0.857
ElecMinimize: Iter:   7  F: -1269.866453775416176  |grad|_K:  1.822e-06  alpha:  5.944e-01  linmin:  4.360e-06  t[s]:   1801.22
	FillingsUpdate:  mu: -0.163135666  nElectrons: 399.500000  magneticMoment: [ Abs: 0.00155  Tot: -0.00138 ]
	SubspaceRotationAdjust: set factor to 0.97
ElecMinimize: Iter:   8  F: -1269.866846926862536  |grad|_K:  9.957e-07  alpha:  5.484e-01  linmin:  2.397e-06  t[s]:   1892.03
	FillingsUpdate:  mu: -0.162520407  nElectrons: 399.500000  magneticMoment: [ Abs: 0.00123  Tot: -0.00109 ]
	SubspaceRotationAdjust: set factor to 0.893
ElecMinimize: Iter:   9  F: -1269.866966858513024  |grad|_K:  6.759e-07  alpha:  5.597e-01  linmin:  2.155e-06  t[s]:   1982.67
	FillingsUpdate:  mu: -0.163192195  nElectrons: 399.500000  magneticMoment: [ Abs: 0.00097  Tot: -0.00086 ]
	SubspaceRotationAdjust: set factor to 0.691
ElecMinimize: Iter:  10  F: -1269.867008039654138  |grad|_K:  3.840e-07  alpha:  4.168e-01  linmin:  5.591e-07  t[s]:   2073.57
	FillingsUpdate:  mu: -0.162979297  nElectrons: 399.500000  magneticMoment: [ Abs: 0.00072  Tot: -0.00064 ]
	SubspaceRotationAdjust: set factor to 0.679
ElecMinimize: Iter:  11  F: -1269.867025770739247  |grad|_K:  2.309e-07  alpha:  5.562e-01  linmin:  1.531e-06  t[s]:   2163.88
	FillingsUpdate:  mu: -0.163012240  nElectrons: 399.500000  magneticMoment: [ Abs: 0.00056  Tot: -0.00049 ]
	SubspaceRotationAdjust: set factor to 0.836
ElecMinimize: Iter:  12  F: -1269.867031841262587  |grad|_K:  1.452e-07  alpha:  5.267e-01  linmin:  6.538e-07  t[s]:   2254.61
	FillingsUpdate:  mu: -0.163071651  nElectrons: 399.500000  magneticMoment: [ Abs: 0.00044  Tot: -0.00039 ]
	SubspaceRotationAdjust: set factor to 0.903
ElecMinimize: Iter:  13  F: -1269.867034220975484  |grad|_K:  9.022e-08  alpha:  5.222e-01  linmin:  4.643e-07  t[s]:   2345.69
	FillingsUpdate:  mu: -0.163001238  nElectrons: 399.500000  magneticMoment: [ Abs: 0.00034  Tot: -0.00030 ]
	SubspaceRotationAdjust: set factor to 0.857
ElecMinimize: Iter:  14  F: -1269.867035079824518  |grad|_K:  5.419e-08  alpha:  4.878e-01  linmin:  1.457e-07  t[s]:   2436.06
	FillingsUpdate:  mu: -0.163026260  nElectrons: 399.500000  magneticMoment: [ Abs: 0.00026  Tot: -0.00023 ]
	SubspaceRotationAdjust: set factor to 0.827
ElecMinimize: Iter:  15  F: -1269.867035397247946  |grad|_K:  3.014e-08  alpha:  4.995e-01  linmin:  9.806e-08  t[s]:   2526.79
	FillingsUpdate:  mu: -0.163018261  nElectrons: 399.500000  magneticMoment: [ Abs: 0.00020  Tot: -0.00018 ]
	SubspaceRotationAdjust: set factor to 0.905
ElecMinimize: Iter:  16  F: -1269.867035502557655  |grad|_K:  1.961e-08  alpha:  5.357e-01  linmin:  5.018e-08  t[s]:   2617.78
	FillingsUpdate:  mu: -0.163015974  nElectrons: 399.500000  magneticMoment: [ Abs: 0.00015  Tot: -0.00013 ]
	SubspaceRotationAdjust: set factor to 1.04
ElecMinimize: Iter:  17  F: -1269.867035545669069  |grad|_K:  1.180e-08  alpha:  5.182e-01  linmin: -9.213e-08  t[s]:   2709.07
	FillingsUpdate:  mu: -0.163020873  nElectrons: 399.500000  magneticMoment: [ Abs: 0.00011  Tot: -0.00010 ]
	SubspaceRotationAdjust: set factor to 1.1
ElecMinimize: Iter:  18  F: -1269.867035562032015  |grad|_K:  7.550e-09  alpha:  5.445e-01  linmin:  3.696e-07  t[s]:   2799.12
	FillingsUpdate:  mu: -0.163015473  nElectrons: 399.500000  magneticMoment: [ Abs: 0.00008  Tot: -0.00007 ]
	SubspaceRotationAdjust: set factor to 0.943
ElecMinimize: Iter:  19  F: -1269.867035567493303  |grad|_K:  4.784e-09  alpha:  4.446e-01  linmin:  3.318e-07  t[s]:   2889.88
	FillingsUpdate:  mu: -0.163019398  nElectrons: 399.500000  magneticMoment: [ Abs: 0.00006  Tot: -0.00005 ]
	SubspaceRotationAdjust: set factor to 0.72
ElecMinimize: Iter:  20  F: -1269.867035569637665  |grad|_K:  2.903e-09  alpha:  4.304e-01  linmin: -1.411e-07  t[s]:   2980.73
ElecMinimize: Converged (|Delta F|<1.000000e-08 for 2 iters).
Setting wave functions to eigenvectors of Hamiltonian
Vacuum energy after initial minimize, F = -1269.867035569637665

	Linear fluid (dielectric constant: 78.4, screening length: 5.74355 Bohr) occupying 0.758193 of unit cell:	Completed after 15 iterations at t[s]:   3001.34

-------- Electronic minimization -----------
	Linear fluid (dielectric constant: 78.4, screening length: 5.74355 Bohr) occupying 0.758193 of unit cell:	Completed after 0 iterations at t[s]:   3024.90
	FillingsUpdate:  mu: -0.222945216  nElectrons: 399.500000  magneticMoment: [ Abs: 0.00005  Tot: -0.00004 ]
ElecMinimize: Iter:   0  F: -1269.819900708336945  |grad|_K:  1.050e-06  alpha:  1.000e+00
	Linear fluid (dielectric constant: 78.4, screening length: 5.74355 Bohr) occupying 0.758590 of unit cell:	Completed after 9 iterations at t[s]:   3096.22
	Linear fluid (dielectric constant: 78.4, screening length: 5.74355 Bohr) occupying 0.758383 of unit cell:	Completed after 10 iterations at t[s]:   3128.54
	FillingsUpdate:  mu: -0.220559287  nElectrons: 399.500000  magneticMoment: [ Abs: 0.00004  Tot: -0.00003 ]
	SubspaceRotationAdjust: set factor to 0.555
ElecMinimize: Iter:   1  F: -1269.820013996340776  |grad|_K:  7.230e-07  alpha:  4.758e-01  linmin:  4.080e-07  t[s]:   3170.09
	Linear fluid (dielectric constant: 78.4, screening length: 5.74355 Bohr) occupying 0.758557 of unit cell:	Completed after 9 iterations at t[s]:   3198.86
	Linear fluid (dielectric constant: 78.4, screening length: 5.74355 Bohr) occupying 0.758603 of unit cell:	Completed after 2 iterations at t[s]:   3230.55
	FillingsUpdate:  mu: -0.220506609  nElectrons: 399.500000  magneticMoment: [ Abs: 0.00003  Tot: -0.00003 ]
	SubspaceRotationAdjust: set factor to 0.472
ElecMinimize: Iter:   2  F: -1269.820082007448946  |grad|_K:  2.352e-07  alpha:  6.004e-01  linmin: -2.280e-06  t[s]:   3270.19
	Linear fluid (dielectric constant: 78.4, screening length: 5.74355 Bohr) occupying 0.758645 of unit cell:	Completed after 2 iterations at t[s]:   3298.22
	Linear fluid (dielectric constant: 78.4, screening length: 5.74355 Bohr) occupying 0.758652 of unit cell:	Completed after 0 iterations at t[s]:   3327.87
	FillingsUpdate:  mu: -0.220508937  nElectrons: 399.500000  magneticMoment: [ Abs: 0.00003  Tot: -0.00002 ]
	SubspaceRotationAdjust: set factor to 0.555
ElecMinimize: Iter:   3  F: -1269.820090608042165  |grad|_K:  1.198e-07  alpha:  7.059e-01  linmin: -8.201e-06  t[s]:   3366.60
	Linear fluid (dielectric constant: 78.4, screening length: 5.74355 Bohr) occupying 0.758670 of unit cell:	Completed after 2 iterations at t[s]:   3394.29
	Linear fluid (dielectric constant: 78.4, screening length: 5.74355 Bohr) occupying 0.758668 of unit cell:	Completed after 0 iterations at t[s]:   3424.14
	FillingsUpdate:  mu: -0.220521664  nElectrons: 399.500000  magneticMoment: [ Abs: 0.00003  Tot: -0.00002 ]
	SubspaceRotationAdjust: set factor to 0.591
ElecMinimize: Iter:   4  F: -1269.820092646458761  |grad|_K:  8.130e-08  alpha:  6.342e-01  linmin: -6.602e-06  t[s]:   3462.94
	Linear fluid (dielectric constant: 78.4, screening length: 5.74355 Bohr) occupying 0.758674 of unit cell:	Completed after 0 iterations at t[s]:   3490.29
	Linear fluid (dielectric constant: 78.4, screening length: 5.74355 Bohr) occupying 0.758675 of unit cell:	Completed after 2 iterations at t[s]:   3519.38
	FillingsUpdate:  mu: -0.220506507  nElectrons: 399.500000  magneticMoment: [ Abs: 0.00002  Tot: -0.00002 ]
	SubspaceRotationAdjust: set factor to 0.646
ElecMinimize: Iter:   5  F: -1269.820093631316695  |grad|_K:  5.224e-08  alpha:  7.242e-01  linmin:  1.762e-05  t[s]:   3559.35
	Linear fluid (dielectric constant: 78.4, screening length: 5.74355 Bohr) occupying 0.758674 of unit cell:	Completed after 0 iterations at t[s]:   3586.72
	Linear fluid (dielectric constant: 78.4, screening length: 5.74355 Bohr) occupying 0.758674 of unit cell:	Completed after 0 iterations at t[s]:   3616.14
	FillingsUpdate:  mu: -0.220506090  nElectrons: 399.500000  magneticMoment: [ Abs: 0.00002  Tot: -0.00001 ]
	SubspaceRotationAdjust: set factor to 0.707
ElecMinimize: Iter:   6  F: -1269.820093929394261  |grad|_K:  3.299e-08  alpha:  5.366e-01  linmin:  7.142e-08  t[s]:   3654.81
	Linear fluid (dielectric constant: 78.4, screening length: 5.74355 Bohr) occupying 0.758672 of unit cell:	Completed after 0 iterations at t[s]:   3682.19
	Linear fluid (dielectric constant: 78.4, screening length: 5.74355 Bohr) occupying 0.758672 of unit cell:	Completed after 0 iterations at t[s]:   3711.33
	FillingsUpdate:  mu: -0.220502469  nElectrons: 399.500000  magneticMoment: [ Abs: 0.00001  Tot: -0.00001 ]
	SubspaceRotationAdjust: set factor to 0.8
ElecMinimize: Iter:   7  F: -1269.820094034101885  |grad|_K:  1.755e-08  alpha:  4.576e-01  linmin: -1.480e-05  t[s]:   3750.33
	Linear fluid (dielectric constant: 78.4, screening length: 5.74355 Bohr) occupying 0.758671 of unit cell:	Completed after 0 iterations at t[s]:   3777.72
	Linear fluid (dielectric constant: 78.4, screening length: 5.74355 Bohr) occupying 0.758670 of unit cell:	Completed after 0 iterations at t[s]:   3807.05
	FillingsUpdate:  mu: -0.220502238  nElectrons: 399.500000  magneticMoment: [ Abs: 0.00001  Tot: -0.00001 ]
	SubspaceRotationAdjust: set factor to 0.884
ElecMinimize: Iter:   8  F: -1269.820094074467534  |grad|_K:  1.106e-08  alpha:  5.623e-01  linmin:  7.903e-08  t[s]:   3845.94
	Linear fluid (dielectric constant: 78.4, screening length: 5.74355 Bohr) occupying 0.758669 of unit cell:	Completed after 0 iterations at t[s]:   3873.79
	Linear fluid (dielectric constant: 78.4, screening length: 5.74355 Bohr) occupying 0.758669 of unit cell:	Completed after 0 iterations at t[s]:   3902.93
	FillingsUpdate:  mu: -0.220502087  nElectrons: 399.500000  magneticMoment: [ Abs: 0.00001  Tot: -0.00001 ]
	SubspaceRotationAdjust: set factor to 0.97
ElecMinimize: Iter:   9  F: -1269.820094087965799  |grad|_K:  6.389e-09  alpha:  5.112e-01  linmin: -2.951e-07  t[s]:   3942.06
	Linear fluid (dielectric constant: 78.4, screening length: 5.74355 Bohr) occupying 0.758669 of unit cell:	Completed after 0 iterations at t[s]:   3969.74
	Linear fluid (dielectric constant: 78.4, screening length: 5.74355 Bohr) occupying 0.758669 of unit cell:	Completed after 0 iterations at t[s]:   3999.08
	FillingsUpdate:  mu: -0.220501969  nElectrons: 399.500000  magneticMoment: [ Abs: 0.00001  Tot: -0.00001 ]
	SubspaceRotationAdjust: set factor to 1.06
ElecMinimize: Iter:  10  F: -1269.820094093185844  |grad|_K:  3.814e-09  alpha:  5.956e-01  linmin:  8.720e-07  t[s]:   4038.21
	Linear fluid (dielectric constant: 78.4, screening length: 5.74355 Bohr) occupying 0.758669 of unit cell:	Completed after 0 iterations at t[s]:   4065.50
	Linear fluid (dielectric constant: 78.4, screening length: 5.74355 Bohr) occupying 0.758669 of unit cell:	Completed after 0 iterations at t[s]:   4094.96
	FillingsUpdate:  mu: -0.220501912  nElectrons: 399.500000  magneticMoment: [ Abs: 0.00000  Tot: -0.00000 ]
	SubspaceRotationAdjust: set factor to 1.16
ElecMinimize: Iter:  11  F: -1269.820094094900696  |grad|_K:  2.353e-09  alpha:  5.573e-01  linmin:  7.921e-07  t[s]:   4134.38
ElecMinimize: Converged (|Delta F|<1.000000e-08 for 2 iters).
Setting wave functions to eigenvectors of Hamiltonian
Single-point solvation energy estimate, DeltaF = +0.046941474736968

# Ionic positions in lattice coordinates:
ion Ta   0.166667780131944   0.083332222888888   0.499999991333335 1
ion Ta   0.416667780131944   0.083332222888888   0.499999991333335 1
ion Ta   0.666667780131944   0.083332222888888   0.499999991333335 1
ion Ta   0.916667780131944   0.083332222888888   0.499999991333335 1
ion Ta   0.166667780131944   0.333332222888888   0.499999991333335 1
ion Ta   0.416667780131944   0.333332222888888   0.499999991333335 1
ion Ta   0.666667780131944   0.333332222888888   0.499999991333335 1
ion Ta   0.916667780131944   0.333332222888888   0.499999991333335 1
ion Ta   0.166667780131944   0.583332222888888   0.499999991333335 1
ion Ta   0.416667780131944   0.583332222888888   0.499999991333335 1
ion Ta   0.666667780131944   0.583332222888888   0.499999991333335 1
ion Ta   0.916667780131944   0.583332222888888   0.499999991333335 1
ion Ta   0.166667780131944   0.833332222888888   0.499999991333335 1
ion Ta   0.416667780131944   0.833332222888888   0.499999991333335 1
ion Ta   0.666667780131944   0.833332222888888   0.499999991333335 1
ion Ta   0.916667780131944   0.833332222888888   0.499999991333335 1
ion S   0.000001113465278  -0.000001110444445   0.586319979333335 1
ion S   0.000001113465278  -0.000001110444445   0.413680003333335 1
ion S   0.250001113465278  -0.000001110444445   0.586319979333335 1
ion S   0.250001113465278  -0.000001110444445   0.413680003333335 1
ion S   0.500001113465278  -0.000001110444445   0.586319979333335 1
ion S   0.500001113465278  -0.000001110444445   0.413680003333335 1
ion S   0.750001113465278  -0.000001110444445   0.586319979333335 1
ion S   0.750001113465278  -0.000001110444445   0.413680003333335 1
ion S   0.000001113465278   0.249998889555555   0.586319979333335 1
ion S   0.000001113465278   0.249998889555555   0.413680003333335 1
ion S   0.250001113465278   0.249998889555555   0.586319979333335 1
ion S   0.250001113465278   0.249998889555555   0.413680003333335 1
ion S   0.500001113465278   0.249998889555555   0.586319979333335 1
ion S   0.500001113465278   0.249998889555555   0.413680003333335 1
ion S   0.750001113465278   0.249998889555555   0.586319979333335 1
ion S   0.750001113465278   0.249998889555555   0.413680003333335 1
ion S   0.000001113465278   0.499998889555555   0.586319979333335 1
ion S   0.000001113465278   0.499998889555555   0.413680003333335 1
ion S   0.250001113465278   0.499998889555555   0.586319979333335 1
ion S   0.250001113465278   0.499998889555555   0.413680003333335 1
ion S   0.500001113465278   0.499998889555555   0.586319979333335 1
ion S   0.500001113465278   0.499998889555555   0.413680003333335 1
ion S   0.750001113465278   0.499998889555555   0.586319979333335 1
ion S   0.750001113465278   0.499998889555555   0.413680003333335 1
ion S   0.000001113465278   0.749998889555555   0.586319979333335 1
ion S   0.000001113465278   0.749998889555555   0.413680003333335 1
ion S   0.250001113465278   0.749998889555555   0.586319979333335 1
ion S   0.250001113465278   0.749998889555555   0.413680003333335 1
ion S   0.500001113465278   0.749998889555555   0.586319979333335 1
ion S   0.500001113465278   0.749998889555555   0.413680003333335 1
ion S   0.750001113465278   0.749998889555555   0.586319979333335 1
ion S   0.750001113465278   0.749998889555555   0.413680003333335 1


# Forces in Lattice coordinates:
force Ta   0.000000000000000   0.000000000000000   0.000000000000000 1
force Ta  -0.000000000000000   0.000000000000000   0.000000000000000 1
force Ta  -0.000000000000000   0.000000000000000  -0.000000000000000 1
force Ta   0.000000000000000  -0.000000000000000  -0.000000000000000 1
force Ta  -0.000000000000000   0.000000000000000  -0.000000000000000 1
force Ta  -0.000000000000000  -0.000000000000000   0.000000000000000 1
force Ta  -0.000000000000000   0.000000000000000   0.000000000000000 1
force Ta  -0.000000000000000   0.000000000000000   0.000000000000000 1
force Ta  -0.000000000000000   0.000000000000000  -0.000000000000000 1
force Ta  -0.000000000000000   0.000000000000000   0.000000000000000 1
force Ta   0.000000000000000   0.000000000000000   0.000000000000000 1
force Ta  -0.000000000000000   0.000000000000000   0.000000000000000 1
force Ta   0.000000000000000   0.000000000000000  -0.000000000000000 1
force Ta  -0.000000000000000  -0.000000000000000   0.000000000000000 1
force Ta  -0.000000000000000  -0.000000000000000   0.000000000000000 1
force Ta   0.000000000000000   0.000000000000000   0.000000000000000 1
force S   0.000000000000000  -0.000000000000000   0.031512209200265 1
force S   0.000000000000000  -0.000000000000000  -0.031512209200380 1
force S  -0.000000000000000  -0.000000000000000   0.031512209200152 1
force S   0.000000000000000  -0.000000000000000  -0.031512209200153 1
force S  -0.000000000000000  -0.000000000000000   0.031512209200380 1
force S  -0.000000000000000  -0.000000000000000  -0.031512209200379 1
force S  -0.000000000000000   0.000000000000000   0.031512209200153 1
force S   0.000000000000000  -0.000000000000000  -0.031512209200153 1
force S  -0.000000000000000   0.000000000000000   0.031512209200265 1
force S   0.000000000000000   0.000000000000000  -0.031512209200265 1
force S   0.000000000000000  -0.000000000000000   0.031512209200151 1
force S   0.000000000000000   0.000000000000000  -0.031512209200151 1
force S  -0.000000000000000  -0.000000000000000   0.031512209200379 1
force S  -0.000000000000000   0.000000000000000  -0.031512209200379 1
force S   0.000000000000000   0.000000000000000   0.031512209200153 1
force S  -0.000000000000000   0.000000000000000  -0.031512209200493 1
force S  -0.000000000000000  -0.000000000000000   0.031512209200378 1
force S  -0.000000000000000  -0.000000000000000  -0.031512209200151 1
force S  -0.000000000000000   0.000000000000000   0.031512209200151 1
force S   0.000000000000000   0.000000000000000  -0.031512209200152 1
force S   0.000000000000000  -0.000000000000000   0.031512209200264 1
force S  -0.000000000000000   0.000000000000000  -0.031512209200152 1
force S  -0.000000000000000  -0.000000000000000   0.031512209200151 1
force S  -0.000000000000000  -0.000000000000000  -0.031512209200152 1
force S  -0.000000000000000  -0.000000000000000   0.031512209200265 1
force S   0.000000000000000  -0.000000000000000  -0.031512209200038 1
force S  -0.000000000000000  -0.000000000000000   0.031512209200265 1
force S   0.000000000000000   0.000000000000000  -0.031512209200379 1
force S  -0.000000000000000   0.000000000000000   0.031512209200380 1
force S  -0.000000000000000   0.000000000000000  -0.031512209200039 1
force S   0.000000000000000  -0.000000000000000   0.031512209200151 1
force S  -0.000000000000000  -0.000000000000000  -0.031512209200380 1

# Energy components:
   A_diel =        0.0414676609911980
   Eewald =     7269.5185627740620475
       EH =     8264.8581549685168284
     Eloc =   -16807.6557348157948582
      Enl =     -222.9936077764161837
      Exc =     -473.1136173989322629
 Exc_core =      252.5823485118696397
       KE =      447.0237482423045776
  MuShift =        0.0052767856220460
-------------------------------------
     Etot =    -1269.7334010477763968
       TS =        0.0866930471242866
-------------------------------------
        F =    -1269.8200940949006963

IonicMinimize: Iter:   0  F: -1269.820094094900696  |grad|_K:  4.336e-04  t[s]:   4154.72

#--- Lowdin population analysis ---
# oxidation-state Ta -0.384 -0.384 -0.384 -0.384 -0.384 -0.384 -0.384 -0.384 -0.384 -0.384 -0.384 -0.384 -0.384 -0.384 -0.384 -0.384
# magnetic-moments Ta -0.000 -0.000 -0.000 -0.000 -0.000 -0.000 -0.000 -0.000 -0.000 -0.000 -0.000 -0.000 -0.000 -0.000 -0.000 -0.000
# oxidation-state S +0.266 +0.266 +0.266 +0.266 +0.266 +0.266 +0.266 +0.266 +0.266 +0.266 +0.266 +0.266 +0.266 +0.266 +0.266 +0.266 +0.266 +0.266 +0.266 +0.266 +0.266 +0.266 +0.266 +0.266 +0.266 +0.266 +0.266 +0.266 +0.266 +0.266 +0.266 +0.266
# magnetic-moments S -0.000 -0.000 -0.000 -0.000 -0.000 -0.000 -0.000 -0.000 -0.000 -0.000 -0.000 -0.000 -0.000 -0.000 -0.000 -0.000 -0.000 -0.000 -0.000 -0.000 -0.000 -0.000 -0.000 -0.000 -0.000 -0.000 -0.000 -0.000 -0.000 -0.000 -0.000 -0.000

	Linear fluid (dielectric constant: 78.4, screening length: 5.74355 Bohr) occupying 0.758635 of unit cell:	Completed after 3 iterations at t[s]:   4184.06

-------- Electronic minimization -----------
	Linear fluid (dielectric constant: 78.4, screening length: 5.74355 Bohr) occupying 0.758635 of unit cell:	Completed after 0 iterations at t[s]:   4206.80
	FillingsUpdate:  mu: -0.220356024  nElectrons: 399.500000  magneticMoment: [ Abs: 0.00000  Tot: -0.00000 ]
ElecMinimize: Iter:   0  F: -1269.820108866809505  |grad|_K:  2.191e-07  alpha:  1.000e+00
	Linear fluid (dielectric constant: 78.4, screening length: 5.74355 Bohr) occupying 0.758635 of unit cell:	Completed after 6 iterations at t[s]:   4278.83
	Linear fluid (dielectric constant: 78.4, screening length: 5.74355 Bohr) occupying 0.758635 of unit cell:	Completed after 3 iterations at t[s]:   4310.10
	FillingsUpdate:  mu: -0.220703014  nElectrons: 399.500000  magneticMoment: [ Abs: 0.00000  Tot: -0.00000 ]
	SubspaceRotationAdjust: set factor to 0.719
ElecMinimize: Iter:   1  F: -1269.820112823914542  |grad|_K:  1.620e-07  alpha:  3.401e-01  linmin:  7.089e-05  t[s]:   4350.25
	Linear fluid (dielectric constant: 78.4, screening length: 5.74355 Bohr) occupying 0.758643 of unit cell:	Completed after 3 iterations at t[s]:   4378.43
	Linear fluid (dielectric constant: 78.4, screening length: 5.74355 Bohr) occupying 0.758644 of unit cell:	Completed after 0 iterations at t[s]:   4408.83
	FillingsUpdate:  mu: -0.220537926  nElectrons: 399.500000  magneticMoment: [ Abs: 0.00000  Tot: -0.00000 ]
	SubspaceRotationAdjust: set factor to 1.69
ElecMinimize: Iter:   2  F: -1269.820114893138680  |grad|_K:  3.281e-08  alpha:  3.631e-01  linmin: -7.986e-04  t[s]:   4447.93
	Linear fluid (dielectric constant: 78.4, screening length: 5.74355 Bohr) occupying 0.758645 of unit cell:	Completed after 0 iterations at t[s]:   4475.57
	Linear fluid (dielectric constant: 78.4, screening length: 5.74355 Bohr) occupying 0.758647 of unit cell:	Completed after 3 iterations at t[s]:   4504.89
ElecMinimize: 	Step increased F by 2.143247e-08, reducing alpha to 8.455721e-02.
	Linear fluid (dielectric constant: 78.4, screening length: 5.74355 Bohr) occupying 0.758644 of unit cell:	Completed after 1 iterations at t[s]:   4567.38
ElecMinimize: 	Step increased F by 8.238203e-08, reducing alpha to 8.455721e-03.
	Linear fluid (dielectric constant: 78.4, screening length: 5.74355 Bohr) occupying 0.758644 of unit cell:	Completed after 0 iterations at t[s]:   4629.03
ElecMinimize: 	Step increased F by 1.101860e-07, reducing alpha to 8.455721e-04.
ElecMinimize: 	Step failed to reduce F after 3 attempts. Quitting step.
ElecMinimize: 	Undoing step.
	Linear fluid (dielectric constant: 78.4, screening length: 5.74355 Bohr) occupying 0.758644 of unit cell:	Completed after 0 iterations at t[s]:   4690.39
ElecMinimize: 	Step failed: resetting search direction.
	FillingsUpdate:  mu: -0.220478330  nElectrons: 399.500000  magneticMoment: [ Abs: 0.00000  Tot: -0.00000 ]
	SubspaceRotationAdjust: set factor to 1.88
ElecMinimize: Iter:   3  F: -1269.820114782552082  |grad|_K:  3.299e-08  alpha:  8.456e-04
	Linear fluid (dielectric constant: 78.4, screening length: 5.74355 Bohr) occupying 0.758644 of unit cell:	Completed after 0 iterations at t[s]:   4757.10
	Linear fluid (dielectric constant: 78.4, screening length: 5.74355 Bohr) occupying 0.758643 of unit cell:	Completed after 1 iterations at t[s]:   4786.35
	FillingsUpdate:  mu: -0.220479168  nElectrons: 399.500000  magneticMoment: [ Abs: 0.00000  Tot: -0.00000 ]
	SubspaceRotationAdjust: set factor to 1.32
ElecMinimize: Iter:   4  F: -1269.820114903061722  |grad|_K:  2.028e-08  alpha:  6.903e-01  linmin:  4.142e-05  t[s]:   4826.05
	Linear fluid (dielectric constant: 78.4, screening length: 5.74355 Bohr) occupying 0.758644 of unit cell:	Completed after 0 iterations at t[s]:   4853.65
	Linear fluid (dielectric constant: 78.4, screening length: 5.74355 Bohr) occupying 0.758644 of unit cell:	Completed after 0 iterations at t[s]:   4882.41
	FillingsUpdate:  mu: -0.220480660  nElectrons: 399.500000  magneticMoment: [ Abs: 0.00000  Tot: -0.00000 ]
	SubspaceRotationAdjust: set factor to 1.99
ElecMinimize: Iter:   5  F: -1269.820114960641376  |grad|_K:  1.273e-08  alpha:  7.310e-01  linmin:  1.131e-07  t[s]:   4921.93
	Linear fluid (dielectric constant: 78.4, screening length: 5.74355 Bohr) occupying 0.758644 of unit cell:	Completed after 2 iterations at t[s]:   4949.67
	Linear fluid (dielectric constant: 78.4, screening length: 5.74355 Bohr) occupying 0.758644 of unit cell:	Completed after 0 iterations at t[s]:   4979.82
ElecMinimize: 	Step increased F by 2.442448e-08, reducing alpha to 7.716428e-03.
	Linear fluid (dielectric constant: 78.4, screening length: 5.74355 Bohr) occupying 0.758644 of unit cell:	Completed after 0 iterations at t[s]:   5041.18
ElecMinimize: 	Step increased F by 9.724090e-09, reducing alpha to 7.716428e-04.
	Linear fluid (dielectric constant: 78.4, screening length: 5.74355 Bohr) occupying 0.758644 of unit cell:	Completed after 0 iterations at t[s]:   5102.68
ElecMinimize: 	Step increased F by 8.223196e-09, reducing alpha to 7.716428e-05.
ElecMinimize: 	Step failed to reduce F after 3 attempts. Quitting step.
ElecMinimize: 	Undoing step.
	Linear fluid (dielectric constant: 78.4, screening length: 5.74355 Bohr) occupying 0.758644 of unit cell:	Completed after 0 iterations at t[s]:   5164.30
ElecMinimize: 	Step failed: resetting search direction.
	FillingsUpdate:  mu: -0.220421680  nElectrons: 399.500000  magneticMoment: [ Abs: 0.00000  Tot: -0.00000 ]
	SubspaceRotationAdjust: set factor to 1.08
ElecMinimize: Iter:   6  F: -1269.820114952450467  |grad|_K:  8.126e-08  alpha:  7.716e-05
	Linear fluid (dielectric constant: 78.4, screening length: 5.74355 Bohr) occupying 0.758639 of unit cell:	Completed after 2 iterations at t[s]:   5231.50
	Linear fluid (dielectric constant: 78.4, screening length: 5.74355 Bohr) occupying 0.758643 of unit cell:	Completed after 2 iterations at t[s]:   5261.58
ElecMinimize: 	Step increased F by 1.353624e-08, reducing alpha to 9.330784e-03.
	Linear fluid (dielectric constant: 78.4, screening length: 5.74355 Bohr) occupying 0.758644 of unit cell:	Completed after 2 iterations at t[s]:   5323.50
ElecMinimize: 	Step increased F by 1.629292e-08, reducing alpha to 9.330784e-04.
	Linear fluid (dielectric constant: 78.4, screening length: 5.74355 Bohr) occupying 0.758644 of unit cell:	Completed after 0 iterations at t[s]:   5385.57
ElecMinimize: 	Step increased F by 2.185607e-08, reducing alpha to 9.330784e-05.
ElecMinimize: 	Step failed to reduce F after 3 attempts. Quitting step.
ElecMinimize: 	Undoing step.
	Linear fluid (dielectric constant: 78.4, screening length: 5.74355 Bohr) occupying 0.758644 of unit cell:	Completed after 0 iterations at t[s]:   5447.17
ElecMinimize: 	Step failed along negative gradient direction.
ElecMinimize: Probably at roundoff error limit. (Stopping)
Setting wave functions to eigenvectors of Hamiltonian

# Ionic positions in lattice coordinates:
ion Ta   0.166667780131944   0.083332222888888   0.499999991333335 1
ion Ta   0.416667780131944   0.083332222888888   0.499999991333335 1
ion Ta   0.666667780131944   0.083332222888888   0.499999991333335 1
ion Ta   0.916667780131944   0.083332222888888   0.499999991333335 1
ion Ta   0.166667780131944   0.333332222888888   0.499999991333335 1
ion Ta   0.416667780131944   0.333332222888888   0.499999991333335 1
ion Ta   0.666667780131944   0.333332222888888   0.499999991333335 1
ion Ta   0.916667780131944   0.333332222888888   0.499999991333335 1
ion Ta   0.166667780131944   0.583332222888888   0.499999991333335 1
ion Ta   0.416667780131944   0.583332222888888   0.499999991333335 1
ion Ta   0.666667780131944   0.583332222888888   0.499999991333335 1
ion Ta   0.916667780131944   0.583332222888888   0.499999991333335 1
ion Ta   0.166667780131944   0.833332222888888   0.499999991333335 1
ion Ta   0.416667780131944   0.833332222888888   0.499999991333335 1
ion Ta   0.666667780131944   0.833332222888888   0.499999991333335 1
ion Ta   0.916667780131944   0.833332222888888   0.499999991333335 1
ion S   0.000001113465278  -0.000001110444445   0.586346824222290 1
ion S   0.000001113465278  -0.000001110444445   0.413653158444380 1
ion S   0.250001113465278  -0.000001110444445   0.586346824222290 1
ion S   0.250001113465278  -0.000001110444445   0.413653158444380 1
ion S   0.500001113465278  -0.000001110444445   0.586346824222290 1
ion S   0.500001113465278  -0.000001110444445   0.413653158444380 1
ion S   0.750001113465278  -0.000001110444445   0.586346824222290 1
ion S   0.750001113465278  -0.000001110444445   0.413653158444380 1
ion S   0.000001113465278   0.249998889555555   0.586346824222290 1
ion S   0.000001113465278   0.249998889555555   0.413653158444380 1
ion S   0.250001113465278   0.249998889555555   0.586346824222290 1
ion S   0.250001113465278   0.249998889555555   0.413653158444380 1
ion S   0.500001113465278   0.249998889555555   0.586346824222290 1
ion S   0.500001113465278   0.249998889555555   0.413653158444380 1
ion S   0.750001113465278   0.249998889555555   0.586346824222290 1
ion S   0.750001113465278   0.249998889555555   0.413653158444380 1
ion S   0.000001113465278   0.499998889555555   0.586346824222290 1
ion S   0.000001113465278   0.499998889555555   0.413653158444380 1
ion S   0.250001113465278   0.499998889555555   0.586346824222290 1
ion S   0.250001113465278   0.499998889555555   0.413653158444380 1
ion S   0.500001113465278   0.499998889555555   0.586346824222290 1
ion S   0.500001113465278   0.499998889555555   0.413653158444380 1
ion S   0.750001113465278   0.499998889555555   0.586346824222290 1
ion S   0.750001113465278   0.499998889555555   0.413653158444380 1
ion S   0.000001113465278   0.749998889555555   0.586346824222290 1
ion S   0.000001113465278   0.749998889555555   0.413653158444380 1
ion S   0.250001113465278   0.749998889555555   0.586346824222290 1
ion S   0.250001113465278   0.749998889555555   0.413653158444380 1
ion S   0.500001113465278   0.749998889555555   0.586346824222290 1
ion S   0.500001113465278   0.749998889555555   0.413653158444380 1
ion S   0.750001113465278   0.749998889555555   0.586346824222290 1
ion S   0.750001113465278   0.749998889555555   0.413653158444380 1


# Forces in Lattice coordinates:
force Ta   0.000000000000000   0.000000000000000  -0.000000000000000 1
force Ta   0.000000000000000  -0.000000000000000  -0.000000000000000 1
force Ta   0.000000000000000  -0.000000000000000   0.000000000000000 1
force Ta   0.000000000000000   0.000000000000000   0.000000000000000 1
force Ta   0.000000000000000   0.000000000000000   0.000000000000000 1
force Ta   0.000000000000000  -0.000000000000000   0.000000000000000 1
force Ta  -0.000000000000000   0.000000000000000   0.000000000000000 1
force Ta  -0.000000000000000   0.000000000000000   0.000000000000000 1
force Ta   0.000000000000000  -0.000000000000000   0.000000000000000 1
force Ta   0.000000000000000  -0.000000000000000  -0.000000000000000 1
force Ta   0.000000000000000  -0.000000000000000   0.000000000000000 1
force Ta  -0.000000000000000   0.000000000000000   0.000000000000000 1
force Ta   0.000000000000000  -0.000000000000000   0.000000000000000 1
force Ta  -0.000000000000000  -0.000000000000000  -0.000000000000000 1
force Ta  -0.000000000000000  -0.000000000000000  -0.000000000000000 1
force Ta  -0.000000000000000  -0.000000000000000   0.000000000000000 1
force S  -0.000000000000000   0.000000000000000   0.020818441029334 1
force S   0.000000000000000   0.000000000000000  -0.020818441029447 1
force S  -0.000000000000000  -0.000000000000000   0.020818441029220 1
force S  -0.000000000000000  -0.000000000000000  -0.020818441029447 1
force S  -0.000000000000000   0.000000000000000   0.020818441029449 1
force S   0.000000000000000  -0.000000000000000  -0.020818441029447 1
force S  -0.000000000000000   0.000000000000000   0.020818441029221 1
force S   0.000000000000000   0.000000000000000  -0.020818441029333 1
force S  -0.000000000000000   0.000000000000000   0.020818441029334 1
force S  -0.000000000000000   0.000000000000000  -0.020818441029334 1
force S  -0.000000000000000   0.000000000000000   0.020818441029334 1
force S   0.000000000000000  -0.000000000000000  -0.020818441029447 1
force S  -0.000000000000000   0.000000000000000   0.020818441029333 1
force S   0.000000000000000   0.000000000000000  -0.020818441029447 1
force S  -0.000000000000000   0.000000000000000   0.020818441029335 1
force S   0.000000000000000   0.000000000000000  -0.020818441029333 1
force S   0.000000000000000  -0.000000000000000   0.020818441029332 1
force S  -0.000000000000000  -0.000000000000000  -0.020818441029448 1
force S   0.000000000000000   0.000000000000000   0.020818441029446 1
force S  -0.000000000000000  -0.000000000000000  -0.020818441029220 1
force S  -0.000000000000000   0.000000000000000   0.020818441029332 1
force S   0.000000000000000  -0.000000000000000  -0.020818441029448 1
force S   0.000000000000000   0.000000000000000   0.020818441029220 1
force S  -0.000000000000000  -0.000000000000000  -0.020818441029334 1
force S  -0.000000000000000  -0.000000000000000   0.020818441029449 1
force S  -0.000000000000000   0.000000000000000  -0.020818441029335 1
force S  -0.000000000000000   0.000000000000000   0.020818441029449 1
force S   0.000000000000000  -0.000000000000000  -0.020818441029333 1
force S  -0.000000000000000  -0.000000000000000   0.020818441029449 1
force S   0.000000000000000   0.000000000000000  -0.020818441029448 1
force S  -0.000000000000000   0.000000000000000   0.020818441029449 1
force S   0.000000000000000   0.000000000000000  -0.020818441029334 1

# Energy components:
   A_diel =        0.0414751893644246
   Eewald =     7269.0088857184773588
       EH =     8264.3548410500789032
     Eloc =   -16806.6311813436877856
      Enl =     -222.9940717525209948
      Exc =     -473.1073367855030938
 Exc_core =      252.5823465384754343
       KE =      447.0063573695209698
  MuShift =        0.0052767856220460
-------------------------------------
     Etot =    -1269.7334072301721335
       TS =        0.0867077003048513
-------------------------------------
        F =    -1269.8201149304770752

IonicMinimize: Iter:   1  F: -1269.820114930477075  |grad|_K:  2.864e-04  alpha:  1.000e+00  linmin: -1.000e+00  t[s]:   5506.04

#--- Lowdin population analysis ---
# oxidation-state Ta -0.384 -0.384 -0.384 -0.384 -0.384 -0.384 -0.384 -0.384 -0.384 -0.384 -0.384 -0.384 -0.384 -0.384 -0.384 -0.384
# magnetic-moments Ta -0.000 -0.000 -0.000 -0.000 -0.000 -0.000 -0.000 -0.000 -0.000 -0.000 -0.000 -0.000 -0.000 -0.000 -0.000 -0.000
# oxidation-state S +0.266 +0.266 +0.266 +0.266 +0.266 +0.266 +0.266 +0.266 +0.266 +0.266 +0.266 +0.266 +0.266 +0.266 +0.266 +0.266 +0.266 +0.266 +0.266 +0.266 +0.266 +0.266 +0.266 +0.266 +0.266 +0.266 +0.266 +0.266 +0.266 +0.266 +0.266 +0.266
# magnetic-moments S +0.000 +0.000 +0.000 +0.000 +0.000 +0.000 +0.000 +0.000 +0.000 +0.000 +0.000 +0.000 +0.000 +0.000 +0.000 +0.000 +0.000 +0.000 +0.000 +0.000 +0.000 +0.000 +0.000 +0.000 +0.000 +0.000 +0.000 +0.000 +0.000 +0.000 +0.000 +0.000

	Linear fluid (dielectric constant: 78.4, screening length: 5.74355 Bohr) occupying 0.758579 of unit cell:	Completed after 6 iterations at t[s]:   5536.32

-------- Electronic minimization -----------
	Linear fluid (dielectric constant: 78.4, screening length: 5.74355 Bohr) occupying 0.758579 of unit cell:	Completed after 0 iterations at t[s]:   5560.40
	FillingsUpdate:  mu: -0.220234630  nElectrons: 399.500000  magneticMoment: [ Abs: 0.00001  Tot: -0.00000 ]
ElecMinimize: Iter:   0  F: -1269.820119134281640  |grad|_K:  4.150e-07  alpha:  1.000e+00
	Linear fluid (dielectric constant: 78.4, screening length: 5.74355 Bohr) occupying 0.758581 of unit cell:	Completed after 8 iterations at t[s]:   5632.14
	Linear fluid (dielectric constant: 78.4, screening length: 5.74355 Bohr) occupying 0.758579 of unit cell:	Completed after 7 iterations at t[s]:   5664.64
	FillingsUpdate:  mu: -0.220817410  nElectrons: 399.500000  magneticMoment: [ Abs: 0.00000  Tot: -0.00000 ]
	SubspaceRotationAdjust: set factor to 0.681
ElecMinimize: Iter:   1  F: -1269.820132090732386  |grad|_K:  3.065e-07  alpha:  3.483e-01  linmin:  7.165e-05  t[s]:   5705.25
	Linear fluid (dielectric constant: 78.4, screening length: 5.74355 Bohr) occupying 0.758593 of unit cell:	Completed after 3 iterations at t[s]:   5733.70
	Linear fluid (dielectric constant: 78.4, screening length: 5.74355 Bohr) occupying 0.758596 of unit cell:	Completed after 3 iterations at t[s]:   5763.93
	FillingsUpdate:  mu: -0.220491898  nElectrons: 399.500000  magneticMoment: [ Abs: 0.00000  Tot: -0.00000 ]
	SubspaceRotationAdjust: set factor to 0.541
ElecMinimize: Iter:   2  F: -1269.820140634724567  |grad|_K:  7.205e-08  alpha:  4.278e-01  linmin:  1.882e-04  t[s]:   5803.57
	Linear fluid (dielectric constant: 78.4, screening length: 5.74355 Bohr) occupying 0.758598 of unit cell:	Completed after 2 iterations at t[s]:   5831.42
	Linear fluid (dielectric constant: 78.4, screening length: 5.74355 Bohr) occupying 0.758598 of unit cell:	Completed after 0 iterations at t[s]:   5861.33
	FillingsUpdate:  mu: -0.220488089  nElectrons: 399.500000  magneticMoment: [ Abs: 0.00000  Tot: -0.00000 ]
	SubspaceRotationAdjust: set factor to 0.604
ElecMinimize: Iter:   3  F: -1269.820141231515890  |grad|_K:  2.683e-08  alpha:  5.153e-01  linmin: -3.618e-04  t[s]:   5900.43
	Linear fluid (dielectric constant: 78.4, screening length: 5.74355 Bohr) occupying 0.758599 of unit cell:	Completed after 0 iterations at t[s]:   5927.89
	Linear fluid (dielectric constant: 78.4, screening length: 5.74355 Bohr) occupying 0.758599 of unit cell:	Completed after 0 iterations at t[s]:   5957.31
	FillingsUpdate:  mu: -0.220488178  nElectrons: 399.500000  magneticMoment: [ Abs: 0.00000  Tot: -0.00000 ]
	SubspaceRotationAdjust: set factor to 0.647
ElecMinimize: Iter:   4  F: -1269.820141382385827  |grad|_K:  1.887e-08  alpha:  8.275e-01  linmin: -6.758e-08  t[s]:   5996.80
	Linear fluid (dielectric constant: 78.4, screening length: 5.74355 Bohr) occupying 0.758600 of unit cell:	Completed after 2 iterations at t[s]:   6025.03
	Linear fluid (dielectric constant: 78.4, screening length: 5.74355 Bohr) occupying 0.758599 of unit cell:	Completed after 0 iterations at t[s]:   6054.78
ElecMinimize: 	Step increased F by 4.315166e-08, reducing alpha to 2.174244e-02.
	Linear fluid (dielectric constant: 78.4, screening length: 5.74355 Bohr) occupying 0.758599 of unit cell:	Completed after 0 iterations at t[s]:   6115.64
ElecMinimize: 	Step increased F by 3.832133e-08, reducing alpha to 2.174244e-03.
	Linear fluid (dielectric constant: 78.4, screening length: 5.74355 Bohr) occupying 0.758599 of unit cell:	Completed after 0 iterations at t[s]:   6176.51
ElecMinimize: 	Step increased F by 5.374068e-08, reducing alpha to 2.174244e-04.
ElecMinimize: 	Step failed to reduce F after 3 attempts. Quitting step.
ElecMinimize: 	Undoing step.
	Linear fluid (dielectric constant: 78.4, screening length: 5.74355 Bohr) occupying 0.758599 of unit cell:	Completed after 0 iterations at t[s]:   6237.90
ElecMinimize: 	Step failed: resetting search direction.
	FillingsUpdate:  mu: -0.220425706  nElectrons: 399.500000  magneticMoment: [ Abs: 0.00000  Tot: -0.00000 ]
	SubspaceRotationAdjust: set factor to 0.59
ElecMinimize: Iter:   5  F: -1269.820141328638101  |grad|_K:  3.550e-08  alpha:  2.174e-04
	Linear fluid (dielectric constant: 78.4, screening length: 5.74355 Bohr) occupying 0.758597 of unit cell:	Completed after 2 iterations at t[s]:   6304.75
	Linear fluid (dielectric constant: 78.4, screening length: 5.74355 Bohr) occupying 0.758599 of unit cell:	Completed after 3 iterations at t[s]:   6334.64
	FillingsUpdate:  mu: -0.220468127  nElectrons: 399.500000  magneticMoment: [ Abs: 0.00000  Tot: -0.00000 ]
	SubspaceRotationAdjust: set factor to 0.305
ElecMinimize: Iter:   6  F: -1269.820141342534498  |grad|_K:  1.710e-08  alpha:  2.663e-01  linmin:  8.683e-05  t[s]:   6375.01
	Linear fluid (dielectric constant: 78.4, screening length: 5.74355 Bohr) occupying 0.758598 of unit cell:	Completed after 0 iterations at t[s]:   6403.02
ElecMinimize: 	Predicted alpha/alphaT>3.000000, increasing alphaT to 7.987618e-01.
	Linear fluid (dielectric constant: 78.4, screening length: 5.74355 Bohr) occupying 0.758598 of unit cell:	Completed after 0 iterations at t[s]:   6432.54
	Linear fluid (dielectric constant: 78.4, screening length: 5.74355 Bohr) occupying 0.758598 of unit cell:	Completed after 0 iterations at t[s]:   6462.29
	FillingsUpdate:  mu: -0.220468913  nElectrons: 399.500000  magneticMoment: [ Abs: 0.00000  Tot: -0.00000 ]
	SubspaceRotationAdjust: set factor to 0.455
ElecMinimize: Iter:   7  F: -1269.820141391488278  |grad|_K:  1.537e-08  alpha:  8.885e-01  linmin:  1.323e-07  t[s]:   6502.36
	Linear fluid (dielectric constant: 78.4, screening length: 5.74355 Bohr) occupying 0.758597 of unit cell:	Completed after 2 iterations at t[s]:   6530.91
	Linear fluid (dielectric constant: 78.4, screening length: 5.74355 Bohr) occupying 0.758597 of unit cell:	Completed after 0 iterations at t[s]:   6561.52
	FillingsUpdate:  mu: -0.220418781  nElectrons: 399.500000  magneticMoment: [ Abs: 0.00000  Tot: -0.00000 ]
	SubspaceRotationAdjust: set factor to 0.368
ElecMinimize: Iter:   8  F: -1269.820141394828397  |grad|_K:  3.603e-08  alpha:  1.623e-01  linmin:  8.271e-05  t[s]:   6601.11
ElecMinimize: 	Bad step direction: g.d > 0.
ElecMinimize: 	Undoing step.
	Linear fluid (dielectric constant: 78.4, screening length: 5.74355 Bohr) occupying 0.758597 of unit cell:	Completed after 0 iterations at t[s]:   6629.49
ElecMinimize: 	Step failed: resetting search direction.
	FillingsUpdate:  mu: -0.220418781  nElectrons: 399.500000  magneticMoment: [ Abs: 0.00000  Tot: -0.00000 ]
	SubspaceRotationAdjust: set factor to 0.324
ElecMinimize: Iter:   9  F: -1269.820141394822031  |grad|_K:  3.382e-08  alpha:  0.000e+00
	Linear fluid (dielectric constant: 78.4, screening length: 5.74355 Bohr) occupying 0.758597 of unit cell:	Completed after 0 iterations at t[s]:   6697.13
ElecMinimize: 	Predicted alpha/alphaT>3.000000, increasing alphaT to 4.870002e-01.
	Linear fluid (dielectric constant: 78.4, screening length: 5.74355 Bohr) occupying 0.758597 of unit cell:	Completed after 2 iterations at t[s]:   6726.84
	Linear fluid (dielectric constant: 78.4, screening length: 5.74355 Bohr) occupying 0.758597 of unit cell:	Completed after 0 iterations at t[s]:   6757.16
	FillingsUpdate:  mu: -0.220474408  nElectrons: 399.500000  magneticMoment: [ Abs: 0.00000  Tot: -0.00000 ]
	SubspaceRotationAdjust: set factor to 0.153
ElecMinimize: Iter:  10  F: -1269.820141406404218  |grad|_K:  1.706e-08  alpha:  1.971e-01  linmin:  3.785e-04  t[s]:   6797.35
	Linear fluid (dielectric constant: 78.4, screening length: 5.74355 Bohr) occupying 0.758597 of unit cell:	Completed after 0 iterations at t[s]:   6825.34
ElecMinimize: 	Predicted alpha/alphaT>3.000000, increasing alphaT to 5.912875e-01.
	Linear fluid (dielectric constant: 78.4, screening length: 5.74355 Bohr) occupying 0.758597 of unit cell:	Completed after 0 iterations at t[s]:   6854.62
	Linear fluid (dielectric constant: 78.4, screening length: 5.74355 Bohr) occupying 0.758597 of unit cell:	Completed after 0 iterations at t[s]:   6884.08
	FillingsUpdate:  mu: -0.220474593  nElectrons: 399.500000  magneticMoment: [ Abs: 0.00000  Tot: -0.00000 ]
	SubspaceRotationAdjust: set factor to 0.241
ElecMinimize: Iter:  11  F: -1269.820141444970432  |grad|_K:  1.648e-08  alpha:  9.865e-01  linmin: -2.668e-07  t[s]:   6924.01
	Linear fluid (dielectric constant: 78.4, screening length: 5.74355 Bohr) occupying 0.758597 of unit cell:	Completed after 2 iterations at t[s]:   6951.99
	Linear fluid (dielectric constant: 78.4, screening length: 5.74355 Bohr) occupying 0.758597 of unit cell:	Completed after 0 iterations at t[s]:   6982.00
ElecMinimize: 	Step increased F by 7.060089e-08, reducing alpha to 1.432074e-02.
	Linear fluid (dielectric constant: 78.4, screening length: 5.74355 Bohr) occupying 0.758597 of unit cell:	Completed after 0 iterations at t[s]:   7044.74
ElecMinimize: 	Step increased F by 4.410026e-08, reducing alpha to 1.432074e-03.
	Linear fluid (dielectric constant: 78.4, screening length: 5.74355 Bohr) occupying 0.758597 of unit cell:	Completed after 0 iterations at t[s]:   7106.81
ElecMinimize: 	Step increased F by 4.156186e-08, reducing alpha to 1.432074e-04.
ElecMinimize: 	Step failed to reduce F after 3 attempts. Quitting step.
ElecMinimize: 	Undoing step.
	Linear fluid (dielectric constant: 78.4, screening length: 5.74355 Bohr) occupying 0.758597 of unit cell:	Completed after 0 iterations at t[s]:   7169.34
ElecMinimize: 	Step failed: resetting search direction.
	FillingsUpdate:  mu: -0.220401412  nElectrons: 399.500000  magneticMoment: [ Abs: 0.00000  Tot: -0.00000 ]
	SubspaceRotationAdjust: set factor to 0.215
ElecMinimize: Iter:  12  F: -1269.820141403364232  |grad|_K:  3.590e-08  alpha:  1.432e-04
	Linear fluid (dielectric constant: 78.4, screening length: 5.74355 Bohr) occupying 0.758597 of unit cell:	Completed after 2 iterations at t[s]:   7236.81
	Linear fluid (dielectric constant: 78.4, screening length: 5.74355 Bohr) occupying 0.758597 of unit cell:	Completed after 2 iterations at t[s]:   7267.62
ElecMinimize: 	Step increased F by 1.117905e-08, reducing alpha to 3.080791e-02.
	Linear fluid (dielectric constant: 78.4, screening length: 5.74355 Bohr) occupying 0.758597 of unit cell:	Completed after 0 iterations at t[s]:   7331.11
ElecMinimize: 	Step increased F by 3.690047e-09, reducing alpha to 3.080791e-03.
	Linear fluid (dielectric constant: 78.4, screening length: 5.74355 Bohr) occupying 0.758597 of unit cell:	Completed after 0 iterations at t[s]:   7393.24
ElecMinimize: 	Step increased F by 3.981768e-09, reducing alpha to 3.080791e-04.
ElecMinimize: 	Step failed to reduce F after 3 attempts. Quitting step.
ElecMinimize: 	Undoing step.
	Linear fluid (dielectric constant: 78.4, screening length: 5.74355 Bohr) occupying 0.758597 of unit cell:	Completed after 0 iterations at t[s]:   7455.36
ElecMinimize: 	Step failed along negative gradient direction.
ElecMinimize: Probably at roundoff error limit. (Stopping)
Setting wave functions to eigenvectors of Hamiltonian

# Ionic positions in lattice coordinates:
ion Ta   0.166667780131944   0.083332222888888   0.499999991333335 1
ion Ta   0.416667780131944   0.083332222888888   0.499999991333335 1
ion Ta   0.666667780131944   0.083332222888888   0.499999991333335 1
ion Ta   0.916667780131944   0.083332222888888   0.499999991333335 1
ion Ta   0.166667780131944   0.333332222888888   0.499999991333335 1
ion Ta   0.416667780131944   0.333332222888888   0.499999991333335 1
ion Ta   0.666667780131944   0.333332222888888   0.499999991333335 1
ion Ta   0.916667780131944   0.333332222888888   0.499999991333335 1
ion Ta   0.166667780131944   0.583332222888888   0.499999991333335 1
ion Ta   0.416667780131944   0.583332222888888   0.499999991333335 1
ion Ta   0.666667780131944   0.583332222888888   0.499999991333335 1
ion Ta   0.916667780131944   0.583332222888888   0.499999991333335 1
ion Ta   0.166667780131944   0.833332222888888   0.499999991333335 1
ion Ta   0.416667780131944   0.833332222888888   0.499999991333335 1
ion Ta   0.666667780131944   0.833332222888888   0.499999991333335 1
ion Ta   0.916667780131944   0.833332222888888   0.499999991333335 1
ion S   0.000001113465278  -0.000001110444445   0.586399085383065 1
ion S   0.000001113465278  -0.000001110444445   0.413600897283605 1
ion S   0.250001113465278  -0.000001110444445   0.586399085383065 1
ion S   0.250001113465278  -0.000001110444445   0.413600897283605 1
ion S   0.500001113465278  -0.000001110444445   0.586399085383065 1
ion S   0.500001113465278  -0.000001110444445   0.413600897283605 1
ion S   0.750001113465278  -0.000001110444445   0.586399085383065 1
ion S   0.750001113465278  -0.000001110444445   0.413600897283605 1
ion S   0.000001113465278   0.249998889555555   0.586399085383065 1
ion S   0.000001113465278   0.249998889555555   0.413600897283605 1
ion S   0.250001113465278   0.249998889555555   0.586399085383065 1
ion S   0.250001113465278   0.249998889555555   0.413600897283605 1
ion S   0.500001113465278   0.249998889555555   0.586399085383065 1
ion S   0.500001113465278   0.249998889555555   0.413600897283605 1
ion S   0.750001113465278   0.249998889555555   0.586399085383065 1
ion S   0.750001113465278   0.249998889555555   0.413600897283605 1
ion S   0.000001113465278   0.499998889555555   0.586399085383065 1
ion S   0.000001113465278   0.499998889555555   0.413600897283605 1
ion S   0.250001113465278   0.499998889555555   0.586399085383065 1
ion S   0.250001113465278   0.499998889555555   0.413600897283605 1
ion S   0.500001113465278   0.499998889555555   0.586399085383065 1
ion S   0.500001113465278   0.499998889555555   0.413600897283605 1
ion S   0.750001113465278   0.499998889555555   0.586399085383065 1
ion S   0.750001113465278   0.499998889555555   0.413600897283605 1
ion S   0.000001113465278   0.749998889555555   0.586399085383065 1
ion S   0.000001113465278   0.749998889555555   0.413600897283605 1
ion S   0.250001113465278   0.749998889555555   0.586399085383065 1
ion S   0.250001113465278   0.749998889555555   0.413600897283605 1
ion S   0.500001113465278   0.749998889555555   0.586399085383065 1
ion S   0.500001113465278   0.749998889555555   0.413600897283605 1
ion S   0.750001113465278   0.749998889555555   0.586399085383065 1
ion S   0.750001113465278   0.749998889555555   0.413600897283605 1


# Forces in Lattice coordinates:
force Ta   0.000000000000000   0.000000000000000   0.000000000000000 1
force Ta  -0.000000000000000   0.000000000000000   0.000000000000000 1
force Ta   0.000000000000000   0.000000000000000   0.000000000000000 1
force Ta  -0.000000000000000   0.000000000000000   0.000000000000000 1
force Ta  -0.000000000000000  -0.000000000000000  -0.000000000000000 1
force Ta  -0.000000000000000  -0.000000000000000   0.000000000000000 1
force Ta   0.000000000000000  -0.000000000000000  -0.000000000000000 1
force Ta   0.000000000000000  -0.000000000000000  -0.000000000000000 1
force Ta   0.000000000000000  -0.000000000000000  -0.000000000000000 1
force Ta  -0.000000000000000   0.000000000000000   0.000000000000000 1
force Ta  -0.000000000000000   0.000000000000000  -0.000000000000000 1
force Ta   0.000000000000000   0.000000000000000  -0.000000000000000 1
force Ta  -0.000000000000000   0.000000000000000  -0.000000000000000 1
force Ta   0.000000000000000   0.000000000000000   0.000000000000000 1
force Ta   0.000000000000000   0.000000000000000   0.000000000000000 1
force Ta   0.000000000000000   0.000000000000000   0.000000000000000 1
force S   0.000000000000000   0.000000000000000   0.011784925778770 1
force S  -0.000000000000000   0.000000000000000  -0.011784925778771 1
force S   0.000000000000000  -0.000000000000000   0.011784925778883 1
force S   0.000000000000000  -0.000000000000000  -0.011784925778882 1
force S   0.000000000000000   0.000000000000000   0.011784925778657 1
force S  -0.000000000000000  -0.000000000000000  -0.011784925778883 1
force S  -0.000000000000000  -0.000000000000000   0.011784925778769 1
force S   0.000000000000000  -0.000000000000000  -0.011784925778883 1
force S  -0.000000000000000  -0.000000000000000   0.011784925778768 1
force S  -0.000000000000000   0.000000000000000  -0.011784925778882 1
force S   0.000000000000000   0.000000000000000   0.011784925778769 1
force S  -0.000000000000000   0.000000000000000  -0.011784925778882 1
force S   0.000000000000000  -0.000000000000000   0.011784925778883 1
force S  -0.000000000000000   0.000000000000000  -0.011784925778883 1
force S   0.000000000000000   0.000000000000000   0.011784925778768 1
force S   0.000000000000000   0.000000000000000  -0.011784925778883 1
force S  -0.000000000000000  -0.000000000000000   0.011784925778882 1
force S   0.000000000000000   0.000000000000000  -0.011784925778883 1
force S   0.000000000000000  -0.000000000000000   0.011784925778995 1
force S   0.000000000000000  -0.000000000000000  -0.011784925778995 1
force S  -0.000000000000000   0.000000000000000   0.011784925778883 1
force S  -0.000000000000000   0.000000000000000  -0.011784925778882 1
force S  -0.000000000000000  -0.000000000000000   0.011784925778881 1
force S   0.000000000000000   0.000000000000000  -0.011784925778882 1
force S   0.000000000000000   0.000000000000000   0.011784925778882 1
force S   0.000000000000000   0.000000000000000  -0.011784925778883 1
force S  -0.000000000000000  -0.000000000000000   0.011784925778882 1
force S   0.000000000000000   0.000000000000000  -0.011784925778998 1
force S  -0.000000000000000  -0.000000000000000   0.011784925778882 1
force S   0.000000000000000  -0.000000000000000  -0.011784925778882 1
force S   0.000000000000000   0.000000000000000   0.011784925778883 1
force S   0.000000000000000   0.000000000000000  -0.011784925778996 1

# Energy components:
   A_diel =        0.0414861620206641
   Eewald =     7268.0166249617122958
       EH =     8263.3810902774130227
     Eloc =   -16804.6474106775422115
      Enl =     -222.9918954823649528
      Exc =     -473.0960283254981391
 Exc_core =      252.5823427183382819
       KE =      446.9751055183476183
  MuShift =        0.0052767856220460
-------------------------------------
     Etot =    -1269.7334080619507404
       TS =        0.0867333374303710
-------------------------------------
        F =    -1269.8201413993811002

IonicMinimize: Iter:   2  F: -1269.820141399381100  |grad|_K:  1.621e-04  alpha:  1.000e+00  linmin: -1.000e+00  t[s]:   7515.64

#--- Lowdin population analysis ---
# oxidation-state Ta -0.384 -0.384 -0.384 -0.384 -0.384 -0.384 -0.384 -0.384 -0.384 -0.384 -0.384 -0.384 -0.384 -0.384 -0.384 -0.384
# magnetic-moments Ta -0.000 -0.000 -0.000 -0.000 -0.000 -0.000 -0.000 -0.000 -0.000 -0.000 -0.000 -0.000 -0.000 -0.000 -0.000 -0.000
# oxidation-state S +0.266 +0.266 +0.266 +0.266 +0.266 +0.266 +0.266 +0.266 +0.266 +0.266 +0.266 +0.266 +0.266 +0.266 +0.266 +0.266 +0.266 +0.266 +0.266 +0.266 +0.266 +0.266 +0.266 +0.266 +0.266 +0.266 +0.266 +0.266 +0.266 +0.266 +0.266 +0.266
# magnetic-moments S -0.000 -0.000 -0.000 -0.000 -0.000 -0.000 -0.000 -0.000 -0.000 -0.000 -0.000 -0.000 -0.000 -0.000 -0.000 -0.000 -0.000 -0.000 -0.000 -0.000 -0.000 -0.000 -0.000 -0.000 -0.000 -0.000 -0.000 -0.000 -0.000 -0.000 -0.000 -0.000

	Linear fluid (dielectric constant: 78.4, screening length: 5.74355 Bohr) occupying 0.758514 of unit cell:	Completed after 5 iterations at t[s]:   7545.65

-------- Electronic minimization -----------
	Linear fluid (dielectric constant: 78.4, screening length: 5.74355 Bohr) occupying 0.758514 of unit cell:	Completed after 0 iterations at t[s]:   7569.49
	FillingsUpdate:  mu: -0.220024590  nElectrons: 399.500000  magneticMoment: [ Abs: 0.00001  Tot: -0.00000 ]
ElecMinimize: Iter:   0  F: -1269.820106736387743  |grad|_K:  3.746e-07  alpha:  1.000e+00
	Linear fluid (dielectric constant: 78.4, screening length: 5.74355 Bohr) occupying 0.758517 of unit cell:	Completed after 5 iterations at t[s]:   7641.99
	Linear fluid (dielectric constant: 78.4, screening length: 5.74355 Bohr) occupying 0.758516 of unit cell:	Completed after 3 iterations at t[s]:   7673.22
	FillingsUpdate:  mu: -0.220560936  nElectrons: 399.500000  magneticMoment: [ Abs: 0.00002  Tot: -0.00000 ]
	SubspaceRotationAdjust: set factor to 0.249
ElecMinimize: Iter:   1  F: -1269.820129216084979  |grad|_K:  1.866e-07  alpha:  7.430e-01  linmin:  1.971e-05  t[s]:   7713.94
	Linear fluid (dielectric constant: 78.4, screening length: 5.74355 Bohr) occupying 0.758520 of unit cell:	Completed after 2 iterations at t[s]:   7742.25
	Linear fluid (dielectric constant: 78.4, screening length: 5.74355 Bohr) occupying 0.758523 of unit cell:	Completed after 0 iterations at t[s]:   7772.75
	FillingsUpdate:  mu: -0.220529065  nElectrons: 399.500000  magneticMoment: [ Abs: 0.00001  Tot: -0.00000 ]
	SubspaceRotationAdjust: set factor to 0.327
ElecMinimize: Iter:   2  F: -1269.820138026370159  |grad|_K:  1.887e-07  alpha:  1.162e+00  linmin: -7.136e-05  t[s]:   7812.77
	Linear fluid (dielectric constant: 78.4, screening length: 5.74355 Bohr) occupying 0.758534 of unit cell:	Completed after 2 iterations at t[s]:   7840.74
	Linear fluid (dielectric constant: 78.4, screening length: 5.74355 Bohr) occupying 0.758530 of unit cell:	Completed after 1 iterations at t[s]:   7870.63
	FillingsUpdate:  mu: -0.220423353  nElectrons: 399.500000  magneticMoment: [ Abs: 0.00001  Tot: -0.00000 ]
	SubspaceRotationAdjust: set factor to 0.4
ElecMinimize: Iter:   3  F: -1269.820143919976090  |grad|_K:  1.363e-07  alpha:  7.599e-01  linmin:  2.208e-06  t[s]:   7911.16
	Linear fluid (dielectric constant: 78.4, screening length: 5.74355 Bohr) occupying 0.758536 of unit cell:	Completed after 3 iterations at t[s]:   7939.52
[...]
	Linear fluid (dielectric constant: 78.4, screening length: 5.74355 Bohr) occupying 0.758538 of unit cell:	Completed after 0 iterations at t[s]:   8234.02
	Linear fluid (dielectric constant: 78.4, screening length: 5.74355 Bohr) occupying 0.758538 of unit cell:	Completed after 0 iterations at t[s]:   8264.07
	FillingsUpdate:  mu: -0.220392066  nElectrons: 399.500000  magneticMoment: [ Abs: 0.00000  Tot: -0.00000 ]
	SubspaceRotationAdjust: set factor to 0.582
ElecMinimize: Iter:   7  F: -1269.820147592306512  |grad|_K:  4.146e-08  alpha:  3.490e-01  linmin:  3.436e-08  t[s]:   8303.34
	Linear fluid (dielectric constant: 78.4, screening length: 5.74355 Bohr) occupying 0.758538 of unit cell:	Completed after 2 iterations at t[s]:   8331.29
	Linear fluid (dielectric constant: 78.4, screening length: 5.74355 Bohr) occupying 0.758538 of unit cell:	Completed after 0 iterations at t[s]:   8361.38
ElecMinimize: 	Step increased F by 1.486774e-08, reducing alpha to 9.987080e-03.
	Linear fluid (dielectric constant: 78.4, screening length: 5.74355 Bohr) occupying 0.758538 of unit cell:	Completed after 0 iterations at t[s]:   8423.61
	FillingsUpdate:  mu: -0.220468339  nElectrons: 399.500000  magneticMoment: [ Abs: 0.00000  Tot: -0.00000 ]
	SubspaceRotationAdjust: set factor to 0.453
ElecMinimize: Iter:   8  F: -1269.820147615977021  |grad|_K:  4.536e-08  alpha:  9.987e-03  linmin:  3.563e-05  t[s]:   8463.06
	Linear fluid (dielectric constant: 78.4, screening length: 5.74355 Bohr) occupying 0.758538 of unit cell:	Completed after 0 iterations at t[s]:   8490.84
ElecMinimize: 	Predicted alpha/alphaT>3.000000, increasing alphaT to 2.996124e-02.
	Linear fluid (dielectric constant: 78.4, screening length: 5.74355 Bohr) occupying 0.758538 of unit cell:	Completed after 0 iterations at t[s]:   8519.96
ElecMinimize: 	Predicted alpha/alphaT>3.000000, increasing alphaT to 8.988372e-02.
	Linear fluid (dielectric constant: 78.4, screening length: 5.74355 Bohr) occupying 0.758538 of unit cell:	Completed after 0 iterations at t[s]:   8549.66
	Linear fluid (dielectric constant: 78.4, screening length: 5.74355 Bohr) occupying 0.758538 of unit cell:	Completed after 0 iterations at t[s]:   8578.89
	FillingsUpdate:  mu: -0.220468293  nElectrons: 399.500000  magneticMoment: [ Abs: 0.00000  Tot: -0.00000 ]
	SubspaceRotationAdjust: set factor to 0.389
ElecMinimize: Iter:   9  F: -1269.820147643560404  |grad|_K:  3.674e-08  alpha:  1.168e-01  linmin: -2.228e-07  t[s]:   8617.86
	Linear fluid (dielectric constant: 78.4, screening length: 5.74355 Bohr) occupying 0.758538 of unit cell:	Completed after 0 iterations at t[s]:   8645.76
	Linear fluid (dielectric constant: 78.4, screening length: 5.74355 Bohr) occupying 0.758538 of unit cell:	Completed after 2 iterations at t[s]:   8676.73
ElecMinimize: 	Step increased F by 7.195695e-08, reducing alpha to 2.219991e-02.
	Linear fluid (dielectric constant: 78.4, screening length: 5.74355 Bohr) occupying 0.758538 of unit cell:	Completed after 0 iterations at t[s]:   8739.73
ElecMinimize: 	Step increased F by 5.638481e-08, reducing alpha to 2.219991e-03.
	Linear fluid (dielectric constant: 78.4, screening length: 5.74355 Bohr) occupying 0.758538 of unit cell:	Completed after 0 iterations at t[s]:   8801.56
ElecMinimize: 	Step increased F by 6.064261e-08, reducing alpha to 2.219991e-04.
ElecMinimize: 	Step failed to reduce F after 3 attempts. Quitting step.
ElecMinimize: 	Undoing step.
	Linear fluid (dielectric constant: 78.4, screening length: 5.74355 Bohr) occupying 0.758538 of unit cell:	Completed after 0 iterations at t[s]:   8863.64
ElecMinimize: 	Step failed: resetting search direction.
	FillingsUpdate:  mu: -0.220422355  nElectrons: 399.500000  magneticMoment: [ Abs: 0.00000  Tot: -0.00000 ]
	SubspaceRotationAdjust: set factor to 0.353
ElecMinimize: Iter:  10  F: -1269.820147582970776  |grad|_K:  1.897e-08  alpha:  2.220e-04
	Linear fluid (dielectric constant: 78.4, screening length: 5.74355 Bohr) occupying 0.758538 of unit cell:	Completed after 0 iterations at t[s]:   8931.66
ElecMinimize: 	Predicted alpha/alphaT>3.000000, increasing alphaT to 3.504740e-01.
	Linear fluid (dielectric constant: 78.4, screening length: 5.74355 Bohr) occupying 0.758538 of unit cell:	Completed after 0 iterations at t[s]:   8960.59
	Linear fluid (dielectric constant: 78.4, screening length: 5.74355 Bohr) occupying 0.758538 of unit cell:	Completed after 0 iterations at t[s]:   8989.76
	FillingsUpdate:  mu: -0.220422117  nElectrons: 399.500000  magneticMoment: [ Abs: 0.00000  Tot: -0.00000 ]
	SubspaceRotationAdjust: set factor to 0.436
ElecMinimize: Iter:  11  F: -1269.820147619784620  |grad|_K:  1.128e-08  alpha:  4.733e-01  linmin:  1.324e-07  t[s]:   9028.90
	Linear fluid (dielectric constant: 78.4, screening length: 5.74355 Bohr) occupying 0.758537 of unit cell:	Completed after 0 iterations at t[s]:   9057.36
	Linear fluid (dielectric constant: 78.4, screening length: 5.74355 Bohr) occupying 0.758537 of unit cell:	Completed after 0 iterations at t[s]:   9086.68
	FillingsUpdate:  mu: -0.220421660  nElectrons: 399.500000  magneticMoment: [ Abs: 0.00000  Tot: -0.00000 ]
	SubspaceRotationAdjust: set factor to 0.524
ElecMinimize: Iter:  12  F: -1269.820147641816448  |grad|_K:  8.540e-09  alpha:  7.974e-01  linmin: -2.742e-07  t[s]:   9126.18
	Linear fluid (dielectric constant: 78.4, screening length: 5.74355 Bohr) occupying 0.758536 of unit cell:	Completed after 0 iterations at t[s]:   9154.48
	Linear fluid (dielectric constant: 78.4, screening length: 5.74355 Bohr) occupying 0.758537 of unit cell:	Completed after 0 iterations at t[s]:   9183.94
	FillingsUpdate:  mu: -0.220421309  nElectrons: 399.500000  magneticMoment: [ Abs: 0.00000  Tot: -0.00000 ]
	SubspaceRotationAdjust: set factor to 0.631
ElecMinimize: Iter:  13  F: -1269.820147649956198  |grad|_K:  6.197e-09  alpha:  5.143e-01  linmin: -1.118e-07  t[s]:   9224.18
	Linear fluid (dielectric constant: 78.4, screening length: 5.74355 Bohr) occupying 0.758536 of unit cell:	Completed after 1 iterations at t[s]:   9252.24
	Linear fluid (dielectric constant: 78.4, screening length: 5.74355 Bohr) occupying 0.758537 of unit cell:	Completed after 0 iterations at t[s]:   9281.81
ElecMinimize: 	Step increased F by 4.500589e-08, reducing alpha to 3.467206e-03.
	Linear fluid (dielectric constant: 78.4, screening length: 5.74355 Bohr) occupying 0.758537 of unit cell:	Completed after 0 iterations at t[s]:   9345.00
ElecMinimize: 	Step increased F by 4.460344e-08, reducing alpha to 3.467206e-04.
	Linear fluid (dielectric constant: 78.4, screening length: 5.74355 Bohr) occupying 0.758537 of unit cell:	Completed after 0 iterations at t[s]:   9407.53
ElecMinimize: 	Step increased F by 4.456729e-08, reducing alpha to 3.467206e-05.
ElecMinimize: 	Step failed to reduce F after 3 attempts. Quitting step.
ElecMinimize: 	Undoing step.
	Linear fluid (dielectric constant: 78.4, screening length: 5.74355 Bohr) occupying 0.758537 of unit cell:	Completed after 0 iterations at t[s]:   9468.90
ElecMinimize: 	Step failed: resetting search direction.
	FillingsUpdate:  mu: -0.220438460  nElectrons: 399.500000  magneticMoment: [ Abs: 0.00000  Tot: -0.00000 ]
	SubspaceRotationAdjust: set factor to 0.445
ElecMinimize: Iter:  14  F: -1269.820147605295460  |grad|_K:  1.645e-08  alpha:  3.467e-05
	Linear fluid (dielectric constant: 78.4, screening length: 5.74355 Bohr) occupying 0.758537 of unit cell:	Completed after 0 iterations at t[s]:   9536.85
	Linear fluid (dielectric constant: 78.4, screening length: 5.74355 Bohr) occupying 0.758537 of unit cell:	Completed after 2 iterations at t[s]:   9566.51
ElecMinimize: 	Step increased F by 7.515223e-08, reducing alpha to 1.250872e-01.
	Linear fluid (dielectric constant: 78.4, screening length: 5.74355 Bohr) occupying 0.758537 of unit cell:	Completed after 2 iterations at t[s]:   9629.31
	FillingsUpdate:  mu: -0.220427453  nElectrons: 399.500000  magneticMoment: [ Abs: 0.00000  Tot: -0.00000 ]
	SubspaceRotationAdjust: set factor to 0.406
ElecMinimize: Iter:  15  F: -1269.820147629706980  |grad|_K:  7.633e-09  alpha:  1.251e-01  linmin: -1.779e-04  t[s]:   9669.83
	Linear fluid (dielectric constant: 78.4, screening length: 5.74355 Bohr) occupying 0.758537 of unit cell:	Completed after 0 iterations at t[s]:   9697.49
ElecMinimize: 	Predicted alpha/alphaT>3.000000, increasing alphaT to 3.752615e-01.
	Linear fluid (dielectric constant: 78.4, screening length: 5.74355 Bohr) occupying 0.758537 of unit cell:	Completed after 0 iterations at t[s]:   9726.68
	Linear fluid (dielectric constant: 78.4, screening length: 5.74355 Bohr) occupying 0.758537 of unit cell:	Completed after 0 iterations at t[s]:   9756.11
	FillingsUpdate:  mu: -0.220428206  nElectrons: 399.500000  magneticMoment: [ Abs: 0.00000  Tot: -0.00000 ]
	SubspaceRotationAdjust: set factor to 0.488
ElecMinimize: Iter:  16  F: -1269.820147646558098  |grad|_K:  1.014e-08  alpha:  8.760e-01  linmin: -1.131e-06  t[s]:   9795.60
	Linear fluid (dielectric constant: 78.4, screening length: 5.74355 Bohr) occupying 0.758536 of unit cell:	Completed after 3 iterations at t[s]:   9823.49
	Linear fluid (dielectric constant: 78.4, screening length: 5.74355 Bohr) occupying 0.758537 of unit cell:	Completed after 0 iterations at t[s]:   9853.85
	FillingsUpdate:  mu: -0.220364741  nElectrons: 399.500000  magneticMoment: [ Abs: 0.00000  Tot: -0.00000 ]
	SubspaceRotationAdjust: set factor to 0.344
ElecMinimize: Iter:  17  F: -1269.820147742989093  |grad|_K:  4.690e-08  alpha:  6.115e-02  linmin:  1.272e-04  t[s]:   9893.23
ElecMinimize: 	Bad step direction: g.d > 0.
ElecMinimize: 	Undoing step.
	Linear fluid (dielectric constant: 78.4, screening length: 5.74355 Bohr) occupying 0.758537 of unit cell:	Completed after 0 iterations at t[s]:   9921.24
ElecMinimize: 	Step failed: resetting search direction.
	FillingsUpdate:  mu: -0.220364741  nElectrons: 399.500000  magneticMoment: [ Abs: 0.00000  Tot: -0.00000 ]
	SubspaceRotationAdjust: set factor to 0.272
ElecMinimize: Iter:  18  F: -1269.820147742988638  |grad|_K:  4.172e-08  alpha:  0.000e+00
	Linear fluid (dielectric constant: 78.4, screening length: 5.74355 Bohr) occupying 0.758537 of unit cell:	Completed after 1 iterations at t[s]:   9988.83
	Linear fluid (dielectric constant: 78.4, screening length: 5.74355 Bohr) occupying 0.758537 of unit cell:	Completed after 0 iterations at t[s]:  10018.71
ElecMinimize: 	Step increased F by 1.096864e-07, reducing alpha to 9.650319e-04.
	Linear fluid (dielectric constant: 78.4, screening length: 5.74355 Bohr) occupying 0.758537 of unit cell:	Completed after 0 iterations at t[s]:  10079.59
ElecMinimize: 	Step increased F by 1.115125e-07, reducing alpha to 9.650319e-05.
	Linear fluid (dielectric constant: 78.4, screening length: 5.74355 Bohr) occupying 0.758537 of unit cell:	Completed after 0 iterations at t[s]:  10141.26
ElecMinimize: 	Step increased F by 1.116598e-07, reducing alpha to 9.650319e-06.
ElecMinimize: 	Step failed to reduce F after 3 attempts. Quitting step.
ElecMinimize: 	Undoing step.
	Linear fluid (dielectric constant: 78.4, screening length: 5.74355 Bohr) occupying 0.758537 of unit cell:	Completed after 0 iterations at t[s]:  10202.59
ElecMinimize: 	Step failed along negative gradient direction.
ElecMinimize: Probably at roundoff error limit. (Stopping)
Setting wave functions to eigenvectors of Hamiltonian

# Ionic positions in lattice coordinates:
ion Ta   0.166667780131944   0.083332222888888   0.499999991333335 1
ion Ta   0.416667780131944   0.083332222888888   0.499999991333335 1
ion Ta   0.666667780131944   0.083332222888888   0.499999991333335 1
ion Ta   0.916667780131944   0.083332222888888   0.499999991333335 1
ion Ta   0.166667780131944   0.333332222888888   0.499999991333335 1
ion Ta   0.416667780131944   0.333332222888888   0.499999991333335 1
ion Ta   0.666667780131944   0.333332222888888   0.499999991333335 1
ion Ta   0.916667780131944   0.333332222888888   0.499999991333335 1
ion Ta   0.166667780131944   0.583332222888888   0.499999991333335 1
ion Ta   0.416667780131944   0.583332222888888   0.499999991333335 1
ion Ta   0.666667780131944   0.583332222888888   0.499999991333335 1
ion Ta   0.916667780131944   0.583332222888888   0.499999991333335 1
ion Ta   0.166667780131944   0.833332222888888   0.499999991333335 1
ion Ta   0.416667780131944   0.833332222888888   0.499999991333335 1
ion Ta   0.666667780131944   0.833332222888888   0.499999991333335 1
ion Ta   0.916667780131944   0.833332222888888   0.499999991333335 1
ion S   0.000001113465278  -0.000001110444445   0.586467264146677 1
ion S   0.000001113465278  -0.000001110444445   0.413532718519993 1
ion S   0.250001113465278  -0.000001110444445   0.586467264146677 1
ion S   0.250001113465278  -0.000001110444445   0.413532718519993 1
ion S   0.500001113465278  -0.000001110444445   0.586467264146677 1
ion S   0.500001113465278  -0.000001110444445   0.413532718519993 1
ion S   0.750001113465278  -0.000001110444445   0.586467264146677 1
ion S   0.750001113465278  -0.000001110444445   0.413532718519993 1
ion S   0.000001113465278   0.249998889555555   0.586467264146677 1
ion S   0.000001113465278   0.249998889555555   0.413532718519993 1
ion S   0.250001113465278   0.249998889555555   0.586467264146677 1
ion S   0.250001113465278   0.249998889555555   0.413532718519993 1
ion S   0.500001113465278   0.249998889555555   0.586467264146677 1
ion S   0.500001113465278   0.249998889555555   0.413532718519993 1
ion S   0.750001113465278   0.249998889555555   0.586467264146677 1
ion S   0.750001113465278   0.249998889555555   0.413532718519993 1
ion S   0.000001113465278   0.499998889555555   0.586467264146677 1
ion S   0.000001113465278   0.499998889555555   0.413532718519993 1
ion S   0.250001113465278   0.499998889555555   0.586467264146677 1
ion S   0.250001113465278   0.499998889555555   0.413532718519993 1
ion S   0.500001113465278   0.499998889555555   0.586467264146677 1
ion S   0.500001113465278   0.499998889555555   0.413532718519993 1
ion S   0.750001113465278   0.499998889555555   0.586467264146677 1
ion S   0.750001113465278   0.499998889555555   0.413532718519993 1
ion S   0.000001113465278   0.749998889555555   0.586467264146677 1
ion S   0.000001113465278   0.749998889555555   0.413532718519993 1
ion S   0.250001113465278   0.749998889555555   0.586467264146677 1
ion S   0.250001113465278   0.749998889555555   0.413532718519993 1
ion S   0.500001113465278   0.749998889555555   0.586467264146677 1
ion S   0.500001113465278   0.749998889555555   0.413532718519993 1
ion S   0.750001113465278   0.749998889555555   0.586467264146677 1
ion S   0.750001113465278   0.749998889555555   0.413532718519993 1


# Forces in Lattice coordinates:
force Ta   0.000000000000000  -0.000000000000000   0.000000000000000 1
force Ta  -0.000000000000000  -0.000000000000000  -0.000000000000000 1
force Ta   0.000000000000000   0.000000000000000   0.000000000000000 1
force Ta   0.000000000000000  -0.000000000000000  -0.000000000000000 1
force Ta   0.000000000000000  -0.000000000000000  -0.000000000000000 1
force Ta   0.000000000000000  -0.000000000000000  -0.000000000000000 1
force Ta  -0.000000000000000   0.000000000000000  -0.000000000000000 1
force Ta  -0.000000000000000  -0.000000000000000   0.000000000000000 1
force Ta  -0.000000000000000  -0.000000000000000   0.000000000000000 1
force Ta   0.000000000000000  -0.000000000000000   0.000000000000000 1
force Ta  -0.000000000000000   0.000000000000000   0.000000000000000 1
force Ta  -0.000000000000000   0.000000000000000   0.000000000000000 1
force Ta   0.000000000000000  -0.000000000000000  -0.000000000000000 1
force Ta  -0.000000000000000  -0.000000000000000   0.000000000000000 1
force Ta  -0.000000000000000  -0.000000000000000  -0.000000000000000 1
force Ta  -0.000000000000000  -0.000000000000000   0.000000000000000 1
force S   0.000000000000000   0.000000000000000  -0.005782784105704 1
force S  -0.000000000000000  -0.000000000000000   0.005782784105590 1
force S   0.000000000000000  -0.000000000000000  -0.005782784105591 1
force S  -0.000000000000000   0.000000000000000   0.005782784105591 1
force S   0.000000000000000   0.000000000000000  -0.005782784105590 1
force S  -0.000000000000000  -0.000000000000000   0.005782784105590 1
force S   0.000000000000000   0.000000000000000  -0.005782784105704 1
force S  -0.000000000000000   0.000000000000000   0.005782784105590 1
force S   0.000000000000000  -0.000000000000000  -0.005782784105592 1
force S  -0.000000000000000   0.000000000000000   0.005782784105591 1
force S  -0.000000000000000   0.000000000000000  -0.005782784105591 1
force S  -0.000000000000000  -0.000000000000000   0.005782784105590 1
force S  -0.000000000000000  -0.000000000000000  -0.005782784105591 1
force S  -0.000000000000000  -0.000000000000000   0.005782784105591 1
force S  -0.000000000000000   0.000000000000000  -0.005782784105590 1
force S   0.000000000000000  -0.000000000000000   0.005782784105477 1
force S  -0.000000000000000   0.000000000000000  -0.005782784105592 1
force S   0.000000000000000  -0.000000000000000   0.005782784105591 1
force S   0.000000000000000   0.000000000000000  -0.005782784105592 1
force S   0.000000000000000   0.000000000000000   0.005782784105477 1
force S   0.000000000000000  -0.000000000000000  -0.005782784105591 1
force S  -0.000000000000000   0.000000000000000   0.005782784105591 1
force S  -0.000000000000000   0.000000000000000  -0.005782784105705 1
force S   0.000000000000000   0.000000000000000   0.005782784105477 1
force S  -0.000000000000000   0.000000000000000  -0.005782784105590 1
force S  -0.000000000000000   0.000000000000000   0.005782784105590 1
force S  -0.000000000000000   0.000000000000000  -0.005782784105591 1
force S   0.000000000000000   0.000000000000000   0.005782784105705 1
force S  -0.000000000000000   0.000000000000000  -0.005782784105704 1
force S  -0.000000000000000   0.000000000000000   0.005782784105705 1
force S   0.000000000000000   0.000000000000000  -0.005782784105590 1
force S   0.000000000000000   0.000000000000000   0.005782784105705 1

# Energy components:
   A_diel =        0.0415010997750710
   Eewald =     7266.7220832931070618
       EH =     8262.1070935892712441
     Eloc =   -16802.0559649793176504
      Enl =     -222.9880892274407529
      Exc =     -473.0811027044674120
 Exc_core =      252.5823377769735600
       KE =      446.9334853899190421
  MuShift =        0.0052767856220460
-------------------------------------
     Etot =    -1269.7333789765577876
       TS =        0.0867686547896643
-------------------------------------
        F =    -1269.8201476313474814

IonicMinimize: Iter:   3  F: -1269.820147631347481  |grad|_K:  7.957e-05  alpha:  1.000e+00  linmin:  1.000e+00  t[s]:  10262.06
IonicMinimize: Converged (|grad|_K<1.000000e-04).

#--- Lowdin population analysis ---
# oxidation-state Ta -0.383 -0.383 -0.383 -0.383 -0.383 -0.383 -0.383 -0.383 -0.383 -0.383 -0.383 -0.383 -0.383 -0.383 -0.383 -0.383
# magnetic-moments Ta -0.000 -0.000 -0.000 -0.000 -0.000 -0.000 -0.000 -0.000 -0.000 -0.000 -0.000 -0.000 -0.000 -0.000 -0.000 -0.000
# oxidation-state S +0.265 +0.265 +0.265 +0.265 +0.265 +0.265 +0.265 +0.265 +0.265 +0.265 +0.265 +0.265 +0.265 +0.265 +0.265 +0.265 +0.265 +0.265 +0.265 +0.265 +0.265 +0.265 +0.265 +0.265 +0.265 +0.265 +0.265 +0.265 +0.265 +0.265 +0.265 +0.265
# magnetic-moments S +0.000 +0.000 +0.000 +0.000 +0.000 +0.000 +0.000 +0.000 +0.000 +0.000 +0.000 +0.000 +0.000 +0.000 +0.000 +0.000 +0.000 +0.000 +0.000 +0.000 +0.000 +0.000 +0.000 +0.000 +0.000 +0.000 +0.000 +0.000 +0.000 +0.000 +0.000 +0.000


Dumping 'NbTe2.fillings' ... done
Dumping 'NbTe2.wfns' ... done
Dumping 'NbTe2.fluidState' ... done
Dumping 'NbTe2.ionpos' ... done
Dumping 'NbTe2.eigenvals' ... done
End date and time: Thu Jan  7 17:57:04 2021  (Duration: 0-2:51:13.94)
Done!
