
*************** JDFTx 1.5.0  ***************

Start date and time: Fri Jan 29 21:41:52 2021
Executable jdftx_gpu with command-line: -i Charged.in -o Charged.out
Running on hosts (process indices):  amax (0-6)
Divided in process groups (process indices):  0 (0)  1 (1)  2 (2)  3 (3)  4 (4)  5 (5)  6 (6)
gpuInit: Found compatible cuda device 0 'Tesla K80'
gpuInit: Found compatible cuda device 1 'Tesla K80'
gpuInit: Found compatible cuda device 2 'Tesla K80'
gpuInit: Found compatible cuda device 3 'Tesla K80'
gpuInit: Found compatible cuda device 4 'Tesla K80'
gpuInit: Found compatible cuda device 5 'Tesla K80'
gpuInit: Found compatible cuda device 6 'Tesla K80'
gpuInit: Selected device 0
Resource initialization completed at t[s]:      3.81
Run totals: 7 processes, 24 threads, 7 GPUs


Input parsed successfully to the following command list (including defaults):

basis kpoint-dependent
cache-projectors no
coords-type Lattice
core-overlap-check none
coulomb-interaction Slab 001
coulomb-truncation-embed 0.5 0.5 0.5
davidson-band-ratio 1.1
dump End State
dump-name NbTe2.$VAR
elec-cutoff 20
elec-eigen-algo Davidson
elec-ex-corr gga-PBE
elec-initial-charge 0.000000
elec-initial-magnetization 20.000000 no
elec-smearing Gauss 0.0073499
electronic-minimize  \
	dirUpdateScheme      FletcherReeves \
	linminMethod         DirUpdateRecommended \
	nIterations          200 \
	history              15 \
	knormThreshold       0 \
	energyDiffThreshold  1e-08 \
	nEnergyDiff          2 \
	alphaTstart          1 \
	alphaTmin            1e-10 \
	updateTestStepSize   yes \
	alphaTreduceFactor   0.1 \
	alphaTincreaseFactor 3 \
	nAlphaAdjustMax      3 \
	wolfeEnergy          0.0001 \
	wolfeGradient        0.9 \
	fdTest               no
exchange-regularization WignerSeitzTruncated
fluid LinearPCM 298.000000 1.013250
fluid-anion F- 1 MeanFieldLJ \
	epsBulk 1 \
	pMol 0 \
	epsInf 1 \
	Pvap 0 \
	sigmaBulk 0 \
	Rvdw 2.24877 \
	Res 0 \
	tauNuc 343133
fluid-cation Na+ 1 MeanFieldLJ \
	epsBulk 1 \
	pMol 0 \
	epsInf 1 \
	Pvap 0 \
	sigmaBulk 0 \
	Rvdw 2.19208 \
	Res 0 \
	tauNuc 343133
fluid-ex-corr lda-TF lda-PZ
fluid-gummel-loop 10 1.000000e-05
fluid-minimize  \
	dirUpdateScheme      PolakRibiere \
	linminMethod         DirUpdateRecommended \
	nIterations          400 \
	history              15 \
	knormThreshold       1e-11 \
	energyDiffThreshold  0 \
	nEnergyDiff          2 \
	alphaTstart          1 \
	alphaTmin            1e-10 \
	updateTestStepSize   yes \
	alphaTreduceFactor   0.1 \
	alphaTincreaseFactor 3 \
	nAlphaAdjustMax      6 \
	wolfeEnergy          0.0001 \
	wolfeGradient        0.9 \
	fdTest               no
fluid-solvent H2O 55.338 ScalarEOS \
	epsBulk 78.4 \
	pMol 0.92466 \
	epsInf 1.77 \
	Pvap 1.06736e-10 \
	sigmaBulk 4.62e-05 \
	Rvdw 2.61727 \
	Res 1.42 \
	tauNuc 343133 \
	poleEl 15 7 1
forces-output-coords Positions
initial-state NbTe2.$VAR
ion V   0.000000000000000   0.000000000000000   0.499999987026531 1
ion V   0.250000000000000   0.000000000000000   0.499999987026531 1
ion V   0.500000000000000   0.000000000000000   0.499999987026531 1
ion V   0.750000036000003   0.000000000000000   0.499999987026531 1
ion V   0.000000002000000   0.250000002999997   0.499999987026531 1
ion V   0.250000002000000   0.250000002999997   0.499999987026531 1
ion V   0.500000010999997   0.250000002999997   0.499999987026531 1
ion V   0.750000047000000   0.250000002999997   0.499999987026531 1
ion V   0.000000002999997   0.500000006000000   0.499999987026531 1
ion V   0.250000002999997   0.500000006000000   0.499999987026531 1
ion V   0.500000002999997   0.500000006000000   0.499999987026531 1
ion V   0.750000057000001   0.500000006000000   0.499999987026531 1
ion V   0.999999996000000   0.750000010000001   0.499999987026531 1
ion V   0.249999996000000   0.750000010000001   0.499999987026531 1
ion V   0.499999996000000   0.750000010000001   0.499999987026531 1
ion V   0.750000032000003   0.750000010000001   0.499999987026531 1
ion Se   0.166670001000000   0.083329999999997   0.587461122272677 1
ion Se   0.083329995000000   0.166669992000003   0.412538877727323 1
ion Se   0.416669992000003   0.083329999999997   0.587461122272677 1
ion Se   0.333329995000000   0.166669992000003   0.412538877727323 1
ion Se   0.666669992000003   0.083329999999997   0.587461122272677 1
ion Se   0.583329976999998   0.166669992000003   0.412538877727323 1
ion Se   0.916670027999999   0.083329999999997   0.587461122272677 1
ion Se   0.833330013000001   0.166669992000003   0.412538877727323 1
ion Se   0.166670007999997   0.333330013999998   0.587461122272677 1
ion Se   0.083330005999997   0.416669996000003   0.412538877727323 1
ion Se   0.416670007999997   0.333330013999998   0.587461122272677 1
ion Se   0.333330005999997   0.416669996000003   0.412538877727323 1
ion Se   0.666670007999997   0.333330013999998   0.587461122272677 1
ion Se   0.583329988000003   0.416669996000003   0.412538877727323 1
ion Se   0.916670044000000   0.333330013999998   0.587461122272677 1
ion Se   0.833330023999999   0.416669996000003   0.412538877727323 1
ion Se   0.166669998000003   0.583329976000002   0.587461122272677 1
ion Se   0.083330019000002   0.666670040000000   0.412538877727323 1
ion Se   0.416669998000003   0.583329976000002   0.587461122272677 1
ion Se   0.333330019000002   0.666670040000000   0.412538877727323 1
ion Se   0.666669998000003   0.583329976000002   0.587461122272677 1
ion Se   0.583329982999999   0.666670040000000   0.412538877727323 1
ion Se   0.916670033999999   0.583329976000002   0.587461122272677 1
ion Se   0.833330019000002   0.666670040000000   0.412538877727323 1
ion Se   0.166670029000002   0.833330019999998   0.587461122272677 1
ion Se   0.083329972999998   0.916670002000004   0.412538877727323 1
ion Se   0.416670029000002   0.833330019999998   0.587461122272677 1
ion Se   0.333329972999998   0.916670002000004   0.412538877727323 1
ion Se   0.666670029000002   0.833330019999998   0.587461122272677 1
ion Se   0.583329937000002   0.916670002000004   0.412538877727323 1
ion Se   0.916670064999998   0.833330019999998   0.587461122272677 1
ion Se   0.833329972999998   0.916670002000004   0.412538877727323 1
ion-species GBRV/$ID_pbe.uspp
ion-width Ecut
ionic-minimize  \
	dirUpdateScheme      L-BFGS \
	linminMethod         DirUpdateRecommended \
	nIterations          500 \
	history              15 \
	knormThreshold       0.0001 \
	energyDiffThreshold  1e-06 \
	nEnergyDiff          2 \
	alphaTstart          1 \
	alphaTmin            1e-10 \
	updateTestStepSize   yes \
	alphaTreduceFactor   0.1 \
	alphaTincreaseFactor 3 \
	nAlphaAdjustMax      3 \
	wolfeEnergy          0.0001 \
	wolfeGradient        0.9 \
	fdTest               no
kpoint   0.000000000000   0.000000000000   0.000000000000  1.00000000000000
kpoint-folding 4 4 1 
latt-move-scale 1 1 1
latt-scale 1.88973 1.88973 1.88973 
lattice Triclinic 13.253 13.2529 18.1801 90 90 120
lattice-minimize  \
	dirUpdateScheme      L-BFGS \
	linminMethod         DirUpdateRecommended \
	nIterations          0 \
	history              15 \
	knormThreshold       0 \
	energyDiffThreshold  1e-06 \
	nEnergyDiff          2 \
	alphaTstart          1 \
	alphaTmin            1e-10 \
	updateTestStepSize   yes \
	alphaTreduceFactor   0.1 \
	alphaTincreaseFactor 3 \
	nAlphaAdjustMax      3 \
	wolfeEnergy          0.0001 \
	wolfeGradient        0.9 \
	fdTest               no
lcao-params -1 1e-06 0.0073499
pcm-variant CANDLE
spintype z-spin
subspace-rotation-factor 1 yes
symmetries automatic
symmetry-threshold 0.0001



---------- Setting up symmetries ----------

Found 24 point-group symmetries of the bravais lattice
Found 192 space-group symmetries with basis
Applied RMS atom displacement 0.000118306 bohrs to make symmetries exact.

---------- Initializing the Grid ----------
R = 
[    25.0445   -12.5222          0  ]
[          0     21.689          0  ]
[          0          0    34.3554  ]
unit cell volume = 18661.6
G =
[    0.25088   0.144846         -0  ]
[          0   0.289694          0  ]
[          0         -0   0.182888  ]
Minimum fftbox size, Smin = [  104  104  140  ]
Chosen fftbox size, S = [  108  108  140  ]

---------- Exchange Correlation functional ----------
Initalized PBE GGA exchange.
Initalized PBE GGA correlation.

---------- Setting up pseudopotentials ----------
Width of ionic core gaussian charges (only for fluid interactions / plotting) set to 0.397384

Reading pseudopotential file '/home/guoxy/vasp/jdftx-1.5.0/build/pseudopotentials/GBRV/v_pbe.uspp':
  Title: V.  Created by USPP 7.3.6 on 31-3-15
  Reference state energy: -72.228583.  13 valence electrons in orbitals:
    |300>  occupation: 2  eigenvalue: -2.581040
    |310>  occupation: 6  eigenvalue: -1.618497
    |400>  occupation: 2  eigenvalue: -0.172800
    |320>  occupation: 3  eigenvalue: -0.189802
  lMax: 2  lLocal: 3  QijEcut: 6
  6 projectors sampled on a log grid with 593 points:
    l: 0  eig: -2.581041  rCut: 1.5
    l: 0  eig: -0.172801  rCut: 1.5
    l: 1  eig: -1.618497  rCut: 1.6
    l: 1  eig: 0.150000  rCut: 1.6
    l: 2  eig: -0.189802  rCut: 1.7
    l: 2  eig: 0.150000  rCut: 1.7
  Partial core density with radius 0.8
  Transforming core density to a uniform radial grid of dG=0.02 with 1504 points.
  Transforming local potential to a uniform radial grid of dG=0.02 with 1504 points.
  Transforming nonlocal projectors to a uniform radial grid of dG=0.02 with 432 points.
  Transforming density augmentations to a uniform radial grid of dG=0.02 with 1504 points.
  Transforming atomic orbitals to a uniform radial grid of dG=0.02 with 432 points.
  Core radius for overlap checks: 1.80 bohrs.

Reading pseudopotential file '/home/guoxy/vasp/jdftx-1.5.0/build/pseudopotentials/GBRV/se_pbe.uspp':
  Title: Se.  Created by USPP 7.3.6 on 14-9-2013
  Reference state energy: -21.672887.  6 valence electrons in orbitals:
    |400>  occupation: 2  eigenvalue: -0.635284
    |410>  occupation: 4  eigenvalue: -0.239295
  lMax: 2  lLocal: 3  QijEcut: 5
  6 projectors sampled on a log grid with 625 points:
    l: 0  eig: -0.635278  rCut: 1.5
    l: 0  eig: 0.500000  rCut: 1.5
    l: 1  eig: -0.239295  rCut: 1.5
    l: 1  eig: 0.500000  rCut: 1.5
    l: 2  eig: 0.000000  rCut: 1.8
    l: 2  eig: 1.000000  rCut: 1.8
  Partial core density with radius 1.2
  Transforming core density to a uniform radial grid of dG=0.02 with 1504 points.
  Transforming local potential to a uniform radial grid of dG=0.02 with 1504 points.
  Transforming nonlocal projectors to a uniform radial grid of dG=0.02 with 432 points.
  Transforming density augmentations to a uniform radial grid of dG=0.02 with 1504 points.
  Transforming atomic orbitals to a uniform radial grid of dG=0.02 with 432 points.
  Core radius for overlap checks: 1.80 bohrs.

Initialized 2 species with 48 total atoms.

Folded 1 k-points by 4x4x1 to 16 k-points.

---------- Setting up k-points, bands, fillings ----------
Adding inversion symmetry to k-mesh for non-inversion-symmetric unit cell.
Reduced to 4 k-points under symmetry. 
Computing the number of bands and number of electrons
Calculating initial fillings.
nElectrons: 400.000000   nBands: 288   nStates: 8

----- Setting up reduced wavefunction bases (one per k-point) -----
average nbasis = 79737.188 , ideal nbasis = 79723.758

---------- Setting up coulomb interaction ----------
Fluid mode embedding: using embedded box, but periodic Coulomb kernel.
(Fluid response is responsible for (approximate) separation between periodic images.)
Setting up double-sized grid for truncated Coulomb potentials:
R = 
[    25.0445   -12.5222          0  ]
[          0     21.689          0  ]
[          0          0    68.7109  ]
unit cell volume = 37323.2
G =
[    0.25088   0.144846         -0  ]
[          0   0.289694          0  ]
[          0         -0  0.0914439  ]
Chosen fftbox size, S = [  108  108  280  ]
Integer grid location selected as the embedding center:
   Grid: [  54  54  70  ]
   Lattice: [  0.5  0.5  0.5  ]
   Cartesian: [  6.26118  10.8445  17.1777  ]
Constructing Wigner-Seitz cell: 8 faces (6 quadrilaterals, 2 hexagons)
Range-separation parameter for embedded mesh potentials due to point charges: 0.624948 bohrs.

Initializing van der Waals corrections
	NOTE: vdW corrections apply only for interactions with fluid.
	 V:  C6:  187.33 Eh-a0^6  R0: 2.952 a0
	Se:  C6:  219.24 Eh-a0^6  R0: 3.347 a0

---------- Setting up ewald sum ----------
Optimum gaussian width for ewald sums = 6.993525 bohr.
Real space sum over 605 unit cells with max indices [  5  5  2  ]
Reciprocal space sum over 7425 terms with max indices [  7  7  16  ]

---------- Allocating electronic variables ----------
Initializing wave functions:  linear combination of atomic orbitals
V pseudo-atom occupations:   s ( 2 0 )  p ( 6 )  d ( 5 )
Se pseudo-atom occupations:   s ( 2 )  p ( 4 )
	FillingsUpdate:  mu: +3.580328221  nElectrons: 400.000000  magneticMoment: [ Abs: 1.02558  Tot: +1.02542 ]
LCAOMinimize: Iter:   0  F: -1204.8884229961470282  |grad|_K:  1.386e-02  alpha:  1.000e+00
LCAOMinimize: 	Wrong curvature in test step, increasing alphaT to 3.000000e+00.
	FillingsUpdate:  mu: -0.806628135  nElectrons: 400.000000  magneticMoment: [ Abs: 0.13240  Tot: +0.05873 ]
LCAOMinimize: Iter:   1  F: -1337.7586389983248409  |grad|_K:  3.666e-03  alpha: -1.421e+01  linmin:  2.294e-02  cgtest: -4.189e+00  t[s]:    125.78
LCAOMinimize: 	Bad step direction: g.d > 0.
LCAOMinimize: 	Undoing step.
LCAOMinimize: 	Step failed: resetting search direction.
	FillingsUpdate:  mu: -0.806628135  nElectrons: 400.000000  magneticMoment: [ Abs: 0.13240  Tot: +0.05873 ]
LCAOMinimize: Iter:   2  F: -1337.7586389983248409  |grad|_K:  3.666e-03  alpha:  0.000e+00
	FillingsUpdate:  mu: -0.806367756  nElectrons: 400.000000  magneticMoment: [ Abs: 0.13480  Tot: +0.06114 ]
LCAOMinimize: Iter:   3  F: -1338.0605955083385652  |grad|_K:  4.123e-03  alpha:  2.959e-02  linmin: -2.230e-02  cgtest:  8.623e-01  t[s]:    187.93
LCAOMinimize: 	Wrong curvature in test step, increasing alphaT to 8.878465e-02.
	FillingsUpdate:  mu: -0.805942892  nElectrons: 400.000000  magneticMoment: [ Abs: 0.13694  Tot: +0.06333 ]
LCAOMinimize: Iter:   4  F: -1338.6203104428279858  |grad|_K:  5.202e-03  alpha: -5.346e-02  linmin: -2.404e-02  cgtest:  7.613e-01  t[s]:    224.47
	FillingsUpdate:  mu: -0.789892440  nElectrons: 400.000000  magneticMoment: [ Abs: 0.10116  Tot: +0.02764 ]
LCAOMinimize: Iter:   5  F: -1373.7161461191071794  |grad|_K:  1.666e-02  alpha:  8.721e-02  linmin: -6.801e-02  cgtest:  2.454e-01  t[s]:    262.48
LCAOMinimize: 	Step increased F by 1.040589e+02, reducing alpha to 2.886696e-03.
	FillingsUpdate:  mu: -0.785219667  nElectrons: 400.000000  magneticMoment: [ Abs: 0.10165  Tot: +0.02823 ]
LCAOMinimize: Iter:   6  F: -1381.6331998292712342  |grad|_K:  1.003e-02  alpha:  2.887e-03  linmin: -7.626e-02  cgtest:  1.517e+00  t[s]:    323.72
LCAOMinimize: Encountered beta<0, resetting CG.
LCAOMinimize: 	Predicted alpha/alphaT>3.000000, increasing alphaT to 8.660088e-03.
LCAOMinimize: 	Predicted alpha/alphaT>3.000000, increasing alphaT to 2.598026e-02.
LCAOMinimize: 	Predicted alpha/alphaT>3.000000, increasing alphaT to 7.794079e-02.
	FillingsUpdate:  mu: -0.779143133  nElectrons: 400.000000  magneticMoment: [ Abs: 0.10666  Tot: +0.03326 ]
LCAOMinimize: Iter:   7  F: -1387.5090233579096548  |grad|_K:  6.720e-03  alpha:  1.275e-01  linmin: -1.222e-01  cgtest:  1.280e+00  t[s]:    385.37
LCAOMinimize: Encountered beta<0, resetting CG.
LCAOMinimize: 	Predicted alpha/alphaT>3.000000, increasing alphaT to 3.823893e-01.
LCAOMinimize: 	Wrong curvature in test step, increasing alphaT to 1.147168e+00.
	FillingsUpdate:  mu: -0.554321104  nElectrons: 400.000000  magneticMoment: [ Abs: 0.09174  Tot: +0.09137 ]
LCAOMinimize: Iter:   8  F: -1425.5428251192690823  |grad|_K:  1.216e-02  alpha: -8.328e-02  linmin: -1.752e-01  cgtest:  2.498e-01  t[s]:    433.43
LCAOMinimize: 	Step increased F by 2.416962e+02, reducing alpha to 3.714582e-02.
	FillingsUpdate:  mu: +0.720901254  nElectrons: 400.000000  magneticMoment: [ Abs: 0.12718  Tot: +0.11296 ]
LCAOMinimize: Iter:   9  F: -1433.7728400165854055  |grad|_K:  3.297e-02  alpha:  3.715e-02  linmin:  4.386e-01  cgtest: -2.725e-01  t[s]:    496.26
LCAOMinimize: 	Bad step direction: g.d > 0.
LCAOMinimize: 	Undoing step.
LCAOMinimize: 	Step failed: resetting search direction.
	FillingsUpdate:  mu: +0.720901254  nElectrons: 400.000000  magneticMoment: [ Abs: 0.12718  Tot: +0.11296 ]
LCAOMinimize: Iter:  10  F: -1433.7728400165854055  |grad|_K:  3.297e-02  alpha:  0.000e+00
	FillingsUpdate:  mu: +0.070088426  nElectrons: 400.000000  magneticMoment: [ Abs: 0.08518  Tot: +0.07316 ]
LCAOMinimize: Iter:  11  F: -1452.0899180735125356  |grad|_K:  5.777e-03  alpha:  4.842e-02  linmin: -4.511e-01  cgtest:  1.211e+00  t[s]:    558.05
LCAOMinimize: Encountered beta<0, resetting CG.
	FillingsUpdate:  mu: -0.132498358  nElectrons: 400.000000  magneticMoment: [ Abs: 0.07364  Tot: +0.06347 ]
LCAOMinimize: Iter:  12  F: -1452.9475023401419094  |grad|_K:  6.635e-04  alpha:  7.385e-02  linmin: -3.882e-01  cgtest:  9.679e-01  t[s]:    595.70
LCAOMinimize: Encountered beta<0, resetting CG.
	FillingsUpdate:  mu: -0.159124364  nElectrons: 400.000000  magneticMoment: [ Abs: 0.06731  Tot: +0.05818 ]
LCAOMinimize: Iter:  13  F: -1452.9635412300549433  |grad|_K:  3.011e-04  alpha:  1.084e-01  linmin: -1.753e-02  cgtest:  3.835e-02  t[s]:    632.28
LCAOMinimize: 	Predicted alpha/alphaT>3.000000, increasing alphaT to 3.251933e-01.
	FillingsUpdate:  mu: -0.141208930  nElectrons: 400.000000  magneticMoment: [ Abs: 0.02880  Tot: +0.02545 ]
LCAOMinimize: Iter:  14  F: -1452.9831892641420836  |grad|_K:  1.414e-04  alpha:  6.745e-01  linmin:  4.972e-02  cgtest: -4.773e-01  t[s]:    681.26
	FillingsUpdate:  mu: -0.145471758  nElectrons: 400.000000  magneticMoment: [ Abs: 0.02498  Tot: +0.02230 ]
LCAOMinimize: Iter:  15  F: -1452.9836406663443995  |grad|_K:  4.124e-05  alpha:  8.916e-02  linmin:  1.933e-02  cgtest:  6.293e-01  t[s]:    718.57
LCAOMinimize: Encountered beta<0, resetting CG.
LCAOMinimize: 	Predicted alpha/alphaT>3.000000, increasing alphaT to 2.674770e-01.
	FillingsUpdate:  mu: -0.148219313  nElectrons: 400.000000  magneticMoment: [ Abs: 0.02116  Tot: +0.01931 ]
LCAOMinimize: Iter:  16  F: -1452.9837964798957728  |grad|_K:  4.737e-05  alpha:  2.741e-01  linmin: -6.997e-04  cgtest:  1.460e-03  t[s]:    766.82
	FillingsUpdate:  mu: -0.147190802  nElectrons: 400.000000  magneticMoment: [ Abs: 0.01469  Tot: +0.01404 ]
LCAOMinimize: Iter:  17  F: -1452.9839700282082049  |grad|_K:  3.952e-06  alpha:  2.307e-01  linmin:  3.306e-03  cgtest: -1.706e-01  t[s]:    804.48
	FillingsUpdate:  mu: -0.147398852  nElectrons: 400.000000  magneticMoment: [ Abs: 0.01171  Tot: +0.01147 ]
LCAOMinimize: Iter:  18  F: -1452.9839728951153575  |grad|_K:  3.161e-06  alpha:  5.521e-01  linmin:  9.645e-05  cgtest:  5.806e-03  t[s]:    841.85
	FillingsUpdate:  mu: -0.147277156  nElectrons: 400.000000  magneticMoment: [ Abs: 0.01111  Tot: +0.01092 ]
LCAOMinimize: Iter:  19  F: -1452.9839732695897965  |grad|_K:  9.690e-07  alpha:  1.121e-01  linmin: -7.731e-04  cgtest:  2.576e-03  t[s]:    878.55
LCAOMinimize: 	Predicted alpha/alphaT>3.000000, increasing alphaT to 3.363601e-01.
	FillingsUpdate:  mu: -0.147284866  nElectrons: 400.000000  magneticMoment: [ Abs: 0.01028  Tot: +0.00977 ]
LCAOMinimize: Iter:  20  F: -1452.9839734589697855  |grad|_K:  4.479e-07  alpha:  6.030e-01  linmin: -2.862e-04  cgtest: -1.323e-03  t[s]:    928.36
LCAOMinimize: Converged (|Delta F|<1.000000e-06 for 2 iters).
----- createFluidSolver() ----- (Fluid-side solver setup)
   Initializing fluid molecule 'H2O'
     Initializing site 'O'
       Electron density: proportional to exp(-r/0.36935)*erfc((r-0.51523)/0.36823) with norm 6.826
       Charge density: gaussian nuclear width 0.478731 with net site charge 0.826
       Polarizability: cuspless exponential with width 0.32 and norm 3.73
       Hard sphere radius: 2.57003 bohrs
       Positions in reference frame:
         [ +0.000000 +0.000000 +0.000000 ]
     Initializing site 'H'
       Electron density: proportional to exp(-r/0.34641)*erfc((r-0)/0.390882) with norm 0.587
       Charge density: gaussian nuclear width 0.377945 with net site charge -0.413
       Polarizability: cuspless exponential with width 0.39 and norm 3.3
       Positions in reference frame:
         [ +0.000000 -1.441945 +1.122523 ]
         [ +0.000000 +1.441945 +1.122523 ]
     Net charge: 0   dipole magnitude: 0.927204
     Initializing spherical shell mfKernel with radius 2.61727 Bohr
     deltaS corrections:
       site 'O': -7.54299
       site 'H': -6.83917
   Initializing fluid molecule 'Na+'
     Initializing site 'Na'
       Electron density: proportional to exp(-r/0.19682)*erfc((r-0.71491)/0.41314) with norm 8.1383
       Charge density: gaussian nuclear width 0.365347 with net site charge -1
       Hard sphere radius: 1.86327 bohrs
       Positions in reference frame:
         [ +0.000000 +0.000000 +0.000000 ]
     Net charge: -1   dipole magnitude: 0
     Initializing gaussian mfKernel with width: 1.55004 Bohr
     deltaS corrections:
       site 'Na': -22.3555
   Initializing fluid molecule 'F-'
     Initializing site 'F'
       Electron density: proportional to exp(-r/0.38886)*erfc((r-0)/0.438782) with norm 8
       Charge density: gaussian nuclear width 0.374796 with net site charge 1
       Hard sphere radius: 2.39995 bohrs
       Positions in reference frame:
         [ +0.000000 +0.000000 +0.000000 ]
     Net charge: 1   dipole magnitude: 0
     Initializing gaussian mfKernel with width: 1.59012 Bohr
     deltaS corrections:
       site 'F': -9.04335

Correction to mu due to finite nuclear width = -0.0106336
   Cavity determined by nc: 0.00142 and sigma: 0.707107
   Nonlocal vdW cavity from gaussian model electron density with norm = 8 and sigma = 0.993594 bohr
   Charge asymmetry in cavity with sensitivity pCavity = 36.5 e-bohr/Eh
   Electrostatic cavity expanded by eta = 1.46 bohrs
   Weighted density cavitation model constrained by Nbulk: 0.0049383 bohr^-3, Pvap: 3.14029 kPa, Rvdw: 2.61727 bohr and sigmaBulk: 4.62e-05 Eh/bohr^2 at T: 298 K.
   Weighted density dispersion model using vdW pair potentials with single solvent site with sqrtC6eff: 0.77 SI.


---- Citations for features of the code used in this run ----

   Software package:
      R. Sundararaman, K. Letchworth-Weaver, K.A. Schwarz, D. Gunceler, Y. Ozhabes and T.A. Arias, 'JDFTx: software for joint density-functional theory', SoftwareX 6, 278 (2017)

   gga-PBE exchange-correlation functional:
      J.P. Perdew, K. Burke and M. Ernzerhof, Phys. Rev. Lett. 77, 3865 (1996)

   Pseudopotentials:
      KF Garrity, JW Bennett, KM Rabe and D Vanderbilt, Comput. Mater. Sci. 81, 446 (2014)

   Truncated Coulomb potentials:
      R. Sundararaman and T.A. Arias, Phys. Rev. B 87, 165122 (2013)

   Van der Waals correction pair-potentials:
      S. Grimme, J. Comput. Chem. 27, 1787 (2006)

   Charge-asymmetric nonlocally-determined local-electric (CANDLE) solvation model:
      R. Sundararaman and W.A. Goddard III, J. Chem. Phys. 142, 064107 (2015)

   Total energy minimization with Auxiliary Hamiltonian:
      C. Freysoldt, S. Boeck, and J. Neugebauer, Phys. Rev. B 79, 241103(R) (2009)

This list may not be complete. Please suggest additional citations or
report any other bugs at https://github.com/shankar1729/jdftx/issues

Initialization completed successfully at t[s]:    934.41

Fluid solver invoked on fresh (partially random / LCAO) wavefunctions
Running a vacuum solve first:

-------- Initial electronic minimization -----------
	FillingsUpdate:  mu: -0.147284866  nElectrons: 400.000000  magneticMoment: [ Abs: 0.01028  Tot: +0.00977 ]
ElecMinimize: Iter:   0  F: -1452.983973458982518  |grad|_K:  1.120e-04  alpha:  1.000e+00
	FillingsUpdate:  mu: -0.108277796  nElectrons: 400.000000  magneticMoment: [ Abs: 0.01084  Tot: +0.00958 ]
	SubspaceRotationAdjust: set factor to 1
ElecMinimize: Iter:   1  F: -1454.379271602087556  |grad|_K:  7.688e-05  alpha:  6.066e-01  linmin:  4.486e-07  t[s]:   1012.39
	FillingsUpdate:  mu: -0.010524600  nElectrons: 400.000000  magneticMoment: [ Abs: 0.01143  Tot: +0.00935 ]
	SubspaceRotationAdjust: set factor to 0.571
ElecMinimize: Iter:   2  F: -1454.801952941839318  |grad|_K:  9.043e-05  alpha:  3.821e-01  linmin: -1.697e-06  t[s]:   1060.64
	FillingsUpdate:  mu: -0.099444885  nElectrons: 400.000000  magneticMoment: [ Abs: 0.01186  Tot: +0.00929 ]
	SubspaceRotationAdjust: set factor to 0.275
ElecMinimize: Iter:   3  F: -1455.056269000219800  |grad|_K:  2.865e-05  alpha:  1.838e-01  linmin:  1.467e-05  t[s]:   1108.15
ElecMinimize: 	Predicted alpha/alphaT>3.000000, increasing alphaT to 5.513474e-01.
	FillingsUpdate:  mu: -0.096981224  nElectrons: 400.000000  magneticMoment: [ Abs: 0.01207  Tot: +0.00892 ]
	SubspaceRotationAdjust: set factor to 0.323
ElecMinimize: Iter:   4  F: -1455.175745891871202  |grad|_K:  1.497e-05  alpha:  8.255e-01  linmin:  1.323e-05  t[s]:   1171.57
	FillingsUpdate:  mu: -0.088160398  nElectrons: 400.000000  magneticMoment: [ Abs: 0.01204  Tot: +0.00872 ]
	SubspaceRotationAdjust: set factor to 0.312
ElecMinimize: Iter:   5  F: -1455.202111696704378  |grad|_K:  1.083e-05  alpha:  6.417e-01  linmin: -8.453e-08  t[s]:   1219.52
	FillingsUpdate:  mu: -0.098268111  nElectrons: 400.000000  magneticMoment: [ Abs: 0.01189  Tot: +0.00852 ]
	SubspaceRotationAdjust: set factor to 0.286
ElecMinimize: Iter:   6  F: -1455.212528745329791  |grad|_K:  6.613e-06  alpha:  4.826e-01  linmin:  5.723e-08  t[s]:   1267.90
	FillingsUpdate:  mu: -0.091574734  nElectrons: 400.000000  magneticMoment: [ Abs: 0.01171  Tot: +0.00831 ]
	SubspaceRotationAdjust: set factor to 0.273
ElecMinimize: Iter:   7  F: -1455.217235260582584  |grad|_K:  4.632e-06  alpha:  5.850e-01  linmin:  3.276e-07  t[s]:   1315.78
	FillingsUpdate:  mu: -0.095019417  nElectrons: 400.000000  magneticMoment: [ Abs: 0.01145  Tot: +0.00808 ]
	SubspaceRotationAdjust: set factor to 0.294
ElecMinimize: Iter:   8  F: -1455.219729759460279  |grad|_K:  2.890e-06  alpha:  6.327e-01  linmin:  8.208e-08  t[s]:   1365.07
	FillingsUpdate:  mu: -0.094421432  nElectrons: 400.000000  magneticMoment: [ Abs: 0.01123  Tot: +0.00789 ]
	SubspaceRotationAdjust: set factor to 0.329
ElecMinimize: Iter:   9  F: -1455.220657935020881  |grad|_K:  2.059e-06  alpha:  6.041e-01  linmin:  1.030e-07  t[s]:   1412.75
	FillingsUpdate:  mu: -0.094881510  nElectrons: 400.000000  magneticMoment: [ Abs: 0.01099  Tot: +0.00769 ]
	SubspaceRotationAdjust: set factor to 0.364
ElecMinimize: Iter:  10  F: -1455.221112572896118  |grad|_K:  1.450e-06  alpha:  5.832e-01  linmin:  1.558e-07  t[s]:   1461.33
	FillingsUpdate:  mu: -0.094670098  nElectrons: 400.000000  magneticMoment: [ Abs: 0.01071  Tot: +0.00746 ]
	SubspaceRotationAdjust: set factor to 0.393
ElecMinimize: Iter:  11  F: -1455.221361012716898  |grad|_K:  9.193e-07  alpha:  6.432e-01  linmin:  4.299e-07  t[s]:   1509.89
	FillingsUpdate:  mu: -0.094359346  nElectrons: 400.000000  magneticMoment: [ Abs: 0.01042  Tot: +0.00723 ]
	SubspaceRotationAdjust: set factor to 0.405
ElecMinimize: Iter:  12  F: -1455.221466089699788  |grad|_K:  6.645e-07  alpha:  6.771e-01  linmin:  5.249e-07  t[s]:   1557.83
	FillingsUpdate:  mu: -0.095228317  nElectrons: 400.000000  magneticMoment: [ Abs: 0.01015  Tot: +0.00703 ]
	SubspaceRotationAdjust: set factor to 0.321
ElecMinimize: Iter:  13  F: -1455.221508832190921  |grad|_K:  5.414e-07  alpha:  5.264e-01  linmin:  4.745e-07  t[s]:   1606.79
	FillingsUpdate:  mu: -0.094626397  nElectrons: 400.000000  magneticMoment: [ Abs: 0.00986  Tot: +0.00682 ]
	SubspaceRotationAdjust: set factor to 0.257
ElecMinimize: Iter:  14  F: -1455.221534393218462  |grad|_K:  3.906e-07  alpha:  4.742e-01  linmin:  3.625e-07  t[s]:   1654.70
	FillingsUpdate:  mu: -0.094758541  nElectrons: 400.000000  magneticMoment: [ Abs: 0.00949  Tot: +0.00655 ]
	SubspaceRotationAdjust: set factor to 0.284
ElecMinimize: Iter:  15  F: -1455.221554123388614  |grad|_K:  3.115e-07  alpha:  7.032e-01  linmin:  5.385e-07  t[s]:   1703.82
	FillingsUpdate:  mu: -0.094897183  nElectrons: 400.000000  magneticMoment: [ Abs: 0.00913  Tot: +0.00630 ]
	SubspaceRotationAdjust: set factor to 0.296
ElecMinimize: Iter:  16  F: -1455.221566454528329  |grad|_K:  2.666e-07  alpha:  6.917e-01  linmin:  8.438e-08  t[s]:   1751.57
	FillingsUpdate:  mu: -0.094730204  nElectrons: 400.000000  magneticMoment: [ Abs: 0.00875  Tot: +0.00604 ]
	SubspaceRotationAdjust: set factor to 0.304
ElecMinimize: Iter:  17  F: -1455.221575387414759  |grad|_K:  2.321e-07  alpha:  6.832e-01  linmin:  3.464e-08  t[s]:   1800.24
	FillingsUpdate:  mu: -0.094896698  nElectrons: 400.000000  magneticMoment: [ Abs: 0.00837  Tot: +0.00578 ]
	SubspaceRotationAdjust: set factor to 0.298
ElecMinimize: Iter:  18  F: -1455.221581597761769  |grad|_K:  1.840e-07  alpha:  6.266e-01  linmin:  7.517e-08  t[s]:   1848.17
	FillingsUpdate:  mu: -0.094746639  nElectrons: 400.000000  magneticMoment: [ Abs: 0.00803  Tot: +0.00554 ]
	SubspaceRotationAdjust: set factor to 0.292
ElecMinimize: Iter:  19  F: -1455.221585488595792  |grad|_K:  1.369e-07  alpha:  6.248e-01  linmin:  1.383e-07  t[s]:   1896.18
	FillingsUpdate:  mu: -0.094794836  nElectrons: 400.000000  magneticMoment: [ Abs: 0.00774  Tot: +0.00534 ]
	SubspaceRotationAdjust: set factor to 0.307
ElecMinimize: Iter:  20  F: -1455.221587600187377  |grad|_K:  1.007e-07  alpha:  6.122e-01  linmin:  3.143e-07  t[s]:   1944.93
	FillingsUpdate:  mu: -0.094824675  nElectrons: 400.000000  magneticMoment: [ Abs: 0.00749  Tot: +0.00518 ]
	SubspaceRotationAdjust: set factor to 0.331
ElecMinimize: Iter:  21  F: -1455.221588696925437  |grad|_K:  7.160e-08  alpha:  5.876e-01  linmin:  2.317e-07  t[s]:   1993.06
	FillingsUpdate:  mu: -0.094758629  nElectrons: 400.000000  magneticMoment: [ Abs: 0.00728  Tot: +0.00503 ]
	SubspaceRotationAdjust: set factor to 0.32
ElecMinimize: Iter:  22  F: -1455.221589246632220  |grad|_K:  5.005e-08  alpha:  5.827e-01  linmin:  5.819e-08  t[s]:   2042.50
	FillingsUpdate:  mu: -0.094796632  nElectrons: 400.000000  magneticMoment: [ Abs: 0.00709  Tot: +0.00490 ]
	SubspaceRotationAdjust: set factor to 0.311
ElecMinimize: Iter:  23  F: -1455.221589497494278  |grad|_K:  3.682e-08  alpha:  5.442e-01  linmin:  2.112e-08  t[s]:   2090.24
	FillingsUpdate:  mu: -0.094772510  nElectrons: 400.000000  magneticMoment: [ Abs: 0.00691  Tot: +0.00477 ]
	SubspaceRotationAdjust: set factor to 0.322
ElecMinimize: Iter:  24  F: -1455.221589629741857  |grad|_K:  2.404e-08  alpha:  5.300e-01  linmin: -8.468e-09  t[s]:   2139.12
	FillingsUpdate:  mu: -0.094778988  nElectrons: 400.000000  magneticMoment: [ Abs: 0.00673  Tot: +0.00465 ]
	SubspaceRotationAdjust: set factor to 0.356
ElecMinimize: Iter:  25  F: -1455.221589693008355  |grad|_K:  1.652e-08  alpha:  5.947e-01  linmin: -1.235e-07  t[s]:   2187.24
	FillingsUpdate:  mu: -0.094784084  nElectrons: 400.000000  magneticMoment: [ Abs: 0.00655  Tot: +0.00453 ]
	SubspaceRotationAdjust: set factor to 0.386
ElecMinimize: Iter:  26  F: -1455.221589723961415  |grad|_K:  1.174e-08  alpha:  6.171e-01  linmin:  1.998e-07  t[s]:   2235.47
	FillingsUpdate:  mu: -0.094772859  nElectrons: 400.000000  magneticMoment: [ Abs: 0.00638  Tot: +0.00441 ]
	SubspaceRotationAdjust: set factor to 0.347
ElecMinimize: Iter:  27  F: -1455.221589737893737  |grad|_K:  9.491e-09  alpha:  5.504e-01  linmin:  5.120e-07  t[s]:   2283.76
	FillingsUpdate:  mu: -0.094784217  nElectrons: 400.000000  magneticMoment: [ Abs: 0.00620  Tot: +0.00429 ]
	SubspaceRotationAdjust: set factor to 0.288
ElecMinimize: Iter:  28  F: -1455.221589746044401  |grad|_K:  6.829e-09  alpha:  4.938e-01  linmin:  2.250e-07  t[s]:   2331.54
	FillingsUpdate:  mu: -0.094781023  nElectrons: 400.000000  magneticMoment: [ Abs: 0.00600  Tot: +0.00414 ]
	SubspaceRotationAdjust: set factor to 0.297
ElecMinimize: Iter:  29  F: -1455.221589751154170  |grad|_K:  5.098e-09  alpha:  5.999e-01  linmin: -6.044e-07  t[s]:   2380.73
ElecMinimize: Converged (|Delta F|<1.000000e-08 for 2 iters).
Setting wave functions to eigenvectors of Hamiltonian
Vacuum energy after initial minimize, F = -1455.221589751154170

	Linear fluid (dielectric constant: 78.4, screening length: 5.74355 Bohr) occupying 0.749327 of unit cell:	Completed after 16 iterations at t[s]:   2394.27

-------- Electronic minimization -----------
	Linear fluid (dielectric constant: 78.4, screening length: 5.74355 Bohr) occupying 0.749327 of unit cell:	Completed after 0 iterations at t[s]:   2410.42
	FillingsUpdate:  mu: -0.177086282  nElectrons: 400.000000  magneticMoment: [ Abs: 0.00562  Tot: +0.00386 ]
ElecMinimize: Iter:   0  F: -1455.210622720601350  |grad|_K:  6.772e-07  alpha:  1.000e+00
	Linear fluid (dielectric constant: 78.4, screening length: 5.74355 Bohr) occupying 0.749634 of unit cell:	Completed after 8 iterations at t[s]:   2449.85
	Linear fluid (dielectric constant: 78.4, screening length: 5.74355 Bohr) occupying 0.749838 of unit cell:	Completed after 7 iterations at t[s]:   2470.93
	FillingsUpdate:  mu: -0.175339961  nElectrons: 400.000000  magneticMoment: [ Abs: 0.00540  Tot: +0.00373 ]
	SubspaceRotationAdjust: set factor to 0.296
ElecMinimize: Iter:   1  F: -1455.210764677038696  |grad|_K:  4.695e-07  alpha:  1.677e+00  linmin: -1.534e-06  t[s]:   2495.32
	Linear fluid (dielectric constant: 78.4, screening length: 5.74355 Bohr) occupying 0.750094 of unit cell:	Completed after 6 iterations at t[s]:   2509.67
	Linear fluid (dielectric constant: 78.4, screening length: 5.74355 Bohr) occupying 0.749905 of unit cell:	Completed after 5 iterations at t[s]:   2529.90
	FillingsUpdate:  mu: -0.176054807  nElectrons: 400.000000  magneticMoment: [ Abs: 0.00533  Tot: +0.00368 ]
	SubspaceRotationAdjust: set factor to 0.211
ElecMinimize: Iter:   2  F: -1455.210782061753662  |grad|_K:  3.282e-07  alpha:  4.373e-01  linmin:  1.300e-06  t[s]:   2553.30
	Linear fluid (dielectric constant: 78.4, screening length: 5.74355 Bohr) occupying 0.749940 of unit cell:	Completed after 2 iterations at t[s]:   2567.67
	Linear fluid (dielectric constant: 78.4, screening length: 5.74355 Bohr) occupying 0.749948 of unit cell:	Completed after 2 iterations at t[s]:   2587.14
	FillingsUpdate:  mu: -0.175803063  nElectrons: 400.000000  magneticMoment: [ Abs: 0.00522  Tot: +0.00361 ]
	SubspaceRotationAdjust: set factor to 0.239
ElecMinimize: Iter:   3  F: -1455.210792769390082  |grad|_K:  1.967e-07  alpha:  5.466e-01  linmin: -2.557e-07  t[s]:   2610.66
	Linear fluid (dielectric constant: 78.4, screening length: 5.74355 Bohr) occupying 0.749963 of unit cell:	Completed after 3 iterations at t[s]:   2624.86
	Linear fluid (dielectric constant: 78.4, screening length: 5.74355 Bohr) occupying 0.749970 of unit cell:	Completed after 0 iterations at t[s]:   2643.37
	FillingsUpdate:  mu: -0.175724436  nElectrons: 400.000000  magneticMoment: [ Abs: 0.00511  Tot: +0.00353 ]
	SubspaceRotationAdjust: set factor to 0.249
ElecMinimize: Iter:   4  F: -1455.210798504283503  |grad|_K:  9.849e-08  alpha:  7.828e-01  linmin: -1.041e-05  t[s]:   2665.51
	Linear fluid (dielectric constant: 78.4, screening length: 5.74355 Bohr) occupying 0.749977 of unit cell:	Completed after 0 iterations at t[s]:   2679.31
	Linear fluid (dielectric constant: 78.4, screening length: 5.74355 Bohr) occupying 0.749978 of unit cell:	Completed after 0 iterations at t[s]:   2697.26
	FillingsUpdate:  mu: -0.175724400  nElectrons: 400.000000  magneticMoment: [ Abs: 0.00501  Tot: +0.00346 ]
	SubspaceRotationAdjust: set factor to 0.261
ElecMinimize: Iter:   5  F: -1455.210800135147110  |grad|_K:  6.537e-08  alpha:  8.494e-01  linmin: -1.179e-08  t[s]:   2720.40
	Linear fluid (dielectric constant: 78.4, screening length: 5.74355 Bohr) occupying 0.749981 of unit cell:	Completed after 0 iterations at t[s]:   2733.93
	Linear fluid (dielectric constant: 78.4, screening length: 5.74355 Bohr) occupying 0.749980 of unit cell:	Completed after 0 iterations at t[s]:   2751.28
	FillingsUpdate:  mu: -0.175724051  nElectrons: 400.000000  magneticMoment: [ Abs: 0.00492  Tot: +0.00341 ]
	SubspaceRotationAdjust: set factor to 0.272
ElecMinimize: Iter:   6  F: -1455.210800607900183  |grad|_K:  5.068e-08  alpha:  6.010e-01  linmin: -2.482e-09  t[s]:   2773.86
	Linear fluid (dielectric constant: 78.4, screening length: 5.74355 Bohr) occupying 0.749982 of unit cell:	Completed after 0 iterations at t[s]:   2787.49
	Linear fluid (dielectric constant: 78.4, screening length: 5.74355 Bohr) occupying 0.749982 of unit cell:	Completed after 0 iterations at t[s]:   2805.31
	FillingsUpdate:  mu: -0.175723537  nElectrons: 400.000000  magneticMoment: [ Abs: 0.00482  Tot: +0.00334 ]
	SubspaceRotationAdjust: set factor to 0.291
ElecMinimize: Iter:   7  F: -1455.210800879181306  |grad|_K:  2.972e-08  alpha:  5.738e-01  linmin: -2.604e-08  t[s]:   2828.49
	Linear fluid (dielectric constant: 78.4, screening length: 5.74355 Bohr) occupying 0.749983 of unit cell:	Completed after 0 iterations at t[s]:   2842.05
	Linear fluid (dielectric constant: 78.4, screening length: 5.74355 Bohr) occupying 0.749983 of unit cell:	Completed after 0 iterations at t[s]:   2859.45
	FillingsUpdate:  mu: -0.175722884  nElectrons: 400.000000  magneticMoment: [ Abs: 0.00472  Tot: +0.00327 ]
	SubspaceRotationAdjust: set factor to 0.32
ElecMinimize: Iter:   8  F: -1455.210800988253368  |grad|_K:  2.038e-08  alpha:  6.702e-01  linmin: -3.802e-09  t[s]:   2881.68
	Linear fluid (dielectric constant: 78.4, screening length: 5.74355 Bohr) occupying 0.749984 of unit cell:	Completed after 1 iterations at t[s]:   2895.53
	Linear fluid (dielectric constant: 78.4, screening length: 5.74355 Bohr) occupying 0.749983 of unit cell:	Completed after 0 iterations at t[s]:   2913.57
ElecMinimize: 	Step increased F by 7.678705e-08, reducing alpha to 1.447574e-02.
	Linear fluid (dielectric constant: 78.4, screening length: 5.74355 Bohr) occupying 0.749983 of unit cell:	Completed after 0 iterations at t[s]:   2948.24
ElecMinimize: 	Step increased F by 7.307926e-08, reducing alpha to 1.447574e-03.
	Linear fluid (dielectric constant: 78.4, screening length: 5.74355 Bohr) occupying 0.749983 of unit cell:	Completed after 0 iterations at t[s]:   2981.55
ElecMinimize: 	Step increased F by 7.287713e-08, reducing alpha to 1.447574e-04.
ElecMinimize: 	Step failed to reduce F after 3 attempts. Quitting step.
ElecMinimize: 	Undoing step.
	Linear fluid (dielectric constant: 78.4, screening length: 5.74355 Bohr) occupying 0.749983 of unit cell:	Completed after 0 iterations at t[s]:   3015.21
ElecMinimize: 	Step failed: resetting search direction.
	FillingsUpdate:  mu: -0.175768546  nElectrons: 400.000000  magneticMoment: [ Abs: 0.00472  Tot: +0.00327 ]
	SubspaceRotationAdjust: set factor to 0.288
ElecMinimize: Iter:   9  F: -1455.210800915346454  |grad|_K:  4.406e-08  alpha:  1.448e-04
	Linear fluid (dielectric constant: 78.4, screening length: 5.74355 Bohr) occupying 0.749984 of unit cell:	Completed after 2 iterations at t[s]:   3052.27
	Linear fluid (dielectric constant: 78.4, screening length: 5.74355 Bohr) occupying 0.749983 of unit cell:	Completed after 2 iterations at t[s]:   3071.11
ElecMinimize: 	Step increased F by 2.430966e-08, reducing alpha to 1.913803e-02.
	Linear fluid (dielectric constant: 78.4, screening length: 5.74355 Bohr) occupying 0.749983 of unit cell:	Completed after 0 iterations at t[s]:   3105.36
ElecMinimize: 	Step increased F by 1.407579e-08, reducing alpha to 1.913803e-03.
	Linear fluid (dielectric constant: 78.4, screening length: 5.74355 Bohr) occupying 0.749983 of unit cell:	Completed after 0 iterations at t[s]:   3139.09
ElecMinimize: 	Step increased F by 1.278045e-08, reducing alpha to 1.913803e-04.
ElecMinimize: 	Step failed to reduce F after 3 attempts. Quitting step.
ElecMinimize: 	Undoing step.
	Linear fluid (dielectric constant: 78.4, screening length: 5.74355 Bohr) occupying 0.749983 of unit cell:	Completed after 0 iterations at t[s]:   3173.51
ElecMinimize: 	Step failed along negative gradient direction.
ElecMinimize: Probably at roundoff error limit. (Stopping)
Setting wave functions to eigenvectors of Hamiltonian
Single-point solvation energy estimate, DeltaF = +0.010788848574293

# Ionic positions in lattice coordinates:
ion V   0.000000007187500   0.000000004916667   0.499999995675510 1
ion V   0.250000007187500   0.000000004916667   0.499999995675510 1
ion V   0.500000007187500   0.000000004916667   0.499999995675510 1
ion V   0.750000007187500   0.000000004916667   0.499999995675510 1
ion V   0.000000007187500   0.250000004916667   0.499999995675510 1
ion V   0.250000007187500   0.250000004916667   0.499999995675510 1
ion V   0.500000007187500   0.250000004916667   0.499999995675510 1
ion V   0.750000007187500   0.250000004916667   0.499999995675510 1
ion V   0.000000007187500   0.500000004916667   0.499999995675510 1
ion V   0.250000007187500   0.500000004916667   0.499999995675510 1
ion V   0.500000007187500   0.500000004916667   0.499999995675510 1
ion V   0.750000007187500   0.500000004916667   0.499999995675510 1
ion V   1.000000007187500   0.750000004916667   0.499999995675510 1
ion V   0.250000007187500   0.750000004916667   0.499999995675510 1
ion V   0.500000007187500   0.750000004916667   0.499999995675510 1
ion V   0.750000007187500   0.750000004916667   0.499999995675510 1
ion Se   0.166666673854167   0.083333338250000   0.587461117948188 1
ion Se   0.083333340520833   0.166666671583333   0.412538873402833 1
ion Se   0.416666673854167   0.083333338250000   0.587461117948188 1
ion Se   0.333333340520833   0.166666671583333   0.412538873402833 1
ion Se   0.666666673854167   0.083333338250000   0.587461117948188 1
ion Se   0.583333340520833   0.166666671583333   0.412538873402833 1
ion Se   0.916666673854167   0.083333338250000   0.587461117948188 1
ion Se   0.833333340520833   0.166666671583333   0.412538873402833 1
ion Se   0.166666673854167   0.333333338250000   0.587461117948188 1
ion Se   0.083333340520833   0.416666671583333   0.412538873402833 1
ion Se   0.416666673854167   0.333333338250000   0.587461117948188 1
ion Se   0.333333340520833   0.416666671583333   0.412538873402833 1
ion Se   0.666666673854167   0.333333338250000   0.587461117948188 1
ion Se   0.583333340520833   0.416666671583333   0.412538873402833 1
ion Se   0.916666673854167   0.333333338250000   0.587461117948188 1
ion Se   0.833333340520833   0.416666671583333   0.412538873402833 1
ion Se   0.166666673854167   0.583333338250000   0.587461117948188 1
ion Se   0.083333340520833   0.666666671583333   0.412538873402833 1
ion Se   0.416666673854167   0.583333338250000   0.587461117948188 1
ion Se   0.333333340520833   0.666666671583333   0.412538873402833 1
ion Se   0.666666673854167   0.583333338250000   0.587461117948188 1
ion Se   0.583333340520833   0.666666671583333   0.412538873402833 1
ion Se   0.916666673854167   0.583333338250000   0.587461117948188 1
ion Se   0.833333340520833   0.666666671583333   0.412538873402833 1
ion Se   0.166666673854167   0.833333338250000   0.587461117948188 1
ion Se   0.083333340520833   0.916666671583333   0.412538873402833 1
ion Se   0.416666673854167   0.833333338250000   0.587461117948188 1
ion Se   0.333333340520833   0.916666671583333   0.412538873402833 1
ion Se   0.666666673854167   0.833333338250000   0.587461117948188 1
ion Se   0.583333340520833   0.916666671583333   0.412538873402833 1
ion Se   0.916666673854167   0.833333338250000   0.587461117948188 1
ion Se   0.833333340520833   0.916666671583333   0.412538873402833 1


# Forces in Lattice coordinates:
force V  -0.000000000000000  -0.000000000000000  -0.000000000000000 1
force V   0.000000000000000  -0.000000000000000   0.000000000000000 1
force V  -0.000000000000000  -0.000000000000000  -0.000000000000000 1
force V   0.000000000000000  -0.000000000000000  -0.000000000000000 1
force V  -0.000000000000000  -0.000000000000000  -0.000000000000000 1
force V  -0.000000000000000   0.000000000000000   0.000000000000000 1
force V  -0.000000000000000   0.000000000000000   0.000000000000000 1
force V  -0.000000000000000  -0.000000000000000  -0.000000000000000 1
force V  -0.000000000000000   0.000000000000000  -0.000000000000000 1
force V  -0.000000000000000   0.000000000000000   0.000000000000000 1
force V   0.000000000000000  -0.000000000000000   0.000000000000000 1
force V  -0.000000000000000   0.000000000000000   0.000000000000000 1
force V  -0.000000000000000  -0.000000000000000  -0.000000000000000 1
force V   0.000000000000000  -0.000000000000000   0.000000000000000 1
force V  -0.000000000000000  -0.000000000000000  -0.000000000000000 1
force V   0.000000000000000   0.000000000000000   0.000000000000000 1
force Se   0.000000000000000  -0.000000000000000  -0.021894228523811 1
force Se  -0.000000000000000   0.000000000000000   0.021894228522559 1
force Se  -0.000000000000000   0.000000000000000  -0.021894228523811 1
force Se   0.000000000000000  -0.000000000000000   0.021894228522672 1
force Se  -0.000000000000000  -0.000000000000000  -0.021894228523810 1
force Se  -0.000000000000000   0.000000000000000   0.021894228522672 1
force Se   0.000000000000000  -0.000000000000000  -0.021894228523925 1
force Se  -0.000000000000000  -0.000000000000000   0.021894228522672 1
force Se   0.000000000000000   0.000000000000000  -0.021894228523810 1
force Se   0.000000000000000   0.000000000000000   0.021894228522559 1
force Se   0.000000000000000   0.000000000000000  -0.021894228523811 1
force Se  -0.000000000000000   0.000000000000000   0.021894228522559 1
force Se  -0.000000000000000  -0.000000000000000  -0.021894228523811 1
force Se   0.000000000000000  -0.000000000000000   0.021894228522559 1
force Se  -0.000000000000000  -0.000000000000000  -0.021894228523811 1
force Se   0.000000000000000   0.000000000000000   0.021894228522672 1
force Se  -0.000000000000000   0.000000000000000  -0.021894228523811 1
force Se   0.000000000000000   0.000000000000000   0.021894228522672 1
force Se   0.000000000000000  -0.000000000000000  -0.021894228523811 1
force Se  -0.000000000000000   0.000000000000000   0.021894228522786 1
force Se  -0.000000000000000   0.000000000000000  -0.021894228523811 1
force Se   0.000000000000000   0.000000000000000   0.021894228522672 1
force Se  -0.000000000000000  -0.000000000000000  -0.021894228523811 1
force Se   0.000000000000000   0.000000000000000   0.021894228522786 1
force Se  -0.000000000000000   0.000000000000000  -0.021894228523811 1
force Se  -0.000000000000000  -0.000000000000000   0.021894228522786 1
force Se  -0.000000000000000   0.000000000000000  -0.021894228523810 1
force Se  -0.000000000000000  -0.000000000000000   0.021894228522785 1
force Se  -0.000000000000000  -0.000000000000000  -0.021894228523810 1
force Se  -0.000000000000000  -0.000000000000000   0.021894228522899 1
force Se   0.000000000000000  -0.000000000000000  -0.021894228523697 1
force Se   0.000000000000000  -0.000000000000000   0.021894228522786 1

# Energy components:
   A_diel =        0.0106103822607117
   Eewald =     7353.4464774060243144
       EH =     8562.4283898506437254
     Eloc =   -17641.0249343086943554
      Enl =      104.3823522079268571
      Exc =     -632.3281286777366859
 Exc_core =      404.2865673531347284
       KE =      393.6829739601839719
-------------------------------------
     Etot =    -1455.1156918262568070
       TS =        0.0951090763230522
-------------------------------------
        F =    -1455.2108009025798765

IonicMinimize: Iter:   0  F: -1455.210800902579876  |grad|_K:  3.004e-04  t[s]:   3210.33

#--- Lowdin population analysis ---
# oxidation-state V +0.557 +0.557 +0.557 +0.557 +0.557 +0.557 +0.557 +0.557 +0.557 +0.557 +0.557 +0.557 +0.557 +0.557 +0.557 +0.557
# magnetic-moments V +0.000 +0.000 +0.000 +0.000 +0.000 +0.000 +0.000 +0.000 +0.000 +0.000 +0.000 +0.000 +0.000 +0.000 +0.000 +0.000
# oxidation-state Se -0.186 -0.186 -0.186 -0.186 -0.186 -0.186 -0.186 -0.186 -0.186 -0.186 -0.186 -0.186 -0.186 -0.186 -0.186 -0.186 -0.186 -0.186 -0.186 -0.186 -0.186 -0.186 -0.186 -0.186 -0.186 -0.186 -0.186 -0.186 -0.186 -0.186 -0.186 -0.186
# magnetic-moments Se -0.000 -0.000 -0.000 -0.000 -0.000 -0.000 -0.000 -0.000 -0.000 -0.000 -0.000 -0.000 -0.000 -0.000 -0.000 -0.000 -0.000 -0.000 -0.000 -0.000 -0.000 -0.000 -0.000 -0.000 -0.000 -0.000 -0.000 -0.000 -0.000 -0.000 -0.000 -0.000

	Linear fluid (dielectric constant: 78.4, screening length: 5.74355 Bohr) occupying 0.749999 of unit cell:	Completed after 3 iterations at t[s]:   3225.23

-------- Electronic minimization -----------
	Linear fluid (dielectric constant: 78.4, screening length: 5.74355 Bohr) occupying 0.749999 of unit cell:	Completed after 0 iterations at t[s]:   3240.65
	FillingsUpdate:  mu: -0.175997314  nElectrons: 400.000000  magneticMoment: [ Abs: 0.00442  Tot: +0.00304 ]
ElecMinimize: Iter:   0  F: -1455.210808571873486  |grad|_K:  2.100e-07  alpha:  1.000e+00
	Linear fluid (dielectric constant: 78.4, screening length: 5.74355 Bohr) occupying 0.750003 of unit cell:	Completed after 5 iterations at t[s]:   3279.43
	Linear fluid (dielectric constant: 78.4, screening length: 5.74355 Bohr) occupying 0.750000 of unit cell:	Completed after 4 iterations at t[s]:   3299.31
	FillingsUpdate:  mu: -0.175652042  nElectrons: 400.000000  magneticMoment: [ Abs: 0.00439  Tot: +0.00303 ]
	SubspaceRotationAdjust: set factor to 0.474
ElecMinimize: Iter:   1  F: -1455.210811135945960  |grad|_K:  7.057e-08  alpha:  2.804e-01  linmin: -4.106e-04  t[s]:   3322.56
	Linear fluid (dielectric constant: 78.4, screening length: 5.74355 Bohr) occupying 0.750000 of unit cell:	Completed after 0 iterations at t[s]:   3336.05
ElecMinimize: 	Predicted alpha/alphaT>3.000000, increasing alphaT to 8.412591e-01.
	Linear fluid (dielectric constant: 78.4, screening length: 5.74355 Bohr) occupying 0.749999 of unit cell:	Completed after 2 iterations at t[s]:   3353.58
	Linear fluid (dielectric constant: 78.4, screening length: 5.74355 Bohr) occupying 0.749999 of unit cell:	Completed after 0 iterations at t[s]:   3372.14
	FillingsUpdate:  mu: -0.175650724  nElectrons: 400.000000  magneticMoment: [ Abs: 0.00433  Tot: +0.00299 ]
	SubspaceRotationAdjust: set factor to 0.571
ElecMinimize: Iter:   2  F: -1455.210811708949450  |grad|_K:  5.282e-08  alpha:  6.047e-01  linmin:  1.313e-03  t[s]:   3395.41
	Linear fluid (dielectric constant: 78.4, screening length: 5.74355 Bohr) occupying 0.749998 of unit cell:	Completed after 0 iterations at t[s]:   3409.23
	Linear fluid (dielectric constant: 78.4, screening length: 5.74355 Bohr) occupying 0.749997 of unit cell:	Completed after 2 iterations at t[s]:   3427.42
	FillingsUpdate:  mu: -0.175731459  nElectrons: 400.000000  magneticMoment: [ Abs: 0.00413  Tot: +0.00285 ]
	SubspaceRotationAdjust: set factor to 0.536
ElecMinimize: Iter:   3  F: -1455.210811999227644  |grad|_K:  5.069e-08  alpha:  1.021e+00  linmin:  1.169e-03  t[s]:   3450.65
	Linear fluid (dielectric constant: 78.4, screening length: 5.74355 Bohr) occupying 0.749996 of unit cell:	Completed after 3 iterations at t[s]:   3464.95
	Linear fluid (dielectric constant: 78.4, screening length: 5.74355 Bohr) occupying 0.749996 of unit cell:	Completed after 1 iterations at t[s]:   3484.26
	FillingsUpdate:  mu: -0.175695481  nElectrons: 400.000000  magneticMoment: [ Abs: 0.00405  Tot: +0.00280 ]
	SubspaceRotationAdjust: set factor to 0.4
ElecMinimize: Iter:   4  F: -1455.210812075081094  |grad|_K:  2.964e-08  alpha:  2.176e-01  linmin:  6.067e-05  t[s]:   3507.67
	Linear fluid (dielectric constant: 78.4, screening length: 5.74355 Bohr) occupying 0.749996 of unit cell:	Completed after 0 iterations at t[s]:   3521.25
	Linear fluid (dielectric constant: 78.4, screening length: 5.74355 Bohr) occupying 0.749996 of unit cell:	Completed after 0 iterations at t[s]:   3538.55
	FillingsUpdate:  mu: -0.175695356  nElectrons: 400.000000  magneticMoment: [ Abs: 0.00392  Tot: +0.00271 ]
	SubspaceRotationAdjust: set factor to 0.547
ElecMinimize: Iter:   5  F: -1455.210812154769883  |grad|_K:  1.769e-08  alpha:  5.016e-01  linmin: -7.417e-06  t[s]:   3561.10
	Linear fluid (dielectric constant: 78.4, screening length: 5.74355 Bohr) occupying 0.749997 of unit cell:	Completed after 0 iterations at t[s]:   3574.48
	Linear fluid (dielectric constant: 78.4, screening length: 5.74355 Bohr) occupying 0.749997 of unit cell:	Completed after 0 iterations at t[s]:   3592.61
	FillingsUpdate:  mu: -0.175694317  nElectrons: 400.000000  magneticMoment: [ Abs: 0.00379  Tot: +0.00262 ]
	SubspaceRotationAdjust: set factor to 0.649
ElecMinimize: Iter:   6  F: -1455.210812192291996  |grad|_K:  1.551e-08  alpha:  6.482e-01  linmin: -2.693e-06  t[s]:   3615.67
	Linear fluid (dielectric constant: 78.4, screening length: 5.74355 Bohr) occupying 0.749997 of unit cell:	Completed after 2 iterations at t[s]:   3629.75
	Linear fluid (dielectric constant: 78.4, screening length: 5.74355 Bohr) occupying 0.749997 of unit cell:	Completed after 0 iterations at t[s]:   3648.06
	FillingsUpdate:  mu: -0.175768400  nElectrons: 400.000000  magneticMoment: [ Abs: 0.00377  Tot: +0.00261 ]
	SubspaceRotationAdjust: set factor to 0.442
ElecMinimize: Iter:   7  F: -1455.210812209835922  |grad|_K:  7.805e-08  alpha:  6.837e-02  linmin:  5.646e-04  t[s]:   3670.29
ElecMinimize: 	Bad step direction: g.d > 0.
ElecMinimize: 	Undoing step.
	Linear fluid (dielectric constant: 78.4, screening length: 5.74355 Bohr) occupying 0.749997 of unit cell:	Completed after 0 iterations at t[s]:   3683.83
ElecMinimize: 	Step failed: resetting search direction.
	FillingsUpdate:  mu: -0.175768400  nElectrons: 400.000000  magneticMoment: [ Abs: 0.00377  Tot: +0.00261 ]
	SubspaceRotationAdjust: set factor to 0.338
ElecMinimize: Iter:   8  F: -1455.210812209843198  |grad|_K:  6.828e-08  alpha:  0.000e+00
	Linear fluid (dielectric constant: 78.4, screening length: 5.74355 Bohr) occupying 0.749997 of unit cell:	Completed after 2 iterations at t[s]:   3720.54
	Linear fluid (dielectric constant: 78.4, screening length: 5.74355 Bohr) occupying 0.749997 of unit cell:	Completed after 0 iterations at t[s]:   3738.75
ElecMinimize: 	Step increased F by 4.765047e-08, reducing alpha to 2.586173e-03.
	Linear fluid (dielectric constant: 78.4, screening length: 5.74355 Bohr) occupying 0.749997 of unit cell:	Completed after 0 iterations at t[s]:   3771.98
ElecMinimize: 	Step increased F by 5.374909e-08, reducing alpha to 2.586173e-04.
	Linear fluid (dielectric constant: 78.4, screening length: 5.74355 Bohr) occupying 0.749997 of unit cell:	Completed after 0 iterations at t[s]:   3805.63
ElecMinimize: 	Step increased F by 5.439460e-08, reducing alpha to 2.586173e-05.
ElecMinimize: 	Step failed to reduce F after 3 attempts. Quitting step.
ElecMinimize: 	Undoing step.
	Linear fluid (dielectric constant: 78.4, screening length: 5.74355 Bohr) occupying 0.749997 of unit cell:	Completed after 0 iterations at t[s]:   3840.10
ElecMinimize: 	Step failed along negative gradient direction.
ElecMinimize: Probably at roundoff error limit. (Stopping)
Setting wave functions to eigenvectors of Hamiltonian

# Ionic positions in lattice coordinates:
ion V   0.000000007187500   0.000000004916667   0.499999995675510 1
ion V   0.250000007187500   0.000000004916667   0.499999995675510 1
ion V   0.500000007187500   0.000000004916667   0.499999995675510 1
ion V   0.750000007187500   0.000000004916667   0.499999995675510 1
ion V   0.000000007187500   0.250000004916667   0.499999995675510 1
ion V   0.250000007187500   0.250000004916667   0.499999995675510 1
ion V   0.500000007187500   0.250000004916667   0.499999995675510 1
ion V   0.750000007187500   0.250000004916667   0.499999995675510 1
ion V   0.000000007187500   0.500000004916667   0.499999995675510 1
ion V   0.250000007187500   0.500000004916667   0.499999995675510 1
ion V   0.500000007187500   0.500000004916667   0.499999995675510 1
ion V   0.750000007187500   0.500000004916667   0.499999995675510 1
ion V   1.000000007187500   0.750000004916667   0.499999995675510 1
ion V   0.250000007187500   0.750000004916667   0.499999995675510 1
ion V   0.500000007187500   0.750000004916667   0.499999995675510 1
ion V   0.750000007187500   0.750000004916667   0.499999995675510 1
ion Se   0.166666673854167   0.083333338250000   0.587442568159924 1
ion Se   0.083333340520833   0.166666671583333   0.412557423191097 1
ion Se   0.416666673854167   0.083333338250000   0.587442568159924 1
ion Se   0.333333340520833   0.166666671583333   0.412557423191097 1
ion Se   0.666666673854167   0.083333338250000   0.587442568159924 1
ion Se   0.583333340520833   0.166666671583333   0.412557423191097 1
ion Se   0.916666673854167   0.083333338250000   0.587442568159924 1
ion Se   0.833333340520833   0.166666671583333   0.412557423191097 1
ion Se   0.166666673854167   0.333333338250000   0.587442568159924 1
ion Se   0.083333340520833   0.416666671583333   0.412557423191097 1
ion Se   0.416666673854167   0.333333338250000   0.587442568159924 1
ion Se   0.333333340520833   0.416666671583333   0.412557423191097 1
ion Se   0.666666673854167   0.333333338250000   0.587442568159924 1
ion Se   0.583333340520833   0.416666671583333   0.412557423191097 1
ion Se   0.916666673854167   0.333333338250000   0.587442568159924 1
ion Se   0.833333340520833   0.416666671583333   0.412557423191097 1
ion Se   0.166666673854167   0.583333338250000   0.587442568159924 1
ion Se   0.083333340520833   0.666666671583333   0.412557423191097 1
ion Se   0.416666673854167   0.583333338250000   0.587442568159924 1
ion Se   0.333333340520833   0.666666671583333   0.412557423191097 1
ion Se   0.666666673854167   0.583333338250000   0.587442568159924 1
ion Se   0.583333340520833   0.666666671583333   0.412557423191097 1
ion Se   0.916666673854167   0.583333338250000   0.587442568159924 1
ion Se   0.833333340520833   0.666666671583333   0.412557423191097 1
ion Se   0.166666673854167   0.833333338250000   0.587442568159924 1
ion Se   0.083333340520833   0.916666671583333   0.412557423191097 1
ion Se   0.416666673854167   0.833333338250000   0.587442568159924 1
ion Se   0.333333340520833   0.916666671583333   0.412557423191097 1
ion Se   0.666666673854167   0.833333338250000   0.587442568159924 1
ion Se   0.583333340520833   0.916666671583333   0.412557423191097 1
ion Se   0.916666673854167   0.833333338250000   0.587442568159924 1
ion Se   0.833333340520833   0.916666671583333   0.412557423191097 1


# Forces in Lattice coordinates:
force V   0.000000000000000  -0.000000000000000  -0.000000000000000 1
force V   0.000000000000000  -0.000000000000000   0.000000000000000 1
force V  -0.000000000000000   0.000000000000000   0.000000000000000 1
force V   0.000000000000000   0.000000000000000  -0.000000000000000 1
force V  -0.000000000000000   0.000000000000000   0.000000000000000 1
force V  -0.000000000000000   0.000000000000000   0.000000000000000 1
force V  -0.000000000000000  -0.000000000000000   0.000000000000000 1
force V  -0.000000000000000   0.000000000000000  -0.000000000000000 1
force V  -0.000000000000000   0.000000000000000   0.000000000000000 1
force V  -0.000000000000000   0.000000000000000  -0.000000000000000 1
force V  -0.000000000000000   0.000000000000000   0.000000000000000 1
force V  -0.000000000000000  -0.000000000000000   0.000000000000000 1
force V  -0.000000000000000  -0.000000000000000   0.000000000000000 1
force V   0.000000000000000   0.000000000000000   0.000000000000000 1
force V   0.000000000000000   0.000000000000000   0.000000000000000 1
force V  -0.000000000000000  -0.000000000000000   0.000000000000000 1
force Se  -0.000000000000000  -0.000000000000000  -0.017817945034334 1
force Se  -0.000000000000000  -0.000000000000000   0.017817945033310 1
force Se   0.000000000000000   0.000000000000000  -0.017817945034106 1
force Se  -0.000000000000000  -0.000000000000000   0.017817945033423 1
force Se   0.000000000000000   0.000000000000000  -0.017817945034333 1
force Se  -0.000000000000000  -0.000000000000000   0.017817945033537 1
force Se  -0.000000000000000   0.000000000000000  -0.017817945034447 1
force Se  -0.000000000000000  -0.000000000000000   0.017817945033423 1
force Se  -0.000000000000000   0.000000000000000  -0.017817945034334 1
force Se   0.000000000000000   0.000000000000000   0.017817945033423 1
force Se   0.000000000000000  -0.000000000000000  -0.017817945034333 1
force Se   0.000000000000000   0.000000000000000   0.017817945033423 1
force Se   0.000000000000000  -0.000000000000000  -0.017817945034221 1
force Se   0.000000000000000  -0.000000000000000   0.017817945033424 1
force Se   0.000000000000000  -0.000000000000000  -0.017817945034448 1
force Se   0.000000000000000   0.000000000000000   0.017817945033537 1
force Se  -0.000000000000000  -0.000000000000000  -0.017817945034334 1
force Se  -0.000000000000000  -0.000000000000000   0.017817945033423 1
force Se   0.000000000000000   0.000000000000000  -0.017817945034221 1
force Se   0.000000000000000   0.000000000000000   0.017817945033424 1
force Se  -0.000000000000000  -0.000000000000000  -0.017817945034562 1
force Se   0.000000000000000  -0.000000000000000   0.017817945033309 1
force Se  -0.000000000000000   0.000000000000000  -0.017817945034334 1
force Se   0.000000000000000   0.000000000000000   0.017817945033423 1
force Se  -0.000000000000000   0.000000000000000  -0.017817945034106 1
force Se   0.000000000000000  -0.000000000000000   0.017817945033424 1
force Se  -0.000000000000000   0.000000000000000  -0.017817945034333 1
force Se  -0.000000000000000  -0.000000000000000   0.017817945033538 1
force Se  -0.000000000000000   0.000000000000000  -0.017817945034334 1
force Se   0.000000000000000   0.000000000000000   0.017817945033423 1
force Se  -0.000000000000000  -0.000000000000000  -0.017817945034333 1
force Se  -0.000000000000000   0.000000000000000   0.017817945033423 1

# Energy components:
   A_diel =        0.0106109664565796
   Eewald =     7353.8029732106870142
       EH =     8562.7679441193104140
     Eloc =   -17641.7225418076122878
      Enl =      104.3804768769787472
      Exc =     -632.3301546974037137
 Exc_core =      404.2865669937288544
       KE =      393.6884030467327875
-------------------------------------
     Etot =    -1455.1157212911211900
       TS =        0.0950908643171939
-------------------------------------
        F =    -1455.2108121554383615

IonicMinimize: Iter:   1  F: -1455.210812155438362  |grad|_K:  2.445e-04  alpha:  1.000e+00  linmin: -1.000e+00  t[s]:   3876.55

#--- Lowdin population analysis ---
# oxidation-state V +0.556 +0.556 +0.556 +0.556 +0.556 +0.556 +0.556 +0.556 +0.556 +0.556 +0.556 +0.556 +0.556 +0.556 +0.556 +0.556
# magnetic-moments V +0.000 +0.000 +0.000 +0.000 +0.000 +0.000 +0.000 +0.000 +0.000 +0.000 +0.000 +0.000 +0.000 +0.000 +0.000 +0.000
# oxidation-state Se -0.185 -0.185 -0.185 -0.185 -0.185 -0.185 -0.185 -0.185 -0.185 -0.185 -0.185 -0.185 -0.185 -0.185 -0.185 -0.185 -0.185 -0.185 -0.185 -0.185 -0.185 -0.185 -0.185 -0.185 -0.185 -0.185 -0.185 -0.185 -0.185 -0.185 -0.185 -0.185
# magnetic-moments Se -0.000 -0.000 -0.000 -0.000 -0.000 -0.000 -0.000 -0.000 -0.000 -0.000 -0.000 -0.000 -0.000 -0.000 -0.000 -0.000 -0.000 -0.000 -0.000 -0.000 -0.000 -0.000 -0.000 -0.000 -0.000 -0.000 -0.000 -0.000 -0.000 -0.000 -0.000 -0.000

	Linear fluid (dielectric constant: 78.4, screening length: 5.74355 Bohr) occupying 0.750081 of unit cell:	Completed after 6 iterations at t[s]:   3891.94

-------- Electronic minimization -----------
	Linear fluid (dielectric constant: 78.4, screening length: 5.74355 Bohr) occupying 0.750081 of unit cell:	Completed after 0 iterations at t[s]:   3907.76
	FillingsUpdate:  mu: -0.176014231  nElectrons: 400.000000  magneticMoment: [ Abs: 0.00354  Tot: +0.00243 ]
ElecMinimize: Iter:   0  F: -1455.210821701683699  |grad|_K:  3.025e-07  alpha:  1.000e+00
	Linear fluid (dielectric constant: 78.4, screening length: 5.74355 Bohr) occupying 0.750087 of unit cell:	Completed after 6 iterations at t[s]:   3946.99
	Linear fluid (dielectric constant: 78.4, screening length: 5.74355 Bohr) occupying 0.750084 of unit cell:	Completed after 3 iterations at t[s]:   3966.83
	FillingsUpdate:  mu: -0.175344011  nElectrons: 400.000000  magneticMoment: [ Abs: 0.00349  Tot: +0.00240 ]
	SubspaceRotationAdjust: set factor to 0.292
ElecMinimize: Iter:   1  F: -1455.210830522880997  |grad|_K:  2.623e-07  alpha:  5.330e-01  linmin:  8.616e-05  t[s]:   3990.01
	Linear fluid (dielectric constant: 78.4, screening length: 5.74355 Bohr) occupying 0.750081 of unit cell:	Completed after 2 iterations at t[s]:   4004.08
	Linear fluid (dielectric constant: 78.4, screening length: 5.74355 Bohr) occupying 0.750081 of unit cell:	Completed after 0 iterations at t[s]:   4022.18
	FillingsUpdate:  mu: -0.175642562  nElectrons: 400.000000  magneticMoment: [ Abs: 0.00341  Tot: +0.00235 ]
	SubspaceRotationAdjust: set factor to 0.376
ElecMinimize: Iter:   2  F: -1455.210836838392879  |grad|_K:  1.686e-07  alpha:  5.005e-01  linmin:  2.395e-04  t[s]:   4044.55
	Linear fluid (dielectric constant: 78.4, screening length: 5.74355 Bohr) occupying 0.750078 of unit cell:	Completed after 2 iterations at t[s]:   4058.96
	Linear fluid (dielectric constant: 78.4, screening length: 5.74355 Bohr) occupying 0.750078 of unit cell:	Completed after 0 iterations at t[s]:   4077.09
	FillingsUpdate:  mu: -0.175673727  nElectrons: 400.000000  magneticMoment: [ Abs: 0.00333  Tot: +0.00230 ]
	SubspaceRotationAdjust: set factor to 0.511
ElecMinimize: Iter:   3  F: -1455.210840038216929  |grad|_K:  9.864e-08  alpha:  6.086e-01  linmin: -1.108e-03  t[s]:   4099.35
	Linear fluid (dielectric constant: 78.4, screening length: 5.74355 Bohr) occupying 0.750075 of unit cell:	Completed after 3 iterations at t[s]:   4113.39
	Linear fluid (dielectric constant: 78.4, screening length: 5.74355 Bohr) occupying 0.750074 of unit cell:	Completed after 0 iterations at t[s]:   4131.81
	FillingsUpdate:  mu: -0.175778927  nElectrons: 400.000000  magneticMoment: [ Abs: 0.00323  Tot: +0.00224 ]
	SubspaceRotationAdjust: set factor to 0.435
ElecMinimize: Iter:   4  F: -1455.210841532296627  |grad|_K:  7.529e-08  alpha:  7.324e-01  linmin: -8.098e-04  t[s]:   4153.96
	Linear fluid (dielectric constant: 78.4, screening length: 5.74355 Bohr) occupying 0.750075 of unit cell:	Completed after 2 iterations at t[s]:   4168.33
	Linear fluid (dielectric constant: 78.4, screening length: 5.74355 Bohr) occupying 0.750074 of unit cell:	Completed after 2 iterations at t[s]:   4187.56
	FillingsUpdate:  mu: -0.175682227  nElectrons: 400.000000  magneticMoment: [ Abs: 0.00318  Tot: +0.00220 ]
	SubspaceRotationAdjust: set factor to 0.28
ElecMinimize: Iter:   5  F: -1455.210841854307318  |grad|_K:  4.513e-08  alpha:  2.940e-01  linmin:  6.740e-05  t[s]:   4210.47
	Linear fluid (dielectric constant: 78.4, screening length: 5.74355 Bohr) occupying 0.750074 of unit cell:	Completed after 0 iterations at t[s]:   4223.83
	Linear fluid (dielectric constant: 78.4, screening length: 5.74355 Bohr) occupying 0.750074 of unit cell:	Completed after 0 iterations at t[s]:   4241.55
	FillingsUpdate:  mu: -0.175680823  nElectrons: 400.000000  magneticMoment: [ Abs: 0.00308  Tot: +0.00213 ]
	SubspaceRotationAdjust: set factor to 0.327
ElecMinimize: Iter:   6  F: -1455.210842087230048  |grad|_K:  2.994e-08  alpha:  6.302e-01  linmin:  4.409e-07  t[s]:   4263.80
	Linear fluid (dielectric constant: 78.4, screening length: 5.74355 Bohr) occupying 0.750075 of unit cell:	Completed after 1 iterations at t[s]:   4277.74
	Linear fluid (dielectric constant: 78.4, screening length: 5.74355 Bohr) occupying 0.750074 of unit cell:	Completed after 1 iterations at t[s]:   4296.60
ElecMinimize: 	Step increased F by 3.255673e-08, reducing alpha to 1.484224e-02.
	Linear fluid (dielectric constant: 78.4, screening length: 5.74355 Bohr) occupying 0.750074 of unit cell:	Completed after 0 iterations at t[s]:   4330.62
ElecMinimize: 	Step increased F by 1.800413e-08, reducing alpha to 1.484224e-03.
	Linear fluid (dielectric constant: 78.4, screening length: 5.74355 Bohr) occupying 0.750074 of unit cell:	Completed after 0 iterations at t[s]:   4364.41
ElecMinimize: 	Step increased F by 1.561239e-08, reducing alpha to 1.484224e-04.
ElecMinimize: 	Step failed to reduce F after 3 attempts. Quitting step.
ElecMinimize: 	Undoing step.
	Linear fluid (dielectric constant: 78.4, screening length: 5.74355 Bohr) occupying 0.750074 of unit cell:	Completed after 0 iterations at t[s]:   4398.48
ElecMinimize: 	Step failed: resetting search direction.
	FillingsUpdate:  mu: -0.175754624  nElectrons: 400.000000  magneticMoment: [ Abs: 0.00308  Tot: +0.00213 ]
	SubspaceRotationAdjust: set factor to 0.272
ElecMinimize: Iter:   7  F: -1455.210842071727939  |grad|_K:  5.267e-08  alpha:  1.484e-04
	Linear fluid (dielectric constant: 78.4, screening length: 5.74355 Bohr) occupying 0.750075 of unit cell:	Completed after 2 iterations at t[s]:   4435.42
	Linear fluid (dielectric constant: 78.4, screening length: 5.74355 Bohr) occupying 0.750075 of unit cell:	Completed after 1 iterations at t[s]:   4453.72
ElecMinimize: 	Step increased F by 1.824060e-08, reducing alpha to 1.638748e-02.
	Linear fluid (dielectric constant: 78.4, screening length: 5.74355 Bohr) occupying 0.750074 of unit cell:	Completed after 0 iterations at t[s]:   4487.81
	FillingsUpdate:  mu: -0.175671358  nElectrons: 400.000000  magneticMoment: [ Abs: 0.00308  Tot: +0.00213 ]
	SubspaceRotationAdjust: set factor to 0.156
ElecMinimize: Iter:   8  F: -1455.210842074333186  |grad|_K:  3.162e-08  alpha:  1.639e-02  linmin:  4.048e-04  t[s]:   4510.69
	Linear fluid (dielectric constant: 78.4, screening length: 5.74355 Bohr) occupying 0.750074 of unit cell:	Completed after 0 iterations at t[s]:   4524.56
ElecMinimize: 	Predicted alpha/alphaT>3.000000, increasing alphaT to 4.916243e-02.
	Linear fluid (dielectric constant: 78.4, screening length: 5.74355 Bohr) occupying 0.750074 of unit cell:	Completed after 0 iterations at t[s]:   4542.40
ElecMinimize: 	Predicted alpha/alphaT>3.000000, increasing alphaT to 1.474873e-01.
	Linear fluid (dielectric constant: 78.4, screening length: 5.74355 Bohr) occupying 0.750074 of unit cell:	Completed after 0 iterations at t[s]:   4559.63
	Linear fluid (dielectric constant: 78.4, screening length: 5.74355 Bohr) occupying 0.750075 of unit cell:	Completed after 0 iterations at t[s]:   4577.22
	FillingsUpdate:  mu: -0.175671059  nElectrons: 400.000000  magneticMoment: [ Abs: 0.00305  Tot: +0.00211 ]
	SubspaceRotationAdjust: set factor to 0.18
ElecMinimize: Iter:   9  F: -1455.210842137583541  |grad|_K:  2.415e-08  alpha:  3.609e-01  linmin:  9.115e-06  t[s]:   4599.53
	Linear fluid (dielectric constant: 78.4, screening length: 5.74355 Bohr) occupying 0.750075 of unit cell:	Completed after 2 iterations at t[s]:   4613.61
	Linear fluid (dielectric constant: 78.4, screening length: 5.74355 Bohr) occupying 0.750075 of unit cell:	Completed after 0 iterations at t[s]:   4632.53
ElecMinimize: 	Step increased F by 3.911305e-08, reducing alpha to 8.569855e-03.
	Linear fluid (dielectric constant: 78.4, screening length: 5.74355 Bohr) occupying 0.750075 of unit cell:	Completed after 0 iterations at t[s]:   4666.19
ElecMinimize: 	Step increased F by 2.870343e-08, reducing alpha to 8.569855e-04.
	Linear fluid (dielectric constant: 78.4, screening length: 5.74355 Bohr) occupying 0.750075 of unit cell:	Completed after 0 iterations at t[s]:   4699.58
ElecMinimize: 	Step increased F by 2.771480e-08, reducing alpha to 8.569855e-05.
ElecMinimize: 	Step failed to reduce F after 3 attempts. Quitting step.
ElecMinimize: 	Undoing step.
	Linear fluid (dielectric constant: 78.4, screening length: 5.74355 Bohr) occupying 0.750075 of unit cell:	Completed after 0 iterations at t[s]:   4733.28
ElecMinimize: 	Step failed: resetting search direction.
	FillingsUpdate:  mu: -0.175751995  nElectrons: 400.000000  magneticMoment: [ Abs: 0.00305  Tot: +0.00211 ]
	SubspaceRotationAdjust: set factor to 0.131
ElecMinimize: Iter:  10  F: -1455.210842109879195  |grad|_K:  2.701e-08  alpha:  8.570e-05
	Linear fluid (dielectric constant: 78.4, screening length: 5.74355 Bohr) occupying 0.750075 of unit cell:	Completed after 2 iterations at t[s]:   4770.42
	Linear fluid (dielectric constant: 78.4, screening length: 5.74355 Bohr) occupying 0.750075 of unit cell:	Completed after 0 iterations at t[s]:   4788.51
ElecMinimize: 	Step increased F by 4.545655e-09, reducing alpha to 1.481888e-02.
	Linear fluid (dielectric constant: 78.4, screening length: 5.74355 Bohr) occupying 0.750075 of unit cell:	Completed after 0 iterations at t[s]:   4822.00
ElecMinimize: 	Step increased F by 2.667775e-09, reducing alpha to 1.481888e-03.
	Linear fluid (dielectric constant: 78.4, screening length: 5.74355 Bohr) occupying 0.750075 of unit cell:	Completed after 0 iterations at t[s]:   4855.86
ElecMinimize: 	Step increased F by 2.851493e-09, reducing alpha to 1.481888e-04.
ElecMinimize: 	Step failed to reduce F after 3 attempts. Quitting step.
ElecMinimize: 	Undoing step.
	Linear fluid (dielectric constant: 78.4, screening length: 5.74355 Bohr) occupying 0.750075 of unit cell:	Completed after 0 iterations at t[s]:   4889.16
ElecMinimize: 	Step failed along negative gradient direction.
ElecMinimize: Probably at roundoff error limit. (Stopping)
Setting wave functions to eigenvectors of Hamiltonian

# Ionic positions in lattice coordinates:
ion V   0.000000007187500   0.000000004916667   0.499999995675510 1
ion V   0.250000007187500   0.000000004916667   0.499999995675510 1
ion V   0.500000007187500   0.000000004916667   0.499999995675510 1
ion V   0.750000007187500   0.000000004916667   0.499999995675510 1
ion V   0.000000007187500   0.250000004916667   0.499999995675510 1
ion V   0.250000007187500   0.250000004916667   0.499999995675510 1
ion V   0.500000007187500   0.250000004916667   0.499999995675510 1
ion V   0.750000007187500   0.250000004916667   0.499999995675510 1
ion V   0.000000007187500   0.500000004916667   0.499999995675510 1
ion V   0.250000007187500   0.500000004916667   0.499999995675510 1
ion V   0.500000007187500   0.500000004916667   0.499999995675510 1
ion V   0.750000007187500   0.500000004916667   0.499999995675510 1
ion V   1.000000007187500   0.750000004916667   0.499999995675510 1
ion V   0.250000007187500   0.750000004916667   0.499999995675510 1
ion V   0.500000007187500   0.750000004916667   0.499999995675510 1
ion V   0.750000007187500   0.750000004916667   0.499999995675510 1
ion Se   0.166666673854167   0.083333338250000   0.587361484715034 1
ion Se   0.083333340520833   0.166666671583333   0.412638506635987 1
ion Se   0.416666673854167   0.083333338250000   0.587361484715034 1
ion Se   0.333333340520833   0.166666671583333   0.412638506635987 1
ion Se   0.666666673854167   0.083333338250000   0.587361484715034 1
ion Se   0.583333340520833   0.166666671583333   0.412638506635987 1
ion Se   0.916666673854167   0.083333338250000   0.587361484715034 1
ion Se   0.833333340520833   0.166666671583333   0.412638506635987 1
ion Se   0.166666673854167   0.333333338250000   0.587361484715034 1
ion Se   0.083333340520833   0.416666671583333   0.412638506635987 1
ion Se   0.416666673854167   0.333333338250000   0.587361484715034 1
ion Se   0.333333340520833   0.416666671583333   0.412638506635987 1
ion Se   0.666666673854167   0.333333338250000   0.587361484715034 1
ion Se   0.583333340520833   0.416666671583333   0.412638506635987 1
ion Se   0.916666673854167   0.333333338250000   0.587361484715034 1
ion Se   0.833333340520833   0.416666671583333   0.412638506635987 1
ion Se   0.166666673854167   0.583333338250000   0.587361484715034 1
ion Se   0.083333340520833   0.666666671583333   0.412638506635987 1
ion Se   0.416666673854167   0.583333338250000   0.587361484715034 1
ion Se   0.333333340520833   0.666666671583333   0.412638506635987 1
ion Se   0.666666673854167   0.583333338250000   0.587361484715034 1
ion Se   0.583333340520833   0.666666671583333   0.412638506635987 1
ion Se   0.916666673854167   0.583333338250000   0.587361484715034 1
ion Se   0.833333340520833   0.666666671583333   0.412638506635987 1
ion Se   0.166666673854167   0.833333338250000   0.587361484715034 1
ion Se   0.083333340520833   0.916666671583333   0.412638506635987 1
ion Se   0.416666673854167   0.833333338250000   0.587361484715034 1
ion Se   0.333333340520833   0.916666671583333   0.412638506635987 1
ion Se   0.666666673854167   0.833333338250000   0.587361484715034 1
ion Se   0.583333340520833   0.916666671583333   0.412638506635987 1
ion Se   0.916666673854167   0.833333338250000   0.587361484715034 1
ion Se   0.833333340520833   0.916666671583333   0.412638506635987 1


# Forces in Lattice coordinates:
force V   0.000000000000000   0.000000000000000  -0.000000000000000 1
force V   0.000000000000000  -0.000000000000000  -0.000000000000000 1
force V   0.000000000000000   0.000000000000000  -0.000000000000000 1
force V   0.000000000000000   0.000000000000000  -0.000000000000000 1
force V   0.000000000000000  -0.000000000000000  -0.000000000000000 1
force V   0.000000000000000  -0.000000000000000  -0.000000000000000 1
force V   0.000000000000000  -0.000000000000000   0.000000000000000 1
force V  -0.000000000000000   0.000000000000000  -0.000000000000000 1
force V  -0.000000000000000  -0.000000000000000   0.000000000000000 1
force V  -0.000000000000000   0.000000000000000   0.000000000000000 1
force V  -0.000000000000000  -0.000000000000000   0.000000000000000 1
force V   0.000000000000000   0.000000000000000  -0.000000000000000 1
force V   0.000000000000000  -0.000000000000000  -0.000000000000000 1
force V  -0.000000000000000  -0.000000000000000   0.000000000000000 1
force V  -0.000000000000000  -0.000000000000000   0.000000000000000 1
force V  -0.000000000000000   0.000000000000000   0.000000000000000 1
force Se   0.000000000000000   0.000000000000000  -0.005527441289837 1
force Se   0.000000000000000  -0.000000000000000   0.005527441289384 1
force Se  -0.000000000000000   0.000000000000000  -0.005527441289836 1
force Se   0.000000000000000  -0.000000000000000   0.005527441289271 1
force Se  -0.000000000000000  -0.000000000000000  -0.005527441289837 1
force Se  -0.000000000000000  -0.000000000000000   0.005527441289157 1
force Se  -0.000000000000000   0.000000000000000  -0.005527441289724 1
force Se   0.000000000000000  -0.000000000000000   0.005527441289382 1
force Se  -0.000000000000000  -0.000000000000000  -0.005527441289724 1
force Se  -0.000000000000000  -0.000000000000000   0.005527441289271 1
force Se  -0.000000000000000   0.000000000000000  -0.005527441289608 1
force Se  -0.000000000000000   0.000000000000000   0.005527441289384 1
force Se   0.000000000000000   0.000000000000000  -0.005527441289722 1
force Se  -0.000000000000000  -0.000000000000000   0.005527441289383 1
force Se  -0.000000000000000  -0.000000000000000  -0.005527441289722 1
force Se   0.000000000000000   0.000000000000000   0.005527441289269 1
force Se  -0.000000000000000  -0.000000000000000  -0.005527441289608 1
force Se   0.000000000000000   0.000000000000000   0.005527441289384 1
force Se  -0.000000000000000   0.000000000000000  -0.005527441289608 1
force Se  -0.000000000000000  -0.000000000000000   0.005527441289383 1
force Se   0.000000000000000   0.000000000000000  -0.005527441289609 1
force Se  -0.000000000000000  -0.000000000000000   0.005527441289384 1
force Se  -0.000000000000000  -0.000000000000000  -0.005527441289610 1
force Se   0.000000000000000  -0.000000000000000   0.005527441289384 1
force Se   0.000000000000000   0.000000000000000  -0.005527441289610 1
force Se   0.000000000000000  -0.000000000000000   0.005527441289382 1
force Se   0.000000000000000  -0.000000000000000  -0.005527441289723 1
force Se   0.000000000000000  -0.000000000000000   0.005527441289271 1
force Se   0.000000000000000  -0.000000000000000  -0.005527441289724 1
force Se   0.000000000000000  -0.000000000000000   0.005527441289384 1
force Se   0.000000000000000  -0.000000000000000  -0.005527441289723 1
force Se  -0.000000000000000  -0.000000000000000   0.005527441289384 1

# Energy components:
   A_diel =        0.0106021646127881
   Eewald =     7355.3611886338494514
       EH =     8564.3085133986332949
     Eloc =   -17644.8469716892250290
      Enl =      104.3860628395359811
      Exc =     -632.3449195075170337
 Exc_core =      404.2865653872537450
       KE =      393.7231314955743073
-------------------------------------
     Etot =    -1455.1158272772822784
       TS =        0.0950148297858799
-------------------------------------
        F =    -1455.2108421070681743

IonicMinimize: Iter:   2  F: -1455.210842107068174  |grad|_K:  7.584e-05  alpha:  1.000e+00  linmin: -1.000e+00  t[s]:   4925.18
IonicMinimize: Converged (|grad|_K<1.000000e-04).

#--- Lowdin population analysis ---
# oxidation-state V +0.556 +0.556 +0.556 +0.556 +0.556 +0.556 +0.556 +0.556 +0.556 +0.556 +0.556 +0.556 +0.556 +0.556 +0.556 +0.556
# magnetic-moments V +0.000 +0.000 +0.000 +0.000 +0.000 +0.000 +0.000 +0.000 +0.000 +0.000 +0.000 +0.000 +0.000 +0.000 +0.000 +0.000
# oxidation-state Se -0.185 -0.185 -0.185 -0.185 -0.185 -0.185 -0.185 -0.185 -0.185 -0.185 -0.185 -0.185 -0.185 -0.185 -0.185 -0.185 -0.185 -0.185 -0.185 -0.185 -0.185 -0.185 -0.185 -0.185 -0.185 -0.185 -0.185 -0.185 -0.185 -0.185 -0.185 -0.185
# magnetic-moments Se -0.000 -0.000 -0.000 -0.000 -0.000 -0.000 -0.000 -0.000 -0.000 -0.000 -0.000 -0.000 -0.000 -0.000 -0.000 -0.000 -0.000 -0.000 -0.000 -0.000 -0.000 -0.000 -0.000 -0.000 -0.000 -0.000 -0.000 -0.000 -0.000 -0.000 -0.000 -0.000


Dumping 'NbTe2.fillings' ... done
Dumping 'NbTe2.wfns' ... done
Dumping 'NbTe2.fluidState' ... done
Dumping 'NbTe2.ionpos' ... done
Dumping 'NbTe2.eigenvals' ... done
End date and time: Fri Jan 29 23:04:03 2021  (Duration: 0-1:22:11.07)
Done!
