
*************** JDFTx 1.5.0  ***************

Start date and time: Sun Jul 12 15:09:49 2020
Executable jdftx_gpu with command-line: -i Charged.in -o Charged.out
Running on hosts (process indices):  amax (0-1)
Divided in process groups (process indices):  0 (0)  1 (1)
gpuInit: Found compatible cuda device 0 'Tesla K80'
gpuInit: Found compatible cuda device 1 'Tesla K80'
gpuInit: Selected device 0
Resource initialization completed at t[s]:     20.64
Run totals: 2 processes, 24 threads, 2 GPUs


Input parsed successfully to the following command list (including defaults):

basis kpoint-dependent
cache-projectors no
coords-type Lattice
core-overlap-check none
coulomb-interaction Slab 001
coulomb-truncation-embed 0 0 0.5
davidson-band-ratio 1.1
dump End State
dump-name NbTe2.$VAR
elec-cutoff 20 100
elec-eigen-algo Davidson
elec-ex-corr gga-PBE
elec-smearing Gauss 0.0073499
electronic-minimize  \
	dirUpdateScheme      FletcherReeves \
	linminMethod         DirUpdateRecommended \
	nIterations          500 \
	history              15 \
	knormThreshold       0 \
	energyDiffThreshold  1e-08 \
	nEnergyDiff          2 \
	alphaTstart          1 \
	alphaTmin            1e-10 \
	updateTestStepSize   yes \
	alphaTreduceFactor   0.1 \
	alphaTincreaseFactor 3 \
	nAlphaAdjustMax      3 \
	wolfeEnergy          0.0001 \
	wolfeGradient        0.9 \
	fdTest               no
exchange-regularization WignerSeitzTruncated
fluid LinearPCM 298.000000 1.013250
fluid-anion F- 1 MeanFieldLJ \
	epsBulk 1 \
	pMol 0 \
	epsInf 1 \
	Pvap 0 \
	sigmaBulk 0 \
	Rvdw 2.24877 \
	Res 0 \
	tauNuc 343133
fluid-cation Na+ 1 MeanFieldLJ \
	epsBulk 1 \
	pMol 0 \
	epsInf 1 \
	Pvap 0 \
	sigmaBulk 0 \
	Rvdw 2.19208 \
	Res 0 \
	tauNuc 343133
fluid-ex-corr lda-TF lda-PZ
fluid-gummel-loop 10 1.000000e-05
fluid-minimize  \
	dirUpdateScheme      PolakRibiere \
	linminMethod         DirUpdateRecommended \
	nIterations          400 \
	history              15 \
	knormThreshold       1e-11 \
	energyDiffThreshold  0 \
	nEnergyDiff          2 \
	alphaTstart          1 \
	alphaTmin            1e-10 \
	updateTestStepSize   yes \
	alphaTreduceFactor   0.1 \
	alphaTincreaseFactor 3 \
	nAlphaAdjustMax      6 \
	wolfeEnergy          0.0001 \
	wolfeGradient        0.9 \
	fdTest               no
fluid-solvent H2O 55.338 ScalarEOS \
	epsBulk 78.4 \
	pMol 0.92466 \
	epsInf 1.77 \
	Pvap 1.06736e-10 \
	sigmaBulk 4.62e-05 \
	Rvdw 2.61727 \
	Res 1.42 \
	tauNuc 343133 \
	poleEl 15 7 1
forces-output-coords Positions
initial-state NbTe2.$VAR
ion Ta   0.999999919022109   0.000000073969964   0.499999999973149 0
ion Ta   0.333333252355445   0.000000073969964   0.499999999973149 0
ion Ta   0.666666585688780   0.000000073969964   0.499999999973149 0
ion Ta   0.999999919022109   0.333333407303300   0.499999999973149 0
ion Ta   0.333333252355445   0.333333407303300   0.499999999973149 0
ion Ta   0.666666585688780   0.333333407303300   0.499999999973149 0
ion Ta   0.999999919022109   0.666666740636629   0.499999999973149 0
ion Ta   0.333333252355445   0.666666740636629   0.499999999973149 0
ion Ta   0.666666585688780   0.666666740636629   0.499999999973149 0
ion Se   0.111111040493491   0.222222296400922   0.408532189918340 0
ion Se   0.444444373826826   0.222222296400922   0.408532189918340 0
ion Se   0.777777707160155   0.222222296400922   0.408532189918340 0
ion Se   0.111111040493491   0.555555629734258   0.408532189918340 0
ion Se   0.444444373826826   0.555555629734258   0.408532189918340 0
ion Se   0.777777707160155   0.555555629734258   0.408532189918340 0
ion Se   0.111111040493491   0.888888963067593   0.408532189918340 0
ion Se   0.444444373826826   0.888888963067593   0.408532189918340 0
ion Se   0.777777707160155   0.888888963067593   0.408532189918340 0
ion Se   0.111111040484403   0.222222296295776   0.591467810108519 0
ion Se   0.444444373817731   0.222222296295776   0.591467810108519 0
ion Se   0.777777707151067   0.222222296295776   0.591467810108519 0
ion Se   0.111111040484403   0.555555629629112   0.591467810108519 0
ion Se   0.444444373817731   0.555555629629112   0.591467810108519 0
ion Se   0.777777707151067   0.555555629629112   0.591467810108519 0
ion Se   0.111111040484403   0.888888962962440   0.591467810108519 0
ion Se   0.444444373817731   0.888888962962440   0.591467810108519 0
ion Se   0.777777707151067   0.888888962962440   0.591467810108519 0
ion-species GBRV/$ID_pbe.uspp
ion-width Ecut
ionic-minimize  \
	dirUpdateScheme      L-BFGS \
	linminMethod         DirUpdateRecommended \
	nIterations          0 \
	history              15 \
	knormThreshold       0.0001 \
	energyDiffThreshold  1e-06 \
	nEnergyDiff          2 \
	alphaTstart          1 \
	alphaTmin            1e-10 \
	updateTestStepSize   yes \
	alphaTreduceFactor   0.1 \
	alphaTincreaseFactor 3 \
	nAlphaAdjustMax      3 \
	wolfeEnergy          0.0001 \
	wolfeGradient        0.9 \
	fdTest               no
kpoint   0.000000000000   0.000000000000   0.000000000000  1.00000000000000
kpoint-folding 4 4 1 
latt-move-scale 1 1 1
latt-scale 1 1 1 
lattice Triclinic 19.6191 19.6191 34.6845 90 90 120
lattice-minimize  \
	dirUpdateScheme      L-BFGS \
	linminMethod         DirUpdateRecommended \
	nIterations          0 \
	history              15 \
	knormThreshold       0 \
	energyDiffThreshold  1e-06 \
	nEnergyDiff          2 \
	alphaTstart          1 \
	alphaTmin            1e-10 \
	updateTestStepSize   yes \
	alphaTreduceFactor   0.1 \
	alphaTincreaseFactor 3 \
	nAlphaAdjustMax      3 \
	wolfeEnergy          0.0001 \
	wolfeGradient        0.9 \
	fdTest               no
lcao-params -1 1e-06 0.0073499
pcm-variant CANDLE
spintype no-spin
subspace-rotation-factor 1 yes
symmetries automatic
symmetry-threshold 0.0001
target-mu -0.171252 no




---------- Setting up symmetries ----------

Found 24 point-group symmetries of the bravais lattice
Found 108 space-group symmetries with basis
Applied RMS atom displacement 9.50672e-08 bohrs to make symmetries exact.

---------- Initializing the Grid ----------
R = 
[    19.6191   -9.80956          0  ]
[          0    16.9907          0  ]
[          0          0    34.6845  ]
unit cell volume = 11561.8
G =
[   0.320258   0.184901         -0  ]
[          0   0.369802          0  ]
[          0         -0   0.181152  ]
Minimum fftbox size, Smin = [  92  92  160  ]
Chosen fftbox size, S = [  96  96  160  ]

---------- Initializing tighter grid for wavefunction operations ----------
R = 
[    19.6191   -9.80956          0  ]
[          0    16.9907          0  ]
[          0          0    34.6845  ]
unit cell volume = 11561.8
G =
[   0.320258   0.184901         -0  ]
[          0   0.369802          0  ]
[          0         -0   0.181152  ]
Minimum fftbox size, Smin = [  80  80  140  ]
Chosen fftbox size, S = [  80  80  140  ]

---------- Exchange Correlation functional ----------
Initalized PBE GGA exchange.
Initalized PBE GGA correlation.

---------- Setting up pseudopotentials ----------
Width of ionic core gaussian charges (only for fluid interactions / plotting) set to 0.397384

Reading pseudopotential file '/home/guoxy/vasp/jdftx-1.5.0/build/pseudopotentials/GBRV/ta_pbe.uspp':
  Title: Ta.  Created by USPP 7.3.6 on 14-9-2013
  Reference state energy: -70.583193.  13 valence electrons in orbitals:
    |500>  occupation: 2  eigenvalue: -2.682396
    |510>  occupation: 6  eigenvalue: -1.447928
    |520>  occupation: 3  eigenvalue: -0.131987
    |600>  occupation: 2  eigenvalue: -0.199982
    |610>  occupation: 0  eigenvalue: -0.051129
  lMax: 3  lLocal: 3  QijEcut: 5
  7 projectors sampled on a log grid with 667 points:
    l: 0  eig: -2.682397  rCut: 1.4
    l: 0  eig: -0.199983  rCut: 1.4
    l: 1  eig: -1.447928  rCut: 1.5
    l: 1  eig: -0.051130  rCut: 1.5
    l: 2  eig: -0.131987  rCut: 1.7
    l: 2  eig: 0.150000  rCut: 1.7
    l: 3  eig: 0.250000  rCut: 2.3
  Partial core density with radius 1.2
  Transforming core density to a uniform radial grid of dG=0.02 with 1705 points.
  Transforming local potential to a uniform radial grid of dG=0.02 with 1705 points.
  Transforming nonlocal projectors to a uniform radial grid of dG=0.02 with 432 points.
  Transforming density augmentations to a uniform radial grid of dG=0.02 with 1705 points.
  Transforming atomic orbitals to a uniform radial grid of dG=0.02 with 432 points.
  Core radius for overlap checks: 2.30 bohrs.

Reading pseudopotential file '/home/guoxy/vasp/jdftx-1.5.0/build/pseudopotentials/GBRV/se_pbe.uspp':
  Title: Se.  Created by USPP 7.3.6 on 14-9-2013
  Reference state energy: -21.672887.  6 valence electrons in orbitals:
    |400>  occupation: 2  eigenvalue: -0.635284
    |410>  occupation: 4  eigenvalue: -0.239295
  lMax: 2  lLocal: 3  QijEcut: 5
  6 projectors sampled on a log grid with 625 points:
    l: 0  eig: -0.635278  rCut: 1.5
    l: 0  eig: 0.500000  rCut: 1.5
    l: 1  eig: -0.239295  rCut: 1.5
    l: 1  eig: 0.500000  rCut: 1.5
    l: 2  eig: 0.000000  rCut: 1.8
    l: 2  eig: 1.000000  rCut: 1.8
  Partial core density with radius 1.2
  Transforming core density to a uniform radial grid of dG=0.02 with 1705 points.
  Transforming local potential to a uniform radial grid of dG=0.02 with 1705 points.
  Transforming nonlocal projectors to a uniform radial grid of dG=0.02 with 432 points.
  Transforming density augmentations to a uniform radial grid of dG=0.02 with 1705 points.
  Transforming atomic orbitals to a uniform radial grid of dG=0.02 with 432 points.
  Core radius for overlap checks: 1.80 bohrs.

Initialized 2 species with 27 total atoms.

Folded 1 k-points by 4x4x1 to 16 k-points.

---------- Setting up k-points, bands, fillings ----------
Adding inversion symmetry to k-mesh for non-inversion-symmetric unit cell.
Reduced to 4 k-points under symmetry. 
Computing the number of bands and number of electrons
Reading initial fillings from file NbTe2.fillings.
nElectrons: 225.000000   nBands: 189   nStates: 4

----- Setting up reduced wavefunction bases (one per k-point) -----
average nbasis = 49385.438 , ideal nbasis = 49392.913

---------- Setting up coulomb interaction ----------
Fluid mode embedding: using embedded box, but periodic Coulomb kernel.
(Fluid response is responsible for (approximate) separation between periodic images.)
Setting up double-sized grid for truncated Coulomb potentials:
R = 
[    19.6191   -9.80956          0  ]
[          0    16.9907          0  ]
[          0          0     69.369  ]
unit cell volume = 23123.6
G =
[   0.320258   0.184901         -0  ]
[          0   0.369802          0  ]
[          0         -0  0.0905762  ]
Chosen fftbox size, S = [  96  96  320  ]
Integer grid location selected as the embedding center:
   Grid: [  0  0  80  ]
   Lattice: [  0  0  0.5  ]
   Cartesian: [  0  0  17.3423  ]
Constructing Wigner-Seitz cell: 8 faces (6 quadrilaterals, 2 hexagons)
Range-separation parameter for embedded mesh potentials due to point charges: 0.587378 bohrs.

Initializing van der Waals corrections
	NOTE: vdW corrections apply only for interactions with fluid.
	Ta:  C6:  815.23 Eh-a0^6  R0: 3.326 a0 (WARNING: beyond Grimme's data set)
	Se:  C6:  219.24 Eh-a0^6  R0: 3.347 a0

---------- Setting up ewald sum ----------
Optimum gaussian width for ewald sums = 6.561976 bohr.
Real space sum over 605 unit cells with max indices [  5  5  2  ]
Reciprocal space sum over 5915 terms with max indices [  6  6  17  ]

---------- Allocating electronic variables ----------
Initializing wave functions:  reading from 'NbTe2.wfns'

*************** JDFTx 1.5.0  ***************

Start date and time: Sun Jul 12 15:10:34 2020
Executable jdftx_gpu with command-line: -i Charged.in -o Charged.out
Running on hosts (process indices):  amax (0-1)
Divided in process groups (process indices):  0 (0)  1 (1)
gpuInit: Found compatible cuda device 0 'Tesla K80'
gpuInit: Found compatible cuda device 1 'Tesla K80'
gpuInit: Selected device 0
Resource initialization completed at t[s]:     15.56
Run totals: 2 processes, 24 threads, 2 GPUs


Input parsed successfully to the following command list (including defaults):

basis kpoint-dependent
cache-projectors no
coords-type Lattice
core-overlap-check none
coulomb-interaction Slab 001
coulomb-truncation-embed 0 0 0.5
davidson-band-ratio 1.1
dump End State
dump-name NbTe2.$VAR
elec-cutoff 20 100
elec-eigen-algo Davidson
elec-ex-corr gga-PBE
elec-smearing Gauss 0.0073499
electronic-minimize  \
	dirUpdateScheme      FletcherReeves \
	linminMethod         DirUpdateRecommended \
	nIterations          500 \
	history              15 \
	knormThreshold       0 \
	energyDiffThreshold  1e-08 \
	nEnergyDiff          2 \
	alphaTstart          1 \
	alphaTmin            1e-10 \
	updateTestStepSize   yes \
	alphaTreduceFactor   0.1 \
	alphaTincreaseFactor 3 \
	nAlphaAdjustMax      3 \
	wolfeEnergy          0.0001 \
	wolfeGradient        0.9 \
	fdTest               no
exchange-regularization WignerSeitzTruncated
fluid LinearPCM 298.000000 1.013250
fluid-anion F- 1 MeanFieldLJ \
	epsBulk 1 \
	pMol 0 \
	epsInf 1 \
	Pvap 0 \
	sigmaBulk 0 \
	Rvdw 2.24877 \
	Res 0 \
	tauNuc 343133
fluid-cation Na+ 1 MeanFieldLJ \
	epsBulk 1 \
	pMol 0 \
	epsInf 1 \
	Pvap 0 \
	sigmaBulk 0 \
	Rvdw 2.19208 \
	Res 0 \
	tauNuc 343133
fluid-ex-corr lda-TF lda-PZ
fluid-gummel-loop 10 1.000000e-05
fluid-minimize  \
	dirUpdateScheme      PolakRibiere \
	linminMethod         DirUpdateRecommended \
	nIterations          400 \
	history              15 \
	knormThreshold       1e-11 \
	energyDiffThreshold  0 \
	nEnergyDiff          2 \
	alphaTstart          1 \
	alphaTmin            1e-10 \
	updateTestStepSize   yes \
	alphaTreduceFactor   0.1 \
	alphaTincreaseFactor 3 \
	nAlphaAdjustMax      6 \
	wolfeEnergy          0.0001 \
	wolfeGradient        0.9 \
	fdTest               no
fluid-solvent H2O 55.338 ScalarEOS \
	epsBulk 78.4 \
	pMol 0.92466 \
	epsInf 1.77 \
	Pvap 1.06736e-10 \
	sigmaBulk 4.62e-05 \
	Rvdw 2.61727 \
	Res 1.42 \
	tauNuc 343133 \
	poleEl 15 7 1
forces-output-coords Positions
initial-state NbTe2.$VAR
ion Ta   0.999999919022109   0.000000073969964   0.499999999973149 0
ion Ta   0.333333252355445   0.000000073969964   0.499999999973149 0
ion Ta   0.666666585688780   0.000000073969964   0.499999999973149 0
ion Ta   0.999999919022109   0.333333407303300   0.499999999973149 0
ion Ta   0.333333252355445   0.333333407303300   0.499999999973149 0
ion Ta   0.666666585688780   0.333333407303300   0.499999999973149 0
ion Ta   0.999999919022109   0.666666740636629   0.499999999973149 0
ion Ta   0.333333252355445   0.666666740636629   0.499999999973149 0
ion Ta   0.666666585688780   0.666666740636629   0.499999999973149 0
ion Se   0.111111040493491   0.222222296400922   0.408532189918340 0
ion Se   0.444444373826826   0.222222296400922   0.408532189918340 0
ion Se   0.777777707160155   0.222222296400922   0.408532189918340 0
ion Se   0.111111040493491   0.555555629734258   0.408532189918340 0
ion Se   0.444444373826826   0.555555629734258   0.408532189918340 0
ion Se   0.777777707160155   0.555555629734258   0.408532189918340 0
ion Se   0.111111040493491   0.888888963067593   0.408532189918340 0
ion Se   0.444444373826826   0.888888963067593   0.408532189918340 0
ion Se   0.777777707160155   0.888888963067593   0.408532189918340 0
ion Se   0.111111040484403   0.222222296295776   0.591467810108519 0
ion Se   0.444444373817731   0.222222296295776   0.591467810108519 0
ion Se   0.777777707151067   0.222222296295776   0.591467810108519 0
ion Se   0.111111040484403   0.555555629629112   0.591467810108519 0
ion Se   0.444444373817731   0.555555629629112   0.591467810108519 0
ion Se   0.777777707151067   0.555555629629112   0.591467810108519 0
ion Se   0.111111040484403   0.888888962962440   0.591467810108519 0
ion Se   0.444444373817731   0.888888962962440   0.591467810108519 0
ion Se   0.777777707151067   0.888888962962440   0.591467810108519 0
ion-species GBRV/$ID_pbe.uspp
ion-width Ecut
ionic-minimize  \
	dirUpdateScheme      L-BFGS \
	linminMethod         DirUpdateRecommended \
	nIterations          0 \
	history              15 \
	knormThreshold       0.0001 \
	energyDiffThreshold  1e-06 \
	nEnergyDiff          2 \
	alphaTstart          1 \
	alphaTmin            1e-10 \
	updateTestStepSize   yes \
	alphaTreduceFactor   0.1 \
	alphaTincreaseFactor 3 \
	nAlphaAdjustMax      3 \
	wolfeEnergy          0.0001 \
	wolfeGradient        0.9 \
	fdTest               no
kpoint   0.000000000000   0.000000000000   0.000000000000  1.00000000000000
kpoint-folding 4 4 1 
latt-move-scale 1 1 1
latt-scale 1 1 1 
lattice Triclinic 19.6191 19.6191 34.6845 90 90 120
lattice-minimize  \
	dirUpdateScheme      L-BFGS \
	linminMethod         DirUpdateRecommended \
	nIterations          0 \
	history              15 \
	knormThreshold       0 \
	energyDiffThreshold  1e-06 \
	nEnergyDiff          2 \
	alphaTstart          1 \
	alphaTmin            1e-10 \
	updateTestStepSize   yes \
	alphaTreduceFactor   0.1 \
	alphaTincreaseFactor 3 \
	nAlphaAdjustMax      3 \
	wolfeEnergy          0.0001 \
	wolfeGradient        0.9 \
	fdTest               no
lcao-params -1 1e-06 0.0073499
pcm-variant CANDLE
spintype no-spin
subspace-rotation-factor 1 yes
symmetries automatic
symmetry-threshold 0.0001
target-mu -0.24475 no




---------- Setting up symmetries ----------

Found 24 point-group symmetries of the bravais lattice
Found 108 space-group symmetries with basis
Applied RMS atom displacement 9.50672e-08 bohrs to make symmetries exact.

---------- Initializing the Grid ----------
R = 
[    19.6191   -9.80956          0  ]
[          0    16.9907          0  ]
[          0          0    34.6845  ]
unit cell volume = 11561.8
G =
[   0.320258   0.184901         -0  ]
[          0   0.369802          0  ]
[          0         -0   0.181152  ]
Minimum fftbox size, Smin = [  92  92  160  ]
Chosen fftbox size, S = [  96  96  160  ]

---------- Initializing tighter grid for wavefunction operations ----------
R = 
[    19.6191   -9.80956          0  ]
[          0    16.9907          0  ]
[          0          0    34.6845  ]
unit cell volume = 11561.8
G =
[   0.320258   0.184901         -0  ]
[          0   0.369802          0  ]
[          0         -0   0.181152  ]
Minimum fftbox size, Smin = [  80  80  140  ]
Chosen fftbox size, S = [  80  80  140  ]

---------- Exchange Correlation functional ----------
Initalized PBE GGA exchange.
Initalized PBE GGA correlation.

---------- Setting up pseudopotentials ----------
Width of ionic core gaussian charges (only for fluid interactions / plotting) set to 0.397384

Reading pseudopotential file '/home/guoxy/vasp/jdftx-1.5.0/build/pseudopotentials/GBRV/ta_pbe.uspp':
  Title: Ta.  Created by USPP 7.3.6 on 14-9-2013
  Reference state energy: -70.583193.  13 valence electrons in orbitals:
    |500>  occupation: 2  eigenvalue: -2.682396
    |510>  occupation: 6  eigenvalue: -1.447928
    |520>  occupation: 3  eigenvalue: -0.131987
    |600>  occupation: 2  eigenvalue: -0.199982
    |610>  occupation: 0  eigenvalue: -0.051129
  lMax: 3  lLocal: 3  QijEcut: 5
  7 projectors sampled on a log grid with 667 points:
    l: 0  eig: -2.682397  rCut: 1.4
    l: 0  eig: -0.199983  rCut: 1.4
    l: 1  eig: -1.447928  rCut: 1.5
    l: 1  eig: -0.051130  rCut: 1.5
    l: 2  eig: -0.131987  rCut: 1.7
    l: 2  eig: 0.150000  rCut: 1.7
    l: 3  eig: 0.250000  rCut: 2.3
  Partial core density with radius 1.2
  Transforming core density to a uniform radial grid of dG=0.02 with 1705 points.
  Transforming local potential to a uniform radial grid of dG=0.02 with 1705 points.
  Transforming nonlocal projectors to a uniform radial grid of dG=0.02 with 432 points.
  Transforming density augmentations to a uniform radial grid of dG=0.02 with 1705 points.
  Transforming atomic orbitals to a uniform radial grid of dG=0.02 with 432 points.
  Core radius for overlap checks: 2.30 bohrs.

Reading pseudopotential file '/home/guoxy/vasp/jdftx-1.5.0/build/pseudopotentials/GBRV/se_pbe.uspp':
  Title: Se.  Created by USPP 7.3.6 on 14-9-2013
  Reference state energy: -21.672887.  6 valence electrons in orbitals:
    |400>  occupation: 2  eigenvalue: -0.635284
    |410>  occupation: 4  eigenvalue: -0.239295
  lMax: 2  lLocal: 3  QijEcut: 5
  6 projectors sampled on a log grid with 625 points:
    l: 0  eig: -0.635278  rCut: 1.5
    l: 0  eig: 0.500000  rCut: 1.5
    l: 1  eig: -0.239295  rCut: 1.5
    l: 1  eig: 0.500000  rCut: 1.5
    l: 2  eig: 0.000000  rCut: 1.8
    l: 2  eig: 1.000000  rCut: 1.8
  Partial core density with radius 1.2
  Transforming core density to a uniform radial grid of dG=0.02 with 1705 points.
  Transforming local potential to a uniform radial grid of dG=0.02 with 1705 points.
  Transforming nonlocal projectors to a uniform radial grid of dG=0.02 with 432 points.
  Transforming density augmentations to a uniform radial grid of dG=0.02 with 1705 points.
  Transforming atomic orbitals to a uniform radial grid of dG=0.02 with 432 points.
  Core radius for overlap checks: 1.80 bohrs.

Initialized 2 species with 27 total atoms.

Folded 1 k-points by 4x4x1 to 16 k-points.

---------- Setting up k-points, bands, fillings ----------
Adding inversion symmetry to k-mesh for non-inversion-symmetric unit cell.
Reduced to 4 k-points under symmetry. 
Computing the number of bands and number of electrons
Reading initial fillings from file NbTe2.fillings.
nElectrons: 225.000000   nBands: 189   nStates: 4

----- Setting up reduced wavefunction bases (one per k-point) -----
average nbasis = 49385.438 , ideal nbasis = 49392.913

---------- Setting up coulomb interaction ----------
Fluid mode embedding: using embedded box, but periodic Coulomb kernel.
(Fluid response is responsible for (approximate) separation between periodic images.)
Setting up double-sized grid for truncated Coulomb potentials:
R = 
[    19.6191   -9.80956          0  ]
[          0    16.9907          0  ]
[          0          0     69.369  ]
unit cell volume = 23123.6
G =
[   0.320258   0.184901         -0  ]
[          0   0.369802          0  ]
[          0         -0  0.0905762  ]
Chosen fftbox size, S = [  96  96  320  ]
Integer grid location selected as the embedding center:
   Grid: [  0  0  80  ]
   Lattice: [  0  0  0.5  ]
   Cartesian: [  0  0  17.3423  ]
Constructing Wigner-Seitz cell: 8 faces (6 quadrilaterals, 2 hexagons)
Range-separation parameter for embedded mesh potentials due to point charges: 0.587378 bohrs.

Initializing van der Waals corrections
	NOTE: vdW corrections apply only for interactions with fluid.
	Ta:  C6:  815.23 Eh-a0^6  R0: 3.326 a0 (WARNING: beyond Grimme's data set)
	Se:  C6:  219.24 Eh-a0^6  R0: 3.347 a0

---------- Setting up ewald sum ----------
Optimum gaussian width for ewald sums = 6.561976 bohr.
Real space sum over 605 unit cells with max indices [  5  5  2  ]
Reciprocal space sum over 5915 terms with max indices [  6  6  17  ]

---------- Allocating electronic variables ----------
Initializing wave functions:  reading from 'NbTe2.wfns'
----- createFluidSolver() ----- (Fluid-side solver setup)
   Initializing fluid molecule 'H2O'
     Initializing site 'O'
       Electron density: proportional to exp(-r/0.36935)*erfc((r-0.51523)/0.36823) with norm 6.826
       Charge density: gaussian nuclear width 0.478731 with net site charge 0.826
       Polarizability: cuspless exponential with width 0.32 and norm 3.73
       Hard sphere radius: 2.57003 bohrs
       Positions in reference frame:
         [ +0.000000 +0.000000 +0.000000 ]
     Initializing site 'H'
       Electron density: proportional to exp(-r/0.34641)*erfc((r-0)/0.390882) with norm 0.587
       Charge density: gaussian nuclear width 0.377945 with net site charge -0.413
       Polarizability: cuspless exponential with width 0.39 and norm 3.3
       Positions in reference frame:
         [ +0.000000 -1.441945 +1.122523 ]
         [ +0.000000 +1.441945 +1.122523 ]
     Net charge: 0   dipole magnitude: 0.927204
     Initializing spherical shell mfKernel with radius 2.61727 Bohr
     deltaS corrections:
       site 'O': -7.54299
       site 'H': -6.83917
   Initializing fluid molecule 'Na+'
     Initializing site 'Na'
       Electron density: proportional to exp(-r/0.19682)*erfc((r-0.71491)/0.41314) with norm 8.1383
       Charge density: gaussian nuclear width 0.365347 with net site charge -1
       Hard sphere radius: 1.86327 bohrs
       Positions in reference frame:
         [ +0.000000 +0.000000 +0.000000 ]
     Net charge: -1   dipole magnitude: 0
     Initializing gaussian mfKernel with width: 1.55004 Bohr
     deltaS corrections:
       site 'Na': -22.3555
   Initializing fluid molecule 'F-'
     Initializing site 'F'
       Electron density: proportional to exp(-r/0.38886)*erfc((r-0)/0.438782) with norm 8
       Charge density: gaussian nuclear width 0.374796 with net site charge 1
       Hard sphere radius: 2.39995 bohrs
       Positions in reference frame:
         [ +0.000000 +0.000000 +0.000000 ]
     Net charge: 1   dipole magnitude: 0
     Initializing gaussian mfKernel with width: 1.59012 Bohr
     deltaS corrections:
       site 'F': -9.04335

Correction to mu due to finite nuclear width = -0.00965443
   Cavity determined by nc: 0.00142 and sigma: 0.707107
   Nonlocal vdW cavity from gaussian model electron density with norm = 8 and sigma = 0.993594 bohr
   Charge asymmetry in cavity with sensitivity pCavity = 36.5 e-bohr/Eh
   Electrostatic cavity expanded by eta = 1.46 bohrs
   Weighted density cavitation model constrained by Nbulk: 0.0049383 bohr^-3, Pvap: 3.14029 kPa, Rvdw: 2.61727 bohr and sigmaBulk: 4.62e-05 Eh/bohr^2 at T: 298 K.
   Weighted density dispersion model using vdW pair potentials with single solvent site with sqrtC6eff: 0.77 SI.
Reading fluid state from 'NbTe2.fluidState'


---- Citations for features of the code used in this run ----

   Software package:
      R. Sundararaman, K. Letchworth-Weaver, K.A. Schwarz, D. Gunceler, Y. Ozhabes and T.A. Arias, 'JDFTx: software for joint density-functional theory', SoftwareX 6, 278 (2017)

   gga-PBE exchange-correlation functional:
      J.P. Perdew, K. Burke and M. Ernzerhof, Phys. Rev. Lett. 77, 3865 (1996)

   Pseudopotentials:
      KF Garrity, JW Bennett, KM Rabe and D Vanderbilt, Comput. Mater. Sci. 81, 446 (2014)

   Truncated Coulomb potentials:
      R. Sundararaman and T.A. Arias, Phys. Rev. B 87, 165122 (2013)

   Van der Waals correction pair-potentials:
      S. Grimme, J. Comput. Chem. 27, 1787 (2006)

   Charge-asymmetric nonlocally-determined local-electric (CANDLE) solvation model:
      R. Sundararaman and W.A. Goddard III, J. Chem. Phys. 142, 064107 (2015)

   Total energy minimization with Auxiliary Hamiltonian:
      C. Freysoldt, S. Boeck, and J. Neugebauer, Phys. Rev. B 79, 241103(R) (2009)

   Grand-canonical (fixed-potential) DFT:
      R. Sundararaman, W. A. Goddard III and T. A. Arias, J. Chem. Phys. 146, 114104 (2017)

This list may not be complete. Please suggest additional citations or
report any other bugs at https://github.com/shankar1729/jdftx/issues

Initialization completed successfully at t[s]:     21.78

Shifting auxilliary hamiltonian by -0.055786 to set nElectrons=225.000000
	Linear fluid (dielectric constant: 78.4, screening length: 5.74355 Bohr) occupying 0.749795 of unit cell:	Completed after 0 iterations at t[s]:     23.80

-------- Electronic minimization -----------
	Linear fluid (dielectric constant: 78.4, screening length: 5.74355 Bohr) occupying 0.749795 of unit cell:	Completed after 0 iterations at t[s]:     26.12
	FillingsUpdate:  mu: -0.244750400  nElectrons: 225.000000
ElecMinimize: Iter:   0  G: -646.273475737589706  |grad|_K:  1.403e-04  alpha:  1.000e+00
	Linear fluid (dielectric constant: 78.4, screening length: 5.74355 Bohr) occupying 0.756689 of unit cell:	Completed after 17 iterations at t[s]:     33.54
	Linear fluid (dielectric constant: 78.4, screening length: 5.74355 Bohr) occupying 0.749868 of unit cell:	Completed after 16 iterations at t[s]:     37.63
	FillingsUpdate:  mu: -0.244750400  nElectrons: 224.276889
	SubspaceRotationAdjust: set factor to 0.453
ElecMinimize: Iter:   1  G: -646.291292407098581  |grad|_K:  4.218e-05  alpha:  2.726e-02  linmin:  1.072e-02  t[s]:     40.91
	Linear fluid (dielectric constant: 78.4, screening length: 5.74355 Bohr) occupying 0.749991 of unit cell:	Completed after 12 iterations at t[s]:     44.41
ElecMinimize: 	Predicted alpha/alphaT>3.000000, increasing alphaT to 8.177604e-02.
	Linear fluid (dielectric constant: 78.4, screening length: 5.74355 Bohr) occupying 0.750233 of unit cell:	Completed after 11 iterations at t[s]:     48.16
	Linear fluid (dielectric constant: 78.4, screening length: 5.74355 Bohr) occupying 0.750480 of unit cell:	Completed after 12 iterations at t[s]:     51.94
	FillingsUpdate:  mu: -0.244750400  nElectrons: 224.367692
	SubspaceRotationAdjust: set factor to 0.232
ElecMinimize: Iter:   2  G: -646.299453240990715  |grad|_K:  3.987e-05  alpha:  1.382e-01  linmin: -3.733e-04  t[s]:     73.08
	Linear fluid (dielectric constant: 78.4, screening length: 5.74355 Bohr) occupying 0.751208 of unit cell:	Completed after 11 iterations at t[s]:     89.61
	Linear fluid (dielectric constant: 78.4, screening length: 5.74355 Bohr) occupying 0.751214 of unit cell:	Completed after 6 iterations at t[s]:     94.34
	FillingsUpdate:  mu: -0.244750400  nElectrons: 223.746360
	SubspaceRotationAdjust: set factor to 0.0958
	SubspaceRotationAdjust: resetting CG because factor has changed by 0.0957776
	Linear fluid (dielectric constant: 78.4, screening length: 5.74355 Bohr) occupying 0.751214 of unit cell:	Completed after 0 iterations at t[s]:    101.28
ElecMinimize: 	State modified externally: resetting search direction.
ElecMinimize: Iter:   3  G: -646.307808855568283  |grad|_K:  1.386e-05  alpha:  1.394e-01
	Linear fluid (dielectric constant: 78.4, screening length: 5.74355 Bohr) occupying 0.751339 of unit cell:	Completed after 12 iterations at t[s]:    111.77
	Linear fluid (dielectric constant: 78.4, screening length: 5.74355 Bohr) occupying 0.751582 of unit cell:	Completed after 11 iterations at t[s]:    117.06
	FillingsUpdate:  mu: -0.244750400  nElectrons: 223.906353
	SubspaceRotationAdjust: set factor to 0.064
ElecMinimize: Iter:   4  G: -646.310755109063166  |grad|_K:  1.062e-05  alpha:  4.100e-01  linmin: -1.209e-05  t[s]:    122.02
	Linear fluid (dielectric constant: 78.4, screening length: 5.74355 Bohr) occupying 0.752082 of unit cell:	Completed after 11 iterations at t[s]:    127.25
	Linear fluid (dielectric constant: 78.4, screening length: 5.74355 Bohr) occupying 0.752580 of unit cell:	Completed after 10 iterations at t[s]:    132.46
	FillingsUpdate:  mu: -0.244750400  nElectrons: 223.670156
	SubspaceRotationAdjust: set factor to 0.0723
ElecMinimize: Iter:   5  G: -646.314222452771787  |grad|_K:  6.326e-06  alpha:  8.190e-01  linmin: -2.226e-04  t[s]:    137.36
	Linear fluid (dielectric constant: 78.4, screening length: 5.74355 Bohr) occupying 0.753276 of unit cell:	Completed after 10 iterations at t[s]:    142.87
	Linear fluid (dielectric constant: 78.4, screening length: 5.74355 Bohr) occupying 0.753403 of unit cell:	Completed after 3 iterations at t[s]:    147.49
	FillingsUpdate:  mu: -0.244750400  nElectrons: 223.557556
	SubspaceRotationAdjust: set factor to 0.095
ElecMinimize: Iter:   6  G: -646.315684466709058  |grad|_K:  4.367e-06  alpha:  9.705e-01  linmin: -1.715e-05  t[s]:    151.96
	Linear fluid (dielectric constant: 78.4, screening length: 5.74355 Bohr) occupying 0.753939 of unit cell:	Completed after 11 iterations at t[s]:    156.69
	Linear fluid (dielectric constant: 78.4, screening length: 5.74355 Bohr) occupying 0.753886 of unit cell:	Completed after 2 iterations at t[s]:    162.08
	FillingsUpdate:  mu: -0.244750400  nElectrons: 223.505618
	SubspaceRotationAdjust: set factor to 0.123
ElecMinimize: Iter:   7  G: -646.316306541354379  |grad|_K:  3.926e-06  alpha:  8.715e-01  linmin: -1.157e-05  t[s]:    167.00
	Linear fluid (dielectric constant: 78.4, screening length: 5.74355 Bohr) occupying 0.754311 of unit cell:	Completed after 9 iterations at t[s]:    172.14
	Linear fluid (dielectric constant: 78.4, screening length: 5.74355 Bohr) occupying 0.754415 of unit cell:	Completed after 3 iterations at t[s]:    177.45
	FillingsUpdate:  mu: -0.244750400  nElectrons: 223.450034
	SubspaceRotationAdjust: set factor to 0.147
ElecMinimize: Iter:   8  G: -646.316938007971430  |grad|_K:  4.257e-06  alpha:  1.093e+00  linmin: -2.433e-05  t[s]:    181.85
	Linear fluid (dielectric constant: 78.4, screening length: 5.74355 Bohr) occupying 0.754995 of unit cell:	Completed after 10 iterations at t[s]:    186.98
	Linear fluid (dielectric constant: 78.4, screening length: 5.74355 Bohr) occupying 0.754931 of unit cell:	Completed after 2 iterations at t[s]:    192.56
	FillingsUpdate:  mu: -0.244750400  nElectrons: 223.390779
	SubspaceRotationAdjust: set factor to 0.167
ElecMinimize: Iter:   9  G: -646.317592948176980  |grad|_K:  3.957e-06  alpha:  9.641e-01  linmin: -2.174e-05  t[s]:    197.76
	Linear fluid (dielectric constant: 78.4, screening length: 5.74355 Bohr) occupying 0.755349 of unit cell:	Completed after 9 iterations at t[s]:    203.47
	Linear fluid (dielectric constant: 78.4, screening length: 5.74355 Bohr) occupying 0.755270 of unit cell:	Completed after 8 iterations at t[s]:    209.10
	FillingsUpdate:  mu: -0.244750400  nElectrons: 223.374646
	SubspaceRotationAdjust: set factor to 0.171
ElecMinimize: Iter:  10  G: -646.318046658196181  |grad|_K:  3.201e-06  alpha:  7.735e-01  linmin: -1.578e-05  t[s]:    213.23
	Linear fluid (dielectric constant: 78.4, screening length: 5.74355 Bohr) occupying 0.755464 of unit cell:	Completed after 11 iterations at t[s]:    218.51
	Linear fluid (dielectric constant: 78.4, screening length: 5.74355 Bohr) occupying 0.755380 of unit cell:	Completed after 12 iterations at t[s]:    224.20
	FillingsUpdate:  mu: -0.244750400  nElectrons: 223.330629
	SubspaceRotationAdjust: set factor to 0.129
ElecMinimize: Iter:  11  G: -646.318211574268389  |grad|_K:  2.850e-06  alpha:  4.293e-01  linmin:  1.785e-06  t[s]:    228.36
	Linear fluid (dielectric constant: 78.4, screening length: 5.74355 Bohr) occupying 0.755462 of unit cell:	Completed after 10 iterations at t[s]:    234.26
	Linear fluid (dielectric constant: 78.4, screening length: 5.74355 Bohr) occupying 0.755433 of unit cell:	Completed after 10 iterations at t[s]:    239.90
	FillingsUpdate:  mu: -0.244750400  nElectrons: 223.355137
	SubspaceRotationAdjust: set factor to 0.0818
ElecMinimize: Iter:  12  G: -646.318295684620693  |grad|_K:  1.605e-06  alpha:  2.770e-01  linmin:  6.662e-06  t[s]:    244.78
	Linear fluid (dielectric constant: 78.4, screening length: 5.74355 Bohr) occupying 0.755439 of unit cell:	Completed after 3 iterations at t[s]:    249.19
	Linear fluid (dielectric constant: 78.4, screening length: 5.74355 Bohr) occupying 0.755444 of unit cell:	Completed after 2 iterations at t[s]:    253.78
	FillingsUpdate:  mu: -0.244750400  nElectrons: 223.351122
	SubspaceRotationAdjust: set factor to 0.104
ElecMinimize: Iter:  13  G: -646.318350354751374  |grad|_K:  1.074e-06  alpha:  5.673e-01  linmin: -1.639e-05  t[s]:    258.61
	Linear fluid (dielectric constant: 78.4, screening length: 5.74355 Bohr) occupying 0.755428 of unit cell:	Completed after 9 iterations at t[s]:    263.78
	Linear fluid (dielectric constant: 78.4, screening length: 5.74355 Bohr) occupying 0.755431 of unit cell:	Completed after 2 iterations at t[s]:    268.74
	FillingsUpdate:  mu: -0.244750400  nElectrons: 223.342242
	SubspaceRotationAdjust: set factor to 0.0864
ElecMinimize: Iter:  14  G: -646.318371127323871  |grad|_K:  7.410e-07  alpha:  4.824e-01  linmin: -1.742e-05  t[s]:    273.05
	Linear fluid (dielectric constant: 78.4, screening length: 5.74355 Bohr) occupying 0.755417 of unit cell:	Completed after 9 iterations at t[s]:    277.36
	Linear fluid (dielectric constant: 78.4, screening length: 5.74355 Bohr) occupying 0.755418 of unit cell:	Completed after 0 iterations at t[s]:    282.14
	FillingsUpdate:  mu: -0.244750400  nElectrons: 223.350722
	SubspaceRotationAdjust: set factor to 0.0635
ElecMinimize: Iter:  15  G: -646.318380056362685  |grad|_K:  5.066e-07  alpha:  4.344e-01  linmin:  3.233e-04  t[s]:    286.70
	Linear fluid (dielectric constant: 78.4, screening length: 5.74355 Bohr) occupying 0.755407 of unit cell:	Completed after 6 iterations at t[s]:    290.79
	Linear fluid (dielectric constant: 78.4, screening length: 5.74355 Bohr) occupying 0.755405 of unit cell:	Completed after 0 iterations at t[s]:    295.21
	FillingsUpdate:  mu: -0.244750400  nElectrons: 223.349840
	SubspaceRotationAdjust: set factor to 0.0833
ElecMinimize: Iter:  16  G: -646.318384812667318  |grad|_K:  3.166e-07  alpha:  4.996e-01  linmin: -6.806e-04  t[s]:    299.25
	Linear fluid (dielectric constant: 78.4, screening length: 5.74355 Bohr) occupying 0.755398 of unit cell:	Completed after 3 iterations at t[s]:    303.52
	Linear fluid (dielectric constant: 78.4, screening length: 5.74355 Bohr) occupying 0.755397 of unit cell:	Completed after 0 iterations at t[s]:    308.58
	FillingsUpdate:  mu: -0.244750400  nElectrons: 223.349523
	SubspaceRotationAdjust: set factor to 0.0996
ElecMinimize: Iter:  17  G: -646.318387060434929  |grad|_K:  2.408e-07  alpha:  5.646e-01  linmin: -3.969e-04  t[s]:    313.19
	Linear fluid (dielectric constant: 78.4, screening length: 5.74355 Bohr) occupying 0.755392 of unit cell:	Completed after 2 iterations at t[s]:    317.86
	Linear fluid (dielectric constant: 78.4, screening length: 5.74355 Bohr) occupying 0.755390 of unit cell:	Completed after 0 iterations at t[s]:    322.42
	FillingsUpdate:  mu: -0.244750400  nElectrons: 223.353841
	SubspaceRotationAdjust: set factor to 0.132
ElecMinimize: Iter:  18  G: -646.318388899864658  |grad|_K:  2.253e-07  alpha:  8.114e-01  linmin: -8.806e-05  t[s]:    326.87
	Linear fluid (dielectric constant: 78.4, screening length: 5.74355 Bohr) occupying 0.755383 of unit cell:	Completed after 5 iterations at t[s]:    331.30
	Linear fluid (dielectric constant: 78.4, screening length: 5.74355 Bohr) occupying 0.755386 of unit cell:	Completed after 2 iterations at t[s]:    336.56
	FillingsUpdate:  mu: -0.244750400  nElectrons: 223.357670
	SubspaceRotationAdjust: set factor to 0.084
ElecMinimize: Iter:  19  G: -646.318389714008276  |grad|_K:  3.414e-07  alpha:  4.741e-01  linmin:  1.575e-04  t[s]:    341.10
	Linear fluid (dielectric constant: 78.4, screening length: 5.74355 Bohr) occupying 0.755373 of unit cell:	Completed after 7 iterations at t[s]:    346.54
	Linear fluid (dielectric constant: 78.4, screening length: 5.74355 Bohr) occupying 0.755380 of unit cell:	Completed after 3 iterations at t[s]:    351.28
	FillingsUpdate:  mu: -0.244750400  nElectrons: 223.357881
	SubspaceRotationAdjust: set factor to 0.118
ElecMinimize: Iter:  20  G: -646.318390620186960  |grad|_K:  2.157e-07  alpha:  2.328e-01  linmin:  4.353e-05  t[s]:    355.56
	Linear fluid (dielectric constant: 78.4, screening length: 5.74355 Bohr) occupying 0.755377 of unit cell:	Completed after 0 iterations at t[s]:    359.70
ElecMinimize: 	Predicted alpha/alphaT>3.000000, increasing alphaT to 6.983906e-01.
	Linear fluid (dielectric constant: 78.4, screening length: 5.74355 Bohr) occupying 0.755371 of unit cell:	Completed after 2 iterations at t[s]:    364.35
	Linear fluid (dielectric constant: 78.4, screening length: 5.74355 Bohr) occupying 0.755374 of unit cell:	Completed after 2 iterations at t[s]:    369.17
	FillingsUpdate:  mu: -0.244750400  nElectrons: 223.357711
	SubspaceRotationAdjust: set factor to 0.12
ElecMinimize: Iter:  21  G: -646.318391423538060  |grad|_K:  1.994e-07  alpha:  4.733e-01  linmin:  5.175e-05  t[s]:    373.77
	Linear fluid (dielectric constant: 78.4, screening length: 5.74355 Bohr) occupying 0.755367 of unit cell:	Completed after 2 iterations at t[s]:    378.40
	Linear fluid (dielectric constant: 78.4, screening length: 5.74355 Bohr) occupying 0.755367 of unit cell:	Completed after 0 iterations at t[s]:    382.83
	FillingsUpdate:  mu: -0.244750400  nElectrons: 223.361133
	SubspaceRotationAdjust: set factor to 0.149
ElecMinimize: Iter:  22  G: -646.318392125473110  |grad|_K:  1.662e-07  alpha:  4.832e-01  linmin: -2.511e-06  t[s]:    387.22
	Linear fluid (dielectric constant: 78.4, screening length: 5.74355 Bohr) occupying 0.755361 of unit cell:	Completed after 6 iterations at t[s]:    391.71
	Linear fluid (dielectric constant: 78.4, screening length: 5.74355 Bohr) occupying 0.755363 of unit cell:	Completed after 0 iterations at t[s]:    396.12
	FillingsUpdate:  mu: -0.244750400  nElectrons: 223.363036
	SubspaceRotationAdjust: set factor to 0.0972
ElecMinimize: Iter:  23  G: -646.318392401324900  |grad|_K:  2.382e-07  alpha:  2.947e-01  linmin:  1.171e-04  t[s]:    400.86
	Linear fluid (dielectric constant: 78.4, screening length: 5.74355 Bohr) occupying 0.755355 of unit cell:	Completed after 3 iterations at t[s]:    405.33
	Linear fluid (dielectric constant: 78.4, screening length: 5.74355 Bohr) occupying 0.755359 of unit cell:	Completed after 0 iterations at t[s]:    409.13
	FillingsUpdate:  mu: -0.244750400  nElectrons: 223.362835
	SubspaceRotationAdjust: set factor to 0.151
ElecMinimize: Iter:  24  G: -646.318392687098481  |grad|_K:  1.341e-07  alpha:  1.520e-01  linmin:  1.091e-04  t[s]:    413.95
	Linear fluid (dielectric constant: 78.4, screening length: 5.74355 Bohr) occupying 0.755357 of unit cell:	Completed after 0 iterations at t[s]:    417.60
ElecMinimize: 	Predicted alpha/alphaT>3.000000, increasing alphaT to 4.559459e-01.
	Linear fluid (dielectric constant: 78.4, screening length: 5.74355 Bohr) occupying 0.755353 of unit cell:	Completed after 0 iterations at t[s]:    421.91
	Linear fluid (dielectric constant: 78.4, screening length: 5.74355 Bohr) occupying 0.755352 of unit cell:	Completed after 0 iterations at t[s]:    426.35
	FillingsUpdate:  mu: -0.244750400  nElectrons: 223.361728
	SubspaceRotationAdjust: set factor to 0.191
ElecMinimize: Iter:  25  G: -646.318393006768588  |grad|_K:  1.081e-07  alpha:  5.279e-01  linmin: -2.194e-05  t[s]:    431.25
	Linear fluid (dielectric constant: 78.4, screening length: 5.74355 Bohr) occupying 0.755347 of unit cell:	Completed after 5 iterations at t[s]:    435.62
	Linear fluid (dielectric constant: 78.4, screening length: 5.74355 Bohr) occupying 0.755351 of unit cell:	Completed after 0 iterations at t[s]:    440.53
ElecMinimize: 	Step increased G by 5.398306e-09, reducing alpha to 1.932213e-02.
	Linear fluid (dielectric constant: 78.4, screening length: 5.74355 Bohr) occupying 0.755352 of unit cell:	Completed after 2 iterations at t[s]:    449.28
ElecMinimize: 	Step increased G by 7.256062e-08, reducing alpha to 1.932213e-03.
	Linear fluid (dielectric constant: 78.4, screening length: 5.74355 Bohr) occupying 0.755352 of unit cell:	Completed after 0 iterations at t[s]:    456.73
ElecMinimize: 	Step increased G by 7.802328e-08, reducing alpha to 1.932213e-04.
ElecMinimize: 	Step failed to reduce G after 3 attempts. Quitting step.
ElecMinimize: 	Undoing step.
	Linear fluid (dielectric constant: 78.4, screening length: 5.74355 Bohr) occupying 0.755352 of unit cell:	Completed after 0 iterations at t[s]:    464.71
ElecMinimize: 	Step failed: resetting search direction.
	FillingsUpdate:  mu: -0.244750400  nElectrons: 223.361723
	SubspaceRotationAdjust: set factor to 0.124
ElecMinimize: Iter:  26  G: -646.318392928691424  |grad|_K:  1.952e-07  alpha:  1.932e-04
	Linear fluid (dielectric constant: 78.4, screening length: 5.74355 Bohr) occupying 0.755353 of unit cell:	Completed after 9 iterations at t[s]:    474.68
	Linear fluid (dielectric constant: 78.4, screening length: 5.74355 Bohr) occupying 0.755353 of unit cell:	Completed after 6 iterations at t[s]:    480.13
	FillingsUpdate:  mu: -0.244750400  nElectrons: 223.363390
	SubspaceRotationAdjust: set factor to 0.0624
ElecMinimize: Iter:  27  G: -646.318393030333482  |grad|_K:  1.072e-07  alpha:  1.336e-01  linmin:  1.036e-03  t[s]:    484.87
	Linear fluid (dielectric constant: 78.4, screening length: 5.74355 Bohr) occupying 0.755352 of unit cell:	Completed after 0 iterations at t[s]:    488.36
ElecMinimize: 	Predicted alpha/alphaT>3.000000, increasing alphaT to 4.009415e-01.
	Linear fluid (dielectric constant: 78.4, screening length: 5.74355 Bohr) occupying 0.755352 of unit cell:	Completed after 0 iterations at t[s]:    492.47
	Linear fluid (dielectric constant: 78.4, screening length: 5.74355 Bohr) occupying 0.755352 of unit cell:	Completed after 0 iterations at t[s]:    496.68
	FillingsUpdate:  mu: -0.244750400  nElectrons: 223.362698
	SubspaceRotationAdjust: set factor to 0.0914
ElecMinimize: Iter:  28  G: -646.318393258680771  |grad|_K:  9.609e-08  alpha:  6.222e-01  linmin: -7.002e-08  t[s]:    501.61
	Linear fluid (dielectric constant: 78.4, screening length: 5.74355 Bohr) occupying 0.755351 of unit cell:	Completed after 7 iterations at t[s]:    506.00
	Linear fluid (dielectric constant: 78.4, screening length: 5.74355 Bohr) occupying 0.755352 of unit cell:	Completed after 0 iterations at t[s]:    510.41
	FillingsUpdate:  mu: -0.244750400  nElectrons: 223.361663
	SubspaceRotationAdjust: set factor to 0.0607
ElecMinimize: Iter:  29  G: -646.318393356268871  |grad|_K:  1.247e-07  alpha:  3.119e-01  linmin:  5.090e-04  t[s]:    514.94
	Linear fluid (dielectric constant: 78.4, screening length: 5.74355 Bohr) occupying 0.755351 of unit cell:	Completed after 2 iterations at t[s]:    518.77
	Linear fluid (dielectric constant: 78.4, screening length: 5.74355 Bohr) occupying 0.755352 of unit cell:	Completed after 0 iterations at t[s]:    523.35
	FillingsUpdate:  mu: -0.244750400  nElectrons: 223.361684
	SubspaceRotationAdjust: set factor to 0.081
ElecMinimize: Iter:  30  G: -646.318393395296994  |grad|_K:  5.712e-08  alpha:  1.766e-01  linmin: -2.021e-04  t[s]:    528.05
	Linear fluid (dielectric constant: 78.4, screening length: 5.74355 Bohr) occupying 0.755352 of unit cell:	Completed after 0 iterations at t[s]:    531.40
ElecMinimize: 	Predicted alpha/alphaT>3.000000, increasing alphaT to 5.297724e-01.
	Linear fluid (dielectric constant: 78.4, screening length: 5.74355 Bohr) occupying 0.755352 of unit cell:	Completed after 0 iterations at t[s]:    535.88
	Linear fluid (dielectric constant: 78.4, screening length: 5.74355 Bohr) occupying 0.755353 of unit cell:	Completed after 3 iterations at t[s]:    540.52
ElecMinimize: 	Step increased G by 3.578475e-08, reducing alpha to 1.027326e-01.
	Linear fluid (dielectric constant: 78.4, screening length: 5.74355 Bohr) occupying 0.755352 of unit cell:	Completed after 2 iterations at t[s]:    547.30
	FillingsUpdate:  mu: -0.244750400  nElectrons: 223.361835
	SubspaceRotationAdjust: set factor to 0.0798
ElecMinimize: Iter:  31  G: -646.318393415484934  |grad|_K:  4.041e-08  alpha:  1.027e-01  linmin: -6.767e-04  t[s]:    550.55
	Linear fluid (dielectric constant: 78.4, screening length: 5.74355 Bohr) occupying 0.755352 of unit cell:	Completed after 0 iterations at t[s]:    553.20
ElecMinimize: 	Predicted alpha/alphaT>3.000000, increasing alphaT to 3.081979e-01.
	Linear fluid (dielectric constant: 78.4, screening length: 5.74355 Bohr) occupying 0.755352 of unit cell:	Completed after 0 iterations at t[s]:    556.08
	Linear fluid (dielectric constant: 78.4, screening length: 5.74355 Bohr) occupying 0.755352 of unit cell:	Completed after 0 iterations at t[s]:    558.93
	FillingsUpdate:  mu: -0.244750400  nElectrons: 223.361972
	SubspaceRotationAdjust: set factor to 0.101
ElecMinimize: Iter:  32  G: -646.318393454653688  |grad|_K:  3.279e-08  alpha:  4.273e-01  linmin:  1.092e-08  t[s]:    562.26
	Linear fluid (dielectric constant: 78.4, screening length: 5.74355 Bohr) occupying 0.755352 of unit cell:	Completed after 0 iterations at t[s]:    564.89
	Linear fluid (dielectric constant: 78.4, screening length: 5.74355 Bohr) occupying 0.755353 of unit cell:	Completed after 0 iterations at t[s]:    567.78
	FillingsUpdate:  mu: -0.244750400  nElectrons: 223.361852
	SubspaceRotationAdjust: set factor to 0.124
ElecMinimize: Iter:  33  G: -646.318393479000747  |grad|_K:  3.207e-08  alpha:  6.050e-01  linmin: -1.274e-07  t[s]:    571.10
	Linear fluid (dielectric constant: 78.4, screening length: 5.74355 Bohr) occupying 0.755353 of unit cell:	Completed after 0 iterations at t[s]:    573.70
	Linear fluid (dielectric constant: 78.4, screening length: 5.74355 Bohr) occupying 0.755353 of unit cell:	Completed after 0 iterations at t[s]:    576.61
	FillingsUpdate:  mu: -0.244750400  nElectrons: 223.361472
	SubspaceRotationAdjust: set factor to 0.147
ElecMinimize: Iter:  34  G: -646.318393500165371  |grad|_K:  3.428e-08  alpha:  5.494e-01  linmin: -1.760e-08  t[s]:    580.01
	Linear fluid (dielectric constant: 78.4, screening length: 5.74355 Bohr) occupying 0.755352 of unit cell:	Completed after 0 iterations at t[s]:    582.58
	Linear fluid (dielectric constant: 78.4, screening length: 5.74355 Bohr) occupying 0.755352 of unit cell:	Completed after 0 iterations at t[s]:    585.33
	FillingsUpdate:  mu: -0.244750400  nElectrons: 223.360934
	SubspaceRotationAdjust: set factor to 0.171
ElecMinimize: Iter:  35  G: -646.318393514437730  |grad|_K:  2.932e-08  alpha:  3.925e-01  linmin: -3.349e-05  t[s]:    588.47
	Linear fluid (dielectric constant: 78.4, screening length: 5.74355 Bohr) occupying 0.755352 of unit cell:	Completed after 0 iterations at t[s]:    590.97
	Linear fluid (dielectric constant: 78.4, screening length: 5.74355 Bohr) occupying 0.755351 of unit cell:	Completed after 2 iterations at t[s]:    593.91
ElecMinimize: 	Step increased G by 3.624382e-08, reducing alpha to 4.802277e-02.
	Linear fluid (dielectric constant: 78.4, screening length: 5.74355 Bohr) occupying 0.755352 of unit cell:	Completed after 0 iterations at t[s]:    599.22
ElecMinimize: 	Step increased G by 2.211857e-08, reducing alpha to 4.802277e-03.
	Linear fluid (dielectric constant: 78.4, screening length: 5.74355 Bohr) occupying 0.755352 of unit cell:	Completed after 0 iterations at t[s]:    632.45
ElecMinimize: 	Step increased G by 2.182935e-08, reducing alpha to 4.802277e-04.
ElecMinimize: 	Step failed to reduce G after 3 attempts. Quitting step.
ElecMinimize: 	Undoing step.
	Linear fluid (dielectric constant: 78.4, screening length: 5.74355 Bohr) occupying 0.755352 of unit cell:	Completed after 0 iterations at t[s]:    637.69
ElecMinimize: 	Step failed: resetting search direction.
	FillingsUpdate:  mu: -0.244750400  nElectrons: 223.360928
	SubspaceRotationAdjust: set factor to 0.119
ElecMinimize: Iter:  36  G: -646.318393492609744  |grad|_K:  6.332e-08  alpha:  4.802e-04
	Linear fluid (dielectric constant: 78.4, screening length: 5.74355 Bohr) occupying 0.755352 of unit cell:	Completed after 2 iterations at t[s]:    658.80
	Linear fluid (dielectric constant: 78.4, screening length: 5.74355 Bohr) occupying 0.755352 of unit cell:	Completed after 0 iterations at t[s]:    661.78
	FillingsUpdate:  mu: -0.244750400  nElectrons: 223.361704
	SubspaceRotationAdjust: set factor to 0.0565
ElecMinimize: Iter:  37  G: -646.318393524685121  |grad|_K:  4.884e-08  alpha:  1.889e-01  linmin:  1.283e-03  t[s]:    665.09
	Linear fluid (dielectric constant: 78.4, screening length: 5.74355 Bohr) occupying 0.755352 of unit cell:	Completed after 0 iterations at t[s]:    667.70
	Linear fluid (dielectric constant: 78.4, screening length: 5.74355 Bohr) occupying 0.755352 of unit cell:	Completed after 0 iterations at t[s]:    670.65
	FillingsUpdate:  mu: -0.244750400  nElectrons: 223.361591
	SubspaceRotationAdjust: set factor to 0.0461
ElecMinimize: Iter:  38  G: -646.318393541604109  |grad|_K:  3.833e-08  alpha:  4.787e-01  linmin:  1.599e-07  t[s]:    673.97
	Linear fluid (dielectric constant: 78.4, screening length: 5.74355 Bohr) occupying 0.755351 of unit cell:	Completed after 2 iterations at t[s]:    676.80
	Linear fluid (dielectric constant: 78.4, screening length: 5.74355 Bohr) occupying 0.755351 of unit cell:	Completed after 0 iterations at t[s]:    679.70
ElecMinimize: 	Step increased G by 1.464298e-08, reducing alpha to 1.304718e-02.
	Linear fluid (dielectric constant: 78.4, screening length: 5.74355 Bohr) occupying 0.755351 of unit cell:	Completed after 0 iterations at t[s]:    685.23
ElecMinimize: 	Step increased G by 6.457299e-09, reducing alpha to 1.304718e-03.
	Linear fluid (dielectric constant: 78.4, screening length: 5.74355 Bohr) occupying 0.755352 of unit cell:	Completed after 0 iterations at t[s]:    690.85
ElecMinimize: 	Step increased G by 5.694119e-09, reducing alpha to 1.304718e-04.
ElecMinimize: 	Step failed to reduce G after 3 attempts. Quitting step.
ElecMinimize: 	Undoing step.
	Linear fluid (dielectric constant: 78.4, screening length: 5.74355 Bohr) occupying 0.755352 of unit cell:	Completed after 0 iterations at t[s]:    696.48
ElecMinimize: 	Step failed: resetting search direction.
	FillingsUpdate:  mu: -0.244750400  nElectrons: 223.361589
	SubspaceRotationAdjust: set factor to 0.0281
ElecMinimize: Iter:  39  G: -646.318393535923519  |grad|_K:  3.727e-08  alpha:  1.305e-04
	Linear fluid (dielectric constant: 78.4, screening length: 5.74355 Bohr) occupying 0.755351 of unit cell:	Completed after 2 iterations at t[s]:    702.67
	Linear fluid (dielectric constant: 78.4, screening length: 5.74355 Bohr) occupying 0.755351 of unit cell:	Completed after 0 iterations at t[s]:    705.66
ElecMinimize: 	Step increased G by 9.454311e-09, reducing alpha to 1.751874e-02.
	Linear fluid (dielectric constant: 78.4, screening length: 5.74355 Bohr) occupying 0.755352 of unit cell:	Completed after 0 iterations at t[s]:    711.32
ElecMinimize: 	Step increased G by 9.629730e-09, reducing alpha to 1.751874e-03.
	Linear fluid (dielectric constant: 78.4, screening length: 5.74355 Bohr) occupying 0.755352 of unit cell:	Completed after 0 iterations at t[s]:    716.93
ElecMinimize: 	Step increased G by 9.814698e-09, reducing alpha to 1.751874e-04.
ElecMinimize: 	Step failed to reduce G after 3 attempts. Quitting step.
ElecMinimize: 	Undoing step.
	Linear fluid (dielectric constant: 78.4, screening length: 5.74355 Bohr) occupying 0.755352 of unit cell:	Completed after 0 iterations at t[s]:    722.54
ElecMinimize: 	Step failed along negative gradient direction.
ElecMinimize: Probably at roundoff error limit. (Stopping)
Setting wave functions to eigenvectors of Hamiltonian

# Ionic positions in lattice coordinates:
ion Ta   0.999999925925927   0.000000074074073   0.500000000000002 0
ion Ta   0.333333259259260   0.000000074074073   0.500000000000002 0
ion Ta   0.666666592592593   0.000000074074073   0.500000000000002 0
ion Ta   0.999999925925927   0.333333407407407   0.500000000000002 0
ion Ta   0.333333259259260   0.333333407407407   0.500000000000002 0
ion Ta   0.666666592592593   0.333333407407407   0.500000000000002 0
ion Ta   0.999999925925927   0.666666740740740   0.500000000000002 0
ion Ta   0.333333259259260   0.666666740740740   0.500000000000002 0
ion Ta   0.666666592592593   0.666666740740740   0.500000000000002 0
ion Se   0.111111037037038   0.222222296296296   0.408532189904913 0
ion Se   0.444444370370371   0.222222296296296   0.408532189904913 0
ion Se   0.777777703703704   0.222222296296296   0.408532189904913 0
ion Se   0.111111037037038   0.555555629629629   0.408532189904913 0
ion Se   0.444444370370371   0.555555629629629   0.408532189904913 0
ion Se   0.777777703703704   0.555555629629629   0.408532189904913 0
ion Se   0.111111037037038   0.888888962962962   0.408532189904913 0
ion Se   0.444444370370371   0.888888962962962   0.408532189904913 0
ion Se   0.777777703703704   0.888888962962962   0.408532189904913 0
ion Se   0.111111037037038   0.222222296296296   0.591467810095092 0
ion Se   0.444444370370371   0.222222296296296   0.591467810095092 0
ion Se   0.777777703703704   0.222222296296296   0.591467810095092 0
ion Se   0.111111037037038   0.555555629629629   0.591467810095092 0
ion Se   0.444444370370371   0.555555629629629   0.591467810095092 0
ion Se   0.777777703703704   0.555555629629629   0.591467810095092 0
ion Se   0.111111037037038   0.888888962962962   0.591467810095092 0
ion Se   0.444444370370371   0.888888962962962   0.591467810095092 0
ion Se   0.777777703703704   0.888888962962962   0.591467810095092 0


# Forces in Lattice coordinates:
force Ta  -0.000000000000000  -0.000000000000000  -0.000000000000000 0
force Ta  -0.000000000000000  -0.000000000000000  -0.000000000000000 0
force Ta   0.000000000000000  -0.000000000000000   0.000000000000000 0
force Ta   0.000000000000000  -0.000000000000000  -0.000000000000000 0
force Ta   0.000000000000000  -0.000000000000000   0.000000000000000 0
force Ta  -0.000000000000000  -0.000000000000000   0.000000000000000 0
force Ta   0.000000000000000  -0.000000000000000   0.000000000000000 0
force Ta   0.000000000000000  -0.000000000000000  -0.000000000000000 0
force Ta  -0.000000000000000  -0.000000000000000   0.000000000000000 0
force Se  -0.000000000000000   0.000000000000000  -0.095415956131986 0
force Se  -0.000000000000000   0.000000000000000  -0.095415956131984 0
force Se  -0.000000000000000   0.000000000000000  -0.095415956131983 0
force Se   0.000000000000000   0.000000000000000  -0.095415956131983 0
force Se  -0.000000000000000   0.000000000000000  -0.095415956131984 0
force Se   0.000000000000000   0.000000000000000  -0.095415956132097 0
force Se  -0.000000000000000   0.000000000000000  -0.095415956131983 0
force Se   0.000000000000000   0.000000000000000  -0.095415956131983 0
force Se  -0.000000000000000   0.000000000000000  -0.095415956131986 0
force Se   0.000000000000000   0.000000000000000   0.095415956131983 0
force Se   0.000000000000000  -0.000000000000000   0.095415956131871 0
force Se   0.000000000000000  -0.000000000000000   0.095415956131984 0
force Se   0.000000000000000  -0.000000000000000   0.095415956131983 0
force Se   0.000000000000000   0.000000000000000   0.095415956131984 0
force Se   0.000000000000000  -0.000000000000000   0.095415956131983 0
force Se   0.000000000000000   0.000000000000000   0.095415956131982 0
force Se   0.000000000000000  -0.000000000000000   0.095415956131984 0
force Se   0.000000000000000   0.000000000000000   0.095415956131870 0

# Energy components:
   A_diel =       -0.0087226020710556
   Eewald =     3762.1068270362379735
       EH =     4272.6280451889961114
     Eloc =    -8735.5107649593155656
      Enl =     -111.8714632134877149
      Exc =     -457.0410719125972037
 Exc_core =      330.3695990853407238
       KE =      238.3773329015184572
  MuShift =        0.0158179054256889
-------------------------------------
     Etot =     -700.9344005699525724
       TS =        0.0518315326423206
-------------------------------------
        F =     -700.9862321025948404
      muN =      -54.6678385764980064
-------------------------------------
        G =     -646.3183935260968838

IonicMinimize: Iter:   0  G: -646.318393526096884  |grad|_K:  0.000e+00  t[s]:    728.43
IonicMinimize: Converged (|grad|_K<1.000000e-04).

#--- Lowdin population analysis ---
# oxidation-state Ta -0.540 -0.540 -0.540 -0.540 -0.540 -0.540 -0.540 -0.540 -0.540
# oxidation-state Se +0.411 +0.411 +0.411 +0.411 +0.411 +0.411 +0.411 +0.411 +0.411 +0.411 +0.411 +0.411 +0.411 +0.411 +0.411 +0.411 +0.411 +0.411


Dumping 'NbTe2.fillings' ... done
Dumping 'NbTe2.wfns' ... done
Dumping 'NbTe2.fluidState' ... done
Dumping 'NbTe2.eigenvals' ... done
End date and time: Sun Jul 12 15:22:44 2020  (Duration: 0-0:12:09.85)
Done!
