
*************** JDFTx 1.5.0  ***************

Start date and time: Sun Jul 12 14:57:49 2020
Executable jdftx_gpu with command-line: -i Neutral.in -o Neutral.out
Running on hosts (process indices):  amax (0-3)
Divided in process groups (process indices):  0 (0)  1 (1)  2 (2)  3 (3)
gpuInit: Found compatible cuda device 0 'Tesla K80'
gpuInit: Found compatible cuda device 1 'Tesla K80'
gpuInit: Found compatible cuda device 2 'Tesla K80'
gpuInit: Found compatible cuda device 3 'Tesla K80'
gpuInit: Selected device 0
Resource initialization completed at t[s]:     16.91
Run totals: 4 processes, 24 threads, 4 GPUs


Input parsed successfully to the following command list (including defaults):

basis kpoint-dependent
cache-projectors no
coords-type Lattice
core-overlap-check none
coulomb-interaction Slab 001
coulomb-truncation-embed 0 0 0.5
davidson-band-ratio 1.1
dump End State
dump-name NbTe2.$VAR
elec-cutoff 20 100
elec-eigen-algo Davidson
elec-ex-corr gga-PBE
elec-smearing Gauss 0.0073499
electronic-minimize  \
	dirUpdateScheme      FletcherReeves \
	linminMethod         DirUpdateRecommended \
	nIterations          500 \
	history              15 \
	knormThreshold       0 \
	energyDiffThreshold  1e-08 \
	nEnergyDiff          2 \
	alphaTstart          1 \
	alphaTmin            1e-10 \
	updateTestStepSize   yes \
	alphaTreduceFactor   0.1 \
	alphaTincreaseFactor 3 \
	nAlphaAdjustMax      3 \
	wolfeEnergy          0.0001 \
	wolfeGradient        0.9 \
	fdTest               no
exchange-regularization WignerSeitzTruncated
fluid LinearPCM 298.000000 1.013250
fluid-anion F- 1 MeanFieldLJ \
	epsBulk 1 \
	pMol 0 \
	epsInf 1 \
	Pvap 0 \
	sigmaBulk 0 \
	Rvdw 2.24877 \
	Res 0 \
	tauNuc 343133
fluid-cation Na+ 1 MeanFieldLJ \
	epsBulk 1 \
	pMol 0 \
	epsInf 1 \
	Pvap 0 \
	sigmaBulk 0 \
	Rvdw 2.19208 \
	Res 0 \
	tauNuc 343133
fluid-ex-corr lda-TF lda-PZ
fluid-gummel-loop 10 1.000000e-05
fluid-minimize  \
	dirUpdateScheme      PolakRibiere \
	linminMethod         DirUpdateRecommended \
	nIterations          400 \
	history              15 \
	knormThreshold       1e-11 \
	energyDiffThreshold  0 \
	nEnergyDiff          2 \
	alphaTstart          1 \
	alphaTmin            1e-10 \
	updateTestStepSize   yes \
	alphaTreduceFactor   0.1 \
	alphaTincreaseFactor 3 \
	nAlphaAdjustMax      6 \
	wolfeEnergy          0.0001 \
	wolfeGradient        0.9 \
	fdTest               no
fluid-solvent H2O 55.338 ScalarEOS \
	epsBulk 78.4 \
	pMol 0.92466 \
	epsInf 1.77 \
	Pvap 1.06736e-10 \
	sigmaBulk 4.62e-05 \
	Rvdw 2.61727 \
	Res 1.42 \
	tauNuc 343133 \
	poleEl 15 7 1
forces-output-coords Positions
initial-state NbTe2.$VAR
ion Ta   0.999999919022109   0.000000073969964   0.499999999973149 0
ion Ta   0.333333252355445   0.000000073969964   0.499999999973149 0
ion Ta   0.666666585688780   0.000000073969964   0.499999999973149 0
ion Ta   0.999999919022109   0.333333407303300   0.499999999973149 0
ion Ta   0.333333252355445   0.333333407303300   0.499999999973149 0
ion Ta   0.666666585688780   0.333333407303300   0.499999999973149 0
ion Ta   0.999999919022109   0.666666740636629   0.499999999973149 0
ion Ta   0.333333252355445   0.666666740636629   0.499999999973149 0
ion Ta   0.666666585688780   0.666666740636629   0.499999999973149 0
ion Se   0.111111040493491   0.222222296400922   0.408532189918340 0
ion Se   0.444444373826826   0.222222296400922   0.408532189918340 0
ion Se   0.777777707160155   0.222222296400922   0.408532189918340 0
ion Se   0.111111040493491   0.555555629734258   0.408532189918340 0
ion Se   0.444444373826826   0.555555629734258   0.408532189918340 0
ion Se   0.777777707160155   0.555555629734258   0.408532189918340 0
ion Se   0.111111040493491   0.888888963067593   0.408532189918340 0
ion Se   0.444444373826826   0.888888963067593   0.408532189918340 0
ion Se   0.777777707160155   0.888888963067593   0.408532189918340 0
ion Se   0.111111040484403   0.222222296295776   0.591467810108519 0
ion Se   0.444444373817731   0.222222296295776   0.591467810108519 0
ion Se   0.777777707151067   0.222222296295776   0.591467810108519 0
ion Se   0.111111040484403   0.555555629629112   0.591467810108519 0
ion Se   0.444444373817731   0.555555629629112   0.591467810108519 0
ion Se   0.777777707151067   0.555555629629112   0.591467810108519 0
ion Se   0.111111040484403   0.888888962962440   0.591467810108519 0
ion Se   0.444444373817731   0.888888962962440   0.591467810108519 0
ion Se   0.777777707151067   0.888888962962440   0.591467810108519 0
ion-species GBRV/$ID_pbe.uspp
ion-width Ecut
ionic-minimize  \
	dirUpdateScheme      L-BFGS \
	linminMethod         DirUpdateRecommended \
	nIterations          0 \
	history              15 \
	knormThreshold       0.0001 \
	energyDiffThreshold  1e-06 \
	nEnergyDiff          2 \
	alphaTstart          1 \
	alphaTmin            1e-10 \
	updateTestStepSize   yes \
	alphaTreduceFactor   0.1 \
	alphaTincreaseFactor 3 \
	nAlphaAdjustMax      3 \
	wolfeEnergy          0.0001 \
	wolfeGradient        0.9 \
	fdTest               no
kpoint   0.000000000000   0.000000000000   0.000000000000  1.00000000000000
kpoint-folding 4 4 1 
latt-move-scale 1 1 1
latt-scale 1 1 1 
lattice Triclinic 19.6191 19.6191 34.6845 90 90 120
lattice-minimize  \
	dirUpdateScheme      L-BFGS \
	linminMethod         DirUpdateRecommended \
	nIterations          0 \
	history              15 \
	knormThreshold       0 \
	energyDiffThreshold  1e-06 \
	nEnergyDiff          2 \
	alphaTstart          1 \
	alphaTmin            1e-10 \
	updateTestStepSize   yes \
	alphaTreduceFactor   0.1 \
	alphaTincreaseFactor 3 \
	nAlphaAdjustMax      3 \
	wolfeEnergy          0.0001 \
	wolfeGradient        0.9 \
	fdTest               no
lcao-params -1 1e-06 0.0073499
pcm-variant CANDLE
spintype no-spin
subspace-rotation-factor 1 yes
symmetries automatic
symmetry-threshold 0.0001



---------- Setting up symmetries ----------

Found 24 point-group symmetries of the bravais lattice
Found 108 space-group symmetries with basis
Applied RMS atom displacement 9.50672e-08 bohrs to make symmetries exact.

---------- Initializing the Grid ----------
R = 
[    19.6191   -9.80956          0  ]
[          0    16.9907          0  ]
[          0          0    34.6845  ]
unit cell volume = 11561.8
G =
[   0.320258   0.184901         -0  ]
[          0   0.369802          0  ]
[          0         -0   0.181152  ]
Minimum fftbox size, Smin = [  92  92  160  ]
Chosen fftbox size, S = [  96  96  160  ]

---------- Initializing tighter grid for wavefunction operations ----------
R = 
[    19.6191   -9.80956          0  ]
[          0    16.9907          0  ]
[          0          0    34.6845  ]
unit cell volume = 11561.8
G =
[   0.320258   0.184901         -0  ]
[          0   0.369802          0  ]
[          0         -0   0.181152  ]
Minimum fftbox size, Smin = [  80  80  140  ]
Chosen fftbox size, S = [  80  80  140  ]

---------- Exchange Correlation functional ----------
Initalized PBE GGA exchange.
Initalized PBE GGA correlation.

---------- Setting up pseudopotentials ----------
Width of ionic core gaussian charges (only for fluid interactions / plotting) set to 0.397384

Reading pseudopotential file '/home/guoxy/vasp/jdftx-1.5.0/build/pseudopotentials/GBRV/ta_pbe.uspp':
  Title: Ta.  Created by USPP 7.3.6 on 14-9-2013
  Reference state energy: -70.583193.  13 valence electrons in orbitals:
    |500>  occupation: 2  eigenvalue: -2.682396
    |510>  occupation: 6  eigenvalue: -1.447928
    |520>  occupation: 3  eigenvalue: -0.131987
    |600>  occupation: 2  eigenvalue: -0.199982
    |610>  occupation: 0  eigenvalue: -0.051129
  lMax: 3  lLocal: 3  QijEcut: 5
  7 projectors sampled on a log grid with 667 points:
    l: 0  eig: -2.682397  rCut: 1.4
    l: 0  eig: -0.199983  rCut: 1.4
    l: 1  eig: -1.447928  rCut: 1.5
    l: 1  eig: -0.051130  rCut: 1.5
    l: 2  eig: -0.131987  rCut: 1.7
    l: 2  eig: 0.150000  rCut: 1.7
    l: 3  eig: 0.250000  rCut: 2.3
  Partial core density with radius 1.2
  Transforming core density to a uniform radial grid of dG=0.02 with 1705 points.
  Transforming local potential to a uniform radial grid of dG=0.02 with 1705 points.
  Transforming nonlocal projectors to a uniform radial grid of dG=0.02 with 432 points.
  Transforming density augmentations to a uniform radial grid of dG=0.02 with 1705 points.
  Transforming atomic orbitals to a uniform radial grid of dG=0.02 with 432 points.
  Core radius for overlap checks: 2.30 bohrs.

Reading pseudopotential file '/home/guoxy/vasp/jdftx-1.5.0/build/pseudopotentials/GBRV/se_pbe.uspp':
  Title: Se.  Created by USPP 7.3.6 on 14-9-2013
  Reference state energy: -21.672887.  6 valence electrons in orbitals:
    |400>  occupation: 2  eigenvalue: -0.635284
    |410>  occupation: 4  eigenvalue: -0.239295
  lMax: 2  lLocal: 3  QijEcut: 5
  6 projectors sampled on a log grid with 625 points:
    l: 0  eig: -0.635278  rCut: 1.5
    l: 0  eig: 0.500000  rCut: 1.5
    l: 1  eig: -0.239295  rCut: 1.5
    l: 1  eig: 0.500000  rCut: 1.5
    l: 2  eig: 0.000000  rCut: 1.8
    l: 2  eig: 1.000000  rCut: 1.8
  Partial core density with radius 1.2
  Transforming core density to a uniform radial grid of dG=0.02 with 1705 points.
  Transforming local potential to a uniform radial grid of dG=0.02 with 1705 points.
  Transforming nonlocal projectors to a uniform radial grid of dG=0.02 with 432 points.
  Transforming density augmentations to a uniform radial grid of dG=0.02 with 1705 points.
  Transforming atomic orbitals to a uniform radial grid of dG=0.02 with 432 points.
  Core radius for overlap checks: 1.80 bohrs.

Initialized 2 species with 27 total atoms.

Folded 1 k-points by 4x4x1 to 16 k-points.

---------- Setting up k-points, bands, fillings ----------
Adding inversion symmetry to k-mesh for non-inversion-symmetric unit cell.
Reduced to 4 k-points under symmetry. 
Computing the number of bands and number of electrons
Calculating initial fillings.
nElectrons: 225.000000   nBands: 189   nStates: 4

----- Setting up reduced wavefunction bases (one per k-point) -----
average nbasis = 49385.438 , ideal nbasis = 49392.913

---------- Setting up coulomb interaction ----------
Fluid mode embedding: using embedded box, but periodic Coulomb kernel.
(Fluid response is responsible for (approximate) separation between periodic images.)
Setting up double-sized grid for truncated Coulomb potentials:
R = 
[    19.6191   -9.80956          0  ]
[          0    16.9907          0  ]
[          0          0     69.369  ]
unit cell volume = 23123.6
G =
[   0.320258   0.184901         -0  ]
[          0   0.369802          0  ]
[          0         -0  0.0905762  ]
Chosen fftbox size, S = [  96  96  320  ]
Integer grid location selected as the embedding center:
   Grid: [  0  0  80  ]
   Lattice: [  0  0  0.5  ]
   Cartesian: [  0  0  17.3423  ]
Constructing Wigner-Seitz cell: 8 faces (6 quadrilaterals, 2 hexagons)
Range-separation parameter for embedded mesh potentials due to point charges: 0.587378 bohrs.

Initializing van der Waals corrections
	NOTE: vdW corrections apply only for interactions with fluid.
	Ta:  C6:  815.23 Eh-a0^6  R0: 3.326 a0 (WARNING: beyond Grimme's data set)
	Se:  C6:  219.24 Eh-a0^6  R0: 3.347 a0

---------- Setting up ewald sum ----------
Optimum gaussian width for ewald sums = 6.561976 bohr.
Real space sum over 605 unit cells with max indices [  5  5  2  ]
Reciprocal space sum over 5915 terms with max indices [  6  6  17  ]

---------- Allocating electronic variables ----------
Initializing wave functions:  linear combination of atomic orbitals
Ta pseudo-atom occupations:   s ( 2 2 )  p ( 6 0 )  d ( 3 )
Se pseudo-atom occupations:   s ( 2 )  p ( 4 )
	FillingsUpdate:  mu: -0.227446091  nElectrons: 225.000000
LCAOMinimize: Iter:   0  F: -700.3897981037689533  |grad|_K:  4.542e-03  alpha:  1.000e+00
	FillingsUpdate:  mu: -0.196865889  nElectrons: 225.000000
LCAOMinimize: Iter:   1  F: -700.6145174650786203  |grad|_K:  2.247e-03  alpha:  9.883e-02  linmin: -4.466e-01  cgtest:  9.671e-01  t[s]:     41.25
LCAOMinimize: Encountered beta<0, resetting CG.
	FillingsUpdate:  mu: -0.146690340  nElectrons: 225.000000
LCAOMinimize: Iter:   2  F: -700.6820732647831846  |grad|_K:  2.189e-04  alpha:  1.914e-01  linmin:  3.180e-01  cgtest: -6.576e-01  t[s]:     46.52
LCAOMinimize: 	Predicted alpha/alphaT>3.000000, increasing alphaT to 5.742501e-01.
	FillingsUpdate:  mu: -0.143614496  nElectrons: 225.000000
LCAOMinimize: Iter:   3  F: -700.6831133711841630  |grad|_K:  2.095e-04  alpha:  6.382e-01  linmin:  2.866e-03  cgtest:  7.825e-01  t[s]:     53.83
	FillingsUpdate:  mu: -0.148923346  nElectrons: 225.000000
LCAOMinimize: Iter:   4  F: -700.6836706132726249  |grad|_K:  1.638e-05  alpha:  1.796e-01  linmin:  1.097e-01  cgtest: -2.706e-01  t[s]:     58.88
LCAOMinimize: 	Predicted alpha/alphaT>3.000000, increasing alphaT to 5.387459e-01.
	FillingsUpdate:  mu: -0.148925457  nElectrons: 225.000000
LCAOMinimize: Iter:   5  F: -700.6836854904754546  |grad|_K:  4.065e-06  alpha:  8.257e-01  linmin:  2.347e-03  cgtest:  3.047e-01  t[s]:     65.79
LCAOMinimize: Encountered beta<0, resetting CG.
	FillingsUpdate:  mu: -0.148822866  nElectrons: 225.000000
LCAOMinimize: Iter:   6  F: -700.6836857254655797  |grad|_K:  1.320e-06  alpha:  1.968e-01  linmin: -6.473e-04  cgtest:  1.675e-03  t[s]:     71.46
LCAOMinimize: 	Predicted alpha/alphaT>3.000000, increasing alphaT to 5.905064e-01.
	FillingsUpdate:  mu: -0.148849366  nElectrons: 225.000000
LCAOMinimize: Iter:   7  F: -700.6836858136553019  |grad|_K:  1.488e-07  alpha:  7.001e-01  linmin: -8.456e-05  cgtest: -5.837e-03  t[s]:     78.74
LCAOMinimize: Converged (|Delta F|<1.000000e-06 for 2 iters).
----- createFluidSolver() ----- (Fluid-side solver setup)
   Initializing fluid molecule 'H2O'
     Initializing site 'O'
       Electron density: proportional to exp(-r/0.36935)*erfc((r-0.51523)/0.36823) with norm 6.826
       Charge density: gaussian nuclear width 0.478731 with net site charge 0.826
       Polarizability: cuspless exponential with width 0.32 and norm 3.73
       Hard sphere radius: 2.57003 bohrs
       Positions in reference frame:
         [ +0.000000 +0.000000 +0.000000 ]
     Initializing site 'H'
       Electron density: proportional to exp(-r/0.34641)*erfc((r-0)/0.390882) with norm 0.587
       Charge density: gaussian nuclear width 0.377945 with net site charge -0.413
       Polarizability: cuspless exponential with width 0.39 and norm 3.3
       Positions in reference frame:
         [ +0.000000 -1.441945 +1.122523 ]
         [ +0.000000 +1.441945 +1.122523 ]
     Net charge: 0   dipole magnitude: 0.927204
     Initializing spherical shell mfKernel with radius 2.61727 Bohr
     deltaS corrections:
       site 'O': -7.54299
       site 'H': -6.83917
   Initializing fluid molecule 'Na+'
     Initializing site 'Na'
       Electron density: proportional to exp(-r/0.19682)*erfc((r-0.71491)/0.41314) with norm 8.1383
       Charge density: gaussian nuclear width 0.365347 with net site charge -1
       Hard sphere radius: 1.86327 bohrs
       Positions in reference frame:
         [ +0.000000 +0.000000 +0.000000 ]
     Net charge: -1   dipole magnitude: 0
     Initializing gaussian mfKernel with width: 1.55004 Bohr
     deltaS corrections:
       site 'Na': -22.3555
   Initializing fluid molecule 'F-'
     Initializing site 'F'
       Electron density: proportional to exp(-r/0.38886)*erfc((r-0)/0.438782) with norm 8
       Charge density: gaussian nuclear width 0.374796 with net site charge 1
       Hard sphere radius: 2.39995 bohrs
       Positions in reference frame:
         [ +0.000000 +0.000000 +0.000000 ]
     Net charge: 1   dipole magnitude: 0
     Initializing gaussian mfKernel with width: 1.59012 Bohr
     deltaS corrections:
       site 'F': -9.04335

Correction to mu due to finite nuclear width = -0.00965443
   Cavity determined by nc: 0.00142 and sigma: 0.707107
   Nonlocal vdW cavity from gaussian model electron density with norm = 8 and sigma = 0.993594 bohr
   Charge asymmetry in cavity with sensitivity pCavity = 36.5 e-bohr/Eh
   Electrostatic cavity expanded by eta = 1.46 bohrs
   Weighted density cavitation model constrained by Nbulk: 0.0049383 bohr^-3, Pvap: 3.14029 kPa, Rvdw: 2.61727 bohr and sigmaBulk: 4.62e-05 Eh/bohr^2 at T: 298 K.
   Weighted density dispersion model using vdW pair potentials with single solvent site with sqrtC6eff: 0.77 SI.


---- Citations for features of the code used in this run ----

   Software package:
      R. Sundararaman, K. Letchworth-Weaver, K.A. Schwarz, D. Gunceler, Y. Ozhabes and T.A. Arias, 'JDFTx: software for joint density-functional theory', SoftwareX 6, 278 (2017)

   gga-PBE exchange-correlation functional:
      J.P. Perdew, K. Burke and M. Ernzerhof, Phys. Rev. Lett. 77, 3865 (1996)

   Pseudopotentials:
      KF Garrity, JW Bennett, KM Rabe and D Vanderbilt, Comput. Mater. Sci. 81, 446 (2014)

   Truncated Coulomb potentials:
      R. Sundararaman and T.A. Arias, Phys. Rev. B 87, 165122 (2013)

   Van der Waals correction pair-potentials:
      S. Grimme, J. Comput. Chem. 27, 1787 (2006)

   Charge-asymmetric nonlocally-determined local-electric (CANDLE) solvation model:
      R. Sundararaman and W.A. Goddard III, J. Chem. Phys. 142, 064107 (2015)

   Total energy minimization with Auxiliary Hamiltonian:
      C. Freysoldt, S. Boeck, and J. Neugebauer, Phys. Rev. B 79, 241103(R) (2009)

This list may not be complete. Please suggest additional citations or
report any other bugs at https://github.com/shankar1729/jdftx/issues

Initialization completed successfully at t[s]:     80.70

Fluid solver invoked on fresh (partially random / LCAO) wavefunctions
Running a vacuum solve first:

-------- Initial electronic minimization -----------
	FillingsUpdate:  mu: -0.148849366  nElectrons: 225.000000
ElecMinimize: Iter:   0  F: -700.683685813649163  |grad|_K:  1.316e-04  alpha:  1.000e+00
	FillingsUpdate:  mu: -0.072449264  nElectrons: 225.000000
	SubspaceRotationAdjust: set factor to 0.95
ElecMinimize: Iter:   1  F: -701.210352711872702  |grad|_K:  6.891e-05  alpha:  8.156e-01  linmin: -1.294e-04  t[s]:     92.25
	FillingsUpdate:  mu: -0.122897954  nElectrons: 225.000000
	SubspaceRotationAdjust: set factor to 0.632
ElecMinimize: Iter:   2  F: -701.276145392884928  |grad|_K:  5.450e-05  alpha:  3.912e-01  linmin:  1.692e-04  t[s]:     98.74
	FillingsUpdate:  mu: -0.099476862  nElectrons: 225.000000
	SubspaceRotationAdjust: set factor to 0.481
ElecMinimize: Iter:   3  F: -701.326303807463205  |grad|_K:  2.248e-05  alpha:  4.643e-01  linmin:  2.042e-04  t[s]:    105.65
	FillingsUpdate:  mu: -0.100089280  nElectrons: 225.000000
	SubspaceRotationAdjust: set factor to 0.556
ElecMinimize: Iter:   4  F: -701.338956262297643  |grad|_K:  1.394e-05  alpha:  6.837e-01  linmin:  6.441e-05  t[s]:    112.16
	FillingsUpdate:  mu: -0.103405789  nElectrons: 225.000000
	SubspaceRotationAdjust: set factor to 0.615
ElecMinimize: Iter:   5  F: -701.343436249580350  |grad|_K:  8.832e-06  alpha:  6.195e-01  linmin:  2.353e-05  t[s]:    118.99
	FillingsUpdate:  mu: -0.100713514  nElectrons: 225.000000
	SubspaceRotationAdjust: set factor to 0.673
ElecMinimize: Iter:   6  F: -701.345341197514017  |grad|_K:  5.431e-06  alpha:  6.548e-01  linmin:  2.639e-05  t[s]:    126.07
	FillingsUpdate:  mu: -0.102371653  nElectrons: 225.000000
	SubspaceRotationAdjust: set factor to 0.704
ElecMinimize: Iter:   7  F: -701.346086769587032  |grad|_K:  3.263e-06  alpha:  6.794e-01  linmin:  1.100e-05  t[s]:    132.33
	FillingsUpdate:  mu: -0.101946542  nElectrons: 225.000000
	SubspaceRotationAdjust: set factor to 0.735
ElecMinimize: Iter:   8  F: -701.346316002061144  |grad|_K:  1.998e-06  alpha:  5.768e-01  linmin:  3.368e-06  t[s]:    138.77
	FillingsUpdate:  mu: -0.102384191  nElectrons: 225.000000
	SubspaceRotationAdjust: set factor to 0.774
ElecMinimize: Iter:   9  F: -701.346421239751862  |grad|_K:  1.404e-06  alpha:  7.066e-01  linmin:  6.190e-06  t[s]:    145.34
	FillingsUpdate:  mu: -0.102342056  nElectrons: 225.000000
	SubspaceRotationAdjust: set factor to 0.828
ElecMinimize: Iter:  10  F: -701.346472513036701  |grad|_K:  1.080e-06  alpha:  6.981e-01  linmin:  3.274e-06  t[s]:    151.89
	FillingsUpdate:  mu: -0.102481565  nElectrons: 225.000000
	SubspaceRotationAdjust: set factor to 0.888
ElecMinimize: Iter:  11  F: -701.346503470141556  |grad|_K:  8.438e-07  alpha:  7.106e-01  linmin:  2.918e-06  t[s]:    157.60
	FillingsUpdate:  mu: -0.102440574  nElectrons: 225.000000
	SubspaceRotationAdjust: set factor to 0.934
ElecMinimize: Iter:  12  F: -701.346524792772584  |grad|_K:  7.280e-07  alpha:  8.027e-01  linmin:  2.454e-06  t[s]:    162.44
	FillingsUpdate:  mu: -0.102404070  nElectrons: 225.000000
	SubspaceRotationAdjust: set factor to 0.997
ElecMinimize: Iter:  13  F: -701.346539557379629  |grad|_K:  5.974e-07  alpha:  7.462e-01  linmin:  1.423e-06  t[s]:    167.35
	FillingsUpdate:  mu: -0.102301641  nElectrons: 225.000000
	SubspaceRotationAdjust: set factor to 1.1
ElecMinimize: Iter:  14  F: -701.346549288465212  |grad|_K:  4.502e-07  alpha:  7.296e-01  linmin:  1.142e-06  t[s]:    172.24
	FillingsUpdate:  mu: -0.102379685  nElectrons: 225.000000
	SubspaceRotationAdjust: set factor to 1.15
ElecMinimize: Iter:  15  F: -701.346554355621493  |grad|_K:  3.258e-07  alpha:  6.689e-01  linmin: -1.328e-07  t[s]:    177.15
	FillingsUpdate:  mu: -0.102236564  nElectrons: 225.000000
	SubspaceRotationAdjust: set factor to 0.962
ElecMinimize: Iter:  16  F: -701.346556405874253  |grad|_K:  2.537e-07  alpha:  5.163e-01  linmin: -4.039e-08  t[s]:    181.98
	FillingsUpdate:  mu: -0.102396742  nElectrons: 225.000000
	SubspaceRotationAdjust: set factor to 0.646
ElecMinimize: Iter:  17  F: -701.346557221870057  |grad|_K:  1.715e-07  alpha:  3.387e-01  linmin: -1.449e-08  t[s]:    186.83
	FillingsUpdate:  mu: -0.102353114  nElectrons: 225.000000
	SubspaceRotationAdjust: set factor to 0.744
ElecMinimize: Iter:  18  F: -701.346557784752008  |grad|_K:  1.033e-07  alpha:  5.115e-01  linmin: -5.536e-08  t[s]:    191.68
	FillingsUpdate:  mu: -0.102329413  nElectrons: 225.000000
	SubspaceRotationAdjust: set factor to 0.802
ElecMinimize: Iter:  19  F: -701.346558011785760  |grad|_K:  7.407e-08  alpha:  5.688e-01  linmin: -1.181e-07  t[s]:    196.55
	FillingsUpdate:  mu: -0.102371897  nElectrons: 225.000000
	SubspaceRotationAdjust: set factor to 0.683
ElecMinimize: Iter:  20  F: -701.346558116347751  |grad|_K:  5.280e-08  alpha:  5.091e-01  linmin:  7.345e-08  t[s]:    201.37
	FillingsUpdate:  mu: -0.102348441  nElectrons: 225.000000
	SubspaceRotationAdjust: set factor to 0.637
ElecMinimize: Iter:  21  F: -701.346558171660831  |grad|_K:  3.549e-08  alpha:  5.307e-01  linmin:  4.307e-08  t[s]:    206.21
	FillingsUpdate:  mu: -0.102348602  nElectrons: 225.000000
	SubspaceRotationAdjust: set factor to 0.706
ElecMinimize: Iter:  22  F: -701.346558199902574  |grad|_K:  2.603e-08  alpha:  6.000e-01  linmin:  8.092e-08  t[s]:    210.97
	FillingsUpdate:  mu: -0.102359120  nElectrons: 225.000000
	SubspaceRotationAdjust: set factor to 0.68
ElecMinimize: Iter:  23  F: -701.346558215292362  |grad|_K:  2.118e-08  alpha:  6.082e-01  linmin:  7.392e-09  t[s]:    215.75
	FillingsUpdate:  mu: -0.102349308  nElectrons: 225.000000
	SubspaceRotationAdjust: set factor to 0.658
ElecMinimize: Iter:  24  F: -701.346558226499155  |grad|_K:  1.708e-08  alpha:  6.670e-01  linmin:  1.913e-08  t[s]:    220.52
	FillingsUpdate:  mu: -0.102352883  nElectrons: 225.000000
	SubspaceRotationAdjust: set factor to 0.704
ElecMinimize: Iter:  25  F: -701.346558233970313  |grad|_K:  1.377e-08  alpha:  6.832e-01  linmin: -6.494e-08  t[s]:    225.32
	FillingsUpdate:  mu: -0.102354741  nElectrons: 225.000000
	SubspaceRotationAdjust: set factor to 0.747
ElecMinimize: Iter:  26  F: -701.346558238206057  |grad|_K:  1.058e-08  alpha:  5.968e-01  linmin:  1.700e-08  t[s]:    230.02
ElecMinimize: Converged (|Delta F|<1.000000e-08 for 2 iters).
Setting wave functions to eigenvectors of Hamiltonian
Vacuum energy after initial minimize, F = -701.346558238206057

	Linear fluid (dielectric constant: 78.4, screening length: 5.74355 Bohr) occupying 0.749138 of unit cell:	Completed after 14 iterations at t[s]:    232.37

-------- Electronic minimization -----------
	Linear fluid (dielectric constant: 78.4, screening length: 5.74355 Bohr) occupying 0.749138 of unit cell:	Completed after 0 iterations at t[s]:    234.09
	FillingsUpdate:  mu: -0.190383182  nElectrons: 225.000000
ElecMinimize: Iter:   0  F: -701.342195050476221  |grad|_K:  1.582e-06  alpha:  1.000e+00
	Linear fluid (dielectric constant: 78.4, screening length: 5.74355 Bohr) occupying 0.749637 of unit cell:	Completed after 9 iterations at t[s]:    238.72
	Linear fluid (dielectric constant: 78.4, screening length: 5.74355 Bohr) occupying 0.749667 of unit cell:	Completed after 2 iterations at t[s]:    241.11
	FillingsUpdate:  mu: -0.188315710  nElectrons: 225.000000
	SubspaceRotationAdjust: set factor to 0.52
ElecMinimize: Iter:   1  F: -701.342294799151091  |grad|_K:  1.091e-06  alpha:  1.062e+00  linmin: -5.219e-06  t[s]:    243.28
	Linear fluid (dielectric constant: 78.4, screening length: 5.74355 Bohr) occupying 0.749931 of unit cell:	Completed after 7 iterations at t[s]:    245.44
	Linear fluid (dielectric constant: 78.4, screening length: 5.74355 Bohr) occupying 0.749744 of unit cell:	Completed after 8 iterations at t[s]:    248.18
	FillingsUpdate:  mu: -0.189042468  nElectrons: 225.000000
	SubspaceRotationAdjust: set factor to 0.263
ElecMinimize: Iter:   2  F: -701.342308816925765  |grad|_K:  3.783e-07  alpha:  3.079e-01  linmin:  5.134e-07  t[s]:    250.38
	Linear fluid (dielectric constant: 78.4, screening length: 5.74355 Bohr) occupying 0.749759 of unit cell:	Completed after 1 iterations at t[s]:    252.27
	Linear fluid (dielectric constant: 78.4, screening length: 5.74355 Bohr) occupying 0.749783 of unit cell:	Completed after 2 iterations at t[s]:    254.64
	FillingsUpdate:  mu: -0.189038525  nElectrons: 225.000000
	SubspaceRotationAdjust: set factor to 0.327
ElecMinimize: Iter:   3  F: -701.342313342518651  |grad|_K:  2.122e-07  alpha:  8.253e-01  linmin: -1.247e-05  t[s]:    256.88
	Linear fluid (dielectric constant: 78.4, screening length: 5.74355 Bohr) occupying 0.749803 of unit cell:	Completed after 2 iterations at t[s]:    258.85
	Linear fluid (dielectric constant: 78.4, screening length: 5.74355 Bohr) occupying 0.749806 of unit cell:	Completed after 0 iterations at t[s]:    260.99
	FillingsUpdate:  mu: -0.188975336  nElectrons: 225.000000
	SubspaceRotationAdjust: set factor to 0.347
ElecMinimize: Iter:   4  F: -701.342315031970088  |grad|_K:  1.312e-07  alpha:  9.635e-01  linmin: -1.125e-05  t[s]:    263.15
	Linear fluid (dielectric constant: 78.4, screening length: 5.74355 Bohr) occupying 0.749812 of unit cell:	Completed after 2 iterations at t[s]:    265.14
	Linear fluid (dielectric constant: 78.4, screening length: 5.74355 Bohr) occupying 0.749810 of unit cell:	Completed after 0 iterations at t[s]:    267.30
	FillingsUpdate:  mu: -0.188938371  nElectrons: 225.000000
	SubspaceRotationAdjust: set factor to 0.423
ElecMinimize: Iter:   5  F: -701.342315425809829  |grad|_K:  8.742e-08  alpha:  6.078e-01  linmin:  8.161e-06  t[s]:    269.37
	Linear fluid (dielectric constant: 78.4, screening length: 5.74355 Bohr) occupying 0.749807 of unit cell:	Completed after 0 iterations at t[s]:    271.01
	Linear fluid (dielectric constant: 78.4, screening length: 5.74355 Bohr) occupying 0.749807 of unit cell:	Completed after 0 iterations at t[s]:    273.12
	FillingsUpdate:  mu: -0.188937433  nElectrons: 225.000000
	SubspaceRotationAdjust: set factor to 0.562
ElecMinimize: Iter:   6  F: -701.342315641583241  |grad|_K:  6.235e-08  alpha:  7.622e-01  linmin:  1.704e-07  t[s]:    275.29
	Linear fluid (dielectric constant: 78.4, screening length: 5.74355 Bohr) occupying 0.749801 of unit cell:	Completed after 2 iterations at t[s]:    277.12
	Linear fluid (dielectric constant: 78.4, screening length: 5.74355 Bohr) occupying 0.749805 of unit cell:	Completed after 0 iterations at t[s]:    279.33
	FillingsUpdate:  mu: -0.189020794  nElectrons: 225.000000
	SubspaceRotationAdjust: set factor to 0.427
ElecMinimize: Iter:   7  F: -701.342315648292697  |grad|_K:  9.287e-08  alpha:  2.817e-01  linmin:  3.440e-05  t[s]:    281.49
	Linear fluid (dielectric constant: 78.4, screening length: 5.74355 Bohr) occupying 0.749799 of unit cell:	Completed after 0 iterations at t[s]:    283.20
	Linear fluid (dielectric constant: 78.4, screening length: 5.74355 Bohr) occupying 0.749801 of unit cell:	Completed after 0 iterations at t[s]:    294.78
	FillingsUpdate:  mu: -0.189020962  nElectrons: 225.000000
	SubspaceRotationAdjust: set factor to 0.378
ElecMinimize: Iter:   8  F: -701.342315687898690  |grad|_K:  8.435e-08  alpha:  1.717e-01  linmin: -2.408e-08  t[s]:    297.87
	Linear fluid (dielectric constant: 78.4, screening length: 5.74355 Bohr) occupying 0.749798 of unit cell:	Completed after 2 iterations at t[s]:    300.19
	Linear fluid (dielectric constant: 78.4, screening length: 5.74355 Bohr) occupying 0.749800 of unit cell:	Completed after 0 iterations at t[s]:    303.52
ElecMinimize: 	Step increased F by 7.252083e-09, reducing alpha to 6.812656e-03.
	Linear fluid (dielectric constant: 78.4, screening length: 5.74355 Bohr) occupying 0.749801 of unit cell:	Completed after 0 iterations at t[s]:    309.10
ElecMinimize: 	Step increased F by 5.289507e-09, reducing alpha to 6.812656e-04.
	Linear fluid (dielectric constant: 78.4, screening length: 5.74355 Bohr) occupying 0.749801 of unit cell:	Completed after 0 iterations at t[s]:    314.21
ElecMinimize: 	Step increased F by 5.444122e-09, reducing alpha to 6.812656e-05.
ElecMinimize: 	Step failed to reduce F after 3 attempts. Quitting step.
ElecMinimize: 	Undoing step.
	Linear fluid (dielectric constant: 78.4, screening length: 5.74355 Bohr) occupying 0.749801 of unit cell:	Completed after 0 iterations at t[s]:    320.01
ElecMinimize: 	Step failed: resetting search direction.
	FillingsUpdate:  mu: -0.188965715  nElectrons: 225.000000
	SubspaceRotationAdjust: set factor to 0.363
ElecMinimize: Iter:   9  F: -701.342315682510730  |grad|_K:  3.998e-08  alpha:  6.813e-05
	Linear fluid (dielectric constant: 78.4, screening length: 5.74355 Bohr) occupying 0.749801 of unit cell:	Completed after 0 iterations at t[s]:    325.28
	Linear fluid (dielectric constant: 78.4, screening length: 5.74355 Bohr) occupying 0.749800 of unit cell:	Completed after 0 iterations at t[s]:    329.00
	FillingsUpdate:  mu: -0.188965539  nElectrons: 225.000000
	SubspaceRotationAdjust: set factor to 0.418
ElecMinimize: Iter:  10  F: -701.342315708886758  |grad|_K:  2.493e-08  alpha:  4.370e-01  linmin: -3.695e-06  t[s]:    331.80
	Linear fluid (dielectric constant: 78.4, screening length: 5.74355 Bohr) occupying 0.749799 of unit cell:	Completed after 0 iterations at t[s]:    334.50
	Linear fluid (dielectric constant: 78.4, screening length: 5.74355 Bohr) occupying 0.749798 of unit cell:	Completed after 0 iterations at t[s]:    337.76
	FillingsUpdate:  mu: -0.188965238  nElectrons: 225.000000
	SubspaceRotationAdjust: set factor to 0.491
ElecMinimize: Iter:  11  F: -701.342315726599736  |grad|_K:  1.740e-08  alpha:  7.527e-01  linmin: -6.356e-08  t[s]:    340.87
	Linear fluid (dielectric constant: 78.4, screening length: 5.74355 Bohr) occupying 0.749796 of unit cell:	Completed after 0 iterations at t[s]:    343.61
	Linear fluid (dielectric constant: 78.4, screening length: 5.74355 Bohr) occupying 0.749796 of unit cell:	Completed after 0 iterations at t[s]:    346.95
	FillingsUpdate:  mu: -0.188965046  nElectrons: 225.000000
	SubspaceRotationAdjust: set factor to 0.568
ElecMinimize: Iter:  12  F: -701.342315734136832  |grad|_K:  1.205e-08  alpha:  6.638e-01  linmin: -6.204e-08  t[s]:    349.97
	Linear fluid (dielectric constant: 78.4, screening length: 5.74355 Bohr) occupying 0.749795 of unit cell:	Completed after 0 iterations at t[s]:    353.00
	Linear fluid (dielectric constant: 78.4, screening length: 5.74355 Bohr) occupying 0.749795 of unit cell:	Completed after 0 iterations at t[s]:    356.30
	FillingsUpdate:  mu: -0.188964889  nElectrons: 225.000000
	SubspaceRotationAdjust: set factor to 0.649
ElecMinimize: Iter:  13  F: -701.342315737360309  |grad|_K:  6.354e-09  alpha:  5.939e-01  linmin: -4.092e-07  t[s]:    359.50
ElecMinimize: Converged (|Delta F|<1.000000e-08 for 2 iters).
Setting wave functions to eigenvectors of Hamiltonian
Single-point solvation energy estimate, DeltaF = +0.004242500845749

# Ionic positions in lattice coordinates:
ion Ta   0.999999925925927   0.000000074074073   0.500000000000002 0
ion Ta   0.333333259259260   0.000000074074073   0.500000000000002 0
ion Ta   0.666666592592593   0.000000074074073   0.500000000000002 0
ion Ta   0.999999925925927   0.333333407407407   0.500000000000002 0
ion Ta   0.333333259259260   0.333333407407407   0.500000000000002 0
ion Ta   0.666666592592593   0.333333407407407   0.500000000000002 0
ion Ta   0.999999925925927   0.666666740740740   0.500000000000002 0
ion Ta   0.333333259259260   0.666666740740740   0.500000000000002 0
ion Ta   0.666666592592593   0.666666740740740   0.500000000000002 0
ion Se   0.111111037037038   0.222222296296296   0.408532189904913 0
ion Se   0.444444370370371   0.222222296296296   0.408532189904913 0
ion Se   0.777777703703704   0.222222296296296   0.408532189904913 0
ion Se   0.111111037037038   0.555555629629629   0.408532189904913 0
ion Se   0.444444370370371   0.555555629629629   0.408532189904913 0
ion Se   0.777777703703704   0.555555629629629   0.408532189904913 0
ion Se   0.111111037037038   0.888888962962962   0.408532189904913 0
ion Se   0.444444370370371   0.888888962962962   0.408532189904913 0
ion Se   0.777777703703704   0.888888962962962   0.408532189904913 0
ion Se   0.111111037037038   0.222222296296296   0.591467810095092 0
ion Se   0.444444370370371   0.222222296296296   0.591467810095092 0
ion Se   0.777777703703704   0.222222296296296   0.591467810095092 0
ion Se   0.111111037037038   0.555555629629629   0.591467810095092 0
ion Se   0.444444370370371   0.555555629629629   0.591467810095092 0
ion Se   0.777777703703704   0.555555629629629   0.591467810095092 0
ion Se   0.111111037037038   0.888888962962962   0.591467810095092 0
ion Se   0.444444370370371   0.888888962962962   0.591467810095092 0
ion Se   0.777777703703704   0.888888962962962   0.591467810095092 0


# Forces in Lattice coordinates:
force Ta   0.000000000000000   0.000000000000000   0.000000000000000 0
force Ta   0.000000000000000   0.000000000000000  -0.000000000000000 0
force Ta   0.000000000000000   0.000000000000000  -0.000000000000000 0
force Ta  -0.000000000000000  -0.000000000000000  -0.000000000000000 0
force Ta  -0.000000000000000   0.000000000000000  -0.000000000000000 0
force Ta  -0.000000000000000   0.000000000000000   0.000000000000000 0
force Ta  -0.000000000000000  -0.000000000000000  -0.000000000000000 0
force Ta   0.000000000000000   0.000000000000000  -0.000000000000000 0
force Ta  -0.000000000000000   0.000000000000000  -0.000000000000000 0
force Se  -0.000000000000000   0.000000000000000  -0.037129429144539 0
force Se  -0.000000000000000   0.000000000000000  -0.037129429144537 0
force Se  -0.000000000000000   0.000000000000000  -0.037129429144650 0
force Se  -0.000000000000000  -0.000000000000000  -0.037129429144538 0
force Se  -0.000000000000000   0.000000000000000  -0.037129429144424 0
force Se  -0.000000000000000  -0.000000000000000  -0.037129429144424 0
force Se  -0.000000000000000   0.000000000000000  -0.037129429144310 0
force Se  -0.000000000000000   0.000000000000000  -0.037129429144538 0
force Se  -0.000000000000000   0.000000000000000  -0.037129429144424 0
force Se   0.000000000000000  -0.000000000000000   0.037129429144423 0
force Se   0.000000000000000  -0.000000000000000   0.037129429144651 0
force Se   0.000000000000000  -0.000000000000000   0.037129429144309 0
force Se  -0.000000000000000  -0.000000000000000   0.037129429144537 0
force Se   0.000000000000000  -0.000000000000000   0.037129429144536 0
force Se   0.000000000000000  -0.000000000000000   0.037129429144536 0
force Se   0.000000000000000   0.000000000000000   0.037129429144536 0
force Se   0.000000000000000  -0.000000000000000   0.037129429144423 0
force Se   0.000000000000000  -0.000000000000000   0.037129429144536 0

# Energy components:
   A_diel =        0.0041223947473946
   Eewald =     3762.1068270362379735
       EH =     4320.6553857570097534
     Eloc =    -8783.8660613320207631
      Enl =     -111.8190987137328136
      Exc =     -457.5139182755961542
 Exc_core =      330.3695990853407238
       KE =      238.7719614244154229
-------------------------------------
     Etot =     -701.2911826235990702
       TS =        0.0511331137611946
-------------------------------------
        F =     -701.3423157373603090

IonicMinimize: Iter:   0  F: -701.342315737360309  |grad|_K:  0.000e+00  t[s]:    362.08
IonicMinimize: Converged (|grad|_K<1.000000e-04).

#--- Lowdin population analysis ---
# oxidation-state Ta -0.565 -0.565 -0.565 -0.565 -0.565 -0.565 -0.565 -0.565 -0.565
# oxidation-state Se +0.327 +0.327 +0.327 +0.327 +0.327 +0.327 +0.327 +0.327 +0.327 +0.327 +0.327 +0.327 +0.327 +0.327 +0.327 +0.327 +0.327 +0.327


Dumping 'NbTe2.fillings' ... done
Dumping 'NbTe2.wfns' ... done
Dumping 'NbTe2.fluidState' ... done
Dumping 'NbTe2.eigenvals' ... done
End date and time: Sun Jul 12 15:03:52 2020  (Duration: 0-0:06:03.13)
Done!
