
*************** JDFTx 1.5.0  ***************

Start date and time: Sat Jul 25 19:11:39 2020
Executable jdftx_gpu with command-line: -i Neutral.in -o Neutral.out
Running on hosts (process indices):  amax (0-5)
Divided in process groups (process indices):  0 (0)  1 (1)  2 (2)  3 (3)  4 (4)  5 (5)
gpuInit: Found compatible cuda device 0 'Tesla K80'
gpuInit: Found compatible cuda device 1 'Tesla K80'
gpuInit: Found compatible cuda device 2 'Tesla K80'
gpuInit: Found compatible cuda device 3 'Tesla K80'
gpuInit: Found compatible cuda device 4 'Tesla K80'
gpuInit: Found compatible cuda device 5 'Tesla K80'
gpuInit: Selected device 0
Resource initialization completed at t[s]:     15.83
Run totals: 6 processes, 24 threads, 6 GPUs


Input parsed successfully to the following command list (including defaults):

basis kpoint-dependent
cache-projectors no
coords-type Lattice
core-overlap-check none
coulomb-interaction Slab 001
coulomb-truncation-embed 0 0 0.5
davidson-band-ratio 1.1
dump End State
dump-name NbTe2.$VAR
elec-cutoff 20 100
elec-eigen-algo Davidson
elec-ex-corr gga-PBE
elec-smearing Gauss 0.0073499
electronic-minimize  \
	dirUpdateScheme      FletcherReeves \
	linminMethod         DirUpdateRecommended \
	nIterations          500 \
	history              15 \
	knormThreshold       0 \
	energyDiffThreshold  1e-08 \
	nEnergyDiff          2 \
	alphaTstart          1 \
	alphaTmin            1e-10 \
	updateTestStepSize   yes \
	alphaTreduceFactor   0.1 \
	alphaTincreaseFactor 3 \
	nAlphaAdjustMax      3 \
	wolfeEnergy          0.0001 \
	wolfeGradient        0.9 \
	fdTest               no
exchange-regularization WignerSeitzTruncated
fluid LinearPCM 298.000000 1.013250
fluid-anion F- 1 MeanFieldLJ \
	epsBulk 1 \
	pMol 0 \
	epsInf 1 \
	Pvap 0 \
	sigmaBulk 0 \
	Rvdw 2.24877 \
	Res 0 \
	tauNuc 343133
fluid-cation Na+ 1 MeanFieldLJ \
	epsBulk 1 \
	pMol 0 \
	epsInf 1 \
	Pvap 0 \
	sigmaBulk 0 \
	Rvdw 2.19208 \
	Res 0 \
	tauNuc 343133
fluid-ex-corr lda-TF lda-PZ
fluid-gummel-loop 10 1.000000e-05
fluid-minimize  \
	dirUpdateScheme      PolakRibiere \
	linminMethod         DirUpdateRecommended \
	nIterations          400 \
	history              15 \
	knormThreshold       1e-11 \
	energyDiffThreshold  0 \
	nEnergyDiff          2 \
	alphaTstart          1 \
	alphaTmin            1e-10 \
	updateTestStepSize   yes \
	alphaTreduceFactor   0.1 \
	alphaTincreaseFactor 3 \
	nAlphaAdjustMax      6 \
	wolfeEnergy          0.0001 \
	wolfeGradient        0.9 \
	fdTest               no
fluid-solvent H2O 55.338 ScalarEOS \
	epsBulk 78.4 \
	pMol 0.92466 \
	epsInf 1.77 \
	Pvap 1.06736e-10 \
	sigmaBulk 4.62e-05 \
	Rvdw 2.61727 \
	Res 1.42 \
	tauNuc 343133 \
	poleEl 15 7 1
forces-output-coords Positions
initial-state NbTe2.$VAR
ion Cr   0.168797756821315   0.167304572474695   0.499935058737439 0
ion Cr   0.336143071518958   0.323818780451867   0.491556025283842 0
ion Cr   0.667584073726304   0.168187878116173   0.498750005747157 0
ion Cr   0.832135030184388   0.335759659523929   0.500218027635801 0
ion Cr   0.160010882872265   0.676179879601918   0.491526620174236 0
ion Cr   0.335802792235581   0.831781961573054   0.498773788612195 0
ion Cr   0.667890123459076   0.664249725605190   0.500201624367036 0
ion Cr   0.836146021119885   0.832687482642872   0.499933309711821 0
ion Ge  -0.000067066597319   0.003506322182823   0.434934198826978 0
ion Ge   0.001124181810579  -0.000302664019344   0.566097804196417 0
ion Ge   0.503434157661588  -0.003534567252999   0.434927148924432 0
ion Ge   0.500842250144610   0.000287920120027   0.566088984102179 0
ion Ge   0.002012643939056   0.499982418696793   0.434184600451272 0
ion Ge   0.002867471006314   0.500015624616874   0.564921797354925 0
ion Ge   0.492607753987010   0.499978551590572   0.455435813550771 0
ion Ge   0.467436977501381   0.500008547422814   0.588192610236000 0
ion Te   0.313641601169959  -0.000260385786856   0.593715162853550 0
ion Te   0.000994039184508   0.187887789930555   0.594081987089706 0
ion Te   0.193207302559262   0.316248604095784   0.593633502228961 0
ion Te   0.190560831423983   0.499982883880158   0.404752132250514 0
ion Te   0.502499200174960   0.313556783479376   0.403536353166066 0
ion Te   0.313769314697724   0.180455981275405   0.400955913131909 0
ion Te   0.813361068384622   0.000278352520143   0.593707740378198 0
ion Te   0.500097310449050   0.190315291055589   0.592103122146482 0
ion Te   0.681023786904445   0.319882383990383   0.591178365641512 0
ion Te   0.678398074120854   0.500000017494344   0.410451212381407 0
ion Te   0.000481892130338   0.313962225792361   0.405392840215502 0
ion Te   0.813003973135487   0.190126306277977   0.404877782409018 0
ion Te   0.009484957714839   0.683763980739960   0.593614719704392 0
ion Te   0.190413034847884   0.809669332143667   0.592117793060111 0
ion Te   0.188739658320161   0.000592631823510   0.405264658632853 0
ion Te   0.503089545915358   0.809880132510384   0.404838639530258 0
ion Te   0.316134293564125   0.686426554301504   0.403524109808224 0
ion Te   0.815533785017326   0.500008309379746   0.595449059516244 0
ion Te   0.500969335141020   0.680079958862175   0.591209348245816 0
ion Te   0.688905262019531   0.812105456413632   0.594068597524717 0
ion Te   0.689368652405206   0.999324447417486   0.405269723063751 0
ion Te   0.994225150514329   0.819547810094207   0.400939547278496 0
ion Te   0.814487311814019   0.686045062961250   0.405395758829778 0
ion-species GBRV/$ID_pbe.uspp
ion-width Ecut
ionic-minimize  \
	dirUpdateScheme      L-BFGS \
	linminMethod         DirUpdateRecommended \
	nIterations          0 \
	history              15 \
	knormThreshold       0.0001 \
	energyDiffThreshold  1e-06 \
	nEnergyDiff          2 \
	alphaTstart          1 \
	alphaTmin            1e-10 \
	updateTestStepSize   yes \
	alphaTreduceFactor   0.1 \
	alphaTincreaseFactor 3 \
	nAlphaAdjustMax      3 \
	wolfeEnergy          0.0001 \
	wolfeGradient        0.9 \
	fdTest               no
kpoint   0.000000000000   0.000000000000   0.000000000000  1.00000000000000
kpoint-folding 3 3 1 
latt-move-scale 1 1 1
latt-scale 1 1 1 
lattice Triclinic 25.8976 25.8976 34.8552 90 90 60
lattice-minimize  \
	dirUpdateScheme      L-BFGS \
	linminMethod         DirUpdateRecommended \
	nIterations          0 \
	history              15 \
	knormThreshold       0 \
	energyDiffThreshold  1e-06 \
	nEnergyDiff          2 \
	alphaTstart          1 \
	alphaTmin            1e-10 \
	updateTestStepSize   yes \
	alphaTreduceFactor   0.1 \
	alphaTincreaseFactor 3 \
	nAlphaAdjustMax      3 \
	wolfeEnergy          0.0001 \
	wolfeGradient        0.9 \
	fdTest               no
lcao-params -1 1e-06 0.0073499
pcm-variant CANDLE
spintype no-spin
subspace-rotation-factor 1 yes
symmetries automatic
symmetry-threshold 0.0001



---------- Setting up symmetries ----------

Found 24 point-group symmetries of the bravais lattice
Found 1 space-group symmetries with basis
Applied RMS atom displacement 0 bohrs to make symmetries exact.

---------- Initializing the Grid ----------
R = 
[    25.8976    12.9488          0  ]
[          0    22.4279          0  ]
[          0          0    34.8552  ]
unit cell volume = 20244.9
G =
[   0.242617  -0.140075          0  ]
[          0    0.28015          0  ]
[          0          0   0.180265  ]
Minimum fftbox size, Smin = [  120  120  160  ]
Chosen fftbox size, S = [  120  120  160  ]

---------- Initializing tighter grid for wavefunction operations ----------
R = 
[    25.8976    12.9488          0  ]
[          0    22.4279          0  ]
[          0          0    34.8552  ]
unit cell volume = 20244.9
G =
[   0.242617  -0.140075          0  ]
[          0    0.28015          0  ]
[          0          0   0.180265  ]
Minimum fftbox size, Smin = [  108  108  144  ]
Chosen fftbox size, S = [  108  108  144  ]

---------- Exchange Correlation functional ----------
Initalized PBE GGA exchange.
Initalized PBE GGA correlation.

---------- Setting up pseudopotentials ----------
Width of ionic core gaussian charges (only for fluid interactions / plotting) set to 0.397384

Reading pseudopotential file '/home/guoxy/vasp/jdftx-1.5.0/build/pseudopotentials/GBRV/cr_pbe.uspp':
  Title: Cr.  Created by USPP 7.3.6 on 15-6-15
  Reference state energy: -87.029289.  14 valence electrons in orbitals:
    |300>  occupation: 2  eigenvalue: -3.285614
    |310>  occupation: 6  eigenvalue: -2.226709
    |400>  occupation: 1.6  eigenvalue: -0.454946
    |320>  occupation: 3.4  eigenvalue: -0.614185
  lMax: 2  lLocal: 3  QijEcut: 6
  6 projectors sampled on a log grid with 595 points:
    l: 0  eig: -3.285615  rCut: 1.55
    l: 0  eig: -0.454949  rCut: 1.55
    l: 1  eig: -2.226708  rCut: 1.55
    l: 1  eig: 0.500000  rCut: 1.55
    l: 2  eig: -0.614184  rCut: 1.7
    l: 2  eig: 0.500000  rCut: 1.7
  Partial core density with radius 0.75
  Transforming core density to a uniform radial grid of dG=0.02 with 1630 points.
  Transforming local potential to a uniform radial grid of dG=0.02 with 1630 points.
  Transforming nonlocal projectors to a uniform radial grid of dG=0.02 with 432 points.
  Transforming density augmentations to a uniform radial grid of dG=0.02 with 1630 points.
  Transforming atomic orbitals to a uniform radial grid of dG=0.02 with 432 points.
  Core radius for overlap checks: 1.70 bohrs.

Reading pseudopotential file '/home/guoxy/vasp/jdftx-1.5.0/build/pseudopotentials/GBRV/ge_pbe.uspp':
  Title: Ge.  Created by USPP 7.3.6 on 31-3-15
  Reference state energy: -106.660278.  14 valence electrons in orbitals:
    |320>  occupation: 10  eigenvalue: -1.077168
    |400>  occupation: 2  eigenvalue: -0.431112
    |410>  occupation: 2  eigenvalue: -0.143157
  lMax: 2  lLocal: 3  QijEcut: 6
  6 projectors sampled on a log grid with 621 points:
    l: 0  eig: -0.431110  rCut: 1.9
    l: 0  eig: 1.000000  rCut: 1.9
    l: 1  eig: -0.143157  rCut: 1.9
    l: 1  eig: 1.000000  rCut: 1.9
    l: 2  eig: -1.077168  rCut: 1.7
    l: 2  eig: 0.000000  rCut: 1.7
  Partial core density with radius 0.8
  Transforming core density to a uniform radial grid of dG=0.02 with 1630 points.
  Transforming local potential to a uniform radial grid of dG=0.02 with 1630 points.
  Transforming nonlocal projectors to a uniform radial grid of dG=0.02 with 432 points.
  Transforming density augmentations to a uniform radial grid of dG=0.02 with 1630 points.
  Transforming atomic orbitals to a uniform radial grid of dG=0.02 with 432 points.
  Core radius for overlap checks: 2.00 bohrs.

Reading pseudopotential file '/home/guoxy/vasp/jdftx-1.5.0/build/pseudopotentials/GBRV/te_pbe.uspp':
  Title: Te.  Created by USPP 7.3.6 on 14-9-2013
  Reference state energy: -13.134220.  6 valence electrons in orbitals:
    |500>  occupation: 2  eigenvalue: -0.555231
    |510>  occupation: 4  eigenvalue: -0.218781
  lMax: 2  lLocal: 2  QijEcut: 5
  5 projectors sampled on a log grid with 723 points:
    l: 0  eig: -0.555229  rCut: 2.1
    l: 0  eig: 1.000000  rCut: 2.1
    l: 1  eig: -0.218780  rCut: 2.1
    l: 1  eig: 1.000000  rCut: 2.1
    l: 2  eig: 1.000000  rCut: 2.6
  Partial core density with radius 1.8
  Transforming core density to a uniform radial grid of dG=0.02 with 1630 points.
  Transforming local potential to a uniform radial grid of dG=0.02 with 1630 points.
  Transforming nonlocal projectors to a uniform radial grid of dG=0.02 with 432 points.
  Transforming density augmentations to a uniform radial grid of dG=0.02 with 1630 points.
  Transforming atomic orbitals to a uniform radial grid of dG=0.02 with 432 points.
  Core radius for overlap checks: 2.60 bohrs.

Initialized 3 species with 39 total atoms.

Folded 1 k-points by 3x3x1 to 9 k-points.

---------- Setting up k-points, bands, fillings ----------
Adding inversion symmetry to k-mesh for non-inversion-symmetric unit cell.
Reduced to 5 k-points under symmetry. 
Computing the number of bands and number of electrons
Calculating initial fillings.
nElectrons: 362.000000   nBands: 244   nStates: 5

----- Setting up reduced wavefunction bases (one per k-point) -----
average nbasis = 86467.889 , ideal nbasis = 86487.914

---------- Setting up coulomb interaction ----------
Fluid mode embedding: using embedded box, but periodic Coulomb kernel.
(Fluid response is responsible for (approximate) separation between periodic images.)
Setting up double-sized grid for truncated Coulomb potentials:
R = 
[    25.8976    12.9488          0  ]
[          0    22.4279          0  ]
[          0          0    69.7105  ]
unit cell volume = 40489.9
G =
[   0.242617  -0.140075          0  ]
[          0    0.28015          0  ]
[          0          0  0.0901326  ]
Chosen fftbox size, S = [  120  120  320  ]
Integer grid location selected as the embedding center:
   Grid: [  0  0  80  ]
   Lattice: [  0  0  0.5  ]
   Cartesian: [  0  0  17.4276  ]
Constructing Wigner-Seitz cell: 8 faces (6 quadrilaterals, 2 hexagons)
Range-separation parameter for embedded mesh potentials due to point charges: 0.588822 bohrs.

Initializing van der Waals corrections
	NOTE: vdW corrections apply only for interactions with fluid.
	Cr:  C6:  187.33 Eh-a0^6  R0: 2.952 a0
	Ge:  C6:  296.60 Eh-a0^6  R0: 3.264 a0
	Te:  C6:  550.54 Eh-a0^6  R0: 3.575 a0

---------- Setting up ewald sum ----------
Optimum gaussian width for ewald sums = 7.439004 bohr.
Real space sum over 847 unit cells with max indices [  5  5  3  ]
Reciprocal space sum over 7425 terms with max indices [  7  7  16  ]

---------- Allocating electronic variables ----------
Initializing wave functions:  linear combination of atomic orbitals
Cr pseudo-atom occupations:   s ( 2 0 )  p ( 6 )  d ( 6 )
Ge pseudo-atom occupations:   s ( 2 )  p ( 2 )  d ( 10 )
Te pseudo-atom occupations:   s ( 2 )  p ( 4 )
	FillingsUpdate:  mu: -0.413647288  nElectrons: 362.000000
LCAOMinimize: Iter:   0  F: -1589.7755816193148348  |grad|_K:  1.098e-02  alpha:  1.000e+00
	FillingsUpdate:  mu: -0.380704906  nElectrons: 362.000000
LCAOMinimize: Iter:   1  F: -1598.0034102163749594  |grad|_K:  1.648e-02  alpha:  1.583e-01  linmin: -1.398e-01  cgtest:  4.457e-01  t[s]:     37.43
	FillingsUpdate:  mu: -0.305109842  nElectrons: 362.000000
LCAOMinimize: Iter:   2  F: -1628.5649754102630595  |grad|_K:  3.309e-02  alpha:  2.962e-02  linmin: -1.920e-01  cgtest:  2.302e-01  t[s]:     45.64
LCAOMinimize: 	Step increased F by 5.667781e+01, reducing alpha to 9.438563e-04.
	FillingsUpdate:  mu: -0.281904547  nElectrons: 362.000000
LCAOMinimize: Iter:   3  F: -1633.3343698208989281  |grad|_K:  3.495e-02  alpha:  9.439e-04  linmin: -1.384e-01  cgtest:  8.073e-01  t[s]:     58.47
LCAOMinimize: 	Predicted alpha/alphaT>3.000000, increasing alphaT to 2.831569e-03.
	FillingsUpdate:  mu: -0.059740459  nElectrons: 362.000000
LCAOMinimize: Iter:   4  F: -1638.4111641005838464  |grad|_K:  9.993e-03  alpha:  8.015e-03  linmin:  1.326e-01  cgtest:  1.407e-02  t[s]:     67.68
	FillingsUpdate:  mu: -0.057443521  nElectrons: 362.000000
LCAOMinimize: Iter:   5  F: -1638.4121490718980567  |grad|_K:  9.599e-03  alpha:  7.652e-04  linmin: -4.456e-07  cgtest:  9.963e-01  t[s]:     76.06
LCAOMinimize: Encountered beta<0, resetting CG.
LCAOMinimize: 	Predicted alpha/alphaT>3.000000, increasing alphaT to 2.295723e-03.
LCAOMinimize: 	Predicted alpha/alphaT>3.000000, increasing alphaT to 6.887168e-03.
	FillingsUpdate:  mu: -0.082888227  nElectrons: 362.000000
LCAOMinimize: Iter:   6  F: -1638.6850313894638020  |grad|_K:  8.797e-03  alpha:  1.988e-02  linmin:  2.013e-03  cgtest:  3.268e-02  t[s]:     89.49
	FillingsUpdate:  mu: -0.159408190  nElectrons: 362.000000
LCAOMinimize: Iter:   7  F: -1639.1406726198422348  |grad|_K:  4.365e-03  alpha:  3.824e-02  linmin: -1.237e-02  cgtest: -2.009e-01  t[s]:     98.04
	FillingsUpdate:  mu: -0.173812619  nElectrons: 362.000000
LCAOMinimize: Iter:   8  F: -1639.1869989628987696  |grad|_K:  3.007e-03  alpha:  1.492e-02  linmin:  2.351e-04  cgtest: -1.567e-01  t[s]:    106.15
LCAOMinimize: 	Predicted alpha/alphaT>3.000000, increasing alphaT to 4.476722e-02.
	FillingsUpdate:  mu: -0.184124869  nElectrons: 362.000000
LCAOMinimize: Iter:   9  F: -1639.3079828576433101  |grad|_K:  4.235e-03  alpha:  8.986e-02  linmin:  6.167e-04  cgtest:  2.463e-01  t[s]:    114.95
	FillingsUpdate:  mu: -0.184810347  nElectrons: 362.000000
LCAOMinimize: Iter:  10  F: -1639.3494977990019379  |grad|_K:  2.790e-03  alpha:  1.602e-02  linmin:  3.177e-03  cgtest: -3.265e-02  t[s]:    122.68
	FillingsUpdate:  mu: -0.152209296  nElectrons: 362.000000
LCAOMinimize: Iter:  11  F: -1639.3933985997232412  |grad|_K:  2.758e-03  alpha:  3.938e-02  linmin:  2.865e-03  cgtest:  6.067e-02  t[s]:    131.51
	FillingsUpdate:  mu: -0.131677315  nElectrons: 362.000000
LCAOMinimize: Iter:  12  F: -1639.4071512441100822  |grad|_K:  8.782e-04  alpha:  1.230e-02  linmin: -4.028e-03  cgtest:  2.061e-01  t[s]:    141.25
LCAOMinimize: 	Predicted alpha/alphaT>3.000000, increasing alphaT to 3.689529e-02.
	FillingsUpdate:  mu: -0.131013364  nElectrons: 362.000000
LCAOMinimize: Iter:  13  F: -1639.4142939225191640  |grad|_K:  1.517e-03  alpha:  6.157e-02  linmin:  1.638e-04  cgtest: -3.369e-04  t[s]:    153.50
	FillingsUpdate:  mu: -0.127518339  nElectrons: 362.000000
LCAOMinimize: Iter:  14  F: -1639.4210190552412314  |grad|_K:  4.637e-04  alpha:  1.939e-02  linmin: -1.967e-03  cgtest:  3.320e-02  t[s]:    163.45
	FillingsUpdate:  mu: -0.129504541  nElectrons: 362.000000
LCAOMinimize: Iter:  15  F: -1639.4217942513382695  |grad|_K:  5.595e-04  alpha:  2.393e-02  linmin:  1.296e-04  cgtest: -4.658e-03  t[s]:    173.47
LCAOMinimize: 	Predicted alpha/alphaT>3.000000, increasing alphaT to 7.178462e-02.
	FillingsUpdate:  mu: -0.144998928  nElectrons: 362.000000
LCAOMinimize: Iter:  16  F: -1639.4258950053053923  |grad|_K:  3.578e-04  alpha:  8.725e-02  linmin: -1.267e-03  cgtest:  3.938e-02  t[s]:    182.98
	FillingsUpdate:  mu: -0.139835608  nElectrons: 362.000000
LCAOMinimize: Iter:  17  F: -1639.4271360011844081  |grad|_K:  6.173e-04  alpha:  6.423e-02  linmin:  2.327e-05  cgtest: -5.788e-03  t[s]:    191.30
	FillingsUpdate:  mu: -0.134523431  nElectrons: 362.000000
LCAOMinimize: Iter:  18  F: -1639.4280971243401837  |grad|_K:  1.548e-04  alpha:  1.662e-02  linmin: -2.806e-03  cgtest:  7.039e-02  t[s]:    201.21
	FillingsUpdate:  mu: -0.134754465  nElectrons: 362.000000
LCAOMinimize: Iter:  19  F: -1639.4282051869636234  |grad|_K:  2.203e-04  alpha:  2.984e-02  linmin:  2.586e-05  cgtest: -5.432e-03  t[s]:    211.29
LCAOMinimize: 	Predicted alpha/alphaT>3.000000, increasing alphaT to 8.951164e-02.
	FillingsUpdate:  mu: -0.137853431  nElectrons: 362.000000
LCAOMinimize: Iter:  20  F: -1639.4289330121462172  |grad|_K:  1.045e-04  alpha:  1.000e-01  linmin:  5.460e-04  cgtest:  1.138e-01  t[s]:    225.39
	FillingsUpdate:  mu: -0.137471594  nElectrons: 362.000000
LCAOMinimize: Iter:  21  F: -1639.4289619681067052  |grad|_K:  7.851e-05  alpha:  1.771e-02  linmin: -1.833e-04  cgtest:  4.199e-03  t[s]:    236.47
LCAOMinimize: 	Predicted alpha/alphaT>3.000000, increasing alphaT to 5.312593e-02.
	FillingsUpdate:  mu: -0.135081744  nElectrons: 362.000000
LCAOMinimize: Iter:  22  F: -1639.4290291519394032  |grad|_K:  6.523e-05  alpha:  7.264e-02  linmin:  3.592e-04  cgtest: -9.468e-03  t[s]:    250.62
	FillingsUpdate:  mu: -0.134949182  nElectrons: 362.000000
LCAOMinimize: Iter:  23  F: -1639.4290397184267931  |grad|_K:  5.589e-05  alpha:  1.658e-02  linmin: -6.247e-05  cgtest:  4.774e-03  t[s]:    259.70
LCAOMinimize: 	Predicted alpha/alphaT>3.000000, increasing alphaT to 4.973293e-02.
	FillingsUpdate:  mu: -0.136149203  nElectrons: 362.000000
LCAOMinimize: Iter:  24  F: -1639.4290878134429477  |grad|_K:  5.458e-05  alpha:  1.027e-01  linmin:  1.335e-04  cgtest: -1.413e-02  t[s]:    268.90
	FillingsUpdate:  mu: -0.136259243  nElectrons: 362.000000
LCAOMinimize: Iter:  25  F: -1639.4290928280406661  |grad|_K:  1.940e-05  alpha:  1.123e-02  linmin: -3.165e-04  cgtest:  8.912e-03  t[s]:    278.79
LCAOMinimize: 	Predicted alpha/alphaT>3.000000, increasing alphaT to 3.367740e-02.
LCAOMinimize: 	Predicted alpha/alphaT>3.000000, increasing alphaT to 1.010322e-01.
	FillingsUpdate:  mu: -0.135847172  nElectrons: 362.000000
LCAOMinimize: Iter:  26  F: -1639.4291046983466913  |grad|_K:  2.430e-05  alpha:  2.102e-01  linmin:  1.290e-04  cgtest: -6.006e-03  t[s]:    296.48
	FillingsUpdate:  mu: -0.135847289  nElectrons: 362.000000
LCAOMinimize: Iter:  27  F: -1639.4291061116136916  |grad|_K:  1.561e-05  alpha:  1.595e-02  linmin: -2.651e-04  cgtest:  4.597e-03  t[s]:    307.67
LCAOMinimize: 	Predicted alpha/alphaT>3.000000, increasing alphaT to 4.784238e-02.
	FillingsUpdate:  mu: -0.136176921  nElectrons: 362.000000
LCAOMinimize: Iter:  28  F: -1639.4291099342690359  |grad|_K:  2.546e-05  alpha:  1.045e-01  linmin:  6.913e-05  cgtest: -5.278e-03  t[s]:    322.02
	FillingsUpdate:  mu: -0.136259329  nElectrons: 362.000000
LCAOMinimize: Iter:  29  F: -1639.4291111622494554  |grad|_K:  7.809e-06  alpha:  1.262e-02  linmin: -3.985e-04  cgtest:  1.218e-02  t[s]:    333.16
LCAOMinimize: 	Predicted alpha/alphaT>3.000000, increasing alphaT to 3.785572e-02.
	FillingsUpdate:  mu: -0.136101050  nElectrons: 362.000000
LCAOMinimize: Iter:  30  F: -1639.4291117298641893  |grad|_K:  1.229e-05  alpha:  6.196e-02  linmin:  2.342e-05  cgtest: -1.611e-03  t[s]:    345.27
LCAOMinimize: None of the convergence criteria satisfied after 30 iterations.
----- createFluidSolver() ----- (Fluid-side solver setup)
   Initializing fluid molecule 'H2O'
     Initializing site 'O'
       Electron density: proportional to exp(-r/0.36935)*erfc((r-0.51523)/0.36823) with norm 6.826
       Charge density: gaussian nuclear width 0.478731 with net site charge 0.826
       Polarizability: cuspless exponential with width 0.32 and norm 3.73
       Hard sphere radius: 2.57003 bohrs
       Positions in reference frame:
         [ +0.000000 +0.000000 +0.000000 ]
     Initializing site 'H'
       Electron density: proportional to exp(-r/0.34641)*erfc((r-0)/0.390882) with norm 0.587
       Charge density: gaussian nuclear width 0.377945 with net site charge -0.413
       Polarizability: cuspless exponential with width 0.39 and norm 3.3
       Positions in reference frame:
         [ +0.000000 -1.441945 +1.122523 ]
         [ +0.000000 +1.441945 +1.122523 ]
     Net charge: 0   dipole magnitude: 0.927204
     Initializing spherical shell mfKernel with radius 2.61727 Bohr
     deltaS corrections:
       site 'O': -7.54299
       site 'H': -6.83917
   Initializing fluid molecule 'Na+'
     Initializing site 'Na'
       Electron density: proportional to exp(-r/0.19682)*erfc((r-0.71491)/0.41314) with norm 8.1383
       Charge density: gaussian nuclear width 0.365347 with net site charge -1
       Hard sphere radius: 1.86327 bohrs
       Positions in reference frame:
         [ +0.000000 +0.000000 +0.000000 ]
     Net charge: -1   dipole magnitude: 0
     Initializing gaussian mfKernel with width: 1.55004 Bohr
     deltaS corrections:
       site 'Na': -22.3555
   Initializing fluid molecule 'F-'
     Initializing site 'F'
       Electron density: proportional to exp(-r/0.38886)*erfc((r-0)/0.438782) with norm 8
       Charge density: gaussian nuclear width 0.374796 with net site charge 1
       Hard sphere radius: 2.39995 bohrs
       Positions in reference frame:
         [ +0.000000 +0.000000 +0.000000 ]
     Net charge: 1   dipole magnitude: 0
     Initializing gaussian mfKernel with width: 1.59012 Bohr
     deltaS corrections:
       site 'F': -9.04335

Correction to mu due to finite nuclear width = -0.00887078
   Cavity determined by nc: 0.00142 and sigma: 0.707107
   Nonlocal vdW cavity from gaussian model electron density with norm = 8 and sigma = 0.993594 bohr
   Charge asymmetry in cavity with sensitivity pCavity = 36.5 e-bohr/Eh
   Electrostatic cavity expanded by eta = 1.46 bohrs
   Weighted density cavitation model constrained by Nbulk: 0.0049383 bohr^-3, Pvap: 3.14029 kPa, Rvdw: 2.61727 bohr and sigmaBulk: 4.62e-05 Eh/bohr^2 at T: 298 K.
   Weighted density dispersion model using vdW pair potentials with single solvent site with sqrtC6eff: 0.77 SI.


---- Citations for features of the code used in this run ----

   Software package:
      R. Sundararaman, K. Letchworth-Weaver, K.A. Schwarz, D. Gunceler, Y. Ozhabes and T.A. Arias, 'JDFTx: software for joint density-functional theory', SoftwareX 6, 278 (2017)

   gga-PBE exchange-correlation functional:
      J.P. Perdew, K. Burke and M. Ernzerhof, Phys. Rev. Lett. 77, 3865 (1996)

   Pseudopotentials:
      KF Garrity, JW Bennett, KM Rabe and D Vanderbilt, Comput. Mater. Sci. 81, 446 (2014)

   Truncated Coulomb potentials:
      R. Sundararaman and T.A. Arias, Phys. Rev. B 87, 165122 (2013)

   Van der Waals correction pair-potentials:
      S. Grimme, J. Comput. Chem. 27, 1787 (2006)

   Charge-asymmetric nonlocally-determined local-electric (CANDLE) solvation model:
      R. Sundararaman and W.A. Goddard III, J. Chem. Phys. 142, 064107 (2015)

   Total energy minimization with Auxiliary Hamiltonian:
      C. Freysoldt, S. Boeck, and J. Neugebauer, Phys. Rev. B 79, 241103(R) (2009)

This list may not be complete. Please suggest additional citations or
report any other bugs at https://github.com/shankar1729/jdftx/issues

Initialization completed successfully at t[s]:    347.90

Fluid solver invoked on fresh (partially random / LCAO) wavefunctions
Running a vacuum solve first:

-------- Initial electronic minimization -----------
	FillingsUpdate:  mu: -0.136101050  nElectrons: 362.000000
ElecMinimize: Iter:   0  F: -1639.429111729865781  |grad|_K:  1.420e-04  alpha:  1.000e+00
	FillingsUpdate:  mu: -0.171757108  nElectrons: 362.000000
	SubspaceRotationAdjust: set factor to 0.83
ElecMinimize: Iter:   1  F: -1640.355975304165668  |grad|_K:  1.500e-04  alpha:  4.350e-01  linmin:  4.279e-05  t[s]:    370.64
	FillingsUpdate:  mu: -0.109042769  nElectrons: 362.000000
	SubspaceRotationAdjust: set factor to 0.613
ElecMinimize: Iter:   2  F: -1640.558463601466656  |grad|_K:  1.417e-04  alpha:  6.709e-02  linmin: -1.899e-03  t[s]:    387.22
	FillingsUpdate:  mu: -0.083845145  nElectrons: 362.000000
	SubspaceRotationAdjust: set factor to 0.329
ElecMinimize: Iter:   3  F: -1640.629388249435578  |grad|_K:  1.166e-04  alpha:  2.618e-02  linmin:  4.000e-05  t[s]:    403.32
ElecMinimize: 	Predicted alpha/alphaT>3.000000, increasing alphaT to 7.854431e-02.
	FillingsUpdate:  mu: -0.000838470  nElectrons: 362.000000
	SubspaceRotationAdjust: set factor to 0.21
ElecMinimize: Iter:   4  F: -1640.775028421117440  |grad|_K:  1.074e-04  alpha:  1.031e-01  linmin:  7.165e-04  t[s]:    423.96
	FillingsUpdate:  mu: -0.006406512  nElectrons: 362.000000
	SubspaceRotationAdjust: set factor to 0.132
	SubspaceRotationAdjust: resetting CG because factor has changed by 0.13205
ElecMinimize: 	State modified externally: resetting search direction.
ElecMinimize: Iter:   5  F: -1640.908302853242731  |grad|_K:  9.994e-05  alpha:  1.136e-01
	FillingsUpdate:  mu: -0.031351670  nElectrons: 362.000000
	SubspaceRotationAdjust: set factor to 0.0944
ElecMinimize: Iter:   6  F: -1641.041627548244605  |grad|_K:  6.882e-05  alpha:  1.262e-01  linmin: -4.952e-04  t[s]:    459.37
	FillingsUpdate:  mu: -0.099007602  nElectrons: 362.000000
	SubspaceRotationAdjust: set factor to 0.0752
ElecMinimize: Iter:   7  F: -1641.160221793656092  |grad|_K:  4.022e-05  alpha:  2.308e-01  linmin: -6.661e-04  t[s]:    475.87
	FillingsUpdate:  mu: -0.113731693  nElectrons: 362.000000
	SubspaceRotationAdjust: set factor to 0.0696
ElecMinimize: Iter:   8  F: -1641.251826437390491  |grad|_K:  3.452e-05  alpha:  5.147e-01  linmin: -1.724e-04  t[s]:    492.04
	FillingsUpdate:  mu: -0.116391740  nElectrons: 362.000000
	SubspaceRotationAdjust: set factor to 0.0496
ElecMinimize: Iter:   9  F: -1641.282187781051562  |grad|_K:  2.929e-05  alpha:  2.392e-01  linmin: -5.137e-07  t[s]:    508.36
	FillingsUpdate:  mu: -0.113427276  nElectrons: 362.000000
	SubspaceRotationAdjust: set factor to 0.0611
ElecMinimize: Iter:  10  F: -1641.336915726459210  |grad|_K:  1.869e-05  alpha:  6.048e-01  linmin:  6.104e-05  t[s]:    523.51
	FillingsUpdate:  mu: -0.102445198  nElectrons: 362.000000
	SubspaceRotationAdjust: set factor to 0.0573
ElecMinimize: Iter:  11  F: -1641.349328178065889  |grad|_K:  1.439e-05  alpha:  3.369e-01  linmin: -1.134e-05  t[s]:    535.15
	FillingsUpdate:  mu: -0.090439095  nElectrons: 362.000000
	SubspaceRotationAdjust: set factor to 0.0566
ElecMinimize: Iter:  12  F: -1641.358943724593701  |grad|_K:  1.179e-05  alpha:  4.396e-01  linmin:  3.246e-05  t[s]:    551.46
	FillingsUpdate:  mu: -0.093524290  nElectrons: 362.000000
	SubspaceRotationAdjust: set factor to 0.0554
ElecMinimize: Iter:  13  F: -1641.366106534885148  |grad|_K:  1.091e-05  alpha:  4.887e-01  linmin:  2.738e-06  t[s]:    567.47
	FillingsUpdate:  mu: -0.095184618  nElectrons: 362.000000
	SubspaceRotationAdjust: set factor to 0.0465
ElecMinimize: Iter:  14  F: -1641.370933585313423  |grad|_K:  1.011e-05  alpha:  3.846e-01  linmin: -5.038e-06  t[s]:    583.08
	FillingsUpdate:  mu: -0.090013784  nElectrons: 362.000000
	SubspaceRotationAdjust: set factor to 0.0538
ElecMinimize: Iter:  15  F: -1641.377103168619669  |grad|_K:  7.360e-06  alpha:  5.721e-01  linmin:  1.920e-05  t[s]:    598.03
	FillingsUpdate:  mu: -0.095612345  nElectrons: 362.000000
	SubspaceRotationAdjust: set factor to 0.0506
ElecMinimize: Iter:  16  F: -1641.380929618076152  |grad|_K:  8.793e-06  alpha:  6.700e-01  linmin: -7.153e-06  t[s]:    609.63
	FillingsUpdate:  mu: -0.098182887  nElectrons: 362.000000
	SubspaceRotationAdjust: set factor to 0.0433
ElecMinimize: Iter:  17  F: -1641.384078155552288  |grad|_K:  6.930e-06  alpha:  3.860e-01  linmin:  4.821e-06  t[s]:    624.65
	FillingsUpdate:  mu: -0.093145552  nElectrons: 362.000000
	SubspaceRotationAdjust: set factor to 0.0454
ElecMinimize: Iter:  18  F: -1641.387239384877603  |grad|_K:  6.512e-06  alpha:  6.244e-01  linmin:  1.467e-05  t[s]:    640.42
	FillingsUpdate:  mu: -0.093191384  nElectrons: 362.000000
	SubspaceRotationAdjust: set factor to 0.0419
ElecMinimize: Iter:  19  F: -1641.389610698958450  |grad|_K:  5.757e-06  alpha:  5.310e-01  linmin: -2.704e-06  t[s]:    656.10
	FillingsUpdate:  mu: -0.093698300  nElectrons: 362.000000
	SubspaceRotationAdjust: set factor to 0.0369
ElecMinimize: Iter:  20  F: -1641.391130414607687  |grad|_K:  4.890e-06  alpha:  4.340e-01  linmin: -2.148e-06  t[s]:    670.74
	FillingsUpdate:  mu: -0.091111257  nElectrons: 362.000000
	SubspaceRotationAdjust: set factor to 0.0398
ElecMinimize: Iter:  21  F: -1641.392770242186771  |grad|_K:  3.849e-06  alpha:  6.490e-01  linmin: -1.032e-06  t[s]:    683.05
	FillingsUpdate:  mu: -0.092512460  nElectrons: 362.000000
	SubspaceRotationAdjust: set factor to 0.0399
ElecMinimize: Iter:  22  F: -1641.393549145311681  |grad|_K:  3.525e-06  alpha:  4.979e-01  linmin: -2.266e-06  t[s]:    699.26
	FillingsUpdate:  mu: -0.094799030  nElectrons: 362.000000
	SubspaceRotationAdjust: set factor to 0.0377
ElecMinimize: Iter:  23  F: -1641.394237974044472  |grad|_K:  2.887e-06  alpha:  5.246e-01  linmin:  3.319e-07  t[s]:    715.11
	FillingsUpdate:  mu: -0.094623600  nElectrons: 362.000000
	SubspaceRotationAdjust: set factor to 0.0382
ElecMinimize: Iter:  24  F: -1641.394689278955411  |grad|_K:  2.295e-06  alpha:  5.125e-01  linmin: -2.151e-07  t[s]:    730.64
	FillingsUpdate:  mu: -0.094998394  nElectrons: 362.000000
	SubspaceRotationAdjust: set factor to 0.0404
ElecMinimize: Iter:  25  F: -1641.394985905503972  |grad|_K:  1.942e-06  alpha:  5.332e-01  linmin:  7.039e-07  t[s]:    742.40
	FillingsUpdate:  mu: -0.095725434  nElectrons: 362.000000
	SubspaceRotationAdjust: set factor to 0.0387
ElecMinimize: Iter:  26  F: -1641.395191014937609  |grad|_K:  1.577e-06  alpha:  5.147e-01  linmin:  1.067e-06  t[s]:    756.81
	FillingsUpdate:  mu: -0.095364852  nElectrons: 362.000000
	SubspaceRotationAdjust: set factor to 0.0332
ElecMinimize: Iter:  27  F: -1641.395312697712143  |grad|_K:  1.210e-06  alpha:  4.632e-01  linmin: -2.340e-06  t[s]:    772.63
	FillingsUpdate:  mu: -0.095162613  nElectrons: 362.000000
	SubspaceRotationAdjust: set factor to 0.0355
ElecMinimize: Iter:  28  F: -1641.395388147492213  |grad|_K:  9.634e-07  alpha:  4.880e-01  linmin: -9.247e-07  t[s]:    788.07
	FillingsUpdate:  mu: -0.095699224  nElectrons: 362.000000
	SubspaceRotationAdjust: set factor to 0.0375
ElecMinimize: Iter:  29  F: -1641.395442914027853  |grad|_K:  6.891e-07  alpha:  5.586e-01  linmin:  2.004e-06  t[s]:    801.64
	FillingsUpdate:  mu: -0.095712664  nElectrons: 362.000000
	SubspaceRotationAdjust: set factor to 0.035
ElecMinimize: Iter:  30  F: -1641.395469257781770  |grad|_K:  6.496e-07  alpha:  5.253e-01  linmin: -5.196e-07  t[s]:    815.24
	FillingsUpdate:  mu: -0.095724925  nElectrons: 362.000000
	SubspaceRotationAdjust: set factor to 0.0372
ElecMinimize: Iter:  31  F: -1641.395491303837161  |grad|_K:  4.761e-07  alpha:  4.945e-01  linmin: -1.860e-07  t[s]:    831.77
	FillingsUpdate:  mu: -0.095974664  nElectrons: 362.000000
	SubspaceRotationAdjust: set factor to 0.0422
ElecMinimize: Iter:  32  F: -1641.395505647990149  |grad|_K:  4.211e-07  alpha:  5.991e-01  linmin:  2.256e-07  t[s]:    847.55
	FillingsUpdate:  mu: -0.095812625  nElectrons: 362.000000
	SubspaceRotationAdjust: set factor to 0.0457
ElecMinimize: Iter:  33  F: -1641.395517174532642  |grad|_K:  3.967e-07  alpha:  6.154e-01  linmin: -5.277e-08  t[s]:    861.40
	FillingsUpdate:  mu: -0.095687058  nElectrons: 362.000000
	SubspaceRotationAdjust: set factor to 0.0431
ElecMinimize: Iter:  34  F: -1641.395524952668438  |grad|_K:  3.635e-07  alpha:  4.678e-01  linmin:  3.378e-09  t[s]:    873.40
	FillingsUpdate:  mu: -0.095764646  nElectrons: 362.000000
	SubspaceRotationAdjust: set factor to 0.0431
ElecMinimize: Iter:  35  F: -1641.395533802597129  |grad|_K:  3.261e-07  alpha:  6.340e-01  linmin: -1.487e-07  t[s]:    889.14
	FillingsUpdate:  mu: -0.095716842  nElectrons: 362.000000
	SubspaceRotationAdjust: set factor to 0.0463
ElecMinimize: Iter:  36  F: -1641.395540643268760  |grad|_K:  3.280e-07  alpha:  6.090e-01  linmin:  9.442e-08  t[s]:    904.88
	FillingsUpdate:  mu: -0.095627034  nElectrons: 362.000000
	SubspaceRotationAdjust: set factor to 0.0428
ElecMinimize: Iter:  37  F: -1641.395546939912720  |grad|_K:  2.770e-07  alpha:  5.539e-01  linmin:  1.545e-07  t[s]:    919.59
	FillingsUpdate:  mu: -0.095658137  nElectrons: 362.000000
	SubspaceRotationAdjust: set factor to 0.0382
ElecMinimize: Iter:  38  F: -1641.395551350940195  |grad|_K:  2.630e-07  alpha:  5.442e-01  linmin: -4.749e-08  t[s]:    931.43
	FillingsUpdate:  mu: -0.095622270  nElectrons: 362.000000
	SubspaceRotationAdjust: set factor to 0.0391
ElecMinimize: Iter:  39  F: -1641.395554877562972  |grad|_K:  1.949e-07  alpha:  4.826e-01  linmin:  9.692e-08  t[s]:    947.11
	FillingsUpdate:  mu: -0.095502774  nElectrons: 362.000000
	SubspaceRotationAdjust: set factor to 0.0372
ElecMinimize: Iter:  40  F: -1641.395557267698905  |grad|_K:  1.701e-07  alpha:  5.960e-01  linmin:  1.342e-07  t[s]:    962.85
	FillingsUpdate:  mu: -0.095525189  nElectrons: 362.000000
	SubspaceRotationAdjust: set factor to 0.0352
ElecMinimize: Iter:  41  F: -1641.395558768091405  |grad|_K:  1.295e-07  alpha:  4.909e-01  linmin:  8.516e-08  t[s]:    978.98
	FillingsUpdate:  mu: -0.095541840  nElectrons: 362.000000
	SubspaceRotationAdjust: set factor to 0.0345
ElecMinimize: Iter:  42  F: -1641.395559623566669  |grad|_K:  1.045e-07  alpha:  4.832e-01  linmin:  1.532e-08  t[s]:    990.81
	FillingsUpdate:  mu: -0.095492632  nElectrons: 362.000000
	SubspaceRotationAdjust: set factor to 0.0373
ElecMinimize: Iter:  43  F: -1641.395560287350008  |grad|_K:  7.847e-08  alpha:  5.753e-01  linmin:  1.580e-07  t[s]:   1005.13
	FillingsUpdate:  mu: -0.095510530  nElectrons: 362.000000
	SubspaceRotationAdjust: set factor to 0.0385
ElecMinimize: Iter:  44  F: -1641.395560641619113  |grad|_K:  7.200e-08  alpha:  5.447e-01  linmin:  5.398e-07  t[s]:   1020.73
	FillingsUpdate:  mu: -0.095522543  nElectrons: 362.000000
	SubspaceRotationAdjust: set factor to 0.0383
ElecMinimize: Iter:  45  F: -1641.395560912390692  |grad|_K:  5.707e-08  alpha:  4.945e-01  linmin: -5.839e-07  t[s]:   1036.22
	FillingsUpdate:  mu: -0.095492246  nElectrons: 362.000000
	SubspaceRotationAdjust: set factor to 0.0437
ElecMinimize: Iter:  46  F: -1641.395561135837852  |grad|_K:  5.345e-08  alpha:  6.492e-01  linmin:  3.218e-07  t[s]:   1049.59
	FillingsUpdate:  mu: -0.095508185  nElectrons: 362.000000
	SubspaceRotationAdjust: set factor to 0.0454
ElecMinimize: Iter:  47  F: -1641.395561316703152  |grad|_K:  5.240e-08  alpha:  5.991e-01  linmin: -1.888e-07  t[s]:   1063.76
	FillingsUpdate:  mu: -0.095522768  nElectrons: 362.000000
	SubspaceRotationAdjust: set factor to 0.0429
ElecMinimize: Iter:  48  F: -1641.395561466972140  |grad|_K:  4.810e-08  alpha:  5.180e-01  linmin: -4.186e-07  t[s]:   1079.99
	FillingsUpdate:  mu: -0.095503492  nElectrons: 362.000000
	SubspaceRotationAdjust: set factor to 0.0439
ElecMinimize: Iter:  49  F: -1641.395561619289083  |grad|_K:  4.443e-08  alpha:  6.231e-01  linmin: -2.830e-08  t[s]:   1095.71
	FillingsUpdate:  mu: -0.095511481  nElectrons: 362.000000
	SubspaceRotationAdjust: set factor to 0.0419
ElecMinimize: Iter:  50  F: -1641.395561729492556  |grad|_K:  4.040e-08  alpha:  5.284e-01  linmin:  9.473e-08  t[s]:   1108.69
	FillingsUpdate:  mu: -0.095526227  nElectrons: 362.000000
	SubspaceRotationAdjust: set factor to 0.0378
ElecMinimize: Iter:  51  F: -1641.395561821015917  |grad|_K:  3.294e-08  alpha:  5.309e-01  linmin:  8.004e-07  t[s]:   1121.91
	FillingsUpdate:  mu: -0.095513170  nElectrons: 362.000000
	SubspaceRotationAdjust: set factor to 0.0372
ElecMinimize: Iter:  52  F: -1641.395561882904303  |grad|_K:  2.656e-08  alpha:  5.402e-01  linmin: -4.190e-07  t[s]:   1137.91
	FillingsUpdate:  mu: -0.095512962  nElectrons: 362.000000
	SubspaceRotationAdjust: set factor to 0.035
ElecMinimize: Iter:  53  F: -1641.395561920314776  |grad|_K:  2.157e-08  alpha:  5.007e-01  linmin: -3.065e-07  t[s]:   1153.19
	FillingsUpdate:  mu: -0.095520608  nElectrons: 362.000000
	SubspaceRotationAdjust: set factor to 0.0337
ElecMinimize: Iter:  54  F: -1641.395561944843394  |grad|_K:  1.558e-08  alpha:  4.994e-01  linmin: -3.826e-06  t[s]:   1167.67
	FillingsUpdate:  mu: -0.095515708  nElectrons: 362.000000
	SubspaceRotationAdjust: set factor to 0.0336
ElecMinimize: Iter:  55  F: -1641.395561958506050  |grad|_K:  1.306e-08  alpha:  5.328e-01  linmin:  5.107e-06  t[s]:   1179.28
	FillingsUpdate:  mu: -0.095514216  nElectrons: 362.000000
	SubspaceRotationAdjust: set factor to 0.035
ElecMinimize: Iter:  56  F: -1641.395561967527556  |grad|_K:  9.757e-09  alpha:  5.033e-01  linmin:  1.102e-06  t[s]:   1194.21
	FillingsUpdate:  mu: -0.095518238  nElectrons: 362.000000
	SubspaceRotationAdjust: set factor to 0.0384
ElecMinimize: Iter:  57  F: -1641.395561972972700  |grad|_K:  8.024e-09  alpha:  5.417e-01  linmin: -9.921e-06  t[s]:   1209.74
ElecMinimize: Converged (|Delta F|<1.000000e-08 for 2 iters).
Setting wave functions to eigenvectors of Hamiltonian
Vacuum energy after initial minimize, F = -1641.395561972972700

	Linear fluid (dielectric constant: 78.4, screening length: 5.74355 Bohr) occupying 0.739656 of unit cell:	Completed after 20 iterations at t[s]:   1215.24

-------- Electronic minimization -----------
	Linear fluid (dielectric constant: 78.4, screening length: 5.74355 Bohr) occupying 0.739656 of unit cell:	Completed after 0 iterations at t[s]:   1220.61
	FillingsUpdate:  mu: -0.166250722  nElectrons: 362.000000
ElecMinimize: Iter:   0  F: -1641.384433012815634  |grad|_K:  1.137e-06  alpha:  1.000e+00
	Linear fluid (dielectric constant: 78.4, screening length: 5.74355 Bohr) occupying 0.739959 of unit cell:	Completed after 9 iterations at t[s]:   1232.43
	Linear fluid (dielectric constant: 78.4, screening length: 5.74355 Bohr) occupying 0.740030 of unit cell:	Completed after 3 iterations at t[s]:   1237.34
	FillingsUpdate:  mu: -0.165734360  nElectrons: 362.000000
	SubspaceRotationAdjust: set factor to 0.0353
ElecMinimize: Iter:   1  F: -1641.384601816390159  |grad|_K:  1.493e-06  alpha:  1.235e+00  linmin: -3.431e-06  t[s]:   1245.05
	Linear fluid (dielectric constant: 78.4, screening length: 5.74355 Bohr) occupying 0.740797 of unit cell:	Completed after 12 iterations at t[s]:   1252.50
	Linear fluid (dielectric constant: 78.4, screening length: 5.74355 Bohr) occupying 0.740223 of unit cell:	Completed after 12 iterations at t[s]:   1260.00
	FillingsUpdate:  mu: -0.165150393  nElectrons: 362.000000
	SubspaceRotationAdjust: set factor to 0.0394
ElecMinimize: Iter:   2  F: -1641.384673220714149  |grad|_K:  6.244e-07  alpha:  3.075e-01  linmin:  8.730e-06  t[s]:   1267.19
	Linear fluid (dielectric constant: 78.4, screening length: 5.74355 Bohr) occupying 0.740262 of unit cell:	Completed after 2 iterations at t[s]:   1272.88
	Linear fluid (dielectric constant: 78.4, screening length: 5.74355 Bohr) occupying 0.740323 of unit cell:	Completed after 3 iterations at t[s]:   1279.30
	FillingsUpdate:  mu: -0.164952595  nElectrons: 362.000000
	SubspaceRotationAdjust: set factor to 0.043
ElecMinimize: Iter:   3  F: -1641.384705762995281  |grad|_K:  4.555e-07  alpha:  7.964e-01  linmin:  1.172e-06  t[s]:   1285.13
	Linear fluid (dielectric constant: 78.4, screening length: 5.74355 Bohr) occupying 0.740374 of unit cell:	Completed after 6 iterations at t[s]:   1290.57
	Linear fluid (dielectric constant: 78.4, screening length: 5.74355 Bohr) occupying 0.740371 of unit cell:	Completed after 0 iterations at t[s]:   1295.32
	FillingsUpdate:  mu: -0.164975890  nElectrons: 362.000000
	SubspaceRotationAdjust: set factor to 0.0481
ElecMinimize: Iter:   4  F: -1641.384722189356580  |grad|_K:  4.475e-07  alpha:  7.516e-01  linmin:  2.342e-07  t[s]:   1300.77
	Linear fluid (dielectric constant: 78.4, screening length: 5.74355 Bohr) occupying 0.740414 of unit cell:	Completed after 6 iterations at t[s]:   1305.61
	Linear fluid (dielectric constant: 78.4, screening length: 5.74355 Bohr) occupying 0.740394 of unit cell:	Completed after 3 iterations at t[s]:   1311.17
	FillingsUpdate:  mu: -0.164723438  nElectrons: 362.000000
	SubspaceRotationAdjust: set factor to 0.0446
ElecMinimize: Iter:   5  F: -1641.384730370695252  |grad|_K:  3.658e-07  alpha:  3.984e-01  linmin:  5.835e-07  t[s]:   1317.32
	Linear fluid (dielectric constant: 78.4, screening length: 5.74355 Bohr) occupying 0.740407 of unit cell:	Completed after 2 iterations at t[s]:   1322.62
	Linear fluid (dielectric constant: 78.4, screening length: 5.74355 Bohr) occupying 0.740417 of unit cell:	Completed after 2 iterations at t[s]:   1328.16
	FillingsUpdate:  mu: -0.164569613  nElectrons: 362.000000
	SubspaceRotationAdjust: set factor to 0.0431
ElecMinimize: Iter:   6  F: -1641.384740291593744  |grad|_K:  3.717e-07  alpha:  6.991e-01  linmin: -2.554e-06  t[s]:   1333.62
	Linear fluid (dielectric constant: 78.4, screening length: 5.74355 Bohr) occupying 0.740435 of unit cell:	Completed after 3 iterations at t[s]:   1337.90
	Linear fluid (dielectric constant: 78.4, screening length: 5.74355 Bohr) occupying 0.740431 of unit cell:	Completed after 1 iterations at t[s]:   1342.20
	FillingsUpdate:  mu: -0.164874165  nElectrons: 362.000000
	SubspaceRotationAdjust: set factor to 0.0471
ElecMinimize: Iter:   7  F: -1641.384748341075465  |grad|_K:  3.227e-07  alpha:  5.428e-01  linmin:  2.118e-06  t[s]:   1346.90
	Linear fluid (dielectric constant: 78.4, screening length: 5.74355 Bohr) occupying 0.740436 of unit cell:	Completed after 3 iterations at t[s]:   1352.20
	Linear fluid (dielectric constant: 78.4, screening length: 5.74355 Bohr) occupying 0.740438 of unit cell:	Completed after 2 iterations at t[s]:   1357.93
	FillingsUpdate:  mu: -0.164847938  nElectrons: 362.000000
	SubspaceRotationAdjust: set factor to 0.0467
ElecMinimize: Iter:   8  F: -1641.384757081967564  |grad|_K:  3.433e-07  alpha:  7.997e-01  linmin: -2.577e-06  t[s]:   1364.45
	Linear fluid (dielectric constant: 78.4, screening length: 5.74355 Bohr) occupying 0.740440 of unit cell:	Completed after 3 iterations at t[s]:   1370.14
	Linear fluid (dielectric constant: 78.4, screening length: 5.74355 Bohr) occupying 0.740440 of unit cell:	Completed after 3 iterations at t[s]:   1376.61
	FillingsUpdate:  mu: -0.164764574  nElectrons: 362.000000
	SubspaceRotationAdjust: set factor to 0.0412
ElecMinimize: Iter:   9  F: -1641.384763060202431  |grad|_K:  3.064e-07  alpha:  4.716e-01  linmin:  5.837e-07  t[s]:   1384.46
	Linear fluid (dielectric constant: 78.4, screening length: 5.74355 Bohr) occupying 0.740439 of unit cell:	Completed after 3 iterations at t[s]:   1390.54
	Linear fluid (dielectric constant: 78.4, screening length: 5.74355 Bohr) occupying 0.740439 of unit cell:	Completed after 2 iterations at t[s]:   1396.85
	FillingsUpdate:  mu: -0.164811536  nElectrons: 362.000000
	SubspaceRotationAdjust: set factor to 0.0363
ElecMinimize: Iter:  10  F: -1641.384769896959597  |grad|_K:  2.406e-07  alpha:  6.934e-01  linmin: -7.172e-07  t[s]:   1403.84
	Linear fluid (dielectric constant: 78.4, screening length: 5.74355 Bohr) occupying 0.740439 of unit cell:	Completed after 3 iterations at t[s]:   1409.72
	Linear fluid (dielectric constant: 78.4, screening length: 5.74355 Bohr) occupying 0.740439 of unit cell:	Completed after 0 iterations at t[s]:   1415.28
	FillingsUpdate:  mu: -0.164718826  nElectrons: 362.000000
	SubspaceRotationAdjust: set factor to 0.0348
ElecMinimize: Iter:  11  F: -1641.384774730400068  |grad|_K:  2.081e-07  alpha:  7.819e-01  linmin: -2.926e-06  t[s]:   1420.91
	Linear fluid (dielectric constant: 78.4, screening length: 5.74355 Bohr) occupying 0.740441 of unit cell:	Completed after 2 iterations at t[s]:   1425.60
	Linear fluid (dielectric constant: 78.4, screening length: 5.74355 Bohr) occupying 0.740440 of unit cell:	Completed after 2 iterations at t[s]:   1430.72
	FillingsUpdate:  mu: -0.164637648  nElectrons: 362.000000
	SubspaceRotationAdjust: set factor to 0.0365
ElecMinimize: Iter:  12  F: -1641.384776988889371  |grad|_K:  1.611e-07  alpha:  4.859e-01  linmin:  4.440e-07  t[s]:   1437.97
	Linear fluid (dielectric constant: 78.4, screening length: 5.74355 Bohr) occupying 0.740442 of unit cell:	Completed after 2 iterations at t[s]:   1444.95
	Linear fluid (dielectric constant: 78.4, screening length: 5.74355 Bohr) occupying 0.740442 of unit cell:	Completed after 0 iterations at t[s]:   1453.09
	FillingsUpdate:  mu: -0.164655629  nElectrons: 362.000000
	SubspaceRotationAdjust: set factor to 0.0399
ElecMinimize: Iter:  13  F: -1641.384778863494148  |grad|_K:  1.200e-07  alpha:  6.675e-01  linmin: -1.183e-05  t[s]:   1463.24
	Linear fluid (dielectric constant: 78.4, screening length: 5.74355 Bohr) occupying 0.740442 of unit cell:	Completed after 2 iterations at t[s]:   1471.05
	Linear fluid (dielectric constant: 78.4, screening length: 5.74355 Bohr) occupying 0.740442 of unit cell:	Completed after 0 iterations at t[s]:   1478.38
	FillingsUpdate:  mu: -0.164685444  nElectrons: 362.000000
	SubspaceRotationAdjust: set factor to 0.0452
ElecMinimize: Iter:  14  F: -1641.384779875926142  |grad|_K:  1.111e-07  alpha:  6.214e-01  linmin: -7.830e-06  t[s]:   1487.10
	Linear fluid (dielectric constant: 78.4, screening length: 5.74355 Bohr) occupying 0.740441 of unit cell:	Completed after 2 iterations at t[s]:   1494.20
	Linear fluid (dielectric constant: 78.4, screening length: 5.74355 Bohr) occupying 0.740441 of unit cell:	Completed after 0 iterations at t[s]:   1500.73
	FillingsUpdate:  mu: -0.164692552  nElectrons: 362.000000
	SubspaceRotationAdjust: set factor to 0.0459
ElecMinimize: Iter:  15  F: -1641.384780566700101  |grad|_K:  1.268e-07  alpha:  4.927e-01  linmin:  8.420e-06  t[s]:   1508.28
	Linear fluid (dielectric constant: 78.4, screening length: 5.74355 Bohr) occupying 0.740440 of unit cell:	Completed after 3 iterations at t[s]:   1514.65
	Linear fluid (dielectric constant: 78.4, screening length: 5.74355 Bohr) occupying 0.740440 of unit cell:	Completed after 0 iterations at t[s]:   1519.92
	FillingsUpdate:  mu: -0.164719516  nElectrons: 362.000000
	SubspaceRotationAdjust: set factor to 0.0396
ElecMinimize: Iter:  16  F: -1641.384781084766018  |grad|_K:  1.012e-07  alpha:  3.190e-01  linmin:  1.504e-05  t[s]:   1525.34
	Linear fluid (dielectric constant: 78.4, screening length: 5.74355 Bohr) occupying 0.740440 of unit cell:	Completed after 0 iterations at t[s]:   1529.31
	Linear fluid (dielectric constant: 78.4, screening length: 5.74355 Bohr) occupying 0.740439 of unit cell:	Completed after 1 iterations at t[s]:   1534.94
	FillingsUpdate:  mu: -0.164728949  nElectrons: 362.000000
	SubspaceRotationAdjust: set factor to 0.0377
ElecMinimize: Iter:  17  F: -1641.384781453134792  |grad|_K:  9.848e-08  alpha:  6.369e-01  linmin:  2.085e-05  t[s]:   1542.74
	Linear fluid (dielectric constant: 78.4, screening length: 5.74355 Bohr) occupying 0.740439 of unit cell:	Completed after 2 iterations at t[s]:   1548.81
	Linear fluid (dielectric constant: 78.4, screening length: 5.74355 Bohr) occupying 0.740439 of unit cell:	Completed after 0 iterations at t[s]:   1554.76
	FillingsUpdate:  mu: -0.164703785  nElectrons: 362.000000
	SubspaceRotationAdjust: set factor to 0.0378
ElecMinimize: Iter:  18  F: -1641.384781806344563  |grad|_K:  8.161e-08  alpha:  4.304e-01  linmin:  7.722e-06  t[s]:   1562.03
	Linear fluid (dielectric constant: 78.4, screening length: 5.74355 Bohr) occupying 0.740440 of unit cell:	Completed after 0 iterations at t[s]:   1567.64
	Linear fluid (dielectric constant: 78.4, screening length: 5.74355 Bohr) occupying 0.740440 of unit cell:	Completed after 0 iterations at t[s]:   1573.92
	FillingsUpdate:  mu: -0.164702498  nElectrons: 362.000000
	SubspaceRotationAdjust: set factor to 0.0425
ElecMinimize: Iter:  19  F: -1641.384782166245486  |grad|_K:  7.150e-08  alpha:  5.349e-01  linmin: -1.026e-05  t[s]:   1581.09
	Linear fluid (dielectric constant: 78.4, screening length: 5.74355 Bohr) occupying 0.740442 of unit cell:	Completed after 2 iterations at t[s]:   1587.15
	Linear fluid (dielectric constant: 78.4, screening length: 5.74355 Bohr) occupying 0.740441 of unit cell:	Completed after 0 iterations at t[s]:   1593.05
	FillingsUpdate:  mu: -0.164672643  nElectrons: 362.000000
	SubspaceRotationAdjust: set factor to 0.0401
ElecMinimize: Iter:  20  F: -1641.384782241606445  |grad|_K:  1.328e-07  alpha:  2.221e-01  linmin:  2.524e-05  t[s]:   1599.11
	Linear fluid (dielectric constant: 78.4, screening length: 5.74355 Bohr) occupying 0.740444 of unit cell:	Completed after 0 iterations at t[s]:   1603.69
	Linear fluid (dielectric constant: 78.4, screening length: 5.74355 Bohr) occupying 0.740442 of unit cell:	Completed after 0 iterations at t[s]:   1607.83
	FillingsUpdate:  mu: -0.164672594  nElectrons: 362.000000
	SubspaceRotationAdjust: set factor to 0.0518
ElecMinimize: Iter:  21  F: -1641.384782360134750  |grad|_K:  1.293e-07  alpha:  1.104e-01  linmin: -1.399e-06  t[s]:   1612.55
	Linear fluid (dielectric constant: 78.4, screening length: 5.74355 Bohr) occupying 0.740444 of unit cell:	Completed after 2 iterations at t[s]:   1618.22
	Linear fluid (dielectric constant: 78.4, screening length: 5.74355 Bohr) occupying 0.740443 of unit cell:	Completed after 0 iterations at t[s]:   1624.17
	FillingsUpdate:  mu: -0.164677811  nElectrons: 362.000000
	SubspaceRotationAdjust: set factor to 0.0504
ElecMinimize: Iter:  22  F: -1641.384782423057231  |grad|_K:  7.279e-08  alpha:  6.099e-02  linmin:  2.931e-06  t[s]:   1631.30
	Linear fluid (dielectric constant: 78.4, screening length: 5.74355 Bohr) occupying 0.740443 of unit cell:	Completed after 0 iterations at t[s]:   1636.81
ElecMinimize: 	Predicted alpha/alphaT>3.000000, increasing alphaT to 1.829620e-01.
	Linear fluid (dielectric constant: 78.4, screening length: 5.74355 Bohr) occupying 0.740444 of unit cell:	Completed after 0 iterations at t[s]:   1642.92
	Linear fluid (dielectric constant: 78.4, screening length: 5.74355 Bohr) occupying 0.740445 of unit cell:	Completed after 0 iterations at t[s]:   1649.14
	FillingsUpdate:  mu: -0.164677507  nElectrons: 362.000000
	SubspaceRotationAdjust: set factor to 0.0556
ElecMinimize: Iter:  23  F: -1641.384782651037085  |grad|_K:  5.497e-08  alpha:  4.211e-01  linmin: -2.181e-07  t[s]:   1656.13
	Linear fluid (dielectric constant: 78.4, screening length: 5.74355 Bohr) occupying 0.740447 of unit cell:	Completed after 2 iterations at t[s]:   1661.85
	Linear fluid (dielectric constant: 78.4, screening length: 5.74355 Bohr) occupying 0.740446 of unit cell:	Completed after 0 iterations at t[s]:   1667.86
ElecMinimize: 	Step increased F by 6.179039e-08, reducing alpha to 1.349874e-02.
	Linear fluid (dielectric constant: 78.4, screening length: 5.74355 Bohr) occupying 0.740445 of unit cell:	Completed after 0 iterations at t[s]:   1679.76
ElecMinimize: 	Step increased F by 5.496327e-08, reducing alpha to 1.349874e-03.
	Linear fluid (dielectric constant: 78.4, screening length: 5.74355 Bohr) occupying 0.740445 of unit cell:	Completed after 0 iterations at t[s]:   1689.13
ElecMinimize: 	Step increased F by 5.535003e-08, reducing alpha to 1.349874e-04.
ElecMinimize: 	Step failed to reduce F after 3 attempts. Quitting step.
ElecMinimize: 	Undoing step.
	Linear fluid (dielectric constant: 78.4, screening length: 5.74355 Bohr) occupying 0.740445 of unit cell:	Completed after 0 iterations at t[s]:   1697.45
ElecMinimize: 	Step failed: resetting search direction.
	FillingsUpdate:  mu: -0.164681438  nElectrons: 362.000000
	SubspaceRotationAdjust: set factor to 0.0551
ElecMinimize: Iter:  24  F: -1641.384782595722299  |grad|_K:  1.233e-07  alpha:  1.350e-04
	Linear fluid (dielectric constant: 78.4, screening length: 5.74355 Bohr) occupying 0.740446 of unit cell:	Completed after 2 iterations at t[s]:   1710.54
	Linear fluid (dielectric constant: 78.4, screening length: 5.74355 Bohr) occupying 0.740446 of unit cell:	Completed after 3 iterations at t[s]:   1716.93
	FillingsUpdate:  mu: -0.164668654  nElectrons: 362.000000
	SubspaceRotationAdjust: set factor to 0.0284
ElecMinimize: Iter:  25  F: -1641.384782669038714  |grad|_K:  5.377e-08  alpha:  1.357e-01  linmin:  3.658e-03  t[s]:   1724.32
	Linear fluid (dielectric constant: 78.4, screening length: 5.74355 Bohr) occupying 0.740446 of unit cell:	Completed after 0 iterations at t[s]:   1729.83
ElecMinimize: 	Predicted alpha/alphaT>3.000000, increasing alphaT to 4.070480e-01.
	Linear fluid (dielectric constant: 78.4, screening length: 5.74355 Bohr) occupying 0.740446 of unit cell:	Completed after 0 iterations at t[s]:   1735.61
	Linear fluid (dielectric constant: 78.4, screening length: 5.74355 Bohr) occupying 0.740446 of unit cell:	Completed after 0 iterations at t[s]:   1741.44
	FillingsUpdate:  mu: -0.164658655  nElectrons: 362.000000
	SubspaceRotationAdjust: set factor to 0.0235
ElecMinimize: Iter:  26  F: -1641.384782678442207  |grad|_K:  8.287e-08  alpha:  7.728e-01  linmin:  2.069e-03  t[s]:   1748.83
	Linear fluid (dielectric constant: 78.4, screening length: 5.74355 Bohr) occupying 0.740448 of unit cell:	Completed after 2 iterations at t[s]:   1754.50
	Linear fluid (dielectric constant: 78.4, screening length: 5.74355 Bohr) occupying 0.740447 of unit cell:	Completed after 0 iterations at t[s]:   1760.49
	FillingsUpdate:  mu: -0.164674868  nElectrons: 362.000000
	SubspaceRotationAdjust: set factor to 0.0263
ElecMinimize: Iter:  27  F: -1641.384782761603219  |grad|_K:  9.852e-08  alpha:  9.847e-02  linmin:  5.674e-04  t[s]:   1767.66
	Linear fluid (dielectric constant: 78.4, screening length: 5.74355 Bohr) occupying 0.740447 of unit cell:	Completed after 0 iterations at t[s]:   1772.11
	Linear fluid (dielectric constant: 78.4, screening length: 5.74355 Bohr) occupying 0.740448 of unit cell:	Completed after 1 iterations at t[s]:   1776.98
	FillingsUpdate:  mu: -0.164682451  nElectrons: 362.000000
	SubspaceRotationAdjust: set factor to 0.0349
ElecMinimize: Iter:  28  F: -1641.384782768110654  |grad|_K:  5.900e-08  alpha:  2.430e-01  linmin:  9.943e-04  t[s]:   1781.53
	Linear fluid (dielectric constant: 78.4, screening length: 5.74355 Bohr) occupying 0.740448 of unit cell:	Completed after 0 iterations at t[s]:   1786.56
	Linear fluid (dielectric constant: 78.4, screening length: 5.74355 Bohr) occupying 0.740449 of unit cell:	Completed after 1 iterations at t[s]:   1792.36
	FillingsUpdate:  mu: -0.164693223  nElectrons: 362.000000
	SubspaceRotationAdjust: set factor to 0.0337
ElecMinimize: Iter:  29  F: -1641.384782798588049  |grad|_K:  5.678e-08  alpha:  5.459e-01  linmin:  7.613e-04  t[s]:   1799.72
	Linear fluid (dielectric constant: 78.4, screening length: 5.74355 Bohr) occupying 0.740450 of unit cell:	Completed after 1 iterations at t[s]:   1805.33
	Linear fluid (dielectric constant: 78.4, screening length: 5.74355 Bohr) occupying 0.740449 of unit cell:	Completed after 0 iterations at t[s]:   1811.75
	FillingsUpdate:  mu: -0.164689113  nElectrons: 362.000000
	SubspaceRotationAdjust: set factor to 0.0366
ElecMinimize: Iter:  30  F: -1641.384782837263174  |grad|_K:  4.510e-08  alpha:  2.722e-01  linmin: -7.932e-05  t[s]:   1818.85
	Linear fluid (dielectric constant: 78.4, screening length: 5.74355 Bohr) occupying 0.740450 of unit cell:	Completed after 0 iterations at t[s]:   1824.47
	Linear fluid (dielectric constant: 78.4, screening length: 5.74355 Bohr) occupying 0.740450 of unit cell:	Completed after 0 iterations at t[s]:   1830.22
	FillingsUpdate:  mu: -0.164689369  nElectrons: 362.000000
	SubspaceRotationAdjust: set factor to 0.0449
ElecMinimize: Iter:  31  F: -1641.384782919497866  |grad|_K:  3.643e-08  alpha:  3.712e-01  linmin: -1.007e-05  t[s]:   1837.19
	Linear fluid (dielectric constant: 78.4, screening length: 5.74355 Bohr) occupying 0.740450 of unit cell:	Completed after 2 iterations at t[s]:   1842.94
	Linear fluid (dielectric constant: 78.4, screening length: 5.74355 Bohr) occupying 0.740450 of unit cell:	Completed after 0 iterations at t[s]:   1849.21
ElecMinimize: 	Step increased F by 1.745889e-08, reducing alpha to 1.120957e-02.
	Linear fluid (dielectric constant: 78.4, screening length: 5.74355 Bohr) occupying 0.740450 of unit cell:	Completed after 0 iterations at t[s]:   1859.66
ElecMinimize: 	Step increased F by 7.170684e-09, reducing alpha to 1.120957e-03.
	Linear fluid (dielectric constant: 78.4, screening length: 5.74355 Bohr) occupying 0.740450 of unit cell:	Completed after 0 iterations at t[s]:   1868.23
ElecMinimize: 	Step increased F by 6.393293e-09, reducing alpha to 1.120957e-04.
ElecMinimize: 	Step failed to reduce F after 3 attempts. Quitting step.
ElecMinimize: 	Undoing step.
	Linear fluid (dielectric constant: 78.4, screening length: 5.74355 Bohr) occupying 0.740450 of unit cell:	Completed after 0 iterations at t[s]:   1878.93
ElecMinimize: 	Step failed: resetting search direction.
	FillingsUpdate:  mu: -0.164667904  nElectrons: 362.000000
	SubspaceRotationAdjust: set factor to 0.0408
ElecMinimize: Iter:  32  F: -1641.384782912987475  |grad|_K:  6.201e-08  alpha:  1.121e-04
	Linear fluid (dielectric constant: 78.4, screening length: 5.74355 Bohr) occupying 0.740450 of unit cell:	Completed after 2 iterations at t[s]:   1892.11
	Linear fluid (dielectric constant: 78.4, screening length: 5.74355 Bohr) occupying 0.740450 of unit cell:	Completed after 0 iterations at t[s]:   1898.41
	FillingsUpdate:  mu: -0.164688887  nElectrons: 362.000000
	SubspaceRotationAdjust: set factor to 0.0299
ElecMinimize: Iter:  33  F: -1641.384782945715415  |grad|_K:  6.796e-08  alpha:  1.383e-01  linmin:  9.192e-03  t[s]:   1905.32
	Linear fluid (dielectric constant: 78.4, screening length: 5.74355 Bohr) occupying 0.740450 of unit cell:	Completed after 0 iterations at t[s]:   1910.66
	Linear fluid (dielectric constant: 78.4, screening length: 5.74355 Bohr) occupying 0.740450 of unit cell:	Completed after 0 iterations at t[s]:   1916.52
	FillingsUpdate:  mu: -0.164688762  nElectrons: 362.000000
	SubspaceRotationAdjust: set factor to 0.0334
ElecMinimize: Iter:  34  F: -1641.384782996094827  |grad|_K:  7.020e-08  alpha:  2.598e-01  linmin: -1.109e-05  t[s]:   1923.53
	Linear fluid (dielectric constant: 78.4, screening length: 5.74355 Bohr) occupying 0.740450 of unit cell:	Completed after 2 iterations at t[s]:   1929.56
	Linear fluid (dielectric constant: 78.4, screening length: 5.74355 Bohr) occupying 0.740450 of unit cell:	Completed after 0 iterations at t[s]:   1935.39
	FillingsUpdate:  mu: -0.164681722  nElectrons: 362.000000
	SubspaceRotationAdjust: set factor to 0.021
ElecMinimize: Iter:  35  F: -1641.384783030196104  |grad|_K:  6.714e-08  alpha:  7.942e-02  linmin:  6.638e-03  t[s]:   1942.25
ElecMinimize: 	Bad step direction: g.d > 0.
ElecMinimize: 	Undoing step.
	Linear fluid (dielectric constant: 78.4, screening length: 5.74355 Bohr) occupying 0.740450 of unit cell:	Completed after 0 iterations at t[s]:   1946.79
ElecMinimize: 	Step failed: resetting search direction.
	FillingsUpdate:  mu: -0.164681722  nElectrons: 362.000000
	SubspaceRotationAdjust: set factor to 0.0192
ElecMinimize: Iter:  36  F: -1641.384783030198378  |grad|_K:  5.835e-08  alpha:  0.000e+00
	Linear fluid (dielectric constant: 78.4, screening length: 5.74355 Bohr) occupying 0.740450 of unit cell:	Completed after 0 iterations at t[s]:   1956.16
ElecMinimize: 	Predicted alpha/alphaT>3.000000, increasing alphaT to 2.382543e-01.
	Linear fluid (dielectric constant: 78.4, screening length: 5.74355 Bohr) occupying 0.740450 of unit cell:	Completed after 1 iterations at t[s]:   1962.49
	Linear fluid (dielectric constant: 78.4, screening length: 5.74355 Bohr) occupying 0.740450 of unit cell:	Completed after 0 iterations at t[s]:   1968.78
ElecMinimize: 	Step increased F by 4.538288e-08, reducing alpha to 8.814307e-03.
	Linear fluid (dielectric constant: 78.4, screening length: 5.74355 Bohr) occupying 0.740450 of unit cell:	Completed after 0 iterations at t[s]:   1980.67
ElecMinimize: 	Step increased F by 4.297954e-08, reducing alpha to 8.814307e-04.
	Linear fluid (dielectric constant: 78.4, screening length: 5.74355 Bohr) occupying 0.740450 of unit cell:	Completed after 0 iterations at t[s]:   1992.80
ElecMinimize: 	Step increased F by 4.303274e-08, reducing alpha to 8.814307e-05.
ElecMinimize: 	Step failed to reduce F after 3 attempts. Quitting step.
ElecMinimize: 	Undoing step.
	Linear fluid (dielectric constant: 78.4, screening length: 5.74355 Bohr) occupying 0.740450 of unit cell:	Completed after 0 iterations at t[s]:   2004.63
ElecMinimize: 	Step failed along negative gradient direction.
ElecMinimize: Probably at roundoff error limit. (Stopping)
Setting wave functions to eigenvectors of Hamiltonian
Single-point solvation energy estimate, DeltaF = +0.010778985841171

# Ionic positions in lattice coordinates:
ion Cr   0.168797756821315   0.167304572474695   0.499935058737439 0
ion Cr   0.336143071518958   0.323818780451867   0.491556025283842 0
ion Cr   0.667584073726304   0.168187878116173   0.498750005747157 0
ion Cr   0.832135030184388   0.335759659523929   0.500218027635801 0
ion Cr   0.160010882872265   0.676179879601918   0.491526620174236 0
ion Cr   0.335802792235581   0.831781961573054   0.498773788612195 0
ion Cr   0.667890123459076   0.664249725605190   0.500201624367036 0
ion Cr   0.836146021119885   0.832687482642872   0.499933309711821 0
ion Ge  -0.000067066597319   0.003506322182823   0.434934198826978 0
ion Ge   0.001124181810579  -0.000302664019344   0.566097804196417 0
ion Ge   0.503434157661588  -0.003534567252999   0.434927148924432 0
ion Ge   0.500842250144610   0.000287920120027   0.566088984102179 0
ion Ge   0.002012643939056   0.499982418696793   0.434184600451272 0
ion Ge   0.002867471006314   0.500015624616874   0.564921797354925 0
ion Ge   0.492607753987010   0.499978551590572   0.455435813550771 0
ion Ge   0.467436977501381   0.500008547422814   0.588192610236000 0
ion Te   0.313641601169959  -0.000260385786856   0.593715162853550 0
ion Te   0.000994039184508   0.187887789930555   0.594081987089706 0
ion Te   0.193207302559262   0.316248604095784   0.593633502228961 0
ion Te   0.190560831423983   0.499982883880158   0.404752132250514 0
ion Te   0.502499200174960   0.313556783479376   0.403536353166066 0
ion Te   0.313769314697724   0.180455981275405   0.400955913131909 0
ion Te   0.813361068384622   0.000278352520143   0.593707740378198 0
ion Te   0.500097310449050   0.190315291055589   0.592103122146482 0
ion Te   0.681023786904445   0.319882383990383   0.591178365641512 0
ion Te   0.678398074120854   0.500000017494344   0.410451212381407 0
ion Te   0.000481892130338   0.313962225792361   0.405392840215502 0
ion Te   0.813003973135487   0.190126306277977   0.404877782409018 0
ion Te   0.009484957714839   0.683763980739960   0.593614719704392 0
ion Te   0.190413034847884   0.809669332143667   0.592117793060111 0
ion Te   0.188739658320161   0.000592631823510   0.405264658632853 0
ion Te   0.503089545915358   0.809880132510384   0.404838639530258 0
ion Te   0.316134293564125   0.686426554301504   0.403524109808224 0
ion Te   0.815533785017326   0.500008309379746   0.595449059516244 0
ion Te   0.500969335141020   0.680079958862175   0.591209348245816 0
ion Te   0.688905262019531   0.812105456413632   0.594068597524717 0
ion Te   0.689368652405206   0.999324447417486   0.405269723063751 0
ion Te   0.994225150514329   0.819547810094207   0.400939547278496 0
ion Te   0.814487311814019   0.686045062961250   0.405395758829778 0


# Forces in Lattice coordinates:
force Cr   0.065668392577661   0.064168816607022  -0.015831793306267 0
force Cr  -0.123955793832294  -0.367720237593494  -0.294271833036853 0
force Cr  -0.002840275729081   0.037262157726682   0.062068682764353 0
force Cr  -0.002867153690408   0.021397740117737   0.000909296919782 0
force Cr  -0.123619884027840   0.243982143608752  -0.294396862168944 0
force Cr  -0.002781982648533  -0.039642903748350   0.062880072573815 0
force Cr  -0.004162093318391  -0.024623326840108   0.001155076488218 0
force Cr   0.065215585080585   0.001979209166498  -0.014907855771791 0
force Ge   0.012343810891631  -0.000374945424708  -0.078746531938719 0
force Ge  -0.005858214398006  -0.010895839359240   0.085773494653964 0
force Ge   0.013052502412317   0.013554646150553  -0.078799394452830 0
force Ge  -0.006215268579818   0.004991106174429   0.086032875253281 0
force Ge   0.019294833955704   0.010079709750337  -0.078863783286025 0
force Ge   0.005479327703704   0.002575678349697   0.086948743243859 0
force Ge  -0.029584924867872  -0.015014223719797  -0.074235098204554 0
force Ge  -0.121109877861322  -0.060767409945599   0.088991475176471 0
force Te  -0.116283643559011  -0.046184663842494  -0.231820747917876 0
force Te   0.061434146958069   0.106300061762757  -0.232650028738466 0
force Te   0.060080674662657  -0.044218669003625  -0.222309834109423 0
force Te   0.122621212904249   0.061894924939638   0.385462143233632 0
force Te  -0.070695791162005  -0.074268998129763   0.258078804987396 0
force Te   0.014831480448844   0.187156243947856   0.307564927277415 0
force Te  -0.116360380591854  -0.070686472419918  -0.231709104222946 0
force Te   0.051725628876438   0.137891613518267  -0.218549616699878 0
force Te   0.059761051022959  -0.007172582598034  -0.248760503367354 0
force Te   0.134121188374258   0.067211521438220   0.240032311642325 0
force Te  -0.072483185666438  -0.119668965871753   0.212468891062171 0
force Te  -0.047120322848580   0.037971639426328   0.203184935043841 0
force Te   0.060189759945254   0.103936124483868  -0.222681563947971 0
force Te   0.051987583895348  -0.086000655351440  -0.219113185351916 0
force Te   0.103696078268800   0.058417845527943   0.224127615899427 0
force Te  -0.046012741220638  -0.085113211635415   0.204649561110939 0
force Te  -0.072210107366835   0.002667346331759   0.258086901295424 0
force Te  -0.105802400971058  -0.052668523681849  -0.218147276288552 0
force Te   0.059230891973558   0.067124985544747  -0.249567513034310 0
force Te   0.061000822903638  -0.045320747116050  -0.232861717033522 0
force Te   0.103522541149919   0.046444409170041   0.223650586002516 0
force Te   0.015697850719611  -0.172284671073905   0.307699631668319 0
force Te  -0.073375018934736   0.046109355660616   0.212793646142369 0

# Energy components:
   A_diel =        0.0103568922654706
   Eewald =     5389.8243160110068857
       EH =     6817.3215966697680415
     Eloc =   -13972.0775057486061996
      Enl =      121.8299464850600771
      Exc =     -488.1874076692512290
 Exc_core =      219.7554598087253055
       KE =      270.2982155906761363
-------------------------------------
     Etot =    -1641.2250219603547521
       TS =        0.1597610267766692
-------------------------------------
        F =    -1641.3847829871315298

IonicMinimize: Iter:   0  F: -1641.384782987131530  |grad|_K:  0.000e+00  t[s]:   2018.00
IonicMinimize: Converged (|grad|_K<1.000000e-04).

#--- Lowdin population analysis ---
# oxidation-state Cr +0.800 +0.789 +0.800 +0.800 +0.792 +0.800 +0.802 +0.801
# oxidation-state Ge -0.023 -0.020 -0.023 -0.020 -0.015 -0.017 -0.006 -0.168
# oxidation-state Te -0.122 -0.126 -0.156 -0.145 -0.162 -0.065 -0.122 -0.135 -0.158 -0.165 -0.136 -0.115 -0.156 -0.135 -0.121 -0.115 -0.162 -0.113 -0.158 -0.126 -0.121 -0.065 -0.136


Dumping 'NbTe2.fillings' ... done
Dumping 'NbTe2.wfns' ... done
Dumping 'NbTe2.fluidState' ... done
Dumping 'NbTe2.eigenvals' ... done
End date and time: Sat Jul 25 19:45:19 2020  (Duration: 0-0:33:40.37)
Done!
