
*************** JDFTx 1.5.0  ***************

Start date and time: Thu Sep 10 20:36:56 2020
Executable jdftx_gpu with command-line: -i Neutral.in -o Neutral.out
Running on hosts (process indices):  amax (0-6)
Divided in process groups (process indices):  0 (0)  1 (1)  2 (2)  3 (3)  4 (4)  5 (5)  6 (6)
gpuInit: Found compatible cuda device 0 'Tesla K80'
gpuInit: Found compatible cuda device 1 'Tesla K80'
gpuInit: Found compatible cuda device 2 'Tesla K80'
gpuInit: Found compatible cuda device 3 'Tesla K80'
gpuInit: Found compatible cuda device 4 'Tesla K80'
gpuInit: Found compatible cuda device 5 'Tesla K80'
gpuInit: Found compatible cuda device 6 'Tesla K80'
gpuInit: Selected device 0
Resource initialization completed at t[s]:     13.57
Run totals: 7 processes, 24 threads, 7 GPUs


Input parsed successfully to the following command list (including defaults):

basis kpoint-dependent
cache-projectors no
coords-type Lattice
core-overlap-check none
coulomb-interaction Slab 001
coulomb-truncation-embed 0 0 0.5
davidson-band-ratio 1.1
dump End State
dump-name NbTe2.$VAR
elec-cutoff 20 100
elec-eigen-algo Davidson
elec-ex-corr gga-PBE
elec-smearing Gauss 0.0073499
electronic-minimize  \
	dirUpdateScheme      FletcherReeves \
	linminMethod         DirUpdateRecommended \
	nIterations          500 \
	history              15 \
	knormThreshold       0 \
	energyDiffThreshold  1e-08 \
	nEnergyDiff          2 \
	alphaTstart          1 \
	alphaTmin            1e-10 \
	updateTestStepSize   yes \
	alphaTreduceFactor   0.1 \
	alphaTincreaseFactor 3 \
	nAlphaAdjustMax      3 \
	wolfeEnergy          0.0001 \
	wolfeGradient        0.9 \
	fdTest               no
exchange-regularization WignerSeitzTruncated
fluid LinearPCM 298.000000 1.013250
fluid-anion F- 1 MeanFieldLJ \
	epsBulk 1 \
	pMol 0 \
	epsInf 1 \
	Pvap 0 \
	sigmaBulk 0 \
	Rvdw 2.24877 \
	Res 0 \
	tauNuc 343133
fluid-cation Na+ 1 MeanFieldLJ \
	epsBulk 1 \
	pMol 0 \
	epsInf 1 \
	Pvap 0 \
	sigmaBulk 0 \
	Rvdw 2.19208 \
	Res 0 \
	tauNuc 343133
fluid-ex-corr lda-TF lda-PZ
fluid-gummel-loop 10 1.000000e-05
fluid-minimize  \
	dirUpdateScheme      PolakRibiere \
	linminMethod         DirUpdateRecommended \
	nIterations          400 \
	history              15 \
	knormThreshold       1e-11 \
	energyDiffThreshold  0 \
	nEnergyDiff          2 \
	alphaTstart          1 \
	alphaTmin            1e-10 \
	updateTestStepSize   yes \
	alphaTreduceFactor   0.1 \
	alphaTincreaseFactor 3 \
	nAlphaAdjustMax      6 \
	wolfeEnergy          0.0001 \
	wolfeGradient        0.9 \
	fdTest               no
fluid-solvent H2O 55.338 ScalarEOS \
	epsBulk 78.4 \
	pMol 0.92466 \
	epsInf 1.77 \
	Pvap 1.06736e-10 \
	sigmaBulk 4.62e-05 \
	Rvdw 2.61727 \
	Res 1.42 \
	tauNuc 343133 \
	poleEl 15 7 1
forces-output-coords Positions
initial-state NbTe2.$VAR
ion Ta   0.171547637897073   0.083840191830926   0.503528307240384 1
ion Ta   0.414098395690273   0.083945102244133   0.503274503646502 1
ion Ta   0.670008720479023   0.085223901239193   0.504176776708237 1
ion Ta   0.917246845908108   0.085187368811154   0.504276452284266 1
ion Ta   0.167338063586556   0.334005313425409   0.503087344432115 1
ion Ta   0.410398620985778   0.318980181305732   0.501376747854041 1
ion Ta   0.668354722782337   0.334143790920852   0.503293407603954 1
ion Ta   0.917268716602576   0.332632264072597   0.504212808678208 1
ion Ta   0.171604244682782   0.588292038535073   0.503683028982076 1
ion Ta   0.410301326006284   0.591974047708493   0.501644816653121 1
ion Ta   0.683336245878087   0.592000550955937   0.502532268358850 1
ion Ta   0.918261332336160   0.588306424524823   0.503775388127581 1
ion Ta   0.168087162099426   0.834349465612833   0.503667344473338 1
ion Ta   0.414116379896522   0.830635768704839   0.503520882752721 1
ion Ta   0.668329866647593   0.834708264503054   0.503561088377837 1
ion Ta   0.918317208561249   0.830614451804773   0.503793799653086 1
ion S   0.001929481268579   0.000750561328793   0.588744769619835 1
ion S   0.001064004905626   0.000767696645772   0.419103904955673 1
ion S   0.250597902279466   0.999405761133950   0.591025394893854 1
ion S   0.250166893991231   0.999035298419962   0.415946447508594 1
ion S   0.500839323061214   0.000793975665565   0.588422314784788 1
ion S   0.501641667599908   0.000949571537450   0.418928274505934 1
ion S   0.750934266251592   0.000106085466399   0.590799436567958 1
ion S   0.751569754753787   0.001249030806396   0.417376239213925 1
ion S   0.002493500237080   0.251545586491230   0.590655793699547 1
ion S   0.000867553670169   0.250704582120950   0.417224496689759 1
ion S   0.250298525676675   0.251005542114965   0.590458432565500 1
ion S   0.247525449046983   0.249293532612950   0.415717410936050 1
ion S   0.502262354410470   0.250440415399719   0.590091852961860 1
ion S   0.503597089788888   0.249459162728471   0.415478039032561 1
ion S   0.750864369544122   0.251438644808860   0.590640019035431 1
ion S   0.751584623619711   0.250740954038397   0.417270614651541 1
ion S   0.001802102871578   0.501742980730704   0.588728944277885 1
ion S   0.001192657954295   0.500994942261323   0.419143489013082 1
ion S   0.250132069656158   0.499728559961694   0.590472805329102 1
ion S   0.247676109125203   0.498987508131587   0.415759849759467 1
ion S   0.501537464615249   0.500663840782392   0.575712487363254 1
ion S   0.501634533169137   0.501189836492953   0.427319640455987 1
ion S   0.751687519467321   0.499705915028413   0.590659745503880 1
ion S   0.752713425954605   0.499214084950350   0.415962532723140 1
ion S   0.003104839629897   0.751806148539148   0.591338093215471 1
ion S   0.002937807493518   0.751765265843376   0.416240258226702 1
ion S   0.250492763076478   0.751751622897255   0.591164615670641 1
ion S   0.250306018488725   0.751756000709922   0.416133263995055 1
ion S   0.502207048911352   0.752128597587677   0.590382251448074 1
ion S   0.503585629078347   0.754623199292710   0.415750770833327 1
ion S   0.751749170702390   0.752392234877910   0.590811618211066 1
ion S   0.752699848599540   0.754163566999776   0.416062581378366 1
ion O   0.507297977210129   0.503040795966340   0.666522757516143 1
ion H   0.428010870850760   0.453149384426799   0.684985479630293 1
ion-species GBRV/$ID_pbe.uspp
ion-width Ecut
ionic-minimize  \
	dirUpdateScheme      L-BFGS \
	linminMethod         DirUpdateRecommended \
	nIterations          500 \
	history              15 \
	knormThreshold       0.0001 \
	energyDiffThreshold  1e-06 \
	nEnergyDiff          2 \
	alphaTstart          1 \
	alphaTmin            1e-10 \
	updateTestStepSize   yes \
	alphaTreduceFactor   0.1 \
	alphaTincreaseFactor 3 \
	nAlphaAdjustMax      3 \
	wolfeEnergy          0.0001 \
	wolfeGradient        0.9 \
	fdTest               no
kpoint   0.000000000000   0.000000000000   0.000000000000  1.00000000000000
kpoint-folding 3 3 1 
latt-move-scale 1 1 1
latt-scale 1 1 1 
lattice Triclinic 25.1736 25.1736 34.2617 90 90 120
lattice-minimize  \
	dirUpdateScheme      L-BFGS \
	linminMethod         DirUpdateRecommended \
	nIterations          0 \
	history              15 \
	knormThreshold       0 \
	energyDiffThreshold  1e-06 \
	nEnergyDiff          2 \
	alphaTstart          1 \
	alphaTmin            1e-10 \
	updateTestStepSize   yes \
	alphaTreduceFactor   0.1 \
	alphaTincreaseFactor 3 \
	nAlphaAdjustMax      3 \
	wolfeEnergy          0.0001 \
	wolfeGradient        0.9 \
	fdTest               no
lcao-params -1 1e-06 0.0073499
pcm-variant CANDLE
spintype no-spin
subspace-rotation-factor 1 yes
symmetries automatic
symmetry-threshold 0.0001



---------- Setting up symmetries ----------

Found 24 point-group symmetries of the bravais lattice
Found 1 space-group symmetries with basis
Applied RMS atom displacement 0 bohrs to make symmetries exact.

---------- Initializing the Grid ----------
R = 
[    25.1736   -12.5868          0  ]
[          0     21.801          0  ]
[          0          0    34.2617  ]
unit cell volume = 18803.1
G =
[   0.249594   0.144103         -0  ]
[          0   0.288207          0  ]
[          0         -0   0.183388  ]
Minimum fftbox size, Smin = [  116  116  156  ]
Chosen fftbox size, S = [  120  120  160  ]

---------- Initializing tighter grid for wavefunction operations ----------
R = 
[    25.1736   -12.5868          0  ]
[          0     21.801          0  ]
[          0          0    34.2617  ]
unit cell volume = 18803.1
G =
[   0.249594   0.144103         -0  ]
[          0   0.288207          0  ]
[          0         -0   0.183388  ]
Minimum fftbox size, Smin = [  104  104  140  ]
Chosen fftbox size, S = [  108  108  140  ]

---------- Exchange Correlation functional ----------
Initalized PBE GGA exchange.
Initalized PBE GGA correlation.

---------- Setting up pseudopotentials ----------
Width of ionic core gaussian charges (only for fluid interactions / plotting) set to 0.397384

Reading pseudopotential file '/home/guoxy/vasp/jdftx-1.5.0/build/pseudopotentials/GBRV/ta_pbe.uspp':
  Title: Ta.  Created by USPP 7.3.6 on 14-9-2013
  Reference state energy: -70.583193.  13 valence electrons in orbitals:
    |500>  occupation: 2  eigenvalue: -2.682396
    |510>  occupation: 6  eigenvalue: -1.447928
    |520>  occupation: 3  eigenvalue: -0.131987
    |600>  occupation: 2  eigenvalue: -0.199982
    |610>  occupation: 0  eigenvalue: -0.051129
  lMax: 3  lLocal: 3  QijEcut: 5
  7 projectors sampled on a log grid with 667 points:
    l: 0  eig: -2.682397  rCut: 1.4
    l: 0  eig: -0.199983  rCut: 1.4
    l: 1  eig: -1.447928  rCut: 1.5
    l: 1  eig: -0.051130  rCut: 1.5
    l: 2  eig: -0.131987  rCut: 1.7
    l: 2  eig: 0.150000  rCut: 1.7
    l: 3  eig: 0.250000  rCut: 2.3
  Partial core density with radius 1.2
  Transforming core density to a uniform radial grid of dG=0.02 with 1673 points.
  Transforming local potential to a uniform radial grid of dG=0.02 with 1673 points.
  Transforming nonlocal projectors to a uniform radial grid of dG=0.02 with 432 points.
  Transforming density augmentations to a uniform radial grid of dG=0.02 with 1673 points.
  Transforming atomic orbitals to a uniform radial grid of dG=0.02 with 432 points.
  Core radius for overlap checks: 2.30 bohrs.

Reading pseudopotential file '/home/guoxy/vasp/jdftx-1.5.0/build/pseudopotentials/GBRV/s_pbe.uspp':
  Title: S.  Created by USPP 7.3.6 on 1-4-15
  Reference state energy: -11.898476.  6 valence electrons in orbitals:
    |300>  occupation: 2  eigenvalue: -0.634167
    |310>  occupation: 4  eigenvalue: -0.257568
  lMax: 2  lLocal: 3  QijEcut: 6
  6 projectors sampled on a log grid with 635 points:
    l: 0  eig: -0.634161  rCut: 1.5
    l: 0  eig: 1.500000  rCut: 1.5
    l: 1  eig: -0.257567  rCut: 1.5
    l: 1  eig: 1.500000  rCut: 1.5
    l: 2  eig: -1.000000  rCut: 1.5
    l: 2  eig: 1.500000  rCut: 1.5
  Partial core density with radius 1.15
  Transforming core density to a uniform radial grid of dG=0.02 with 1673 points.
  Transforming local potential to a uniform radial grid of dG=0.02 with 1673 points.
  Transforming nonlocal projectors to a uniform radial grid of dG=0.02 with 432 points.
  Transforming density augmentations to a uniform radial grid of dG=0.02 with 1673 points.
  Transforming atomic orbitals to a uniform radial grid of dG=0.02 with 432 points.
  Core radius for overlap checks: 1.50 bohrs.

Reading pseudopotential file '/home/guoxy/vasp/jdftx-1.5.0/build/pseudopotentials/GBRV/o_pbe.uspp':
  Title: O.  Created by USPP 7.3.6 on 3-2-2014
  Reference state energy: -15.894388.  6 valence electrons in orbitals:
    |200>  occupation: 2  eigenvalue: -0.878823
    |210>  occupation: 4  eigenvalue: -0.332131
  lMax: 2  lLocal: 2  QijEcut: 6
  5 projectors sampled on a log grid with 511 points:
    l: 0  eig: -0.878823  rCut: 1.25
    l: 0  eig: 0.000000  rCut: 1.25
    l: 1  eig: -0.332132  rCut: 1.25
    l: 1  eig: 0.000000  rCut: 1.25
    l: 2  eig: 1.000000  rCut: 1.25
  Partial core density with radius 0.7
  Transforming core density to a uniform radial grid of dG=0.02 with 1673 points.
  Transforming local potential to a uniform radial grid of dG=0.02 with 1673 points.
  Transforming nonlocal projectors to a uniform radial grid of dG=0.02 with 432 points.
  Transforming density augmentations to a uniform radial grid of dG=0.02 with 1673 points.
  Transforming atomic orbitals to a uniform radial grid of dG=0.02 with 432 points.
  Core radius for overlap checks: 1.25 bohrs.

Reading pseudopotential file '/home/guoxy/vasp/jdftx-1.5.0/build/pseudopotentials/GBRV/h_pbe.uspp':
  Title: H.  Created by USPP 7.3.6 on 2-4-15
  Reference state energy: -0.458849.  1 valence electrons in orbitals:
    |100>  occupation: 1  eigenvalue: -0.238595
  lMax: 0  lLocal: 1  QijEcut: 6
  2 projectors sampled on a log grid with 395 points:
    l: 0  eig: -0.238595  rCut: 1.2
    l: 0  eig: 1.000000  rCut: 1.2
  Transforming local potential to a uniform radial grid of dG=0.02 with 1673 points.
  Transforming nonlocal projectors to a uniform radial grid of dG=0.02 with 432 points.
  Transforming density augmentations to a uniform radial grid of dG=0.02 with 1673 points.
  Transforming atomic orbitals to a uniform radial grid of dG=0.02 with 432 points.
  Core radius for overlap checks: 1.20 bohrs.

Initialized 4 species with 50 total atoms.

Folded 1 k-points by 3x3x1 to 9 k-points.

---------- Setting up k-points, bands, fillings ----------
Adding inversion symmetry to k-mesh for non-inversion-symmetric unit cell.
Reduced to 5 k-points under symmetry. 
Computing the number of bands and number of electrons
Calculating initial fillings.
nElectrons: 407.000000   nBands: 341   nStates: 5

----- Setting up reduced wavefunction bases (one per k-point) -----
average nbasis = 80341.667 , ideal nbasis = 80328.402

---------- Setting up coulomb interaction ----------
Fluid mode embedding: using embedded box, but periodic Coulomb kernel.
(Fluid response is responsible for (approximate) separation between periodic images.)
Setting up double-sized grid for truncated Coulomb potentials:
R = 
[    25.1736   -12.5868          0  ]
[          0     21.801          0  ]
[          0          0    68.5234  ]
unit cell volume = 37606.3
G =
[   0.249594   0.144103         -0  ]
[          0   0.288207          0  ]
[          0         -0  0.0916941  ]
Chosen fftbox size, S = [  120  120  320  ]
Integer grid location selected as the embedding center:
   Grid: [  0  0  80  ]
   Lattice: [  0  0  0.5  ]
   Cartesian: [  0  0  17.1308  ]
Constructing Wigner-Seitz cell: 8 faces (6 quadrilaterals, 2 hexagons)
Range-separation parameter for embedded mesh potentials due to point charges: 0.583787 bohrs.

Initializing van der Waals corrections
	NOTE: vdW corrections apply only for interactions with fluid.
	Ta:  C6:  815.23 Eh-a0^6  R0: 3.326 a0 (WARNING: beyond Grimme's data set)
	 S:  C6:   96.61 Eh-a0^6  R0: 3.180 a0
	 O:  C6:   12.14 Eh-a0^6  R0: 2.536 a0
	 H:  C6:    2.43 Eh-a0^6  R0: 1.892 a0

---------- Setting up ewald sum ----------
Optimum gaussian width for ewald sums = 6.963621 bohr.
Real space sum over 605 unit cells with max indices [  5  5  2  ]
Reciprocal space sum over 7425 terms with max indices [  7  7  16  ]

---------- Allocating electronic variables ----------
Initializing wave functions:  linear combination of atomic orbitals
Ta pseudo-atom occupations:   s ( 2 2 )  p ( 6 0 )  d ( 3 )
S pseudo-atom occupations:   s ( 2 )  p ( 4 )
O pseudo-atom occupations:   s ( 2 )  p ( 4 )
H pseudo-atom occupations:   s ( 1 )
	FillingsUpdate:  mu: -0.266139280  nElectrons: 407.000000
LCAOMinimize: Iter:   0  F: -1283.5653130460530065  |grad|_K:  4.468e-03  alpha:  1.000e+00
	FillingsUpdate:  mu: -0.231259019  nElectrons: 407.000000
LCAOMinimize: Iter:   1  F: -1284.3080490710460708  |grad|_K:  2.729e-03  alpha:  8.277e-02  linmin: -3.537e-01  cgtest:  7.783e-01  t[s]:    178.35
LCAOMinimize: Encountered beta<0, resetting CG.
	FillingsUpdate:  mu: -0.167591185  nElectrons: 407.000000
LCAOMinimize: Iter:   2  F: -1284.7534362424100891  |grad|_K:  1.275e-03  alpha:  2.214e-01  linmin:  6.720e-02  cgtest: -2.993e-01  t[s]:    249.24
	FillingsUpdate:  mu: -0.157140632  nElectrons: 407.000000
LCAOMinimize: Iter:   3  F: -1284.7761184506939571  |grad|_K:  6.039e-04  alpha:  6.018e-02  linmin: -1.252e-02  cgtest:  6.657e-01  t[s]:    322.13
LCAOMinimize: Encountered beta<0, resetting CG.
	FillingsUpdate:  mu: -0.170437149  nElectrons: 407.000000
LCAOMinimize: Iter:   4  F: -1284.7914653796362927  |grad|_K:  3.717e-04  alpha:  1.430e-01  linmin: -4.863e-03  cgtest:  2.685e-02  t[s]:    392.90
	FillingsUpdate:  mu: -0.175885869  nElectrons: 407.000000
LCAOMinimize: Iter:   5  F: -1284.7960319970356977  |grad|_K:  1.416e-04  alpha:  1.119e-01  linmin: -9.382e-04  cgtest: -7.050e-02  t[s]:    464.09
	FillingsUpdate:  mu: -0.175340170  nElectrons: 407.000000
LCAOMinimize: Iter:   6  F: -1284.7979117587526616  |grad|_K:  1.282e-04  alpha:  3.238e-01  linmin:  4.029e-03  cgtest: -2.159e-02  t[s]:    534.68
	FillingsUpdate:  mu: -0.174141417  nElectrons: 407.000000
LCAOMinimize: Iter:   7  F: -1284.7985032585497720  |grad|_K:  6.639e-05  alpha:  1.240e-01  linmin: -2.615e-03  cgtest:  8.358e-02  t[s]:    602.32
	FillingsUpdate:  mu: -0.173207902  nElectrons: 407.000000
LCAOMinimize: Iter:   8  F: -1284.7987122620736500  |grad|_K:  4.445e-05  alpha:  1.610e-01  linmin:  4.171e-04  cgtest: -1.345e-02  t[s]:    672.05
	FillingsUpdate:  mu: -0.173064220  nElectrons: 407.000000
LCAOMinimize: Iter:   9  F: -1284.7988230295695757  |grad|_K:  2.312e-05  alpha:  1.920e-01  linmin:  1.974e-05  cgtest:  1.475e-02  t[s]:    743.61
	FillingsUpdate:  mu: -0.173371792  nElectrons: 407.000000
LCAOMinimize: Iter:  10  F: -1284.7988500496862798  |grad|_K:  1.160e-05  alpha:  1.729e-01  linmin: -6.553e-05  cgtest: -4.778e-04  t[s]:    810.08
	FillingsUpdate:  mu: -0.173487546  nElectrons: 407.000000
LCAOMinimize: Iter:  11  F: -1284.7988540826565895  |grad|_K:  4.748e-06  alpha:  1.025e-01  linmin:  2.055e-05  cgtest: -8.008e-04  t[s]:    890.24
	FillingsUpdate:  mu: -0.173532236  nElectrons: 407.000000
LCAOMinimize: Iter:  12  F: -1284.7988560977580619  |grad|_K:  3.610e-06  alpha:  3.062e-01  linmin:  8.538e-04  cgtest: -3.141e-03  t[s]:    957.61
	FillingsUpdate:  mu: -0.173517192  nElectrons: 407.000000
LCAOMinimize: Iter:  13  F: -1284.7988565849570932  |grad|_K:  2.030e-06  alpha:  1.282e-01  linmin:  3.513e-05  cgtest:  7.353e-03  t[s]:   1032.43
	FillingsUpdate:  mu: -0.173487120  nElectrons: 407.000000
LCAOMinimize: Iter:  14  F: -1284.7988568053694962  |grad|_K:  1.403e-06  alpha:  1.830e-01  linmin:  6.514e-05  cgtest: -1.954e-03  t[s]:   1105.59
LCAOMinimize: Converged (|Delta F|<1.000000e-06 for 2 iters).
----- createFluidSolver() ----- (Fluid-side solver setup)
   Initializing fluid molecule 'H2O'
     Initializing site 'O'
       Electron density: proportional to exp(-r/0.36935)*erfc((r-0.51523)/0.36823) with norm 6.826
       Charge density: gaussian nuclear width 0.478731 with net site charge 0.826
       Polarizability: cuspless exponential with width 0.32 and norm 3.73
       Hard sphere radius: 2.57003 bohrs
       Positions in reference frame:
         [ +0.000000 +0.000000 +0.000000 ]
     Initializing site 'H'
       Electron density: proportional to exp(-r/0.34641)*erfc((r-0)/0.390882) with norm 0.587
       Charge density: gaussian nuclear width 0.377945 with net site charge -0.413
       Polarizability: cuspless exponential with width 0.39 and norm 3.3
       Positions in reference frame:
         [ +0.000000 -1.441945 +1.122523 ]
         [ +0.000000 +1.441945 +1.122523 ]
     Net charge: 0   dipole magnitude: 0.927204
     Initializing spherical shell mfKernel with radius 2.61727 Bohr
     deltaS corrections:
       site 'O': -7.54299
       site 'H': -6.83917
   Initializing fluid molecule 'Na+'
     Initializing site 'Na'
       Electron density: proportional to exp(-r/0.19682)*erfc((r-0.71491)/0.41314) with norm 8.1383
       Charge density: gaussian nuclear width 0.365347 with net site charge -1
       Hard sphere radius: 1.86327 bohrs
       Positions in reference frame:
         [ +0.000000 +0.000000 +0.000000 ]
     Net charge: -1   dipole magnitude: 0
     Initializing gaussian mfKernel with width: 1.55004 Bohr
     deltaS corrections:
       site 'Na': -22.3555
   Initializing fluid molecule 'F-'
     Initializing site 'F'
       Electron density: proportional to exp(-r/0.38886)*erfc((r-0)/0.438782) with norm 8
       Charge density: gaussian nuclear width 0.374796 with net site charge 1
       Hard sphere radius: 2.39995 bohrs
       Positions in reference frame:
         [ +0.000000 +0.000000 +0.000000 ]
     Net charge: 1   dipole magnitude: 0
     Initializing gaussian mfKernel with width: 1.59012 Bohr
     deltaS corrections:
       site 'F': -9.04335

Correction to mu due to finite nuclear width = -0.0107383
   Cavity determined by nc: 0.00142 and sigma: 0.707107
   Nonlocal vdW cavity from gaussian model electron density with norm = 8 and sigma = 0.993594 bohr
   Charge asymmetry in cavity with sensitivity pCavity = 36.5 e-bohr/Eh
   Electrostatic cavity expanded by eta = 1.46 bohrs
   Weighted density cavitation model constrained by Nbulk: 0.0049383 bohr^-3, Pvap: 3.14029 kPa, Rvdw: 2.61727 bohr and sigmaBulk: 4.62e-05 Eh/bohr^2 at T: 298 K.
   Weighted density dispersion model using vdW pair potentials with single solvent site with sqrtC6eff: 0.77 SI.


---- Citations for features of the code used in this run ----

   Software package:
      R. Sundararaman, K. Letchworth-Weaver, K.A. Schwarz, D. Gunceler, Y. Ozhabes and T.A. Arias, 'JDFTx: software for joint density-functional theory', SoftwareX 6, 278 (2017)

   gga-PBE exchange-correlation functional:
      J.P. Perdew, K. Burke and M. Ernzerhof, Phys. Rev. Lett. 77, 3865 (1996)

   Pseudopotentials:
      KF Garrity, JW Bennett, KM Rabe and D Vanderbilt, Comput. Mater. Sci. 81, 446 (2014)

   Truncated Coulomb potentials:
      R. Sundararaman and T.A. Arias, Phys. Rev. B 87, 165122 (2013)

   Van der Waals correction pair-potentials:
      S. Grimme, J. Comput. Chem. 27, 1787 (2006)

   Charge-asymmetric nonlocally-determined local-electric (CANDLE) solvation model:
      R. Sundararaman and W.A. Goddard III, J. Chem. Phys. 142, 064107 (2015)

   Total energy minimization with Auxiliary Hamiltonian:
      C. Freysoldt, S. Boeck, and J. Neugebauer, Phys. Rev. B 79, 241103(R) (2009)

This list may not be complete. Please suggest additional citations or
report any other bugs at https://github.com/shankar1729/jdftx/issues

Initialization completed successfully at t[s]:   1112.03

Fluid solver invoked on fresh (partially random / LCAO) wavefunctions
Running a vacuum solve first:

-------- Initial electronic minimization -----------
	FillingsUpdate:  mu: -0.173487120  nElectrons: 407.000000
ElecMinimize: Iter:   0  F: -1284.798856805354944  |grad|_K:  1.145e-04  alpha:  1.000e+00
	FillingsUpdate:  mu: -0.077793890  nElectrons: 407.000000
	SubspaceRotationAdjust: set factor to 0.998
ElecMinimize: Iter:   1  F: -1286.182915845605521  |grad|_K:  6.496e-05  alpha:  7.712e-01  linmin: -1.413e-05  t[s]:   1248.25
	FillingsUpdate:  mu: -0.134418902  nElectrons: 407.000000
	SubspaceRotationAdjust: set factor to 0.683
ElecMinimize: Iter:   2  F: -1286.412164218797898  |grad|_K:  4.596e-05  alpha:  4.255e-01  linmin:  1.422e-04  t[s]:   1333.08
	FillingsUpdate:  mu: -0.111371141  nElectrons: 407.000000
	SubspaceRotationAdjust: set factor to 0.451
ElecMinimize: Iter:   3  F: -1286.514078696651495  |grad|_K:  3.704e-05  alpha:  3.557e-01  linmin:  7.419e-05  t[s]:   1416.73
	FillingsUpdate:  mu: -0.104558272  nElectrons: 407.000000
	SubspaceRotationAdjust: set factor to 0.267
ElecMinimize: Iter:   4  F: -1286.540995216756983  |grad|_K:  1.743e-05  alpha:  1.437e-01  linmin: -9.736e-06  t[s]:   1501.48
ElecMinimize: 	Predicted alpha/alphaT>3.000000, increasing alphaT to 4.309517e-01.
	FillingsUpdate:  mu: -0.110387766  nElectrons: 407.000000
	SubspaceRotationAdjust: set factor to 0.322
ElecMinimize: Iter:   5  F: -1286.562935429077015  |grad|_K:  1.288e-05  alpha:  5.262e-01  linmin:  2.452e-05  t[s]:   1615.28
	FillingsUpdate:  mu: -0.114912106  nElectrons: 407.000000
	SubspaceRotationAdjust: set factor to 0.247
ElecMinimize: Iter:   6  F: -1286.571333950875214  |grad|_K:  8.432e-06  alpha:  3.692e-01  linmin:  1.880e-06  t[s]:   1700.85
	FillingsUpdate:  mu: -0.115818787  nElectrons: 407.000000
	SubspaceRotationAdjust: set factor to 0.324
ElecMinimize: Iter:   7  F: -1286.575802260909313  |grad|_K:  5.354e-06  alpha:  4.582e-01  linmin:  1.060e-05  t[s]:   1783.24
	FillingsUpdate:  mu: -0.114662154  nElectrons: 407.000000
	SubspaceRotationAdjust: set factor to 0.288
ElecMinimize: Iter:   8  F: -1286.577917024339740  |grad|_K:  4.251e-06  alpha:  5.391e-01  linmin:  1.106e-05  t[s]:   1867.69
	FillingsUpdate:  mu: -0.113985691  nElectrons: 407.000000
	SubspaceRotationAdjust: set factor to 0.266
ElecMinimize: Iter:   9  F: -1286.578867781131066  |grad|_K:  2.959e-06  alpha:  3.838e-01  linmin:  6.813e-07  t[s]:   1956.74
	FillingsUpdate:  mu: -0.113931047  nElectrons: 407.000000
	SubspaceRotationAdjust: set factor to 0.373
ElecMinimize: Iter:  10  F: -1286.579558304008970  |grad|_K:  2.077e-06  alpha:  5.758e-01  linmin:  8.680e-06  t[s]:   2044.58
	FillingsUpdate:  mu: -0.114174695  nElectrons: 407.000000
	SubspaceRotationAdjust: set factor to 0.33
ElecMinimize: Iter:  11  F: -1286.579829030094515  |grad|_K:  1.695e-06  alpha:  4.589e-01  linmin:  5.569e-07  t[s]:   2129.15
	FillingsUpdate:  mu: -0.114362138  nElectrons: 407.000000
	SubspaceRotationAdjust: set factor to 0.285
ElecMinimize: Iter:  12  F: -1286.579985237731307  |grad|_K:  1.030e-06  alpha:  3.961e-01  linmin:  7.850e-07  t[s]:   2213.70
	FillingsUpdate:  mu: -0.114284507  nElectrons: 407.000000
	SubspaceRotationAdjust: set factor to 0.314
ElecMinimize: Iter:  13  F: -1286.580059083629067  |grad|_K:  7.010e-07  alpha:  5.076e-01  linmin:  7.567e-07  t[s]:   2299.08
	FillingsUpdate:  mu: -0.114192629  nElectrons: 407.000000
	SubspaceRotationAdjust: set factor to 0.271
ElecMinimize: Iter:  14  F: -1286.580092337102542  |grad|_K:  4.985e-07  alpha:  4.933e-01  linmin:  1.001e-07  t[s]:   2384.87
	FillingsUpdate:  mu: -0.114180254  nElectrons: 407.000000
	SubspaceRotationAdjust: set factor to 0.243
ElecMinimize: Iter:  15  F: -1286.580107202776162  |grad|_K:  3.383e-07  alpha:  4.359e-01  linmin: -3.469e-08  t[s]:   2467.50
	FillingsUpdate:  mu: -0.114204565  nElectrons: 407.000000
	SubspaceRotationAdjust: set factor to 0.307
ElecMinimize: Iter:  16  F: -1286.580116250107039  |grad|_K:  2.247e-07  alpha:  5.757e-01  linmin:  1.775e-07  t[s]:   2556.21
	FillingsUpdate:  mu: -0.114211483  nElectrons: 407.000000
	SubspaceRotationAdjust: set factor to 0.315
ElecMinimize: Iter:  17  F: -1286.580120019720198  |grad|_K:  1.796e-07  alpha:  5.442e-01  linmin:  1.421e-07  t[s]:   2640.73
	FillingsUpdate:  mu: -0.114208955  nElectrons: 407.000000
	SubspaceRotationAdjust: set factor to 0.323
ElecMinimize: Iter:  18  F: -1286.580122096283731  |grad|_K:  1.272e-07  alpha:  4.689e-01  linmin:  1.670e-07  t[s]:   2724.78
	FillingsUpdate:  mu: -0.114208563  nElectrons: 407.000000
	SubspaceRotationAdjust: set factor to 0.389
ElecMinimize: Iter:  19  F: -1286.580123361372216  |grad|_K:  9.397e-08  alpha:  5.698e-01  linmin:  3.069e-07  t[s]:   2806.33
	FillingsUpdate:  mu: -0.114219445  nElectrons: 407.000000
	SubspaceRotationAdjust: set factor to 0.431
ElecMinimize: Iter:  20  F: -1286.580124012268698  |grad|_K:  6.907e-08  alpha:  5.374e-01  linmin:  1.452e-07  t[s]:   2891.57
	FillingsUpdate:  mu: -0.114222686  nElectrons: 407.000000
	SubspaceRotationAdjust: set factor to 0.361
ElecMinimize: Iter:  21  F: -1286.580124290833737  |grad|_K:  5.877e-08  alpha:  4.254e-01  linmin:  1.799e-08  t[s]:   2974.52
	FillingsUpdate:  mu: -0.114221655  nElectrons: 407.000000
	SubspaceRotationAdjust: set factor to 0.294
ElecMinimize: Iter:  22  F: -1286.580124456511157  |grad|_K:  3.621e-08  alpha:  3.496e-01  linmin:  1.332e-08  t[s]:   3058.45
	FillingsUpdate:  mu: -0.114217109  nElectrons: 407.000000
	SubspaceRotationAdjust: set factor to 0.328
ElecMinimize: Iter:  23  F: -1286.580124552395318  |grad|_K:  2.532e-08  alpha:  5.327e-01  linmin:  2.685e-08  t[s]:   3144.02
	FillingsUpdate:  mu: -0.114215841  nElectrons: 407.000000
	SubspaceRotationAdjust: set factor to 0.356
ElecMinimize: Iter:  24  F: -1286.580124599155852  |grad|_K:  1.780e-08  alpha:  5.313e-01  linmin: -1.304e-07  t[s]:   3224.33
	FillingsUpdate:  mu: -0.114217222  nElectrons: 407.000000
	SubspaceRotationAdjust: set factor to 0.346
ElecMinimize: Iter:  25  F: -1286.580124620149263  |grad|_K:  1.459e-08  alpha:  4.821e-01  linmin:  1.522e-08  t[s]:   3306.93
	FillingsUpdate:  mu: -0.114217151  nElectrons: 407.000000
	SubspaceRotationAdjust: set factor to 0.359
ElecMinimize: Iter:  26  F: -1286.580124633440846  |grad|_K:  1.034e-08  alpha:  4.533e-01  linmin: -6.656e-08  t[s]:   3384.07
	FillingsUpdate:  mu: -0.114216305  nElectrons: 407.000000
	SubspaceRotationAdjust: set factor to 0.427
ElecMinimize: Iter:  27  F: -1286.580124641309112  |grad|_K:  7.614e-09  alpha:  5.353e-01  linmin:  1.002e-07  t[s]:   3462.21
	FillingsUpdate:  mu: -0.114216283  nElectrons: 407.000000
	SubspaceRotationAdjust: set factor to 0.453
ElecMinimize: Iter:  28  F: -1286.580124645315436  |grad|_K:  5.858e-09  alpha:  5.038e-01  linmin: -2.043e-07  t[s]:   3542.75
ElecMinimize: Converged (|Delta F|<1.000000e-08 for 2 iters).
Setting wave functions to eigenvectors of Hamiltonian
Vacuum energy after initial minimize, F = -1286.580124645315436

	Linear fluid (dielectric constant: 78.4, screening length: 5.74355 Bohr) occupying 0.754586 of unit cell:	Completed after 23 iterations at t[s]:   3579.85

-------- Electronic minimization -----------
	Linear fluid (dielectric constant: 78.4, screening length: 5.74355 Bohr) occupying 0.754586 of unit cell:	Completed after 0 iterations at t[s]:   3610.37
	FillingsUpdate:  mu: -0.205585311  nElectrons: 407.000000
ElecMinimize: Iter:   0  F: -1286.573637017144392  |grad|_K:  2.865e-06  alpha:  1.000e+00
	Linear fluid (dielectric constant: 78.4, screening length: 5.74355 Bohr) occupying 0.754910 of unit cell:	Completed after 15 iterations at t[s]:   3683.30
	Linear fluid (dielectric constant: 78.4, screening length: 5.74355 Bohr) occupying 0.754754 of unit cell:	Completed after 11 iterations at t[s]:   3731.08
	FillingsUpdate:  mu: -0.204737272  nElectrons: 407.000000
	SubspaceRotationAdjust: set factor to 0.273
ElecMinimize: Iter:   1  F: -1286.574212262186393  |grad|_K:  3.311e-06  alpha:  5.139e-01  linmin:  1.765e-06  t[s]:   3766.71
	Linear fluid (dielectric constant: 78.4, screening length: 5.74355 Bohr) occupying 0.755072 of unit cell:	Completed after 14 iterations at t[s]:   3809.61
	Linear fluid (dielectric constant: 78.4, screening length: 5.74355 Bohr) occupying 0.754992 of unit cell:	Completed after 9 iterations at t[s]:   3853.61
	FillingsUpdate:  mu: -0.204112392  nElectrons: 407.000000
	SubspaceRotationAdjust: set factor to 0.239
ElecMinimize: Iter:   2  F: -1286.574782534334190  |grad|_K:  1.328e-06  alpha:  3.812e-01  linmin: -1.477e-07  t[s]:   3892.76
	Linear fluid (dielectric constant: 78.4, screening length: 5.74355 Bohr) occupying 0.755044 of unit cell:	Completed after 8 iterations at t[s]:   3930.35
	Linear fluid (dielectric constant: 78.4, screening length: 5.74355 Bohr) occupying 0.755097 of unit cell:	Completed after 8 iterations at t[s]:   3970.93
	FillingsUpdate:  mu: -0.204126113  nElectrons: 407.000000
	SubspaceRotationAdjust: set factor to 0.333
ElecMinimize: Iter:   3  F: -1286.574969190914544  |grad|_K:  7.120e-07  alpha:  7.671e-01  linmin: -3.533e-06  t[s]:   4006.53
	Linear fluid (dielectric constant: 78.4, screening length: 5.74355 Bohr) occupying 0.755124 of unit cell:	Completed after 8 iterations at t[s]:   4036.85
	Linear fluid (dielectric constant: 78.4, screening length: 5.74355 Bohr) occupying 0.755120 of unit cell:	Completed after 3 iterations at t[s]:   4071.74
	FillingsUpdate:  mu: -0.204040641  nElectrons: 407.000000
	SubspaceRotationAdjust: set factor to 0.3
ElecMinimize: Iter:   4  F: -1286.575015544026201  |grad|_K:  5.232e-07  alpha:  6.605e-01  linmin: -3.560e-07  t[s]:   4107.49
	Linear fluid (dielectric constant: 78.4, screening length: 5.74355 Bohr) occupying 0.755127 of unit cell:	Completed after 7 iterations at t[s]:   4141.45
	Linear fluid (dielectric constant: 78.4, screening length: 5.74355 Bohr) occupying 0.755125 of unit cell:	Completed after 3 iterations at t[s]:   4178.70
	FillingsUpdate:  mu: -0.204044554  nElectrons: 407.000000
	SubspaceRotationAdjust: set factor to 0.216
ElecMinimize: Iter:   5  F: -1286.575032093101754  |grad|_K:  3.508e-07  alpha:  4.410e-01  linmin:  2.149e-06  t[s]:   4215.40
	Linear fluid (dielectric constant: 78.4, screening length: 5.74355 Bohr) occupying 0.755124 of unit cell:	Completed after 3 iterations at t[s]:   4242.33
	Linear fluid (dielectric constant: 78.4, screening length: 5.74355 Bohr) occupying 0.755124 of unit cell:	Completed after 0 iterations at t[s]:   4276.29
	FillingsUpdate:  mu: -0.204038081  nElectrons: 407.000000
	SubspaceRotationAdjust: set factor to 0.306
ElecMinimize: Iter:   6  F: -1286.575041765468541  |grad|_K:  1.944e-07  alpha:  5.670e-01  linmin: -1.840e-05  t[s]:   4308.24
	Linear fluid (dielectric constant: 78.4, screening length: 5.74355 Bohr) occupying 0.755121 of unit cell:	Completed after 3 iterations at t[s]:   4338.07
	Linear fluid (dielectric constant: 78.4, screening length: 5.74355 Bohr) occupying 0.755121 of unit cell:	Completed after 0 iterations at t[s]:   4369.51
	FillingsUpdate:  mu: -0.204036981  nElectrons: 407.000000
	SubspaceRotationAdjust: set factor to 0.231
ElecMinimize: Iter:   7  F: -1286.575044435618338  |grad|_K:  1.786e-07  alpha:  4.959e-01  linmin: -3.293e-05  t[s]:   4411.26
	Linear fluid (dielectric constant: 78.4, screening length: 5.74355 Bohr) occupying 0.755119 of unit cell:	Completed after 3 iterations at t[s]:   4438.23
	Linear fluid (dielectric constant: 78.4, screening length: 5.74355 Bohr) occupying 0.755120 of unit cell:	Completed after 2 iterations at t[s]:   4472.52
	FillingsUpdate:  mu: -0.204052345  nElectrons: 407.000000
	SubspaceRotationAdjust: set factor to 0.198
ElecMinimize: Iter:   8  F: -1286.575045822401535  |grad|_K:  1.079e-07  alpha:  3.040e-01  linmin:  8.813e-06  t[s]:   4510.53
	Linear fluid (dielectric constant: 78.4, screening length: 5.74355 Bohr) occupying 0.755119 of unit cell:	Completed after 0 iterations at t[s]:   4534.97
	Linear fluid (dielectric constant: 78.4, screening length: 5.74355 Bohr) occupying 0.755118 of unit cell:	Completed after 0 iterations at t[s]:   4570.88
	FillingsUpdate:  mu: -0.204052785  nElectrons: 407.000000
	SubspaceRotationAdjust: set factor to 0.274
ElecMinimize: Iter:   9  F: -1286.575046587134693  |grad|_K:  6.535e-08  alpha:  5.088e-01  linmin:  2.910e-06  t[s]:   4606.44
	Linear fluid (dielectric constant: 78.4, screening length: 5.74355 Bohr) occupying 0.755118 of unit cell:	Completed after 0 iterations at t[s]:   4632.38
	Linear fluid (dielectric constant: 78.4, screening length: 5.74355 Bohr) occupying 0.755118 of unit cell:	Completed after 1 iterations at t[s]:   4671.50
	FillingsUpdate:  mu: -0.204051572  nElectrons: 407.000000
	SubspaceRotationAdjust: set factor to 0.302
ElecMinimize: Iter:  10  F: -1286.575046901831456  |grad|_K:  5.460e-08  alpha:  7.745e-01  linmin:  4.815e-05  t[s]:   4704.47
	Linear fluid (dielectric constant: 78.4, screening length: 5.74355 Bohr) occupying 0.755117 of unit cell:	Completed after 1 iterations at t[s]:   4730.43
	Linear fluid (dielectric constant: 78.4, screening length: 5.74355 Bohr) occupying 0.755117 of unit cell:	Completed after 0 iterations at t[s]:   4769.78
	FillingsUpdate:  mu: -0.204051014  nElectrons: 407.000000
	SubspaceRotationAdjust: set factor to 0.302
ElecMinimize: Iter:  11  F: -1286.575047016011695  |grad|_K:  4.508e-08  alpha:  4.152e-01  linmin:  4.625e-06  t[s]:   4807.57
	Linear fluid (dielectric constant: 78.4, screening length: 5.74355 Bohr) occupying 0.755117 of unit cell:	Completed after 0 iterations at t[s]:   4836.18
	Linear fluid (dielectric constant: 78.4, screening length: 5.74355 Bohr) occupying 0.755117 of unit cell:	Completed after 0 iterations at t[s]:   4870.10
	FillingsUpdate:  mu: -0.204050901  nElectrons: 407.000000
	SubspaceRotationAdjust: set factor to 0.388
ElecMinimize: Iter:  12  F: -1286.575047120107456  |grad|_K:  3.786e-08  alpha:  3.892e-01  linmin: -1.679e-05  t[s]:   4905.84
	Linear fluid (dielectric constant: 78.4, screening length: 5.74355 Bohr) occupying 0.755116 of unit cell:	Completed after 3 iterations at t[s]:   4933.24
	Linear fluid (dielectric constant: 78.4, screening length: 5.74355 Bohr) occupying 0.755117 of unit cell:	Completed after 0 iterations at t[s]:   4965.51
	FillingsUpdate:  mu: -0.204055354  nElectrons: 407.000000
	SubspaceRotationAdjust: set factor to 0.251
ElecMinimize: Iter:  13  F: -1286.575047167877301  |grad|_K:  7.397e-08  alpha:  1.056e-01  linmin:  1.040e-04  t[s]:   5003.48
ElecMinimize: 	Bad step direction: g.d > 0.
ElecMinimize: 	Undoing step.
	Linear fluid (dielectric constant: 78.4, screening length: 5.74355 Bohr) occupying 0.755117 of unit cell:	Completed after 0 iterations at t[s]:   5029.18
ElecMinimize: 	Step failed: resetting search direction.
	FillingsUpdate:  mu: -0.204055354  nElectrons: 407.000000
	SubspaceRotationAdjust: set factor to 0.182
ElecMinimize: Iter:  14  F: -1286.575047167886169  |grad|_K:  6.306e-08  alpha:  0.000e+00
	Linear fluid (dielectric constant: 78.4, screening length: 5.74355 Bohr) occupying 0.755117 of unit cell:	Completed after 0 iterations at t[s]:   5094.46
ElecMinimize: 	Predicted alpha/alphaT>3.000000, increasing alphaT to 3.168839e-01.
	Linear fluid (dielectric constant: 78.4, screening length: 5.74355 Bohr) occupying 0.755117 of unit cell:	Completed after 2 iterations at t[s]:   5129.68
	Linear fluid (dielectric constant: 78.4, screening length: 5.74355 Bohr) occupying 0.755117 of unit cell:	Completed after 0 iterations at t[s]:   5160.56
	FillingsUpdate:  mu: -0.204050052  nElectrons: 407.000000
	SubspaceRotationAdjust: set factor to 0.0876
ElecMinimize: Iter:  15  F: -1286.575047183181141  |grad|_K:  4.640e-08  alpha:  1.159e-01  linmin:  5.452e-04  t[s]:   5194.96
	Linear fluid (dielectric constant: 78.4, screening length: 5.74355 Bohr) occupying 0.755117 of unit cell:	Completed after 0 iterations at t[s]:   5221.76
ElecMinimize: 	Predicted alpha/alphaT>3.000000, increasing alphaT to 3.477335e-01.
	Linear fluid (dielectric constant: 78.4, screening length: 5.74355 Bohr) occupying 0.755117 of unit cell:	Completed after 0 iterations at t[s]:   5253.24
	Linear fluid (dielectric constant: 78.4, screening length: 5.74355 Bohr) occupying 0.755116 of unit cell:	Completed after 0 iterations at t[s]:   5287.28
	FillingsUpdate:  mu: -0.204049984  nElectrons: 407.000000
	SubspaceRotationAdjust: set factor to 0.0873
ElecMinimize: Iter:  16  F: -1286.575047233402302  |grad|_K:  3.770e-08  alpha:  4.087e-01  linmin:  2.206e-07  t[s]:   5322.21
	Linear fluid (dielectric constant: 78.4, screening length: 5.74355 Bohr) occupying 0.755116 of unit cell:	Completed after 2 iterations at t[s]:   5352.74
	Linear fluid (dielectric constant: 78.4, screening length: 5.74355 Bohr) occupying 0.755116 of unit cell:	Completed after 0 iterations at t[s]:   5387.59
ElecMinimize: 	Step increased F by 6.437517e-08, reducing alpha to 1.095252e-02.
	Linear fluid (dielectric constant: 78.4, screening length: 5.74355 Bohr) occupying 0.755116 of unit cell:	Completed after 0 iterations at t[s]:   5448.36
ElecMinimize: 	Step increased F by 4.434764e-08, reducing alpha to 1.095252e-03.
	Linear fluid (dielectric constant: 78.4, screening length: 5.74355 Bohr) occupying 0.755116 of unit cell:	Completed after 0 iterations at t[s]:   5508.82
ElecMinimize: 	Step increased F by 4.252206e-08, reducing alpha to 1.095252e-04.
ElecMinimize: 	Step failed to reduce F after 3 attempts. Quitting step.
ElecMinimize: 	Undoing step.
	Linear fluid (dielectric constant: 78.4, screening length: 5.74355 Bohr) occupying 0.755116 of unit cell:	Completed after 0 iterations at t[s]:   5567.06
ElecMinimize: 	Step failed: resetting search direction.
	FillingsUpdate:  mu: -0.204054402  nElectrons: 407.000000
	SubspaceRotationAdjust: set factor to 0.0543
	SubspaceRotationAdjust: resetting CG because factor has changed by 0.119781
	Linear fluid (dielectric constant: 78.4, screening length: 5.74355 Bohr) occupying 0.755116 of unit cell:	Completed after 0 iterations at t[s]:   5624.16
ElecMinimize: 	State modified externally: resetting search direction.
ElecMinimize: Iter:  17  F: -1286.575047190880241  |grad|_K:  2.704e-08  alpha:  1.095e-04
	Linear fluid (dielectric constant: 78.4, screening length: 5.74355 Bohr) occupying 0.755117 of unit cell:	Completed after 0 iterations at t[s]:   5684.98
	Linear fluid (dielectric constant: 78.4, screening length: 5.74355 Bohr) occupying 0.755117 of unit cell:	Completed after 1 iterations at t[s]:   5718.66
ElecMinimize: 	Step increased F by 2.709135e-08, reducing alpha to 5.368781e-02.
	Linear fluid (dielectric constant: 78.4, screening length: 5.74355 Bohr) occupying 0.755116 of unit cell:	Completed after 0 iterations at t[s]:   5781.78
ElecMinimize: 	Step increased F by 3.136620e-08, reducing alpha to 5.368781e-03.
	Linear fluid (dielectric constant: 78.4, screening length: 5.74355 Bohr) occupying 0.755116 of unit cell:	Completed after 0 iterations at t[s]:   5846.16
ElecMinimize: 	Step increased F by 3.653622e-08, reducing alpha to 5.368781e-04.
ElecMinimize: 	Step failed to reduce F after 3 attempts. Quitting step.
ElecMinimize: 	Undoing step.
	Linear fluid (dielectric constant: 78.4, screening length: 5.74355 Bohr) occupying 0.755116 of unit cell:	Completed after 0 iterations at t[s]:   5908.33
ElecMinimize: 	Step failed along negative gradient direction.
ElecMinimize: Probably at roundoff error limit. (Stopping)
Setting wave functions to eigenvectors of Hamiltonian
Single-point solvation energy estimate, DeltaF = +0.005077491056682

# Ionic positions in lattice coordinates:
ion Ta   0.171547637897073   0.083840191830926   0.503528307240384 1
ion Ta   0.414098395690273   0.083945102244133   0.503274503646502 1
ion Ta   0.670008720479023   0.085223901239193   0.504176776708237 1
ion Ta   0.917246845908108   0.085187368811154   0.504276452284266 1
ion Ta   0.167338063586556   0.334005313425409   0.503087344432115 1
ion Ta   0.410398620985778   0.318980181305732   0.501376747854041 1
ion Ta   0.668354722782337   0.334143790920852   0.503293407603954 1
ion Ta   0.917268716602576   0.332632264072597   0.504212808678208 1
ion Ta   0.171604244682782   0.588292038535073   0.503683028982076 1
ion Ta   0.410301326006284   0.591974047708493   0.501644816653121 1
ion Ta   0.683336245878087   0.592000550955937   0.502532268358850 1
ion Ta   0.918261332336160   0.588306424524823   0.503775388127581 1
ion Ta   0.168087162099426   0.834349465612833   0.503667344473338 1
ion Ta   0.414116379896522   0.830635768704839   0.503520882752721 1
ion Ta   0.668329866647593   0.834708264503054   0.503561088377837 1
ion Ta   0.918317208561249   0.830614451804773   0.503793799653086 1
ion S   0.001929481268579   0.000750561328793   0.588744769619835 1
ion S   0.001064004905626   0.000767696645772   0.419103904955673 1
ion S   0.250597902279466   0.999405761133950   0.591025394893854 1
ion S   0.250166893991231   0.999035298419962   0.415946447508594 1
ion S   0.500839323061214   0.000793975665565   0.588422314784788 1
ion S   0.501641667599908   0.000949571537450   0.418928274505934 1
ion S   0.750934266251592   0.000106085466399   0.590799436567958 1
ion S   0.751569754753787   0.001249030806396   0.417376239213925 1
ion S   0.002493500237080   0.251545586491230   0.590655793699547 1
ion S   0.000867553670169   0.250704582120950   0.417224496689759 1
ion S   0.250298525676675   0.251005542114965   0.590458432565500 1
ion S   0.247525449046983   0.249293532612950   0.415717410936050 1
ion S   0.502262354410470   0.250440415399719   0.590091852961860 1
ion S   0.503597089788888   0.249459162728471   0.415478039032561 1
ion S   0.750864369544122   0.251438644808860   0.590640019035431 1
ion S   0.751584623619711   0.250740954038397   0.417270614651541 1
ion S   0.001802102871578   0.501742980730704   0.588728944277885 1
ion S   0.001192657954295   0.500994942261323   0.419143489013082 1
ion S   0.250132069656158   0.499728559961694   0.590472805329102 1
ion S   0.247676109125203   0.498987508131587   0.415759849759467 1
ion S   0.501537464615249   0.500663840782392   0.575712487363254 1
ion S   0.501634533169137   0.501189836492953   0.427319640455987 1
ion S   0.751687519467321   0.499705915028413   0.590659745503880 1
ion S   0.752713425954605   0.499214084950350   0.415962532723140 1
ion S   0.003104839629897   0.751806148539148   0.591338093215471 1
ion S   0.002937807493518   0.751765265843376   0.416240258226702 1
ion S   0.250492763076478   0.751751622897255   0.591164615670641 1
ion S   0.250306018488725   0.751756000709922   0.416133263995055 1
ion S   0.502207048911352   0.752128597587677   0.590382251448074 1
ion S   0.503585629078347   0.754623199292710   0.415750770833327 1
ion S   0.751749170702390   0.752392234877910   0.590811618211066 1
ion S   0.752699848599540   0.754163566999776   0.416062581378366 1
ion O   0.507297977210129   0.503040795966340   0.666522757516143 1
ion H   0.428010870850760   0.453149384426799   0.684985479630293 1


# Forces in Lattice coordinates:
force Ta  -0.113093070239888   0.046202847594157   0.011132651528368 1
force Ta   0.111125896946643  -0.076188700665422   0.005423148147356 1
force Ta  -0.064643600200747   0.000649163092834   0.000005576609301 1
force Ta   0.055549170041635  -0.059628152971986   0.006239088377713 1
force Ta   0.007538330837063  -0.003194130160740   0.016258819771966 1
force Ta  -0.003234486795815   0.080108894290466   0.003491642108986 1
force Ta   0.002485806280008  -0.004700791172613   0.000870494591858 1
force Ta  -0.003960417491760   0.059004641011752   0.007830624314053 1
force Ta  -0.068851250233753  -0.047849610444569   0.005171120461255 1
force Ta   0.084773292011182  -0.087455553034296  -0.004795843138324 1
force Ta  -0.094570782224905  -0.002150279818264  -0.011450574375153 1
force Ta   0.071804316735906  -0.114722351998437   0.005527496774149 1
force Ta  -0.006793520565503  -0.000603107079519   0.012752447982345 1
force Ta   0.035827544497149   0.077199281326929   0.007267978745389 1
force Ta  -0.001530750249373   0.003873699245418  -0.000986918634554 1
force Ta  -0.040885124923127   0.112549118377637   0.008275028648158 1
force S   0.004736765445423  -0.007338766560325   0.040239704316117 1
force S   0.014522463619328  -0.010213385650996  -0.041401626624670 1
force S   0.006613628634109   0.005722268536740   0.010868198537498 1
force S   0.004364388073190   0.008384991217435  -0.010663637926365 1
force S  -0.014620129307705  -0.002211404437123   0.048664362995441 1
force S  -0.012480448012952   0.001919787747874  -0.043123318579988 1
force S   0.004414318738635   0.007306195799961   0.011353490806485 1
force S   0.004890368335640   0.001975017371647  -0.017164945730952 1
force S  -0.012482748073453   0.001243970648864   0.014087219807118 1
force S  -0.011902481012642   0.000321761329153  -0.021922334120358 1
force S   0.009098617903197  -0.024479054418205  -0.022417883303028 1
force S   0.009810151786581  -0.018233882058118  -0.043539882340746 1
force S  -0.007721658051988  -0.003754985548893   0.020356739396392 1
force S  -0.009923809690871  -0.005748745003321  -0.028669356155278 1
force S   0.014176967489015  -0.008726916432829   0.015169194170138 1
force S   0.008310848495111  -0.002408384965028  -0.017535517166404 1
force S  -0.001093237303521   0.004772203312097   0.042473914402547 1
force S   0.003062384916014   0.009337626464950  -0.042577994950914 1
force S  -0.016002474405313   0.026717532387117  -0.004319170994159 1
force S  -0.011331522892083   0.018495220595235  -0.040155294768403 1
force S   0.004134279234132  -0.002645252710371   0.126984183068453 1
force S  -0.000358996195191   0.003467344969946  -0.033278375261237 1
force S   0.012697357730170   0.003217342183744   0.027810416985000 1
force S   0.011806176771875   0.006788725409902  -0.026459000946587 1
force S  -0.005736995594097   0.002170364385459   0.005221981680033 1
force S  -0.005636058678860   0.001368745029227  -0.015712245236578 1
force S   0.011764002573464  -0.003166595464455   0.010334017834874 1
force S   0.012465347339861  -0.009035007629449  -0.017549040551706 1
force S  -0.012844578138200   0.009062771100473   0.020303588919449 1
force S  -0.015784972158733   0.008176407292099  -0.031975028957622 1
force S   0.015387239565763  -0.001605137078684   0.024503965325049 1
force S   0.017601489782330  -0.004680950691429  -0.027370686129987 1
force O   0.149697707159831   0.027438636636012  -0.247388746386413 1
force H  -0.147886008033074  -0.026564847574050   0.272791764806414 1

# Energy components:
   A_diel =        0.0030770233149465
   Eewald =     7478.1821641314390945
       EH =     8505.8445927313423454
     Eloc =   -17280.3451112503607874
      Enl =     -220.8097369870823172
      Exc =     -477.3791282424979272
 Exc_core =      252.6476063037131325
       KE =      455.3559471846244833
-------------------------------------
     Etot =    -1286.5005891055077427
       TS =        0.0744580487510006
-------------------------------------
        F =    -1286.5750471542587547

IonicMinimize: Iter:   0  F: -1286.575047154258755  |grad|_K:  1.771e-03  t[s]:   5970.46

#--- Lowdin population analysis ---
# oxidation-state Ta -0.401 -0.400 -0.391 -0.392 -0.411 -0.456 -0.406 -0.391 -0.401 -0.453 -0.446 -0.401 -0.414 -0.400 -0.406 -0.401
# oxidation-state S +0.229 +0.231 +0.263 +0.264 +0.229 +0.230 +0.249 +0.252 +0.249 +0.253 +0.234 +0.263 +0.253 +0.261 +0.249 +0.252 +0.229 +0.231 +0.240 +0.263 +0.861 +0.260 +0.256 +0.261 +0.262 +0.264 +0.263 +0.265 +0.255 +0.262 +0.256 +0.261
# oxidation-state O -0.575
# oxidation-state H +0.465

	Linear fluid (dielectric constant: 78.4, screening length: 5.74355 Bohr) occupying 0.755098 of unit cell:	Completed after 6 iterations at t[s]:   6004.52

-------- Electronic minimization -----------
	Linear fluid (dielectric constant: 78.4, screening length: 5.74355 Bohr) occupying 0.755098 of unit cell:	Completed after 0 iterations at t[s]:   6033.06
	FillingsUpdate:  mu: -0.203881314  nElectrons: 407.000000
ElecMinimize: Iter:   0  F: -1286.575066715275170  |grad|_K:  8.087e-07  alpha:  1.000e+00
	Linear fluid (dielectric constant: 78.4, screening length: 5.74355 Bohr) occupying 0.755099 of unit cell:	Completed after 3 iterations at t[s]:   6095.01
	Linear fluid (dielectric constant: 78.4, screening length: 5.74355 Bohr) occupying 0.755099 of unit cell:	Completed after 2 iterations at t[s]:   6130.33
	FillingsUpdate:  mu: -0.203905983  nElectrons: 407.000000
	SubspaceRotationAdjust: set factor to 0.0542
ElecMinimize: Iter:   1  F: -1286.575130159520540  |grad|_K:  4.609e-07  alpha:  7.066e-01  linmin:  9.839e-05  t[s]:   6168.96
	Linear fluid (dielectric constant: 78.4, screening length: 5.74355 Bohr) occupying 0.755099 of unit cell:	Completed after 3 iterations at t[s]:   6199.46
	Linear fluid (dielectric constant: 78.4, screening length: 5.74355 Bohr) occupying 0.755099 of unit cell:	Completed after 2 iterations at t[s]:   6234.51
	FillingsUpdate:  mu: -0.203956968  nElectrons: 407.000000
	SubspaceRotationAdjust: set factor to 0.0682
ElecMinimize: Iter:   2  F: -1286.575176916796863  |grad|_K:  6.248e-07  alpha:  1.602e+00  linmin: -2.470e-05  t[s]:   6270.46
	Linear fluid (dielectric constant: 78.4, screening length: 5.74355 Bohr) occupying 0.755099 of unit cell:	Completed after 3 iterations at t[s]:   6299.02
	Linear fluid (dielectric constant: 78.4, screening length: 5.74355 Bohr) occupying 0.755099 of unit cell:	Completed after 3 iterations at t[s]:   6332.92
	FillingsUpdate:  mu: -0.204027844  nElectrons: 407.000000
	SubspaceRotationAdjust: set factor to 0.0754
ElecMinimize: Iter:   3  F: -1286.575246060782092  |grad|_K:  7.475e-07  alpha:  1.288e+00  linmin: -6.024e-07  t[s]:   6368.63
	Linear fluid (dielectric constant: 78.4, screening length: 5.74355 Bohr) occupying 0.755096 of unit cell:	Completed after 3 iterations at t[s]:   6396.62
	Linear fluid (dielectric constant: 78.4, screening length: 5.74355 Bohr) occupying 0.755097 of unit cell:	Completed after 2 iterations at t[s]:   6427.02
	FillingsUpdate:  mu: -0.204042578  nElectrons: 407.000000
	SubspaceRotationAdjust: set factor to 0.0796
ElecMinimize: Iter:   4  F: -1286.575319657619048  |grad|_K:  7.356e-07  alpha:  9.600e-01  linmin:  4.327e-06  t[s]:   6464.84
	Linear fluid (dielectric constant: 78.4, screening length: 5.74355 Bohr) occupying 0.755094 of unit cell:	Completed after 3 iterations at t[s]:   6492.93
	Linear fluid (dielectric constant: 78.4, screening length: 5.74355 Bohr) occupying 0.755095 of unit cell:	Completed after 2 iterations at t[s]:   6531.03
	FillingsUpdate:  mu: -0.204036600  nElectrons: 407.000000
	SubspaceRotationAdjust: set factor to 0.0828
ElecMinimize: Iter:   5  F: -1286.575363130554251  |grad|_K:  5.098e-07  alpha:  5.858e-01  linmin:  4.220e-06  t[s]:   6568.65
	Linear fluid (dielectric constant: 78.4, screening length: 5.74355 Bohr) occupying 0.755094 of unit cell:	Completed after 2 iterations at t[s]:   6599.69
	Linear fluid (dielectric constant: 78.4, screening length: 5.74355 Bohr) occupying 0.755094 of unit cell:	Completed after 0 iterations at t[s]:   6629.44
	FillingsUpdate:  mu: -0.204032935  nElectrons: 407.000000
	SubspaceRotationAdjust: set factor to 0.087
ElecMinimize: Iter:   6  F: -1286.575382881826727  |grad|_K:  3.172e-07  alpha:  5.544e-01  linmin:  1.051e-06  t[s]:   6664.15
	Linear fluid (dielectric constant: 78.4, screening length: 5.74355 Bohr) occupying 0.755094 of unit cell:	Completed after 0 iterations at t[s]:   6692.01
	Linear fluid (dielectric constant: 78.4, screening length: 5.74355 Bohr) occupying 0.755094 of unit cell:	Completed after 0 iterations at t[s]:   6722.87
	FillingsUpdate:  mu: -0.204032469  nElectrons: 407.000000
	SubspaceRotationAdjust: set factor to 0.0966
ElecMinimize: Iter:   7  F: -1286.575390654132889  |grad|_K:  2.029e-07  alpha:  5.629e-01  linmin: -5.592e-06  t[s]:   6757.35
	Linear fluid (dielectric constant: 78.4, screening length: 5.74355 Bohr) occupying 0.755095 of unit cell:	Completed after 2 iterations at t[s]:   6784.35
	Linear fluid (dielectric constant: 78.4, screening length: 5.74355 Bohr) occupying 0.755095 of unit cell:	Completed after 0 iterations at t[s]:   6817.55
	FillingsUpdate:  mu: -0.204021965  nElectrons: 407.000000
	SubspaceRotationAdjust: set factor to 0.116
ElecMinimize: Iter:   8  F: -1286.575393611985646  |grad|_K:  1.293e-07  alpha:  5.243e-01  linmin: -4.102e-05  t[s]:   6856.17
	Linear fluid (dielectric constant: 78.4, screening length: 5.74355 Bohr) occupying 0.755096 of unit cell:	Completed after 0 iterations at t[s]:   6889.60
	Linear fluid (dielectric constant: 78.4, screening length: 5.74355 Bohr) occupying 0.755096 of unit cell:	Completed after 0 iterations at t[s]:   6921.35
	FillingsUpdate:  mu: -0.204022167  nElectrons: 407.000000
	SubspaceRotationAdjust: set factor to 0.146
ElecMinimize: Iter:   9  F: -1286.575395372600951  |grad|_K:  1.003e-07  alpha:  7.438e-01  linmin:  1.100e-08  t[s]:   6956.48
	Linear fluid (dielectric constant: 78.4, screening length: 5.74355 Bohr) occupying 0.755097 of unit cell:	Completed after 2 iterations at t[s]:   6986.49
	Linear fluid (dielectric constant: 78.4, screening length: 5.74355 Bohr) occupying 0.755097 of unit cell:	Completed after 0 iterations at t[s]:   7018.89
	FillingsUpdate:  mu: -0.203995278  nElectrons: 407.000000
	SubspaceRotationAdjust: set factor to 0.174
ElecMinimize: Iter:  10  F: -1286.575395913195734  |grad|_K:  8.828e-08  alpha:  4.763e-01  linmin: -2.189e-05  t[s]:   7055.98
	Linear fluid (dielectric constant: 78.4, screening length: 5.74355 Bohr) occupying 0.755098 of unit cell:	Completed after 1 iterations at t[s]:   7081.80
	Linear fluid (dielectric constant: 78.4, screening length: 5.74355 Bohr) occupying 0.755098 of unit cell:	Completed after 0 iterations at t[s]:   7113.13
	FillingsUpdate:  mu: -0.203991323  nElectrons: 407.000000
	SubspaceRotationAdjust: set factor to 0.215
ElecMinimize: Iter:  11  F: -1286.575396442169222  |grad|_K:  6.844e-08  alpha:  4.687e-01  linmin: -2.669e-05  t[s]:   7154.35
	Linear fluid (dielectric constant: 78.4, screening length: 5.74355 Bohr) occupying 0.755098 of unit cell:	Completed after 1 iterations at t[s]:   7181.09
	Linear fluid (dielectric constant: 78.4, screening length: 5.74355 Bohr) occupying 0.755098 of unit cell:	Completed after 0 iterations at t[s]:   7212.89
	FillingsUpdate:  mu: -0.203992762  nElectrons: 407.000000
	SubspaceRotationAdjust: set factor to 0.258
ElecMinimize: Iter:  12  F: -1286.575396767773100  |grad|_K:  5.445e-08  alpha:  4.604e-01  linmin: -2.711e-05  t[s]:   7250.47
	Linear fluid (dielectric constant: 78.4, screening length: 5.74355 Bohr) occupying 0.755098 of unit cell:	Completed after 0 iterations at t[s]:   7280.81
	Linear fluid (dielectric constant: 78.4, screening length: 5.74355 Bohr) occupying 0.755098 of unit cell:	Completed after 0 iterations at t[s]:   7314.66
	FillingsUpdate:  mu: -0.203990665  nElectrons: 407.000000
	SubspaceRotationAdjust: set factor to 0.306
ElecMinimize: Iter:  13  F: -1286.575397031630928  |grad|_K:  4.389e-08  alpha:  5.446e-01  linmin: -1.653e-05  t[s]:   7352.30
	Linear fluid (dielectric constant: 78.4, screening length: 5.74355 Bohr) occupying 0.755099 of unit cell:	Completed after 2 iterations at t[s]:   7380.58
	Linear fluid (dielectric constant: 78.4, screening length: 5.74355 Bohr) occupying 0.755099 of unit cell:	Completed after 0 iterations at t[s]:   7415.43
	FillingsUpdate:  mu: -0.203982151  nElectrons: 407.000000
	SubspaceRotationAdjust: set factor to 0.308
ElecMinimize: Iter:  14  F: -1286.575397055666599  |grad|_K:  4.386e-08  alpha:  2.752e-01  linmin: -1.258e-05  t[s]:   7449.38
	Linear fluid (dielectric constant: 78.4, screening length: 5.74355 Bohr) occupying 0.755099 of unit cell:	Completed after 0 iterations at t[s]:   7472.23
	Linear fluid (dielectric constant: 78.4, screening length: 5.74355 Bohr) occupying 0.755099 of unit cell:	Completed after 0 iterations at t[s]:   7504.22
	FillingsUpdate:  mu: -0.203981874  nElectrons: 407.000000
	SubspaceRotationAdjust: set factor to 0.426
	SubspaceRotationAdjust: resetting CG because factor has changed by 7.84789
	Linear fluid (dielectric constant: 78.4, screening length: 5.74355 Bohr) occupying 0.755099 of unit cell:	Completed after 0 iterations at t[s]:   7559.72
ElecMinimize: 	State modified externally: resetting search direction.
ElecMinimize: Iter:  15  F: -1286.575397159499062  |grad|_K:  4.663e-08  alpha:  3.464e-01
	Linear fluid (dielectric constant: 78.4, screening length: 5.74355 Bohr) occupying 0.755098 of unit cell:	Completed after 3 iterations at t[s]:   7630.05
	Linear fluid (dielectric constant: 78.4, screening length: 5.74355 Bohr) occupying 0.755099 of unit cell:	Completed after 0 iterations at t[s]:   7662.11
ElecMinimize: 	Step increased F by 5.986067e-09, reducing alpha to 1.170632e-02.
	Linear fluid (dielectric constant: 78.4, screening length: 5.74355 Bohr) occupying 0.755099 of unit cell:	Completed after 0 iterations at t[s]:   7722.10
	FillingsUpdate:  mu: -0.203987961  nElectrons: 407.000000
	SubspaceRotationAdjust: set factor to 0.281
ElecMinimize: Iter:  16  F: -1286.575397179851961  |grad|_K:  7.782e-08  alpha:  1.171e-02  linmin:  7.511e-05  t[s]:   7761.10
	Linear fluid (dielectric constant: 78.4, screening length: 5.74355 Bohr) occupying 0.755099 of unit cell:	Completed after 0 iterations at t[s]:   7787.69
ElecMinimize: 	Predicted alpha/alphaT>3.000000, increasing alphaT to 3.511895e-02.
	Linear fluid (dielectric constant: 78.4, screening length: 5.74355 Bohr) occupying 0.755099 of unit cell:	Completed after 0 iterations at t[s]:   7820.10
	Linear fluid (dielectric constant: 78.4, screening length: 5.74355 Bohr) occupying 0.755098 of unit cell:	Completed after 0 iterations at t[s]:   7855.32
	FillingsUpdate:  mu: -0.203987853  nElectrons: 407.000000
	SubspaceRotationAdjust: set factor to 0.169
ElecMinimize: Iter:  17  F: -1286.575397228592465  |grad|_K:  6.029e-08  alpha:  8.807e-02  linmin: -4.236e-07  t[s]:   7889.65
	Linear fluid (dielectric constant: 78.4, screening length: 5.74355 Bohr) occupying 0.755098 of unit cell:	Completed after 0 iterations at t[s]:   7914.10
	Linear fluid (dielectric constant: 78.4, screening length: 5.74355 Bohr) occupying 0.755098 of unit cell:	Completed after 1 iterations at t[s]:   7952.69
ElecMinimize: 	Step increased F by 1.414774e-07, reducing alpha to 2.389026e-02.
	Linear fluid (dielectric constant: 78.4, screening length: 5.74355 Bohr) occupying 0.755098 of unit cell:	Completed after 1 iterations at t[s]:   8010.50
ElecMinimize: 	Step increased F by 2.899310e-08, reducing alpha to 2.389026e-03.
	Linear fluid (dielectric constant: 78.4, screening length: 5.74355 Bohr) occupying 0.755098 of unit cell:	Completed after 0 iterations at t[s]:   8070.30
ElecMinimize: 	Step increased F by 2.735169e-08, reducing alpha to 2.389026e-04.
ElecMinimize: 	Step failed to reduce F after 3 attempts. Quitting step.
ElecMinimize: 	Undoing step.
	Linear fluid (dielectric constant: 78.4, screening length: 5.74355 Bohr) occupying 0.755098 of unit cell:	Completed after 0 iterations at t[s]:   8130.55
ElecMinimize: 	Step failed: resetting search direction.
	FillingsUpdate:  mu: -0.203984699  nElectrons: 407.000000
	SubspaceRotationAdjust: set factor to 0.0782
ElecMinimize: Iter:  18  F: -1286.575397201261922  |grad|_K:  1.780e-08  alpha:  2.389e-04
	Linear fluid (dielectric constant: 78.4, screening length: 5.74355 Bohr) occupying 0.755098 of unit cell:	Completed after 0 iterations at t[s]:   8194.83
ElecMinimize: 	Predicted alpha/alphaT>3.000000, increasing alphaT to 2.642171e-01.
	Linear fluid (dielectric constant: 78.4, screening length: 5.74355 Bohr) occupying 0.755098 of unit cell:	Completed after 0 iterations at t[s]:   8228.86
	Linear fluid (dielectric constant: 78.4, screening length: 5.74355 Bohr) occupying 0.755098 of unit cell:	Completed after 0 iterations at t[s]:   8261.06
	FillingsUpdate:  mu: -0.203984653  nElectrons: 407.000000
	SubspaceRotationAdjust: set factor to 0.0937
ElecMinimize: Iter:  19  F: -1286.575397229470354  |grad|_K:  1.821e-08  alpha:  6.470e-01  linmin: -7.359e-07  t[s]:   8292.46
	Linear fluid (dielectric constant: 78.4, screening length: 5.74355 Bohr) occupying 0.755098 of unit cell:	Completed after 0 iterations at t[s]:   8317.20
	Linear fluid (dielectric constant: 78.4, screening length: 5.74355 Bohr) occupying 0.755098 of unit cell:	Completed after 0 iterations at t[s]:   8349.46
	FillingsUpdate:  mu: -0.203984584  nElectrons: 407.000000
	SubspaceRotationAdjust: set factor to 0.111
ElecMinimize: Iter:  20  F: -1286.575397264756475  |grad|_K:  1.187e-08  alpha:  7.724e-01  linmin: -6.006e-08  t[s]:   8384.67
	Linear fluid (dielectric constant: 78.4, screening length: 5.74355 Bohr) occupying 0.755098 of unit cell:	Completed after 1 iterations at t[s]:   8398.35
	Linear fluid (dielectric constant: 78.4, screening length: 5.74355 Bohr) occupying 0.755098 of unit cell:	Completed after 0 iterations at t[s]:   8418.12
ElecMinimize: 	Step increased F by 1.721230e-07, reducing alpha to 3.898107e-03.
	Linear fluid (dielectric constant: 78.4, screening length: 5.74355 Bohr) occupying 0.755098 of unit cell:	Completed after 0 iterations at t[s]:   8449.42
ElecMinimize: 	Step increased F by 1.683159e-07, reducing alpha to 3.898107e-04.
	Linear fluid (dielectric constant: 78.4, screening length: 5.74355 Bohr) occupying 0.755098 of unit cell:	Completed after 0 iterations at t[s]:   8483.47
ElecMinimize: 	Step increased F by 1.679132e-07, reducing alpha to 3.898107e-05.
ElecMinimize: 	Step failed to reduce F after 3 attempts. Quitting step.
ElecMinimize: 	Undoing step.
	Linear fluid (dielectric constant: 78.4, screening length: 5.74355 Bohr) occupying 0.755098 of unit cell:	Completed after 0 iterations at t[s]:   8519.56
ElecMinimize: 	Step failed: resetting search direction.
	FillingsUpdate:  mu: -0.203982205  nElectrons: 407.000000
	SubspaceRotationAdjust: set factor to 0.0907
ElecMinimize: Iter:  21  F: -1286.575397096829874  |grad|_K:  5.435e-08  alpha:  3.898e-05
	Linear fluid (dielectric constant: 78.4, screening length: 5.74355 Bohr) occupying 0.755098 of unit cell:	Completed after 3 iterations at t[s]:   8557.90
	Linear fluid (dielectric constant: 78.4, screening length: 5.74355 Bohr) occupying 0.755098 of unit cell:	Completed after 0 iterations at t[s]:   8576.36
	FillingsUpdate:  mu: -0.203983677  nElectrons: 407.000000
	SubspaceRotationAdjust: set factor to 0.0467
	SubspaceRotationAdjust: resetting CG because factor has changed by 0.109515
	Linear fluid (dielectric constant: 78.4, screening length: 5.74355 Bohr) occupying 0.755098 of unit cell:	Completed after 0 iterations at t[s]:   8609.03
ElecMinimize: 	State modified externally: resetting search direction.
ElecMinimize: Iter:  22  F: -1286.575397319663125  |grad|_K:  3.096e-08  alpha:  3.860e-01
	Linear fluid (dielectric constant: 78.4, screening length: 5.74355 Bohr) occupying 0.755098 of unit cell:	Completed after 1 iterations at t[s]:   8640.98
	Linear fluid (dielectric constant: 78.4, screening length: 5.74355 Bohr) occupying 0.755098 of unit cell:	Completed after 0 iterations at t[s]:   8660.99
ElecMinimize: 	Step increased F by 7.983977e-08, reducing alpha to 9.857452e-03.
	Linear fluid (dielectric constant: 78.4, screening length: 5.74355 Bohr) occupying 0.755098 of unit cell:	Completed after 0 iterations at t[s]:   8692.98
ElecMinimize: 	Step increased F by 7.814333e-08, reducing alpha to 9.857452e-04.
	Linear fluid (dielectric constant: 78.4, screening length: 5.74355 Bohr) occupying 0.755098 of unit cell:	Completed after 0 iterations at t[s]:   8726.64
ElecMinimize: 	Step increased F by 7.806057e-08, reducing alpha to 9.857452e-05.
ElecMinimize: 	Step failed to reduce F after 3 attempts. Quitting step.
ElecMinimize: 	Undoing step.
	Linear fluid (dielectric constant: 78.4, screening length: 5.74355 Bohr) occupying 0.755098 of unit cell:	Completed after 0 iterations at t[s]:   8755.73
ElecMinimize: 	Step failed along negative gradient direction.
ElecMinimize: Probably at roundoff error limit. (Stopping)
Setting wave functions to eigenvectors of Hamiltonian

# Ionic positions in lattice coordinates:
ion Ta   0.171358068412100   0.083818310216643   0.503537263674936 1
ion Ta   0.414251828671729   0.083901587060576   0.503278596220655 1
ion Ta   0.669873166465628   0.085157143296940   0.504176254115376 1
ion Ta   0.917300766668339   0.085120230188343   0.504281239948536 1
ion Ta   0.167350337930545   0.334006404915596   0.503100667790558 1
ion Ta   0.410475864419175   0.319145210152546   0.501379195000368 1
ion Ta   0.668354781547861   0.334136397099167   0.503293621824796 1
ion Ta   0.917322230887930   0.332752125671743   0.504218952153676 1
ion Ta   0.171408816772752   0.588118812207639   0.503686906856735 1
ion Ta   0.410387460050947   0.591879103877029   0.501640203785886 1
ion Ta   0.683134779739199   0.591896419408538   0.502521986402454 1
ion Ta   0.918291494712108   0.588140467640968   0.503779569595131 1
ion Ta   0.168072007850943   0.834340931461092   0.503677680793899 1
ion Ta   0.414272749315762   0.830835769152987   0.503526546916886 1
ion Ta   0.668330494944869   0.834714686058932   0.503559720289669 1
ion Ta   0.918349361948465   0.830808126551079   0.503800321711505 1
ion S   0.001931500911616   0.000739985200457   0.588778522018581 1
ion S   0.001083589643768   0.000761366894001   0.419068108041628 1
ion S   0.250617611137608   0.999424640026791   0.591034126043939 1
ion S   0.250184671622100   0.999057413495992   0.415936835934326 1
ion S   0.500806009610797   0.000773824007283   0.588463244053569 1
ion S   0.501617202096147   0.000940362905471   0.418891010902274 1
ion S   0.750951014038793   0.000125983273147   0.590808581132956 1
ion S   0.751581895727228   0.001258212565788   0.417361089250158 1
ion S   0.002468318930923   0.251534953513484   0.590667267096905 1
ion S   0.000842623082923   0.250692619249275   0.417205293961426 1
ion S   0.250291691031393   0.250963491336680   0.590438807684506 1
ion S   0.247526681429549   0.249265370278504   0.415679792466503 1
ion S   0.502241931558941   0.250424273258041   0.590108667290998 1
ion S   0.503569936142629   0.249436509021706   0.415453088593595 1
ion S   0.750884791128094   0.251435079139838   0.590652414154330 1
ion S   0.751599349956724   0.250744511437046   0.417255149002221 1
ion S   0.001804596931445   0.501751753014191   0.588764599974561 1
ion S   0.001208698334353   0.501017691977679   0.419106689964362 1
ion S   0.250126281127067   0.499767820848409   0.590468598533395 1
ion S   0.247671498411819   0.499014383055043   0.415725114581226 1
ion S   0.501543154221718   0.500662506036648   0.575820136387841 1
ion S   0.501637199362157   0.501196635766538   0.427290763646544 1
ion S   0.751717393358398   0.499725923644710   0.590682909535406 1
ion S   0.752745181905252   0.499240670266574   0.415939465260407 1
ion S   0.003094826026937   0.751804561269427   0.591342014418219 1
ion S   0.002927162955197   0.751762098144477   0.416226345801812 1
ion S   0.250513957243684   0.751757217749013   0.591172891758316 1
ion S   0.250322514692872   0.751749986180715   0.416117786825318 1
ion S   0.502189331729116   0.752134034799012   0.590399020498930 1
ion S   0.503560792817741   0.754623678275968   0.415723004329641 1
ion S   0.751779630859516   0.752404926717944   0.590831965514373 1
ion S   0.752731731790122   0.754172116699051   0.416038737261489 1
ion O   0.507641582164042   0.503255891502596   0.666311482538989 1
ion H   0.427671544680992   0.452937796488663   0.685217340460257 1


# Forces in Lattice coordinates:
force Ta  -0.095675098250396   0.039497800770146   0.006967683991488 1
force Ta   0.093207476414857  -0.061875826673988   0.004294796711188 1
force Ta  -0.053311780802866   0.000651136799408  -0.000632553566548 1
force Ta   0.046740755400774  -0.049283314091369   0.003872545925862 1
force Ta   0.005496642672938  -0.002263236867384   0.009593829168804 1
force Ta  -0.002554446790808   0.069384151081208   0.001405307082571 1
force Ta   0.002846922597506  -0.003677737104138   0.000544830628883 1
force Ta  -0.002560751946259   0.048935855329095   0.005308788381615 1
force Ta  -0.057889590433411  -0.040929163483205   0.002444683708079 1
force Ta   0.072712189224238  -0.075069325142106  -0.004731041712583 1
force Ta  -0.080208801736601  -0.001697825434579  -0.009122615452045 1
force Ta   0.059686616359805  -0.096825709160841   0.004380403890963 1
force Ta  -0.006110709222702  -0.000751361486346   0.009600491583314 1
force Ta   0.031894556066400   0.062834818432558   0.005361209001527 1
force Ta  -0.000430230057276   0.003017209376912  -0.001259669611958 1
force Ta  -0.035610852821752   0.094890166112047   0.006343338671620 1
force S   0.003484420635492  -0.005842590132385   0.045865313117827 1
force S   0.012447881373903  -0.008466876160967  -0.044832805109886 1
force S   0.005726577852753   0.008085029185302   0.000867034731540 1
force S   0.003785346526536   0.010323659253918   0.001847849863460 1
force S  -0.012334896129821  -0.001972553134810   0.054297462425603 1
force S  -0.010414757029414   0.001729626925292  -0.048223323352903 1
force S   0.003551791851690   0.008274942547270   0.005804747061673 1
force S   0.004236659175016   0.003551613529815  -0.010222391821245 1
force S  -0.012511861127126   0.000997041868768   0.008128113906275 1
force S  -0.011993244621746   0.000265037731149  -0.012447698848727 1
force S   0.009562569403456  -0.021691789428882  -0.021549553582346 1
force S   0.010500297293292  -0.016687671734673  -0.034100336062381 1
force S  -0.008541116935411  -0.001823846064347   0.014762458052813 1
force S  -0.010920388013671  -0.003816800778784  -0.020511689206002 1
force S   0.014045045943718  -0.009675704464745   0.009483910627342 1
force S   0.009063102844004  -0.003886676048949  -0.010623360720685 1
force S  -0.000939405912436   0.003530467100473   0.047540237343355 1
force S   0.002802448132636   0.007492619683373  -0.046068474671465 1
force S  -0.012515446747466   0.023902398345807  -0.006995043474288 1
force S  -0.008745363498059   0.016654794733457  -0.030460884542959 1
force S   0.004801920976996  -0.001856971658910   0.060454074962310 1
force S  -0.001102629834304   0.002684427322179  -0.041425169384533 1
force S   0.009075702768875   0.005065668719505   0.019779487433120 1
force S   0.009401930342397   0.007606239229195  -0.017812622845489 1
force S  -0.008216510989040   0.001797186378760  -0.005043400783367 1
force S  -0.007954534610650   0.001170978034061  -0.002061436387596 1
force S   0.013371130891548  -0.006043353621220  -0.000245868041407 1
force S   0.013910698633671  -0.011009746005251  -0.004065911080760 1
force S  -0.011514093352029   0.006238411905227   0.013922045431589 1
force S  -0.014917896870574   0.006061804759528  -0.023245255336035 1
force S   0.013581784487100  -0.003649934209854   0.016764357942750 1
force S   0.016304927981366  -0.005898673001295  -0.018477761669669 1
force O  -0.025744370067503  -0.006416646639385  -0.067071070763475 1
force H   0.026417257032634   0.006452010418342   0.164157080890832 1

# Energy components:
   A_diel =        0.0028119887497177
   Eewald =     7477.8479833160281487
       EH =     8505.5543020796703786
     Eloc =   -17279.7095557984939660
      Enl =     -220.8090916134503914
      Exc =     -477.3716742210667690
 Exc_core =      252.6476033632647784
       KE =      455.3370872813848109
-------------------------------------
     Etot =    -1286.5005336039137092
       TS =        0.0748636376459745
-------------------------------------
        F =    -1286.5753972415595854

IonicMinimize: Iter:   1  F: -1286.575397241559585  |grad|_K:  1.157e-03  alpha:  1.000e+00  linmin: -7.560e-01  t[s]:   8789.69

#--- Lowdin population analysis ---
# oxidation-state Ta -0.401 -0.401 -0.392 -0.391 -0.410 -0.456 -0.405 -0.391 -0.401 -0.453 -0.446 -0.401 -0.414 -0.400 -0.406 -0.401
# oxidation-state S +0.230 +0.232 +0.262 +0.263 +0.230 +0.231 +0.248 +0.251 +0.249 +0.252 +0.234 +0.262 +0.253 +0.261 +0.249 +0.251 +0.230 +0.232 +0.240 +0.262 +0.866 +0.262 +0.256 +0.260 +0.261 +0.263 +0.262 +0.263 +0.254 +0.261 +0.255 +0.260
# oxidation-state O -0.573
# oxidation-state H +0.464

	Linear fluid (dielectric constant: 78.4, screening length: 5.74355 Bohr) occupying 0.755045 of unit cell:	Completed after 8 iterations at t[s]:   8809.84

-------- Electronic minimization -----------
	Linear fluid (dielectric constant: 78.4, screening length: 5.74355 Bohr) occupying 0.755045 of unit cell:	Completed after 0 iterations at t[s]:   8826.91
	FillingsUpdate:  mu: -0.203679867  nElectrons: 407.000000
ElecMinimize: Iter:   0  F: -1286.574632625445247  |grad|_K:  1.288e-06  alpha:  1.000e+00
	Linear fluid (dielectric constant: 78.4, screening length: 5.74355 Bohr) occupying 0.755049 of unit cell:	Completed after 4 iterations at t[s]:   8864.11
	Linear fluid (dielectric constant: 78.4, screening length: 5.74355 Bohr) occupying 0.755048 of unit cell:	Completed after 2 iterations at t[s]:   8883.17
	FillingsUpdate:  mu: -0.203798999  nElectrons: 407.000000
	SubspaceRotationAdjust: set factor to 0.0473
ElecMinimize: Iter:   1  F: -1286.574823348564678  |grad|_K:  8.403e-07  alpha:  8.380e-01  linmin:  3.997e-05  t[s]:   8906.03
	Linear fluid (dielectric constant: 78.4, screening length: 5.74355 Bohr) occupying 0.755050 of unit cell:	Completed after 3 iterations at t[s]:   8920.61
	Linear fluid (dielectric constant: 78.4, screening length: 5.74355 Bohr) occupying 0.755051 of unit cell:	Completed after 3 iterations at t[s]:   8938.28
	FillingsUpdate:  mu: -0.203894014  nElectrons: 407.000000
	SubspaceRotationAdjust: set factor to 0.0576
ElecMinimize: Iter:   2  F: -1286.575000130372473  |grad|_K:  1.220e-06  alpha:  1.825e+00  linmin: -2.567e-08  t[s]:   8959.51
	Linear fluid (dielectric constant: 78.4, screening length: 5.74355 Bohr) occupying 0.755052 of unit cell:	Completed after 4 iterations at t[s]:   8976.12
	Linear fluid (dielectric constant: 78.4, screening length: 5.74355 Bohr) occupying 0.755052 of unit cell:	Completed after 2 iterations at t[s]:   8995.24
	FillingsUpdate:  mu: -0.204001360  nElectrons: 407.000000
	SubspaceRotationAdjust: set factor to 0.0628
ElecMinimize: Iter:   3  F: -1286.575260453880901  |grad|_K:  1.477e-06  alpha:  1.274e+00  linmin:  1.622e-06  t[s]:   9017.25
	Linear fluid (dielectric constant: 78.4, screening length: 5.74355 Bohr) occupying 0.755050 of unit cell:	Completed after 4 iterations at t[s]:   9033.98
	Linear fluid (dielectric constant: 78.4, screening length: 5.74355 Bohr) occupying 0.755050 of unit cell:	Completed after 2 iterations at t[s]:   9053.77
	FillingsUpdate:  mu: -0.204017323  nElectrons: 407.000000
	SubspaceRotationAdjust: set factor to 0.066
ElecMinimize: Iter:   4  F: -1286.575542020153762  |grad|_K:  1.367e-06  alpha:  9.405e-01  linmin:  1.874e-06  t[s]:   9075.33
	Linear fluid (dielectric constant: 78.4, screening length: 5.74355 Bohr) occupying 0.755047 of unit cell:	Completed after 3 iterations at t[s]:   9091.67
	Linear fluid (dielectric constant: 78.4, screening length: 5.74355 Bohr) occupying 0.755048 of unit cell:	Completed after 3 iterations at t[s]:   9112.88
	FillingsUpdate:  mu: -0.204010518  nElectrons: 407.000000
	SubspaceRotationAdjust: set factor to 0.068
ElecMinimize: Iter:   5  F: -1286.575701689803054  |grad|_K:  1.016e-06  alpha:  6.228e-01  linmin:  3.374e-06  t[s]:   9132.86
	Linear fluid (dielectric constant: 78.4, screening length: 5.74355 Bohr) occupying 0.755048 of unit cell:	Completed after 2 iterations at t[s]:   9150.36
	Linear fluid (dielectric constant: 78.4, screening length: 5.74355 Bohr) occupying 0.755048 of unit cell:	Completed after 0 iterations at t[s]:   9169.87
	FillingsUpdate:  mu: -0.204016730  nElectrons: 407.000000
	SubspaceRotationAdjust: set factor to 0.0704
ElecMinimize: Iter:   6  F: -1286.575778241015769  |grad|_K:  6.528e-07  alpha:  5.400e-01  linmin:  3.017e-05  t[s]:   9190.34
	Linear fluid (dielectric constant: 78.4, screening length: 5.74355 Bohr) occupying 0.755049 of unit cell:	Completed after 2 iterations at t[s]:   9204.96
	Linear fluid (dielectric constant: 78.4, screening length: 5.74355 Bohr) occupying 0.755049 of unit cell:	Completed after 0 iterations at t[s]:   9221.87
	FillingsUpdate:  mu: -0.204014936  nElectrons: 407.000000
	SubspaceRotationAdjust: set factor to 0.0756
ElecMinimize: Iter:   7  F: -1286.575811719688545  |grad|_K:  4.094e-07  alpha:  5.740e-01  linmin: -1.452e-05  t[s]:   9242.17
	Linear fluid (dielectric constant: 78.4, screening length: 5.74355 Bohr) occupying 0.755051 of unit cell:	Completed after 1 iterations at t[s]:   9257.90
	Linear fluid (dielectric constant: 78.4, screening length: 5.74355 Bohr) occupying 0.755051 of unit cell:	Completed after 0 iterations at t[s]:   9275.73
	FillingsUpdate:  mu: -0.204003024  nElectrons: 407.000000
	SubspaceRotationAdjust: set factor to 0.0873
[...]
force S   0.001109178400401   0.000169372874667   0.008746607967706 1
force S   0.002561646530460  -0.001342098641901   0.002826356452078 1
force S  -0.002228604616185   0.000087857051993   0.002350551168266 1
force S   0.002011516269063   0.000508997539623  -0.002510439241807 1
force S  -0.000275974090551   0.001807072104479  -0.000377763045379 1
force S  -0.003556842318320   0.003996006411625  -0.007533356088077 1
force S  -0.003020898741590  -0.000463505305363   0.000214601526189 1
force S  -0.001000651439315  -0.000026897198240  -0.005655837198411 1
force S   0.001223114016839  -0.002278445117496   0.002435716367279 1
force S   0.002663890600710  -0.003112742668020   0.003456357108018 1
force S   0.004205141481124  -0.002780959734553   0.003352460103109 1
force S  -0.001177442769508  -0.002842312889388  -0.000486468261446 1
force S   0.001035661554537  -0.002187534526920   0.000189509624494 1
force S   0.000781452460500  -0.004277598100014  -0.007915723045554 1
force O  -0.024522323680127  -0.003738376814671   0.010863994494098 1
force H   0.016667056173367   0.006909150733626  -0.021028729448636 1

# Energy components:
   A_diel =       -0.0004354993918091
   Eewald =     7472.5110719470294498
       EH =     8500.7061600271717907
     Eloc =   -17269.4825446995819220
      Enl =     -220.7981177330856610
      Exc =     -477.3420330142083117
 Exc_core =      252.6476106428120545
       KE =      455.2594967993373416
-------------------------------------
     Etot =    -1286.4987915299170709
       TS =        0.0784947670625014
-------------------------------------
        F =    -1286.5772862969795369

IonicMinimize: Iter:  19  F: -1286.577286296979537  |grad|_K:  1.777e-04  alpha:  1.000e+00  linmin:  1.415e-01  t[s]:  32507.79

#--- Lowdin population analysis ---
# oxidation-state Ta -0.401 -0.401 -0.393 -0.393 -0.408 -0.455 -0.405 -0.393 -0.401 -0.453 -0.443 -0.402 -0.405 -0.401 -0.405 -0.402
# oxidation-state S +0.237 +0.238 +0.256 +0.256 +0.237 +0.237 +0.247 +0.249 +0.247 +0.248 +0.242 +0.257 +0.250 +0.258 +0.247 +0.249 +0.237 +0.238 +0.244 +0.257 +0.867 +0.272 +0.253 +0.257 +0.255 +0.257 +0.256 +0.256 +0.251 +0.258 +0.253 +0.257
# oxidation-state O -0.577
# oxidation-state H +0.482

	Linear fluid (dielectric constant: 78.4, screening length: 5.74355 Bohr) occupying 0.754824 of unit cell:	Completed after 10 iterations at t[s]:  32526.78

-------- Electronic minimization -----------
	Linear fluid (dielectric constant: 78.4, screening length: 5.74355 Bohr) occupying 0.754824 of unit cell:	Completed after 0 iterations at t[s]:  32540.23
	FillingsUpdate:  mu: -0.203692543  nElectrons: 407.000000
ElecMinimize: Iter:   0  F: -1286.573679295657485  |grad|_K:  6.545e-06  alpha:  1.000e+00
	Linear fluid (dielectric constant: 78.4, screening length: 5.74355 Bohr) occupying 0.754831 of unit cell:	Completed after 11 iterations at t[s]:  32574.92
	Linear fluid (dielectric constant: 78.4, screening length: 5.74355 Bohr) occupying 0.754827 of unit cell:	Completed after 10 iterations at t[s]:  32592.17
	FillingsUpdate:  mu: -0.203538268  nElectrons: 407.000000
	SubspaceRotationAdjust: set factor to 0.204
ElecMinimize: Iter:   1  F: -1286.576785834068232  |grad|_K:  1.722e-06  alpha:  5.286e-01  linmin:  2.567e-05  t[s]:  32609.43
	Linear fluid (dielectric constant: 78.4, screening length: 5.74355 Bohr) occupying 0.754830 of unit cell:	Completed after 8 iterations at t[s]:  32625.00
	Linear fluid (dielectric constant: 78.4, screening length: 5.74355 Bohr) occupying 0.754830 of unit cell:	Completed after 3 iterations at t[s]:  32640.34
	FillingsUpdate:  mu: -0.203453042  nElectrons: 407.000000
	SubspaceRotationAdjust: set factor to 0.21
ElecMinimize: Iter:   2  F: -1286.577028090461681  |grad|_K:  9.949e-07  alpha:  5.952e-01  linmin: -4.742e-05  t[s]:  32656.33
	Linear fluid (dielectric constant: 78.4, screening length: 5.74355 Bohr) occupying 0.754832 of unit cell:	Completed after 6 iterations at t[s]:  32669.06
	Linear fluid (dielectric constant: 78.4, screening length: 5.74355 Bohr) occupying 0.754833 of unit cell:	Completed after 4 iterations at t[s]:  32685.76
	FillingsUpdate:  mu: -0.203438428  nElectrons: 407.000000
	SubspaceRotationAdjust: set factor to 0.262
ElecMinimize: Iter:   3  F: -1286.577147656747456  |grad|_K:  8.802e-07  alpha:  8.810e-01  linmin:  4.280e-05  t[s]:  32702.28
	Linear fluid (dielectric constant: 78.4, screening length: 5.74355 Bohr) occupying 0.754835 of unit cell:	Completed after 5 iterations at t[s]:  32713.14
	Linear fluid (dielectric constant: 78.4, screening length: 5.74355 Bohr) occupying 0.754835 of unit cell:	Completed after 1 iterations at t[s]:  32729.42
	FillingsUpdate:  mu: -0.203414160  nElectrons: 407.000000
	SubspaceRotationAdjust: set factor to 0.312
ElecMinimize: Iter:   4  F: -1286.577234553449671  |grad|_K:  6.428e-07  alpha:  8.204e-01  linmin:  6.667e-05  t[s]:  32744.70
	Linear fluid (dielectric constant: 78.4, screening length: 5.74355 Bohr) occupying 0.754833 of unit cell:	Completed after 3 iterations at t[s]:  32756.46
	Linear fluid (dielectric constant: 78.4, screening length: 5.74355 Bohr) occupying 0.754834 of unit cell:	Completed after 1 iterations at t[s]:  32770.40
	FillingsUpdate:  mu: -0.203448193  nElectrons: 407.000000
	SubspaceRotationAdjust: set factor to 0.353
ElecMinimize: Iter:   5  F: -1286.577273021139035  |grad|_K:  4.537e-07  alpha:  6.829e-01  linmin:  5.747e-05  t[s]:  32785.57
	Linear fluid (dielectric constant: 78.4, screening length: 5.74355 Bohr) occupying 0.754832 of unit cell:	Completed after 3 iterations at t[s]:  32798.18
	Linear fluid (dielectric constant: 78.4, screening length: 5.74355 Bohr) occupying 0.754832 of unit cell:	Completed after 0 iterations at t[s]:  32812.48
	FillingsUpdate:  mu: -0.203461280  nElectrons: 407.000000
	SubspaceRotationAdjust: set factor to 0.371
ElecMinimize: Iter:   6  F: -1286.577287943650617  |grad|_K:  2.650e-07  alpha:  5.302e-01  linmin:  1.637e-04  t[s]:  32827.78
	Linear fluid (dielectric constant: 78.4, screening length: 5.74355 Bohr) occupying 0.754831 of unit cell:	Completed after 3 iterations at t[s]:  32839.20
	Linear fluid (dielectric constant: 78.4, screening length: 5.74355 Bohr) occupying 0.754831 of unit cell:	Completed after 0 iterations at t[s]:  32853.26
	FillingsUpdate:  mu: -0.203459658  nElectrons: 407.000000
	SubspaceRotationAdjust: set factor to 0.303
ElecMinimize: Iter:   7  F: -1286.577292339207361  |grad|_K:  2.000e-07  alpha:  4.639e-01  linmin:  1.077e-04  t[s]:  32868.87
	Linear fluid (dielectric constant: 78.4, screening length: 5.74355 Bohr) occupying 0.754830 of unit cell:	Completed after 3 iterations at t[s]:  32883.80
	Linear fluid (dielectric constant: 78.4, screening length: 5.74355 Bohr) occupying 0.754831 of unit cell:	Completed after 2 iterations at t[s]:  32899.79
	FillingsUpdate:  mu: -0.203472654  nElectrons: 407.000000
	SubspaceRotationAdjust: set factor to 0.189
ElecMinimize: Iter:   8  F: -1286.577294022172737  |grad|_K:  1.327e-07  alpha:  3.223e-01  linmin:  4.203e-04  t[s]:  32915.64
	Linear fluid (dielectric constant: 78.4, screening length: 5.74355 Bohr) occupying 0.754830 of unit cell:	Completed after 0 iterations at t[s]:  32926.78
	Linear fluid (dielectric constant: 78.4, screening length: 5.74355 Bohr) occupying 0.754830 of unit cell:	Completed after 2 iterations at t[s]:  32941.28
	FillingsUpdate:  mu: -0.203469171  nElectrons: 407.000000
	SubspaceRotationAdjust: set factor to 0.236
ElecMinimize: Iter:   9  F: -1286.577294967509033  |grad|_K:  7.847e-08  alpha:  4.619e-01  linmin:  6.225e-04  t[s]:  32956.48
	Linear fluid (dielectric constant: 78.4, screening length: 5.74355 Bohr) occupying 0.754830 of unit cell:	Completed after 0 iterations at t[s]:  32967.91
	Linear fluid (dielectric constant: 78.4, screening length: 5.74355 Bohr) occupying 0.754830 of unit cell:	Completed after 0 iterations at t[s]:  32984.15
	FillingsUpdate:  mu: -0.203468096  nElectrons: 407.000000
	SubspaceRotationAdjust: set factor to 0.265
ElecMinimize: Iter:  10  F: -1286.577295350912436  |grad|_K:  5.125e-08  alpha:  4.765e-01  linmin:  2.560e-04  t[s]:  33000.91
	Linear fluid (dielectric constant: 78.4, screening length: 5.74355 Bohr) occupying 0.754830 of unit cell:	Completed after 1 iterations at t[s]:  33013.51
	Linear fluid (dielectric constant: 78.4, screening length: 5.74355 Bohr) occupying 0.754830 of unit cell:	Completed after 0 iterations at t[s]:  33027.10
	FillingsUpdate:  mu: -0.203470450  nElectrons: 407.000000
	SubspaceRotationAdjust: set factor to 0.24
ElecMinimize: Iter:  11  F: -1286.577295405576251  |grad|_K:  4.387e-08  alpha:  3.035e-01  linmin: -3.989e-03  t[s]:  33043.58
	Linear fluid (dielectric constant: 78.4, screening length: 5.74355 Bohr) occupying 0.754831 of unit cell:	Completed after 0 iterations at t[s]:  33055.27
	Linear fluid (dielectric constant: 78.4, screening length: 5.74355 Bohr) occupying 0.754831 of unit cell:	Completed after 0 iterations at t[s]:  33068.08
	FillingsUpdate:  mu: -0.203467464  nElectrons: 407.000000
	SubspaceRotationAdjust: set factor to 0.34
ElecMinimize: Iter:  12  F: -1286.577295544315575  |grad|_K:  4.801e-08  alpha:  4.873e-01  linmin:  2.735e-04  t[s]:  33085.25
	Linear fluid (dielectric constant: 78.4, screening length: 5.74355 Bohr) occupying 0.754831 of unit cell:	Completed after 3 iterations at t[s]:  33097.74
	Linear fluid (dielectric constant: 78.4, screening length: 5.74355 Bohr) occupying 0.754831 of unit cell:	Completed after 0 iterations at t[s]:  33109.71
	FillingsUpdate:  mu: -0.203469823  nElectrons: 407.000000
	SubspaceRotationAdjust: set factor to 0.225
ElecMinimize: Iter:  13  F: -1286.577295711160559  |grad|_K:  1.037e-07  alpha:  1.070e-01  linmin:  4.594e-03  t[s]:  33126.69
ElecMinimize: 	Bad step direction: g.d > 0.
ElecMinimize: 	Undoing step.
	Linear fluid (dielectric constant: 78.4, screening length: 5.74355 Bohr) occupying 0.754831 of unit cell:	Completed after 0 iterations at t[s]:  33138.71
ElecMinimize: 	Step failed: resetting search direction.
	FillingsUpdate:  mu: -0.203469823  nElectrons: 407.000000
	SubspaceRotationAdjust: set factor to 0.168
ElecMinimize: Iter:  14  F: -1286.577295711164652  |grad|_K:  8.962e-08  alpha:  0.000e+00
	Linear fluid (dielectric constant: 78.4, screening length: 5.74355 Bohr) occupying 0.754831 of unit cell:	Completed after 1 iterations at t[s]:  33167.90
	Linear fluid (dielectric constant: 78.4, screening length: 5.74355 Bohr) occupying 0.754831 of unit cell:	Completed after 0 iterations at t[s]:  33182.61
ElecMinimize: 	Step increased F by 1.301719e-07, reducing alpha to 3.682496e-03.
	Linear fluid (dielectric constant: 78.4, screening length: 5.74355 Bohr) occupying 0.754831 of unit cell:	Completed after 0 iterations at t[s]:  33211.44
ElecMinimize: 	Step increased F by 1.708647e-07, reducing alpha to 3.682496e-04.
	Linear fluid (dielectric constant: 78.4, screening length: 5.74355 Bohr) occupying 0.754831 of unit cell:	Completed after 0 iterations at t[s]:  33238.11
ElecMinimize: 	Step increased F by 1.726314e-07, reducing alpha to 3.682496e-05.
ElecMinimize: 	Step failed to reduce F after 3 attempts. Quitting step.
ElecMinimize: 	Undoing step.
	Linear fluid (dielectric constant: 78.4, screening length: 5.74355 Bohr) occupying 0.754831 of unit cell:	Completed after 0 iterations at t[s]:  33265.80
ElecMinimize: 	Step failed along negative gradient direction.
ElecMinimize: Probably at roundoff error limit. (Stopping)
Setting wave functions to eigenvectors of Hamiltonian

# Ionic positions in lattice coordinates:
ion Ta   0.169033806232052   0.083210737471086   0.502819294461087 1
ion Ta   0.415282288014341   0.083387836110033   0.503146994497657 1
ion Ta   0.667854957540736   0.084088146872519   0.503444568228912 1
ion Ta   0.917315164102621   0.084067475265145   0.503124529744690 1
ion Ta   0.166640360558391   0.333503339827297   0.502231525381536 1
ion Ta   0.410754550292083   0.320481612193776   0.502680017160864 1
ion Ta   0.667984246754072   0.333508241046732   0.503340777137036 1
ion Ta   0.917331834095900   0.333615021871746   0.503212972659952 1
ion Ta   0.169043727416251   0.586140344384368   0.503015227985233 1
ion Ta   0.410755863701615   0.590576026289719   0.502765856897190 1
ion Ta   0.680683929762435   0.590546930789599   0.502830169541354 1
ion Ta   0.917880398036430   0.586112955252647   0.503505331244243 1
ion Ta   0.167417257480847   0.833867967324154   0.503220906580227 1
ion Ta   0.415294992081495   0.832207535191895   0.503230003696379 1
ion Ta   0.667943529602414   0.834765662435023   0.503328724999581 1
ion Ta   0.917892062801596   0.832137057414881   0.503406135122832 1
ion S   0.001216006327478   0.000538183039280   0.588899233893460 1
ion S   0.000700842472087   0.000058023825883   0.417339589669817 1
ion S   0.250190007616374   0.999607948007272   0.590129892995418 1
ion S   0.250346898573165   0.999388520548303   0.415982276161534 1
ion S   0.500208475295474   0.000296786872530   0.589053090360200 1
ion S   0.500587218182159   0.000422209343881   0.417502316439948 1
ion S   0.751126148637020   0.000867162117372   0.589977940032342 1
ion S   0.750846662584144   0.000974549227062   0.416698067938091 1
ion S   0.001086158163464   0.250684393226460   0.589473057502030 1
ion S  -0.000112793866013   0.250172198749317   0.416217891951969 1
ion S   0.248590751279736   0.249647083342610   0.589887302247554 1
ion S   0.248427743547879   0.249221272945419   0.415425796825281 1
ion S   0.501634133256839   0.249535912114934   0.590438478715580 1
ion S   0.502354876942764   0.249502769506022   0.415922994231629 1
ion S   0.751092673043029   0.250568644205747   0.590014129061345 1
ion S   0.750910624376163   0.250252815044933   0.416729407615754 1
ion S   0.001169591501010   0.501015920140807   0.589033792868940 1
ion S   0.000756459438658   0.501045906495154   0.417482956659239 1
ion S   0.248650183012044   0.499214222892369   0.589994709628897 1
ion S   0.248432594034579   0.499650227053674   0.415518984321544 1
ion S   0.502236826779483   0.500992315185501   0.579063475712236 1
ion S   0.500580715599660   0.500485829383422   0.427493502409935 1
ion S   0.751581299026454   0.499566369978498   0.590623960500634 1
ion S   0.751924783350730   0.499114759672432   0.416082024415688 1
ion S   0.001948060964639   0.751200147903010   0.590481316986227 1
ion S   0.001608075577674   0.750944936972467   0.416329879933408 1
ion S   0.250206188603875   0.751001003973883   0.590222676470674 1
ion S   0.250351074110409   0.751214524188968   0.416085439052196 1
ion S   0.501664874441037   0.752351064993719   0.590495338152163 1
ion S   0.502282339805494   0.753144301513679   0.415973517855457 1
ion S   0.751626760705157   0.752378556333469   0.590605515484733 1
ion S   0.751883328671744   0.753155700616958   0.416032354864630 1
ion O   0.518740372462649   0.509412395626774   0.668658094742225 1
ion H   0.443661184009674   0.465486468217554   0.695267550960516 1


# Forces in Lattice coordinates:
force Ta   0.001351129956535   0.000221694425903   0.002949399380345 1
force Ta   0.000580692231053  -0.000340067210894   0.001622578050852 1
force Ta  -0.002112668069688   0.000034194528057   0.001474281297825 1
force Ta   0.000677776723249  -0.000599555682180   0.003233085257334 1
force Ta   0.006242583236349  -0.000661965126854   0.003740653315659 1
force Ta   0.000954811026961  -0.001682411068628  -0.000517127655812 1
force Ta  -0.005855532994900   0.003863171324744  -0.005335268169704 1
force Ta  -0.000046913480991   0.000109893147327   0.002398727273551 1
force Ta   0.001326934040529  -0.000363706294153   0.001666218783083 1
force Ta  -0.000040269926332   0.000755799329829  -0.000689542196077 1
force Ta  -0.001701510180105  -0.000094546306991  -0.002151128180235 1
force Ta   0.001481706011079  -0.001182558386815  -0.004939821954668 1
force Ta   0.002202811054976   0.000622268582427   0.000508547518277 1
force Ta   0.000068982943719   0.001122061318297   0.001474515388812 1
force Ta  -0.001292062354989  -0.004039316903020  -0.004914385637717 1
force Ta   0.000737585769629   0.001320987045116  -0.004203342111449 1
force S  -0.000547151402180  -0.001183392972691   0.000690228600724 1
force S  -0.000756350836095   0.002179493157881  -0.000388802382401 1
force S  -0.000290400404149   0.000577949992084   0.001266190978114 1
force S  -0.000314853653062   0.002015903611628   0.002196761791915 1
force S   0.001068332481571  -0.000340719377922  -0.000248773584925 1
force S  -0.000048067746137   0.000026034613369   0.004144752305759 1
force S  -0.000685117610306  -0.001285111783995  -0.003312161731502 1
force S   0.000196041778894  -0.000551506675751   0.001969739297968 1
force S   0.000133526913238  -0.000135968366672  -0.000293051499009 1
force S   0.001796445670288  -0.000489825798642   0.004132143171960 1
force S   0.000805346484962   0.000701547331829   0.004038687491088 1
force S  -0.000287764205492   0.001216379372440   0.001523951879211 1
force S   0.001232991250494   0.001518390199381   0.000097648901777 1
force S  -0.001054375841369   0.000681597639371  -0.000429055492282 1
force S  -0.001724614479994   0.000873835664146  -0.003520712356164 1
force S  -0.000423431823256   0.000200497348889   0.002095408306010 1
force S  -0.001410200543152   0.000894454702402   0.000576207934259 1
force S   0.001509209969183  -0.002533520106976  -0.001425056630427 1
force S   0.001280936926557  -0.000379363547856   0.004392836667994 1
force S   0.001321770729503  -0.001421303647295   0.001091445261939 1
force S  -0.000002644242043   0.000237288607296  -0.002549379753335 1
force S   0.000112997590093   0.000270719326446   0.000944306382869 1
force S  -0.000333904780276   0.000850294209258  -0.001378173918432 1
force S  -0.001817225510427   0.001639288604522  -0.005199034188531 1
force S  -0.001788461867228  -0.000310861578766  -0.000962869776903 1
force S  -0.000496832631876  -0.000007583886863  -0.004946003643556 1
force S   0.000479249302672  -0.000915346323326   0.001524972275960 1
force S   0.001743355500156  -0.002177017169187   0.001267742306008 1
force S   0.002740741304149  -0.001507595398335   0.000581531444489 1
force S  -0.000345865019193  -0.001128579693253  -0.000890638680023 1
force S   0.000245141291614  -0.001061464706563  -0.001150033184277 1
force S   0.000002020940633  -0.001743969361481  -0.005038446389129 1
force O  -0.002239773604359  -0.001067018334389   0.003879190520186 1
force H   0.001537456400980   0.005117063471907  -0.002799892894251 1

# Energy components:
   A_diel =       -0.0003132581390137
   Eewald =     7472.6751015019726765
       EH =     8500.8514065523013414
     Eloc =   -17269.7940441286773421
      Enl =     -220.7980445971231234
      Exc =     -477.3432632618432763
 Exc_core =      252.6476110106533213
       KE =      455.2627970340500951
-------------------------------------
     Etot =    -1286.4987491468050393
       TS =        0.0785463917311117
-------------------------------------
        F =    -1286.5772955385361911

IonicMinimize: Iter:  20  F: -1286.577295538536191  |grad|_K:  7.228e-05  alpha:  1.000e+00  linmin: -9.307e-02  t[s]:  33294.66
IonicMinimize: Converged (|grad|_K<1.000000e-04).

#--- Lowdin population analysis ---
# oxidation-state Ta -0.402 -0.401 -0.391 -0.391 -0.407 -0.457 -0.404 -0.391 -0.401 -0.455 -0.445 -0.402 -0.406 -0.401 -0.404 -0.402
# oxidation-state S +0.237 +0.238 +0.256 +0.256 +0.237 +0.237 +0.247 +0.249 +0.247 +0.248 +0.242 +0.257 +0.250 +0.258 +0.247 +0.249 +0.237 +0.238 +0.243 +0.257 +0.867 +0.272 +0.253 +0.257 +0.255 +0.257 +0.256 +0.256 +0.251 +0.258 +0.253 +0.257
# oxidation-state O -0.577
# oxidation-state H +0.482


Dumping 'NbTe2.fillings' ... done
Dumping 'NbTe2.wfns' ... done
Dumping 'NbTe2.fluidState' ... done
Dumping 'NbTe2.ionpos' ... done
Dumping 'NbTe2.eigenvals' ... done
End date and time: Fri Sep 11 05:51:56 2020  (Duration: 0-9:14:59.10)
Done!
