
*************** JDFTx 1.5.0  ***************

Start date and time: Sun Jul  5 04:22:04 2020
Executable jdftx_gpu with command-line: -i Neutral.in -o Neutral.out
Running on hosts (process indices):  amax (0)
Divided in process groups (process indices):  0 (0)
gpuInit: Found compatible cuda device 0 'Tesla K80'
gpuInit: Selected device 0
Resource initialization completed at t[s]:     16.28
Run totals: 1 processes, 24 threads, 1 GPUs


Input parsed successfully to the following command list (including defaults):

basis kpoint-dependent
cache-projectors no
coords-type Lattice
core-overlap-check none
coulomb-interaction Slab 001
coulomb-truncation-embed 0 0 0.5
davidson-band-ratio 1.1
dump End State
dump-name NbTe2.$VAR
elec-cutoff 20 100
elec-eigen-algo Davidson
elec-ex-corr gga-PBE
elec-smearing Gauss 0.0073499
electronic-minimize  \
	dirUpdateScheme      FletcherReeves \
	linminMethod         DirUpdateRecommended \
	nIterations          100 \
	history              15 \
	knormThreshold       0 \
	energyDiffThreshold  1e-08 \
	nEnergyDiff          2 \
	alphaTstart          1 \
	alphaTmin            1e-10 \
	updateTestStepSize   yes \
	alphaTreduceFactor   0.1 \
	alphaTincreaseFactor 3 \
	nAlphaAdjustMax      3 \
	wolfeEnergy          0.0001 \
	wolfeGradient        0.9 \
	fdTest               no
electronic-scf  \
	nIterations	500 \
	energyDiffThreshold	1e-08 \
	residualThreshold	1e-07 \
	mixFraction	0.5 \
	qMetric	0.8 \
	history	10 \
	nEigSteps	2 \
	eigDiffThreshold	1e-08 \
	mixedVariable	Density \
	qKerker	0.8 \
	qKappa	-1 \
	verbose	no \
	mixFractionMag	1.5
exchange-regularization WignerSeitzTruncated
fluid LinearPCM 298.000000 1.013250
fluid-anion F- 1 MeanFieldLJ \
	epsBulk 1 \
	pMol 0 \
	epsInf 1 \
	Pvap 0 \
	sigmaBulk 0 \
	Rvdw 2.24877 \
	Res 0 \
	tauNuc 343133
fluid-cation Na+ 1 MeanFieldLJ \
	epsBulk 1 \
	pMol 0 \
	epsInf 1 \
	Pvap 0 \
	sigmaBulk 0 \
	Rvdw 2.19208 \
	Res 0 \
	tauNuc 343133
fluid-ex-corr lda-TF lda-PZ
fluid-gummel-loop 10 1.000000e-05
fluid-minimize  \
	dirUpdateScheme      PolakRibiere \
	linminMethod         DirUpdateRecommended \
	nIterations          400 \
	history              15 \
	knormThreshold       1e-11 \
	energyDiffThreshold  0 \
	nEnergyDiff          2 \
	alphaTstart          1 \
	alphaTmin            1e-10 \
	updateTestStepSize   yes \
	alphaTreduceFactor   0.1 \
	alphaTincreaseFactor 3 \
	nAlphaAdjustMax      6 \
	wolfeEnergy          0.0001 \
	wolfeGradient        0.9 \
	fdTest               no
fluid-solvent H2O 55.338 ScalarEOS \
	epsBulk 78.4 \
	pMol 0.92466 \
	epsInf 1.77 \
	Pvap 1.06736e-10 \
	sigmaBulk 4.62e-05 \
	Rvdw 2.61727 \
	Res 1.42 \
	tauNuc 343133 \
	poleEl 15 7 1
forces-output-coords Positions
initial-state NbTe2.$VAR
ion Pt  -0.000874463402045   0.001666999910745   0.500960196424310 0
ion Pt   0.252369639569173   0.250847543831183   0.497544027146070 0
ion Pt   0.498170813254690  -0.005431975886539   0.503079563463673 0
ion Pt   0.751666981910744   0.249125536597955   0.500960196424310 0
ion Pt   0.000847543831183   0.502369639569173   0.497544027146070 0
ion Pt   0.238993421523102   0.756999284857231   0.497641374511447 0
ion Pt   0.506999302857233   0.488993421523102   0.497641374511447 0
ion Pt   0.744568006113459   0.748170795254689   0.503079563463673 0
ion Pb   0.340392914890380   0.414728415887439   0.411371411857660 0
ion Pb   0.087938874119181   0.337938866119180   0.420489033608959 0
ion Pb   0.087844882903089   0.170199256003057   0.580695444276939 0
ion Pb   0.416240172830108   0.337887343166125   0.579479178089738 0
ion Pb   0.193189474341644   0.443189474341645   0.566054531048735 0
ion Pb   0.334621594698119   0.086469986737537   0.580678326951070 0
ion Pb   0.166561017749509   0.083880118285647   0.419273877043832 0
ion Pb   0.417852425128222   0.161586896737856   0.417764372163253 0
ion Pb   0.833880145285646   0.416561017749509   0.419273877043832 0
ion Pb   0.590755076299476   0.330332241449261   0.413174321156451 0
ion Pb   0.583320895401440   0.162275296188226   0.581774842936703 0
ion Pb   0.920199291003056   0.337844874903088   0.580695444276939 0
ion Pb   0.669146694217857   0.412067189375266   0.581218784665075 0
ion Pb   0.832006355374442   0.082006328374443   0.579747580904130 0
ion Pb   0.663298451756273   0.081897567755203   0.420883471100669 0
ion Pb   0.920492720784893   0.170492685784894   0.422201499146994 0
ion Pb   0.336483306011202   0.914979016168347   0.418636456410832 0
ion Pb   0.080332249449261   0.840755094299478   0.413174321156451 0
ion Pb   0.087887351166125   0.666240119830108   0.579479178089738 0
ion Pb   0.407254911236665   0.828427385122347   0.585200085608633 0
ion Pb   0.162067189375266   0.919146782217857   0.581218784665075 0
ion Pb   0.164728415887439   0.590392931890378   0.411371411857660 0
ion Pb   0.406250171231336   0.656250118231335   0.444236480046802 0
ion Pb   0.831897594755202   0.913298539756273   0.420883471100669 0
ion Pb   0.575438388375658   0.825438406375659   0.422174736125651 0
ion Pb   0.578427367122346   0.657254858236664   0.585200085608633 0
ion Pb   0.912275331188226   0.833320913401441   0.581774842936703 0
ion Pb   0.659542368116677   0.909542456116677   0.585976185506048 0
ion Pb   0.836470013737535   0.584621611698117   0.580678326951070 0
ion Pb   0.664978928168346   0.586483323011199   0.418636456410832 0
ion Pb   0.911586931737855   0.667852372128221   0.417764372163253 0
ion-species GBRV/$ID_pbe.uspp
ion-width Ecut
ionic-minimize  \
	dirUpdateScheme      L-BFGS \
	linminMethod         DirUpdateRecommended \
	nIterations          0 \
	history              15 \
	knormThreshold       0.0001 \
	energyDiffThreshold  1e-06 \
	nEnergyDiff          2 \
	alphaTstart          1 \
	alphaTmin            1e-10 \
	updateTestStepSize   yes \
	alphaTreduceFactor   0.1 \
	alphaTincreaseFactor 3 \
	nAlphaAdjustMax      3 \
	wolfeEnergy          0.0001 \
	wolfeGradient        0.9 \
	fdTest               no
kpoint   0.000000000000   0.000000000000   0.000000000000  1.00000000000000
kpoint-folding 2 2 1 
latt-move-scale 1 1 1
latt-scale 1 1 1 
lattice Triclinic 25.6487 25.6487 34.1755 90 90 90
lattice-minimize  \
	dirUpdateScheme      L-BFGS \
	linminMethod         DirUpdateRecommended \
	nIterations          0 \
	history              15 \
	knormThreshold       0 \
	energyDiffThreshold  1e-06 \
	nEnergyDiff          2 \
	alphaTstart          1 \
	alphaTmin            1e-10 \
	updateTestStepSize   yes \
	alphaTreduceFactor   0.1 \
	alphaTincreaseFactor 3 \
	nAlphaAdjustMax      3 \
	wolfeEnergy          0.0001 \
	wolfeGradient        0.9 \
	fdTest               no
lcao-params -1 1e-06 0.0073499
pcm-variant CANDLE
spintype no-spin
subspace-rotation-factor 1 yes
symmetries automatic
symmetry-threshold 0.0001



---------- Setting up symmetries ----------

Found 16 point-group symmetries of the bravais lattice
Found 2 space-group symmetries with basis
Applied RMS atom displacement 6.73207e-07 bohrs to make symmetries exact.

---------- Initializing the Grid ----------
R = 
[    25.6487          0          0  ]
[          0    25.6487          0  ]
[          0          0    34.1755  ]
unit cell volume = 22482.5
G =
[   0.244971          0          0  ]
[          0   0.244971          0  ]
[          0          0   0.183851  ]
Minimum fftbox size, Smin = [  116  116  156  ]
Chosen fftbox size, S = [  120  120  160  ]

---------- Initializing tighter grid for wavefunction operations ----------
R = 
[    25.6487          0          0  ]
[          0    25.6487          0  ]
[          0          0    34.1755  ]
unit cell volume = 22482.5
G =
[   0.244971          0          0  ]
[          0   0.244971          0  ]
[          0          0   0.183851  ]
Minimum fftbox size, Smin = [  104  104  140  ]
Chosen fftbox size, S = [  108  108  140  ]

---------- Exchange Correlation functional ----------
Initalized PBE GGA exchange.
Initalized PBE GGA correlation.

---------- Setting up pseudopotentials ----------
Width of ionic core gaussian charges (only for fluid interactions / plotting) set to 0.397384

Reading pseudopotential file '/home/guoxy/vasp/jdftx-1.5.0/build/pseudopotentials/GBRV/pt_pbe.uspp':
  Title: Pt.  Created by USPP 7.3.6 on 31-3-15
  Reference state energy: -105.002503.  16 valence electrons in orbitals:
    |510>  occupation: 6  eigenvalue: -2.158104
    |520>  occupation: 9.5  eigenvalue: -0.335376
    |600>  occupation: 0  eigenvalue: -0.319640
    |610>  occupation: 0  eigenvalue: -0.122947
  lMax: 2  lLocal: 3  QijEcut: 5.5
  6 projectors sampled on a log grid with 745 points:
    l: 0  eig: -0.319640  rCut: 2.45
    l: 0  eig: 1.500000  rCut: 2.45
    l: 1  eig: -2.158104  rCut: 1.6
    l: 1  eig: -0.122947  rCut: 1.6
    l: 2  eig: -0.500000  rCut: 1.6
    l: 2  eig: -0.335375  rCut: 1.6
  Partial core density with radius 1.1
  Transforming core density to a uniform radial grid of dG=0.02 with 1279 points.
  Transforming local potential to a uniform radial grid of dG=0.02 with 1279 points.
  Transforming nonlocal projectors to a uniform radial grid of dG=0.02 with 432 points.
  Transforming density augmentations to a uniform radial grid of dG=0.02 with 1279 points.
  Transforming atomic orbitals to a uniform radial grid of dG=0.02 with 432 points.
  Core radius for overlap checks: 2.45 bohrs.

Reading pseudopotential file '/home/guoxy/vasp/jdftx-1.5.0/build/pseudopotentials/GBRV/pb_pbe.uspp':
  Title: Pb.  Created by USPP 7.3.6 on 14-9-2013
  Reference state energy: -81.948189.  14 valence electrons in orbitals:
    |520>  occupation: 10  eigenvalue: -0.778257
    |600>  occupation: 2  eigenvalue: -0.442466
    |610>  occupation: 2  eigenvalue: -0.128540
  lMax: 2  lLocal: 3  QijEcut: 5
  6 projectors sampled on a log grid with 747 points:
    l: 0  eig: -0.442463  rCut: 2.3
    l: 0  eig: 1.000000  rCut: 2.3
    l: 1  eig: -0.128540  rCut: 2.3
    l: 1  eig: 1.000000  rCut: 2.3
    l: 2  eig: -0.778256  rCut: 2.1
    l: 2  eig: 0.000000  rCut: 2.1
  Partial core density with radius 1
  Transforming core density to a uniform radial grid of dG=0.02 with 1279 points.
  Transforming local potential to a uniform radial grid of dG=0.02 with 1279 points.
  Transforming nonlocal projectors to a uniform radial grid of dG=0.02 with 432 points.
  Transforming density augmentations to a uniform radial grid of dG=0.02 with 1279 points.
  Transforming atomic orbitals to a uniform radial grid of dG=0.02 with 432 points.
  Core radius for overlap checks: 2.30 bohrs.

Initialized 2 species with 39 total atoms.

Folded 1 k-points by 2x2x1 to 4 k-points.

---------- Setting up k-points, bands, fillings ----------
Reduced to 3 k-points under symmetry. 
Computing the number of bands and number of electrons
Calculating initial fillings.
nElectrons: 562.000000   nBands: 375   nStates: 3

----- Setting up reduced wavefunction bases (one per k-point) -----
average nbasis = 96020.250 , ideal nbasis = 96047.067

---------- Setting up coulomb interaction ----------
Fluid mode embedding: using embedded box, but periodic Coulomb kernel.
(Fluid response is responsible for (approximate) separation between periodic images.)
Setting up double-sized grid for truncated Coulomb potentials:
R = 
[    25.6487          0          0  ]
[          0    25.6487          0  ]
[          0          0     68.351  ]
unit cell volume = 44965.1
G =
[   0.244971          0          0  ]
[          0   0.244971          0  ]
[          0          0  0.0919253  ]
Chosen fftbox size, S = [  120  120  320  ]
Integer grid location selected as the embedding center:
   Grid: [  0  0  80  ]
   Lattice: [  0  0  0.5  ]
   Cartesian: [  0  0  17.0878  ]
Constructing Wigner-Seitz cell: 6 faces (6 quadrilaterals, 0 hexagons)
Range-separation parameter for embedded mesh potentials due to point charges: 0.583246 bohrs.

Initializing van der Waals corrections
	NOTE: vdW corrections apply only for interactions with fluid.
	Pt:  C6:  815.23 Eh-a0^6  R0: 3.326 a0 (WARNING: beyond Grimme's data set)
	Pb:  C6:  881.14 Eh-a0^6  R0: 3.432 a0 (WARNING: beyond Grimme's data set)

---------- Setting up ewald sum ----------
Optimum gaussian width for ewald sums = 7.703552 bohr.
Real space sum over 567 unit cells with max indices [  4  4  3  ]
Reciprocal space sum over 6975 terms with max indices [  7  7  15  ]

---------- Allocating electronic variables ----------
Initializing wave functions:  linear combination of atomic orbitals
Pt pseudo-atom occupations:   s ( 0 )  p ( 6 0 )  d ( 10 )
Pb pseudo-atom occupations:   s ( 2 )  p ( 2 )  d ( 10 )
	FillingsUpdate:  mu: -0.302932818  nElectrons: 562.000000
LCAOMinimize: Iter:   0  F: -2582.2283865463346046  |grad|_K:  3.768e-02  alpha:  1.000e+00
	FillingsUpdate:  mu: +0.320669293  nElectrons: 562.000000
LCAOMinimize: Iter:   1  F: -2588.1887370240128803  |grad|_K:  1.132e-02  alpha:  4.880e-01  linmin:  1.250e-01  cgtest: -3.417e+00  t[s]:     77.38
	FillingsUpdate:  mu: +0.282933596  nElectrons: 562.000000
LCAOMinimize: Iter:   2  F: -2589.4696754868828066  |grad|_K:  1.048e-02  alpha:  3.155e-01  linmin:  1.536e-04  cgtest:  7.849e-01  t[s]:    100.74
	FillingsUpdate:  mu: -0.124148012  nElectrons: 562.000000
LCAOMinimize: Iter:   3  F: -2596.3945221359072093  |grad|_K:  1.790e-02  alpha:  4.360e-01  linmin:  1.605e-01  cgtest: -3.799e-01  t[s]:    124.29
LCAOMinimize: 	Bad step direction: g.d > 0.
LCAOMinimize: 	Undoing step.
LCAOMinimize: 	Step failed: resetting search direction.
	FillingsUpdate:  mu: -0.124148012  nElectrons: 562.000000
LCAOMinimize: Iter:   4  F: -2596.3945221359072093  |grad|_K:  1.790e-02  alpha:  0.000e+00
	FillingsUpdate:  mu: -0.110313116  nElectrons: 562.000000
LCAOMinimize: Iter:   5  F: -2601.0295343718330514  |grad|_K:  3.369e-03  alpha:  9.938e-02  linmin:  1.451e-01  cgtest: -6.646e-01  t[s]:    164.41
	FillingsUpdate:  mu: -0.064850449  nElectrons: 562.000000
LCAOMinimize: Iter:   6  F: -2601.3257858858110012  |grad|_K:  2.418e-03  alpha:  1.851e-01  linmin: -2.892e-02  cgtest:  6.309e-01  t[s]:    188.59
	FillingsUpdate:  mu: -0.076052591  nElectrons: 562.000000
LCAOMinimize: Iter:   7  F: -2601.4634980191581235  |grad|_K:  8.827e-04  alpha:  1.082e-01  linmin: -6.322e-03  cgtest: -2.317e-02  t[s]:    212.96
	FillingsUpdate:  mu: -0.075047764  nElectrons: 562.000000
LCAOMinimize: Iter:   8  F: -2601.5142759399318493  |grad|_K:  6.419e-04  alpha:  3.216e-01  linmin:  3.365e-02  cgtest: -1.485e-02  t[s]:    236.63
	FillingsUpdate:  mu: -0.071368005  nElectrons: 562.000000
LCAOMinimize: Iter:   9  F: -2601.5245804749538365  |grad|_K:  3.081e-04  alpha:  1.297e-01  linmin: -1.956e-03  cgtest:  2.370e-01  t[s]:    260.11
	FillingsUpdate:  mu: -0.065557636  nElectrons: 562.000000
LCAOMinimize: Iter:  10  F: -2601.5282290597260726  |grad|_K:  7.076e-05  alpha:  1.801e-01  linmin: -1.860e-02  cgtest:  9.301e-03  t[s]:    285.02
	FillingsUpdate:  mu: -0.065648703  nElectrons: 562.000000
LCAOMinimize: Iter:  11  F: -2601.5284830351060918  |grad|_K:  6.917e-05  alpha:  2.360e-01  linmin: -1.088e-04  cgtest: -1.478e-02  t[s]:    308.56
	FillingsUpdate:  mu: -0.066316683  nElectrons: 562.000000
LCAOMinimize: Iter:  12  F: -2601.5287227346730106  |grad|_K:  2.313e-05  alpha:  2.362e-01  linmin:  3.335e-04  cgtest:  4.012e-02  t[s]:    332.07
	FillingsUpdate:  mu: -0.066415655  nElectrons: 562.000000
LCAOMinimize: Iter:  13  F: -2601.5287379439555480  |grad|_K:  1.216e-05  alpha:  1.340e-01  linmin: -7.063e-05  cgtest:  2.429e-03  t[s]:    356.38
	FillingsUpdate:  mu: -0.066501015  nElectrons: 562.000000
LCAOMinimize: Iter:  14  F: -2601.5287450814298609  |grad|_K:  5.960e-06  alpha:  2.277e-01  linmin:  2.238e-04  cgtest: -1.192e-03  t[s]:    380.29
	FillingsUpdate:  mu: -0.066408742  nElectrons: 562.000000
LCAOMinimize: Iter:  15  F: -2601.5287469792961019  |grad|_K:  3.243e-06  alpha:  2.521e-01  linmin: -5.483e-05  cgtest:  1.481e-03  t[s]:    404.89
	FillingsUpdate:  mu: -0.066374927  nElectrons: 562.000000
LCAOMinimize: Iter:  16  F: -2601.5287474883975847  |grad|_K:  1.874e-06  alpha:  2.283e-01  linmin: -2.342e-05  cgtest: -4.669e-04  t[s]:    428.56
	FillingsUpdate:  mu: -0.066389814  nElectrons: 562.000000
LCAOMinimize: Iter:  17  F: -2601.5287476726498426  |grad|_K:  1.045e-06  alpha:  2.475e-01  linmin:  1.578e-05  cgtest: -3.647e-05  t[s]:    452.25
LCAOMinimize: Converged (|Delta F|<1.000000e-06 for 2 iters).
----- createFluidSolver() ----- (Fluid-side solver setup)
   Initializing fluid molecule 'H2O'
     Initializing site 'O'
       Electron density: proportional to exp(-r/0.36935)*erfc((r-0.51523)/0.36823) with norm 6.826
       Charge density: gaussian nuclear width 0.478731 with net site charge 0.826
       Polarizability: cuspless exponential with width 0.32 and norm 3.73
       Hard sphere radius: 2.57003 bohrs
       Positions in reference frame:
         [ +0.000000 +0.000000 +0.000000 ]
     Initializing site 'H'
       Electron density: proportional to exp(-r/0.34641)*erfc((r-0)/0.390882) with norm 0.587
       Charge density: gaussian nuclear width 0.377945 with net site charge -0.413
       Polarizability: cuspless exponential with width 0.39 and norm 3.3
       Positions in reference frame:
         [ +0.000000 -1.441945 +1.122523 ]
         [ +0.000000 +1.441945 +1.122523 ]
     Net charge: 0   dipole magnitude: 0.927204
     Initializing spherical shell mfKernel with radius 2.61727 Bohr
     deltaS corrections:
       site 'O': -7.54299
       site 'H': -6.83917
   Initializing fluid molecule 'Na+'
     Initializing site 'Na'
       Electron density: proportional to exp(-r/0.19682)*erfc((r-0.71491)/0.41314) with norm 8.1383
       Charge density: gaussian nuclear width 0.365347 with net site charge -1
       Hard sphere radius: 1.86327 bohrs
       Positions in reference frame:
         [ +0.000000 +0.000000 +0.000000 ]
     Net charge: -1   dipole magnitude: 0
     Initializing gaussian mfKernel with width: 1.55004 Bohr
     deltaS corrections:
       site 'Na': -22.3555
   Initializing fluid molecule 'F-'
     Initializing site 'F'
       Electron density: proportional to exp(-r/0.38886)*erfc((r-0)/0.438782) with norm 8
       Charge density: gaussian nuclear width 0.374796 with net site charge 1
       Hard sphere radius: 2.39995 bohrs
       Positions in reference frame:
         [ +0.000000 +0.000000 +0.000000 ]
     Net charge: 1   dipole magnitude: 0
     Initializing gaussian mfKernel with width: 1.59012 Bohr
     deltaS corrections:
       site 'F': -9.04335

Correction to mu due to finite nuclear width = -0.0124011
   Cavity determined by nc: 0.00142 and sigma: 0.707107
   Nonlocal vdW cavity from gaussian model electron density with norm = 8 and sigma = 0.993594 bohr
   Charge asymmetry in cavity with sensitivity pCavity = 36.5 e-bohr/Eh
   Electrostatic cavity expanded by eta = 1.46 bohrs
   Weighted density cavitation model constrained by Nbulk: 0.0049383 bohr^-3, Pvap: 3.14029 kPa, Rvdw: 2.61727 bohr and sigmaBulk: 4.62e-05 Eh/bohr^2 at T: 298 K.
   Weighted density dispersion model using vdW pair potentials with single solvent site with sqrtC6eff: 0.77 SI.


---- Citations for features of the code used in this run ----

   Software package:
      R. Sundararaman, K. Letchworth-Weaver, K.A. Schwarz, D. Gunceler, Y. Ozhabes and T.A. Arias, 'JDFTx: software for joint density-functional theory', SoftwareX 6, 278 (2017)

   gga-PBE exchange-correlation functional:
      J.P. Perdew, K. Burke and M. Ernzerhof, Phys. Rev. Lett. 77, 3865 (1996)

   Pseudopotentials:
      KF Garrity, JW Bennett, KM Rabe and D Vanderbilt, Comput. Mater. Sci. 81, 446 (2014)

   Truncated Coulomb potentials:
      R. Sundararaman and T.A. Arias, Phys. Rev. B 87, 165122 (2013)

   Van der Waals correction pair-potentials:
      S. Grimme, J. Comput. Chem. 27, 1787 (2006)

   Charge-asymmetric nonlocally-determined local-electric (CANDLE) solvation model:
      R. Sundararaman and W.A. Goddard III, J. Chem. Phys. 142, 064107 (2015)

This list may not be complete. Please suggest additional citations or
report any other bugs at https://github.com/shankar1729/jdftx/issues

Initialization completed successfully at t[s]:    458.51

Fluid solver invoked on fresh (partially random / LCAO) wavefunctions
Running a vacuum solve first:

-------- Initial electronic minimization -----------
Will mix electronic density at each iteration.
	FillingsUpdate:  mu: -0.066389814  nElectrons: 562.000000
	FillingsUpdate:  mu: -0.070200811  nElectrons: 562.000000
SCF: Cycle:  0   F: -2601.902050376192619   dF: -3.733e-01   |Residual|: 2.011e-01   |deigs|: 3.878e-02  t[s]:    540.82
	FillingsUpdate:  mu: -0.069651246  nElectrons: 562.000000
SCF: Cycle:  1   F: -2601.973199017460047   dF: -7.115e-02   |Residual|: 1.011e-01   |deigs|: 9.183e-03  t[s]:    606.36
	FillingsUpdate:  mu: -0.066105794  nElectrons: 562.000000
SCF: Cycle:  2   F: -2602.032638268065966   dF: -5.944e-02   |Residual|: 5.103e-02   |deigs|: 5.288e-03  t[s]:    672.47
	FillingsUpdate:  mu: -0.062019424  nElectrons: 562.000000
SCF: Cycle:  3   F: -2602.048107220311522   dF: -1.547e-02   |Residual|: 2.177e-02   |deigs|: 3.679e-03  t[s]:    738.24
	FillingsUpdate:  mu: -0.058424913  nElectrons: 562.000000
SCF: Cycle:  4   F: -2602.049752564389109   dF: -1.645e-03   |Residual|: 1.120e-02   |deigs|: 3.739e-03  t[s]:    804.18
	FillingsUpdate:  mu: -0.056603710  nElectrons: 562.000000
SCF: Cycle:  5   F: -2602.050716193748030   dF: -9.636e-04   |Residual|: 8.914e-03   |deigs|: 1.807e-03  t[s]:    869.39
	FillingsUpdate:  mu: -0.053994024  nElectrons: 562.000000
SCF: Cycle:  6   F: -2602.051494113213266   dF: -7.779e-04   |Residual|: 5.886e-03   |deigs|: 2.544e-03  t[s]:    935.90
	FillingsUpdate:  mu: -0.051398815  nElectrons: 562.000000
SCF: Cycle:  7   F: -2602.051702490980460   dF: -2.084e-04   |Residual|: 4.009e-03   |deigs|: 2.549e-03  t[s]:   1002.25
	FillingsUpdate:  mu: -0.048671196  nElectrons: 562.000000
SCF: Cycle:  8   F: -2602.051829718237059   dF: -1.272e-04   |Residual|: 2.609e-03   |deigs|: 2.691e-03  t[s]:   1068.12
	FillingsUpdate:  mu: -0.047447991  nElectrons: 562.000000
SCF: Cycle:  9   F: -2602.051856310114999   dF: -2.659e-05   |Residual|: 2.251e-03   |deigs|: 1.292e-03  t[s]:   1147.92
	FillingsUpdate:  mu: -0.046051947  nElectrons: 562.000000
SCF: Cycle: 10   F: -2602.051858008918771   dF: -1.699e-06   |Residual|: 1.700e-03   |deigs|: 1.767e-03  t[s]:   1213.40
	FillingsUpdate:  mu: -0.044343457  nElectrons: 562.000000
SCF: Cycle: 11   F: -2602.051884510509353   dF: -2.650e-05   |Residual|: 1.381e-03   |deigs|: 1.941e-03  t[s]:   1279.28
	FillingsUpdate:  mu: -0.043473155  nElectrons: 562.000000
SCF: Cycle: 12   F: -2602.051913837216034   dF: -2.933e-05   |Residual|: 8.049e-04   |deigs|: 9.462e-04  t[s]:   1345.39
	FillingsUpdate:  mu: -0.043008900  nElectrons: 562.000000
SCF: Cycle: 13   F: -2602.051928274480815   dF: -1.444e-05   |Residual|: 5.447e-04   |deigs|: 5.169e-04  t[s]:   1412.04
	FillingsUpdate:  mu: -0.042784343  nElectrons: 562.000000
SCF: Cycle: 14   F: -2602.051937745538908   dF: -9.471e-06   |Residual|: 3.851e-04   |deigs|: 3.196e-04  t[s]:   1477.71
	FillingsUpdate:  mu: -0.042669667  nElectrons: 562.000000
SCF: Cycle: 15   F: -2602.051945320975392   dF: -7.575e-06   |Residual|: 1.891e-04   |deigs|: 2.794e-04  t[s]:   1544.13
	FillingsUpdate:  mu: -0.042653329  nElectrons: 562.000000
SCF: Cycle: 16   F: -2602.051951283925064   dF: -5.963e-06   |Residual|: 1.053e-04   |deigs|: 2.273e-04  t[s]:   1609.58
	FillingsUpdate:  mu: -0.042647246  nElectrons: 562.000000
SCF: Cycle: 17   F: -2602.051956265215722   dF: -4.981e-06   |Residual|: 8.145e-05   |deigs|: 1.167e-04  t[s]:   1674.98
	FillingsUpdate:  mu: -0.042640151  nElectrons: 562.000000
SCF: Cycle: 18   F: -2602.051960659378892   dF: -4.394e-06   |Residual|: 8.703e-05   |deigs|: 4.629e-05  t[s]:   1740.52
	FillingsUpdate:  mu: -0.042639801  nElectrons: 562.000000
SCF: Cycle: 19   F: -2602.051964572521229   dF: -3.913e-06   |Residual|: 1.106e-04   |deigs|: 1.913e-05  t[s]:   1806.48
	FillingsUpdate:  mu: -0.042628064  nElectrons: 562.000000
SCF: Cycle: 20   F: -2602.051967970816804   dF: -3.398e-06   |Residual|: 2.109e-04   |deigs|: 2.223e-05  t[s]:   1871.64
	FillingsUpdate:  mu: -0.042641280  nElectrons: 562.000000
SCF: Cycle: 21   F: -2602.051970890938719   dF: -2.920e-06   |Residual|: 9.224e-05   |deigs|: 5.084e-05  t[s]:   1937.51
	FillingsUpdate:  mu: -0.042644501  nElectrons: 562.000000
SCF: Cycle: 22   F: -2602.051973477144656   dF: -2.586e-06   |Residual|: 8.149e-05   |deigs|: 1.569e-05  t[s]:   2002.25
	FillingsUpdate:  mu: -0.042647368  nElectrons: 562.000000
SCF: Cycle: 23   F: -2602.051975786414914   dF: -2.309e-06   |Residual|: 1.461e-04   |deigs|: 3.082e-05  t[s]:   2068.09
	FillingsUpdate:  mu: -0.042636731  nElectrons: 562.000000
SCF: Cycle: 24   F: -2602.051977808793254   dF: -2.022e-06   |Residual|: 1.876e-04   |deigs|: 5.344e-05  t[s]:   2132.56
	FillingsUpdate:  mu: -0.042636807  nElectrons: 562.000000
SCF: Cycle: 25   F: -2602.051979635206862   dF: -1.826e-06   |Residual|: 2.265e-04   |deigs|: 4.181e-06  t[s]:   2197.11
	FillingsUpdate:  mu: -0.042635538  nElectrons: 562.000000
SCF: Cycle: 26   F: -2602.051981252894620   dF: -1.618e-06   |Residual|: 2.690e-04   |deigs|: 9.139e-06  t[s]:   2261.67
	FillingsUpdate:  mu: -0.042635050  nElectrons: 562.000000
SCF: Cycle: 27   F: -2602.051982692706588   dF: -1.440e-06   |Residual|: 3.114e-04   |deigs|: 7.364e-06  t[s]:   2326.27
	FillingsUpdate:  mu: -0.042634894  nElectrons: 562.000000
SCF: Cycle: 28   F: -2602.051983970434321   dF: -1.278e-06   |Residual|: 3.528e-04   |deigs|: 9.419e-06  t[s]:   2390.62
	FillingsUpdate:  mu: -0.042633553  nElectrons: 562.000000
SCF: Cycle: 29   F: -2602.051985096738917   dF: -1.126e-06   |Residual|: 3.862e-04   |deigs|: 9.893e-06  t[s]:   2455.79
	FillingsUpdate:  mu: -0.042633123  nElectrons: 562.000000
SCF: Cycle: 30   F: -2602.051986098437737   dF: -1.002e-06   |Residual|: 4.070e-04   |deigs|: 1.160e-05  t[s]:   2520.30
	FillingsUpdate:  mu: -0.042633568  nElectrons: 562.000000
SCF: Cycle: 31   F: -2602.051986994698836   dF: -8.963e-07   |Residual|: 4.209e-04   |deigs|: 1.022e-05  t[s]:   2584.74
	FillingsUpdate:  mu: -0.042633118  nElectrons: 562.000000
SCF: Cycle: 32   F: -2602.051987790619478   dF: -7.959e-07   |Residual|: 4.342e-04   |deigs|: 1.483e-05  t[s]:   2649.55
	FillingsUpdate:  mu: -0.042634273  nElectrons: 562.000000
SCF: Cycle: 33   F: -2602.051988488228289   dF: -6.976e-07   |Residual|: 4.711e-04   |deigs|: 8.912e-06  t[s]:   2714.79
	FillingsUpdate:  mu: -0.042635320  nElectrons: 562.000000
SCF: Cycle: 34   F: -2602.051989108009820   dF: -6.198e-07   |Residual|: 5.086e-04   |deigs|: 5.244e-06  t[s]:   2779.22
	FillingsUpdate:  mu: -0.042633155  nElectrons: 562.000000
SCF: Cycle: 35   F: -2602.051989666517329   dF: -5.585e-07   |Residual|: 4.706e-04   |deigs|: 5.119e-06  t[s]:   2844.19
	FillingsUpdate:  mu: -0.042629237  nElectrons: 562.000000
SCF: Cycle: 36   F: -2602.051990155237490   dF: -4.887e-07   |Residual|: 4.886e-04   |deigs|: 1.295e-05  t[s]:   2908.94
	FillingsUpdate:  mu: -0.042622807  nElectrons: 562.000000
SCF: Cycle: 37   F: -2602.051990595450206   dF: -4.402e-07   |Residual|: 4.759e-04   |deigs|: 1.431e-05  t[s]:   2974.20
	FillingsUpdate:  mu: -0.042623425  nElectrons: 562.000000
SCF: Cycle: 38   F: -2602.051990982710777   dF: -3.873e-07   |Residual|: 5.022e-04   |deigs|: 2.755e-05  t[s]:   3039.77
	FillingsUpdate:  mu: -0.042620326  nElectrons: 562.000000
SCF: Cycle: 39   F: -2602.051991323351558   dF: -3.406e-07   |Residual|: 4.914e-04   |deigs|: 1.494e-05  t[s]:   3105.25
	FillingsUpdate:  mu: -0.042621496  nElectrons: 562.000000
SCF: Cycle: 40   F: -2602.051991632562476   dF: -3.092e-07   |Residual|: 4.952e-04   |deigs|: 7.053e-06  t[s]:   3170.89
	FillingsUpdate:  mu: -0.042621635  nElectrons: 562.000000
SCF: Cycle: 41   F: -2602.051991922056914   dF: -2.895e-07   |Residual|: 4.563e-04   |deigs|: 7.905e-06  t[s]:   3239.47
	FillingsUpdate:  mu: -0.042624071  nElectrons: 562.000000
SCF: Cycle: 42   F: -2602.051992168869219   dF: -2.468e-07   |Residual|: 4.545e-04   |deigs|: 6.603e-06  t[s]:   3310.21
	FillingsUpdate:  mu: -0.042623503  nElectrons: 562.000000
SCF: Cycle: 43   F: -2602.051992379314470   dF: -2.104e-07   |Residual|: 4.858e-04   |deigs|: 5.126e-06  t[s]:   3375.94
	FillingsUpdate:  mu: -0.042647202  nElectrons: 562.000000
SCF: Cycle: 44   F: -2602.051992599422647   dF: -2.201e-07   |Residual|: 9.530e-05   |deigs|: 5.906e-05  t[s]:   3442.39
	FillingsUpdate:  mu: -0.042640796  nElectrons: 562.000000
SCF: Cycle: 45   F: -2602.051992759646964   dF: -1.602e-07   |Residual|: 1.137e-04   |deigs|: 1.830e-05  t[s]:   3508.24
	FillingsUpdate:  mu: -0.042640392  nElectrons: 562.000000
SCF: Cycle: 46   F: -2602.051992906995110   dF: -1.473e-07   |Residual|: 3.355e-05   |deigs|: 1.350e-05  t[s]:   3573.88
	FillingsUpdate:  mu: -0.042634024  nElectrons: 562.000000
SCF: Cycle: 47   F: -2602.051993035784562   dF: -1.288e-07   |Residual|: 1.271e-05   |deigs|: 1.484e-05  t[s]:   3642.90
	FillingsUpdate:  mu: -0.042629089  nElectrons: 562.000000
SCF: Cycle: 48   F: -2602.051993145456890   dF: -1.097e-07   |Residual|: 3.291e-05   |deigs|: 1.233e-05  t[s]:   3709.38
	FillingsUpdate:  mu: -0.042627792  nElectrons: 562.000000
SCF: Cycle: 49   F: -2602.051993248378039   dF: -1.029e-07   |Residual|: 4.434e-06   |deigs|: 1.479e-05  t[s]:   3772.84
	FillingsUpdate:  mu: -0.042628060  nElectrons: 562.000000
SCF: Cycle: 50   F: -2602.051993337950080   dF: -8.957e-08   |Residual|: 4.486e-06   |deigs|: 1.035e-05  t[s]:   3837.93
	FillingsUpdate:  mu: -0.042628094  nElectrons: 562.000000
SCF: Cycle: 51   F: -2602.051993418490383   dF: -8.054e-08   |Residual|: 3.736e-06   |deigs|: 6.742e-06  t[s]:   3902.73
	FillingsUpdate:  mu: -0.042628209  nElectrons: 562.000000
SCF: Cycle: 52   F: -2602.051993492088513   dF: -7.360e-08   |Residual|: 5.375e-06   |deigs|: 3.066e-06  t[s]:   3966.99
	FillingsUpdate:  mu: -0.042628305  nElectrons: 562.000000
SCF: Cycle: 53   F: -2602.051993559106904   dF: -6.702e-08   |Residual|: 6.811e-06   |deigs|: 1.439e-06  t[s]:   4032.97
	FillingsUpdate:  mu: -0.042628339  nElectrons: 562.000000
SCF: Cycle: 54   F: -2602.051993618428241   dF: -5.932e-08   |Residual|: 9.670e-06   |deigs|: 7.482e-07  t[s]:   4098.35
	FillingsUpdate:  mu: -0.042628351  nElectrons: 562.000000
SCF: Cycle: 55   F: -2602.051993670484080   dF: -5.206e-08   |Residual|: 1.449e-05   |deigs|: 2.737e-07  t[s]:   4161.39
	FillingsUpdate:  mu: -0.042628376  nElectrons: 562.000000
SCF: Cycle: 56   F: -2602.051993716980178   dF: -4.650e-08   |Residual|: 2.233e-05   |deigs|: 3.887e-07  t[s]:   4219.29
	FillingsUpdate:  mu: -0.042628354  nElectrons: 562.000000
SCF: Cycle: 57   F: -2602.051993755711464   dF: -3.873e-08   |Residual|: 2.676e-05   |deigs|: 2.015e-07  t[s]:   4274.48
	FillingsUpdate:  mu: -0.042628253  nElectrons: 562.000000
SCF: Cycle: 58   F: -2602.051993790586948   dF: -3.488e-08   |Residual|: 3.378e-05   |deigs|: 2.820e-07  t[s]:   4328.31
	FillingsUpdate:  mu: -0.042628418  nElectrons: 562.000000
SCF: Cycle: 59   F: -2602.051993822242821   dF: -3.166e-08   |Residual|: 3.816e-05   |deigs|: 4.048e-07  t[s]:   4382.63
	FillingsUpdate:  mu: -0.042628390  nElectrons: 562.000000
SCF: Cycle: 60   F: -2602.051993850901454   dF: -2.866e-08   |Residual|: 4.345e-05   |deigs|: 5.861e-07  t[s]:   4435.13
	FillingsUpdate:  mu: -0.042628400  nElectrons: 562.000000
SCF: Cycle: 61   F: -2602.051993876992583   dF: -2.609e-08   |Residual|: 4.825e-05   |deigs|: 3.376e-07  t[s]:   4486.70
	FillingsUpdate:  mu: -0.042628465  nElectrons: 562.000000
SCF: Cycle: 62   F: -2602.051993899961417   dF: -2.297e-08   |Residual|: 5.111e-05   |deigs|: 3.712e-07  t[s]:   4539.03
	FillingsUpdate:  mu: -0.042628530  nElectrons: 562.000000
SCF: Cycle: 63   F: -2602.051993921031681   dF: -2.107e-08   |Residual|: 5.197e-05   |deigs|: 5.557e-07  t[s]:   4591.42
	FillingsUpdate:  mu: -0.042628601  nElectrons: 562.000000
SCF: Cycle: 64   F: -2602.051993941419823   dF: -2.039e-08   |Residual|: 4.950e-05   |deigs|: 8.301e-07  t[s]:   4644.87
	FillingsUpdate:  mu: -0.042628648  nElectrons: 562.000000
SCF: Cycle: 65   F: -2602.051993958993990   dF: -1.757e-08   |Residual|: 4.949e-05   |deigs|: 2.993e-07  t[s]:   4698.25
	FillingsUpdate:  mu: -0.042628760  nElectrons: 562.000000
SCF: Cycle: 66   F: -2602.051993975011555   dF: -1.602e-08   |Residual|: 5.001e-05   |deigs|: 1.887e-07  t[s]:   4754.23
	FillingsUpdate:  mu: -0.042628789  nElectrons: 562.000000
SCF: Cycle: 67   F: -2602.051993986714479   dF: -1.170e-08   |Residual|: 5.136e-05   |deigs|: 1.111e-07  t[s]:   4806.86
	FillingsUpdate:  mu: -0.042628587  nElectrons: 562.000000
SCF: Cycle: 68   F: -2602.051993999674778   dF: -1.296e-08   |Residual|: 5.615e-05   |deigs|: 9.356e-07  t[s]:   4857.19
	FillingsUpdate:  mu: -0.042628792  nElectrons: 562.000000
SCF: Cycle: 69   F: -2602.051994008194015   dF: -8.519e-09   |Residual|: 5.807e-05   |deigs|: 6.717e-07  t[s]:   4908.45
	FillingsUpdate:  mu: -0.042628880  nElectrons: 562.000000
SCF: Cycle: 70   F: -2602.051994016745084   dF: -8.551e-09   |Residual|: 5.700e-05   |deigs|: 4.391e-06  t[s]:   4959.67
SCF: Converged (|Delta E|<1.000000e-08 for 2 iters).

Vacuum energy after initial minimize, F = -2602.051994016745084

	FillingsUpdate:  mu: -0.042628880  nElectrons: 562.000000
	Linear fluid (dielectric constant: 78.4, screening length: 5.74355 Bohr) occupying 0.743785 of unit cell:	Completed after 19 iterations at t[s]:   4969.49

-------- Electronic minimization -----------
Will mix electronic density at each iteration.
	FillingsUpdate:  mu: -0.042628880  nElectrons: 562.000000
	Linear fluid (dielectric constant: 78.4, screening length: 5.74355 Bohr) occupying 0.743785 of unit cell:	Completed after 0 iterations at t[s]:   4976.93
	FillingsUpdate:  mu: -0.128699645  nElectrons: 562.000000
	Linear fluid (dielectric constant: 78.4, screening length: 5.74355 Bohr) occupying 0.745850 of unit cell:	Completed after 16 iterations at t[s]:   5054.78
SCF: Cycle:  0   F: -2602.052159860997108   dF: -3.733e-05   |Residual|: 6.897e-03   |deigs|: 2.282e-04  t[s]:   5055.98
	Linear fluid (dielectric constant: 78.4, screening length: 5.74355 Bohr) occupying 0.743689 of unit cell:	Completed after 15 iterations at t[s]:   5058.15
	FillingsUpdate:  mu: -0.128014277  nElectrons: 562.000000
	Linear fluid (dielectric constant: 78.4, screening length: 5.74355 Bohr) occupying 0.745767 of unit cell:	Completed after 13 iterations at t[s]:   5125.92
SCF: Cycle:  1   F: -2602.052823851577159   dF: -6.640e-04   |Residual|: 5.029e-03   |deigs|: 7.547e-04  t[s]:   5127.08
	Linear fluid (dielectric constant: 78.4, screening length: 5.74355 Bohr) occupying 0.743743 of unit cell:	Completed after 14 iterations at t[s]:   5129.08
	FillingsUpdate:  mu: -0.127626224  nElectrons: 562.000000
	Linear fluid (dielectric constant: 78.4, screening length: 5.74355 Bohr) occupying 0.745743 of unit cell:	Completed after 13 iterations at t[s]:   5197.17
SCF: Cycle:  2   F: -2602.052864144643536   dF: -4.029e-05   |Residual|: 3.190e-03   |deigs|: 4.474e-04  t[s]:   5198.23
	Linear fluid (dielectric constant: 78.4, screening length: 5.74355 Bohr) occupying 0.743910 of unit cell:	Completed after 13 iterations at t[s]:   5200.20
	FillingsUpdate:  mu: -0.126928487  nElectrons: 562.000000
	Linear fluid (dielectric constant: 78.4, screening length: 5.74355 Bohr) occupying 0.745693 of unit cell:	Completed after 10 iterations at t[s]:   5267.71
SCF: Cycle:  3   F: -2602.052963505023854   dF: -9.936e-05   |Residual|: 1.775e-03   |deigs|: 7.153e-04  t[s]:   5268.73
	Linear fluid (dielectric constant: 78.4, screening length: 5.74355 Bohr) occupying 0.744312 of unit cell:	Completed after 10 iterations at t[s]:   5270.38
	FillingsUpdate:  mu: -0.126319074  nElectrons: 562.000000
	Linear fluid (dielectric constant: 78.4, screening length: 5.74355 Bohr) occupying 0.745668 of unit cell:	Completed after 9 iterations at t[s]:   5337.89
SCF: Cycle:  4   F: -2602.052982832527960   dF: -1.933e-05   |Residual|: 1.312e-03   |deigs|: 6.308e-04  t[s]:   5338.93
	Linear fluid (dielectric constant: 78.4, screening length: 5.74355 Bohr) occupying 0.744736 of unit cell:	Completed after 8 iterations at t[s]:   5340.38
	FillingsUpdate:  mu: -0.125885288  nElectrons: 562.000000
	Linear fluid (dielectric constant: 78.4, screening length: 5.74355 Bohr) occupying 0.745654 of unit cell:	Completed after 9 iterations at t[s]:   5407.07
SCF: Cycle:  5   F: -2602.052989374771187   dF: -6.542e-06   |Residual|: 9.464e-04   |deigs|: 4.478e-04  t[s]:   5408.23
	Linear fluid (dielectric constant: 78.4, screening length: 5.74355 Bohr) occupying 0.745284 of unit cell:	Completed after 8 iterations at t[s]:   5409.76
	FillingsUpdate:  mu: -0.125592548  nElectrons: 562.000000
	Linear fluid (dielectric constant: 78.4, screening length: 5.74355 Bohr) occupying 0.745642 of unit cell:	Completed after 7 iterations at t[s]:   5477.18
SCF: Cycle:  6   F: -2602.052993731997049   dF: -4.357e-06   |Residual|: 7.676e-04   |deigs|: 3.233e-04  t[s]:   5478.35
	Linear fluid (dielectric constant: 78.4, screening length: 5.74355 Bohr) occupying 0.745686 of unit cell:	Completed after 6 iterations at t[s]:   5479.62
	FillingsUpdate:  mu: -0.125444025  nElectrons: 562.000000
	Linear fluid (dielectric constant: 78.4, screening length: 5.74355 Bohr) occupying 0.745634 of unit cell:	Completed after 4 iterations at t[s]:   5545.75
SCF: Cycle:  7   F: -2602.052995772036866   dF: -2.040e-06   |Residual|: 5.008e-04   |deigs|: 1.660e-04  t[s]:   5546.74
	Linear fluid (dielectric constant: 78.4, screening length: 5.74355 Bohr) occupying 0.745808 of unit cell:	Completed after 4 iterations at t[s]:   5547.75
	FillingsUpdate:  mu: -0.125452915  nElectrons: 562.000000
	Linear fluid (dielectric constant: 78.4, screening length: 5.74355 Bohr) occupying 0.745628 of unit cell:	Completed after 6 iterations at t[s]:   5614.58
SCF: Cycle:  8   F: -2602.052993296961176   dF: +2.475e-06   |Residual|: 6.400e-04   |deigs|: 8.773e-05  t[s]:   5615.56
	Linear fluid (dielectric constant: 78.4, screening length: 5.74355 Bohr) occupying 0.745893 of unit cell:	Completed after 4 iterations at t[s]:   5616.63
	FillingsUpdate:  mu: -0.125462247  nElectrons: 562.000000
	Linear fluid (dielectric constant: 78.4, screening length: 5.74355 Bohr) occupying 0.745625 of unit cell:	Completed after 4 iterations at t[s]:   5682.92
SCF: Cycle:  9   F: -2602.052997339014837   dF: -4.042e-06   |Residual|: 4.652e-04   |deigs|: 1.341e-04  t[s]:   5683.96
	Linear fluid (dielectric constant: 78.4, screening length: 5.74355 Bohr) occupying 0.745874 of unit cell:	Completed after 2 iterations at t[s]:   5684.77
	FillingsUpdate:  mu: -0.125435514  nElectrons: 562.000000
	Linear fluid (dielectric constant: 78.4, screening length: 5.74355 Bohr) occupying 0.745616 of unit cell:	Completed after 3 iterations at t[s]:   5751.26
SCF: Cycle: 10   F: -2602.052997735772351   dF: -3.968e-07   |Residual|: 5.228e-04   |deigs|: 1.503e-04  t[s]:   5752.34
	Linear fluid (dielectric constant: 78.4, screening length: 5.74355 Bohr) occupying 0.745822 of unit cell:	Completed after 3 iterations at t[s]:   5753.30
	FillingsUpdate:  mu: -0.125449092  nElectrons: 562.000000
	Linear fluid (dielectric constant: 78.4, screening length: 5.74355 Bohr) occupying 0.745613 of unit cell:	Completed after 3 iterations at t[s]:   5820.36
SCF: Cycle: 11   F: -2602.052998520173333   dF: -7.844e-07   |Residual|: 3.414e-04   |deigs|: 2.433e-04  t[s]:   5821.38
	Linear fluid (dielectric constant: 78.4, screening length: 5.74355 Bohr) occupying 0.745765 of unit cell:	Completed after 3 iterations at t[s]:   5822.30
	FillingsUpdate:  mu: -0.125457724  nElectrons: 562.000000
	Linear fluid (dielectric constant: 78.4, screening length: 5.74355 Bohr) occupying 0.745610 of unit cell:	Completed after 2 iterations at t[s]:   5888.81
SCF: Cycle: 12   F: -2602.052998825733994   dF: -3.056e-07   |Residual|: 2.131e-04   |deigs|: 2.621e-04  t[s]:   5889.99
	Linear fluid (dielectric constant: 78.4, screening length: 5.74355 Bohr) occupying 0.745706 of unit cell:	Completed after 3 iterations at t[s]:   5890.97
	FillingsUpdate:  mu: -0.125459319  nElectrons: 562.000000
	Linear fluid (dielectric constant: 78.4, screening length: 5.74355 Bohr) occupying 0.745607 of unit cell:	Completed after 3 iterations at t[s]:   5958.57
SCF: Cycle: 13   F: -2602.052998469875092   dF: +3.559e-07   |Residual|: 2.270e-04   |deigs|: 2.290e-04  t[s]:   5959.75
	Linear fluid (dielectric constant: 78.4, screening length: 5.74355 Bohr) occupying 0.745658 of unit cell:	Completed after 3 iterations at t[s]:   5960.84
	FillingsUpdate:  mu: -0.125454312  nElectrons: 562.000000
	Linear fluid (dielectric constant: 78.4, screening length: 5.74355 Bohr) occupying 0.745604 of unit cell:	Completed after 2 iterations at t[s]:   6027.77
SCF: Cycle: 14   F: -2602.052999021545020   dF: -5.517e-07   |Residual|: 1.573e-04   |deigs|: 1.609e-04  t[s]:   6028.88
	Linear fluid (dielectric constant: 78.4, screening length: 5.74355 Bohr) occupying 0.745597 of unit cell:	Completed after 1 iterations at t[s]:   6029.65
	FillingsUpdate:  mu: -0.125443216  nElectrons: 562.000000
	Linear fluid (dielectric constant: 78.4, screening length: 5.74355 Bohr) occupying 0.745599 of unit cell:	Completed after 3 iterations at t[s]:   6096.50
SCF: Cycle: 15   F: -2602.052995737655692   dF: +3.284e-06   |Residual|: 4.258e-04   |deigs|: 2.772e-04  t[s]:   6097.50
	Linear fluid (dielectric constant: 78.4, screening length: 5.74355 Bohr) occupying 0.745593 of unit cell:	Completed after 3 iterations at t[s]:   6098.44
	FillingsUpdate:  mu: -0.125442831  nElectrons: 562.000000
	Linear fluid (dielectric constant: 78.4, screening length: 5.74355 Bohr) occupying 0.745598 of unit cell:	Completed after 3 iterations at t[s]:   6165.47
SCF: Cycle: 16   F: -2602.052998452731117   dF: -2.715e-06   |Residual|: 1.845e-04   |deigs|: 7.193e-05  t[s]:   6166.58
	Linear fluid (dielectric constant: 78.4, screening length: 5.74355 Bohr) occupying 0.745589 of unit cell:	Completed after 2 iterations at t[s]:   6167.46
	FillingsUpdate:  mu: -0.125441061  nElectrons: 562.000000
	Linear fluid (dielectric constant: 78.4, screening length: 5.74355 Bohr) occupying 0.745598 of unit cell:	Completed after 3 iterations at t[s]:   6233.40
SCF: Cycle: 17   F: -2602.052998818268861   dF: -3.655e-07   |Residual|: 1.671e-04   |deigs|: 2.634e-05  t[s]:   6234.42
	Linear fluid (dielectric constant: 78.4, screening length: 5.74355 Bohr) occupying 0.745595 of unit cell:	Completed after 3 iterations at t[s]:   6235.41
	FillingsUpdate:  mu: -0.125438374  nElectrons: 562.000000
	Linear fluid (dielectric constant: 78.4, screening length: 5.74355 Bohr) occupying 0.745597 of unit cell:	Completed after 3 iterations at t[s]:   6302.05
SCF: Cycle: 18   F: -2602.052998806220330   dF: +1.205e-08   |Residual|: 2.428e-04   |deigs|: 1.029e-04  t[s]:   6303.18
	Linear fluid (dielectric constant: 78.4, screening length: 5.74355 Bohr) occupying 0.745598 of unit cell:	Completed after 3 iterations at t[s]:   6304.17
	FillingsUpdate:  mu: -0.125440944  nElectrons: 562.000000
	Linear fluid (dielectric constant: 78.4, screening length: 5.74355 Bohr) occupying 0.745597 of unit cell:	Completed after 3 iterations at t[s]:   6371.02
SCF: Cycle: 19   F: -2602.052999207219727   dF: -4.010e-07   |Residual|: 1.314e-04   |deigs|: 4.771e-05  t[s]:   6372.18
	Linear fluid (dielectric constant: 78.4, screening length: 5.74355 Bohr) occupying 0.745601 of unit cell:	Completed after 3 iterations at t[s]:   6373.23
	FillingsUpdate:  mu: -0.125440646  nElectrons: 562.000000
	Linear fluid (dielectric constant: 78.4, screening length: 5.74355 Bohr) occupying 0.745596 of unit cell:	Completed after 2 iterations at t[s]:   6440.69
SCF: Cycle: 20   F: -2602.052999152725533   dF: +5.449e-08   |Residual|: 1.499e-04   |deigs|: 9.490e-05  t[s]:   6441.75
	Linear fluid (dielectric constant: 78.4, screening length: 5.74355 Bohr) occupying 0.745603 of unit cell:	Completed after 3 iterations at t[s]:   6442.67
	FillingsUpdate:  mu: -0.125444256  nElectrons: 562.000000
	Linear fluid (dielectric constant: 78.4, screening length: 5.74355 Bohr) occupying 0.745596 of unit cell:	Completed after 2 iterations at t[s]:   6508.87
SCF: Cycle: 21   F: -2602.052999351812559   dF: -1.991e-07   |Residual|: 9.198e-05   |deigs|: 2.978e-05  t[s]:   6510.11
	Linear fluid (dielectric constant: 78.4, screening length: 5.74355 Bohr) occupying 0.745600 of unit cell:	Completed after 1 iterations at t[s]:   6510.97
	FillingsUpdate:  mu: -0.125455067  nElectrons: 562.000000
	Linear fluid (dielectric constant: 78.4, screening length: 5.74355 Bohr) occupying 0.745596 of unit cell:	Completed after 5 iterations at t[s]:   6577.42
SCF: Cycle: 22   F: -2602.052994516371655   dF: +4.835e-06   |Residual|: 4.536e-04   |deigs|: 4.029e-05  t[s]:   6578.51
	Linear fluid (dielectric constant: 78.4, screening length: 5.74355 Bohr) occupying 0.745602 of unit cell:	Completed after 2 iterations at t[s]:   6579.36
	FillingsUpdate:  mu: -0.125456318  nElectrons: 562.000000
	Linear fluid (dielectric constant: 78.4, screening length: 5.74355 Bohr) occupying 0.745597 of unit cell:	Completed after 3 iterations at t[s]:   6646.48
SCF: Cycle: 23   F: -2602.052998483955889   dF: -3.968e-06   |Residual|: 1.979e-04   |deigs|: 2.686e-05  t[s]:   6647.66
	Linear fluid (dielectric constant: 78.4, screening length: 5.74355 Bohr) occupying 0.745603 of unit cell:	Completed after 3 iterations at t[s]:   6648.65
	FillingsUpdate:  mu: -0.125454997  nElectrons: 562.000000
	Linear fluid (dielectric constant: 78.4, screening length: 5.74355 Bohr) occupying 0.745596 of unit cell:	Completed after 3 iterations at t[s]:   6715.88
SCF: Cycle: 24   F: -2602.052999024644123   dF: -5.407e-07   |Residual|: 1.548e-04   |deigs|: 1.025e-05  t[s]:   6717.06
	Linear fluid (dielectric constant: 78.4, screening length: 5.74355 Bohr) occupying 0.745603 of unit cell:	Completed after 3 iterations at t[s]:   6718.01
	FillingsUpdate:  mu: -0.125455453  nElectrons: 562.000000
	Linear fluid (dielectric constant: 78.4, screening length: 5.74355 Bohr) occupying 0.745596 of unit cell:	Completed after 2 iterations at t[s]:   6784.71
SCF: Cycle: 25   F: -2602.052999358656962   dF: -3.340e-07   |Residual|: 8.465e-05   |deigs|: 1.064e-05  t[s]:   6785.84
	Linear fluid (dielectric constant: 78.4, screening length: 5.74355 Bohr) occupying 0.745601 of unit cell:	Completed after 1 iterations at t[s]:   6786.69
	FillingsUpdate:  mu: -0.125449183  nElectrons: 562.000000
	Linear fluid (dielectric constant: 78.4, screening length: 5.74355 Bohr) occupying 0.745595 of unit cell:	Completed after 6 iterations at t[s]:   6854.00
SCF: Cycle: 26   F: -2602.052994577811660   dF: +4.781e-06   |Residual|: 4.223e-04   |deigs|: 3.825e-05  t[s]:   6855.06
	Linear fluid (dielectric constant: 78.4, screening length: 5.74355 Bohr) occupying 0.745602 of unit cell:	Completed after 3 iterations at t[s]:   6856.03
	FillingsUpdate:  mu: -0.125453946  nElectrons: 562.000000
	Linear fluid (dielectric constant: 78.4, screening length: 5.74355 Bohr) occupying 0.745596 of unit cell:	Completed after 3 iterations at t[s]:   6921.70
SCF: Cycle: 27   F: -2602.052998647782715   dF: -4.070e-06   |Residual|: 1.772e-04   |deigs|: 2.352e-05  t[s]:   6922.70
	Linear fluid (dielectric constant: 78.4, screening length: 5.74355 Bohr) occupying 0.745602 of unit cell:	Completed after 3 iterations at t[s]:   6923.61
	FillingsUpdate:  mu: -0.125449681  nElectrons: 562.000000
	Linear fluid (dielectric constant: 78.4, screening length: 5.74355 Bohr) occupying 0.745596 of unit cell:	Completed after 3 iterations at t[s]:   6990.11
SCF: Cycle: 28   F: -2602.052999217733486   dF: -5.700e-07   |Residual|: 1.141e-04   |deigs|: 1.577e-05  t[s]:   6991.17
	Linear fluid (dielectric constant: 78.4, screening length: 5.74355 Bohr) occupying 0.745600 of unit cell:	Completed after 3 iterations at t[s]:   6992.14
	FillingsUpdate:  mu: -0.125450082  nElectrons: 562.000000
	Linear fluid (dielectric constant: 78.4, screening length: 5.74355 Bohr) occupying 0.745596 of unit cell:	Completed after 2 iterations at t[s]:   7058.85
SCF: Cycle: 29   F: -2602.052999404428192   dF: -1.867e-07   |Residual|: 8.680e-05   |deigs|: 1.234e-05  t[s]:   7059.98
	Linear fluid (dielectric constant: 78.4, screening length: 5.74355 Bohr) occupying 0.745599 of unit cell:	Completed after 1 iterations at t[s]:   7060.77
	FillingsUpdate:  mu: -0.125453865  nElectrons: 562.000000
	Linear fluid (dielectric constant: 78.4, screening length: 5.74355 Bohr) occupying 0.745595 of unit cell:	Completed after 4 iterations at t[s]:   7127.48
SCF: Cycle: 30   F: -2602.052995293432105   dF: +4.111e-06   |Residual|: 4.241e-04   |deigs|: 2.227e-05  t[s]:   7128.62
	Linear fluid (dielectric constant: 78.4, screening length: 5.74355 Bohr) occupying 0.745599 of unit cell:	Completed after 4 iterations at t[s]:   7129.77
	FillingsUpdate:  mu: -0.125458128  nElectrons: 562.000000
	Linear fluid (dielectric constant: 78.4, screening length: 5.74355 Bohr) occupying 0.745596 of unit cell:	Completed after 3 iterations at t[s]:   7197.59
SCF: Cycle: 31   F: -2602.052998763195774   dF: -3.470e-06   |Residual|: 1.491e-04   |deigs|: 2.273e-05  t[s]:   7198.72
	Linear fluid (dielectric constant: 78.4, screening length: 5.74355 Bohr) occupying 0.745598 of unit cell:	Completed after 3 iterations at t[s]:   7199.69
	FillingsUpdate:  mu: -0.125457617  nElectrons: 562.000000
	Linear fluid (dielectric constant: 78.4, screening length: 5.74355 Bohr) occupying 0.745596 of unit cell:	Completed after 3 iterations at t[s]:   7266.83
SCF: Cycle: 32   F: -2602.052999189824732   dF: -4.266e-07   |Residual|: 1.259e-04   |deigs|: 2.690e-05  t[s]:   7267.95
	Linear fluid (dielectric constant: 78.4, screening length: 5.74355 Bohr) occupying 0.745599 of unit cell:	Completed after 3 iterations at t[s]:   7268.87
	FillingsUpdate:  mu: -0.125456683  nElectrons: 562.000000
	Linear fluid (dielectric constant: 78.4, screening length: 5.74355 Bohr) occupying 0.745596 of unit cell:	Completed after 2 iterations at t[s]:   7335.26
SCF: Cycle: 33   F: -2602.052999412539066   dF: -2.227e-07   |Residual|: 9.590e-05   |deigs|: 1.759e-05  t[s]:   7336.29
	Linear fluid (dielectric constant: 78.4, screening length: 5.74355 Bohr) occupying 0.745599 of unit cell:	Completed after 1 iterations at t[s]:   7337.08
	FillingsUpdate:  mu: -0.125451681  nElectrons: 562.000000
	Linear fluid (dielectric constant: 78.4, screening length: 5.74355 Bohr) occupying 0.745595 of unit cell:	Completed after 2 iterations at t[s]:   7403.57
SCF: Cycle: 34   F: -2602.052996125490154   dF: +3.287e-06   |Residual|: 3.984e-04   |deigs|: 2.910e-05  t[s]:   7404.88
	Linear fluid (dielectric constant: 78.4, screening length: 5.74355 Bohr) occupying 0.745598 of unit cell:	Completed after 4 iterations at t[s]:   7405.94
	FillingsUpdate:  mu: -0.125458377  nElectrons: 562.000000
	Linear fluid (dielectric constant: 78.4, screening length: 5.74355 Bohr) occupying 0.745596 of unit cell:	Completed after 3 iterations at t[s]:   7473.36
SCF: Cycle: 35   F: -2602.052998642208877   dF: -2.517e-06   |Residual|: 1.516e-04   |deigs|: 2.646e-05  t[s]:   7474.53
	Linear fluid (dielectric constant: 78.4, screening length: 5.74355 Bohr) occupying 0.745598 of unit cell:	Completed after 3 iterations at t[s]:   7475.49
	FillingsUpdate:  mu: -0.125458512  nElectrons: 562.000000
	Linear fluid (dielectric constant: 78.4, screening length: 5.74355 Bohr) occupying 0.745596 of unit cell:	Completed after 2 iterations at t[s]:   7541.70
SCF: Cycle: 36   F: -2602.052999457567694   dF: -8.154e-07   |Residual|: 7.665e-05   |deigs|: 1.141e-05  t[s]:   7542.71
	Linear fluid (dielectric constant: 78.4, screening length: 5.74355 Bohr) occupying 0.745598 of unit cell:	Completed after 1 iterations at t[s]:   7543.50
	FillingsUpdate:  mu: -0.125453484  nElectrons: 562.000000
	Linear fluid (dielectric constant: 78.4, screening length: 5.74355 Bohr) occupying 0.745596 of unit cell:	Completed after 3 iterations at t[s]:   7609.86
SCF: Cycle: 37   F: -2602.052996323096522   dF: +3.134e-06   |Residual|: 3.458e-04   |deigs|: 2.691e-05  t[s]:   7611.08
	Linear fluid (dielectric constant: 78.4, screening length: 5.74355 Bohr) occupying 0.745599 of unit cell:	Completed after 3 iterations at t[s]:   7612.09
	FillingsUpdate:  mu: -0.125451472  nElectrons: 562.000000
	Linear fluid (dielectric constant: 78.4, screening length: 5.74355 Bohr) occupying 0.745595 of unit cell:	Completed after 3 iterations at t[s]:   7678.23
SCF: Cycle: 38   F: -2602.052998982176177   dF: -2.659e-06   |Residual|: 1.327e-04   |deigs|: 1.611e-05  t[s]:   7679.32
	Linear fluid (dielectric constant: 78.4, screening length: 5.74355 Bohr) occupying 0.745598 of unit cell:	Completed after 3 iterations at t[s]:   7680.35
	FillingsUpdate:  mu: -0.125452339  nElectrons: 562.000000
	Linear fluid (dielectric constant: 78.4, screening length: 5.74355 Bohr) occupying 0.745596 of unit cell:	Completed after 2 iterations at t[s]:   7746.93
SCF: Cycle: 39   F: -2602.052999136878043   dF: -1.547e-07   |Residual|: 1.535e-04   |deigs|: 1.015e-05  t[s]:   7747.97
	Linear fluid (dielectric constant: 78.4, screening length: 5.74355 Bohr) occupying 0.745598 of unit cell:	Completed after 3 iterations at t[s]:   7748.89
	FillingsUpdate:  mu: -0.125449470  nElectrons: 562.000000
	Linear fluid (dielectric constant: 78.4, screening length: 5.74355 Bohr) occupying 0.745595 of unit cell:	Completed after 0 iterations at t[s]:   7815.91
SCF: Cycle: 40   F: -2602.052999652622475   dF: -5.157e-07   |Residual|: 6.275e-05   |deigs|: 7.906e-06  t[s]:   7816.95
	Linear fluid (dielectric constant: 78.4, screening length: 5.74355 Bohr) occupying 0.745597 of unit cell:	Completed after 0 iterations at t[s]:   7817.48
	FillingsUpdate:  mu: -0.125449463  nElectrons: 562.000000
	Linear fluid (dielectric constant: 78.4, screening length: 5.74355 Bohr) occupying 0.745595 of unit cell:	Completed after 0 iterations at t[s]:   7881.88
SCF: Cycle: 41   F: -2602.052999653028564   dF: -4.061e-10   |Residual|: 6.228e-05   |deigs|: 1.614e-06  t[s]:   7882.99
	Linear fluid (dielectric constant: 78.4, screening length: 5.74355 Bohr) occupying 0.745595 of unit cell:	Completed after 0 iterations at t[s]:   7883.54
	FillingsUpdate:  mu: -0.125449443  nElectrons: 562.000000
	Linear fluid (dielectric constant: 78.4, screening length: 5.74355 Bohr) occupying 0.745595 of unit cell:	Completed after 0 iterations at t[s]:   7948.73
SCF: Cycle: 42   F: -2602.052999654072664   dF: -1.044e-09   |Residual|: 6.086e-05   |deigs|: 3.574e-06  t[s]:   7950.18
SCF: Converged (|Delta E|<1.000000e-08 for 2 iters).

Single-point solvation energy estimate, DeltaF = -0.001005637327580

# Ionic positions in lattice coordinates:
ion Pt  -0.000874463184096   0.001666990692796   0.500960196424310 0
ion Pt   0.252369639787122   0.250847543613234   0.497544027146070 0
ion Pt   0.498170804472638  -0.005431985104489   0.503079563463673 0
ion Pt   0.751666991128693   0.249125536380007   0.500960196424310 0
ion Pt   0.000847544049131   0.502369639351224   0.497544027146070 0
ion Pt   0.238993421741050   0.756999293639283   0.497641374511447 0
ion Pt   0.506999294075181   0.488993421305153   0.497641374511447 0
ion Pt   0.744568015331409   0.748170804036741   0.503079563463673 0
ion Pb   0.340392923608328   0.414728415669491   0.411371411857660 0
ion Pb   0.087938870337129   0.337938869901232   0.420489033608959 0
ion Pb   0.087844879121037   0.170199273285108   0.580695444276939 0
ion Pb   0.416240146548057   0.337887346948176   0.579479178089738 0
ion Pb   0.193189474559593   0.443189474123696   0.566054531048735 0
ion Pb   0.334621603416067   0.086470000019587   0.580678326951070 0
ion Pb   0.166561017967458   0.083880131567698   0.419273877043832 0
ion Pb   0.417852398846170   0.161586914019907   0.417764372163253 0
ion Pb   0.833880132003595   0.416561017531561   0.419273877043832 0
ion Pb   0.590755085517426   0.330332245231312   0.413174321156451 0
ion Pb   0.583320904619389   0.162275313470277   0.581774842936703 0
ion Pb   0.920199273721005   0.337844878685140   0.580695444276939 0
ion Pb   0.669146738435806   0.412067189157318   0.581218784665075 0
ion Pb   0.832006342092391   0.082006341656494   0.579747580904130 0
ion Pb   0.663298495974222   0.081897581037253   0.420883471100669 0
ion Pb   0.920492703502842   0.170492703066945   0.422201499146994 0
ion Pb   0.336483314729149   0.914978971950398   0.418636456410832 0
ion Pb   0.080332245667210   0.840755085081529   0.413174321156451 0
ion Pb   0.087887347384073   0.666240146112159   0.579479178089738 0
ion Pb   0.407254884954613   0.828427375904398   0.585200085608633 0
ion Pb   0.162067189593215   0.919146737999909   0.581218784665075 0
ion Pb   0.164728416105388   0.590392923172431   0.411371411857660 0
ion Pb   0.406250144949285   0.656250144513387   0.444236480046802 0
ion Pb   0.831897581473151   0.913298495538324   0.420883471100669 0
ion Pb   0.575438397593607   0.825438397157710   0.422174736125651 0
ion Pb   0.578427376340295   0.657254884518716   0.585200085608633 0
ion Pb   0.912275313906175   0.833320904183492   0.581774842936703 0
ion Pb   0.659542412334626   0.909542411898728   0.585976185506048 0
ion Pb   0.836470000455485   0.584621602980169   0.580678326951070 0
ion Pb   0.664978972386295   0.586483314293252   0.418636456410832 0
ion Pb   0.911586914455804   0.667852398410273   0.417764372163253 0


# Forces in Lattice coordinates:
force Pt  -0.012139968213179  -0.007661283592788  -0.004072961183423 0
force Pt  -0.000023930897075   0.031342866202764   0.016170463987732 0
force Pt   0.018943388811528   0.004507128280032   0.003188693469313 0
force Pt  -0.007661283592788  -0.012139968213179  -0.004072961183423 0
force Pt   0.031342866202764  -0.000023930897075   0.016170463987732 0
force Pt   0.023200953547871  -0.024420810142587  -0.010099512349715 0
force Pt  -0.024420810142587   0.023200953547871  -0.010099512349715 0
force Pt   0.004507128280032   0.018943388811528   0.003188693469313 0
force Pb  -0.012207481945118  -0.004665955183508   0.019948567828663 0
force Pb  -0.007025748634546  -0.007025748634546   0.037742329551540 0
force Pb  -0.031706255233301   0.022343905915800  -0.039038606122302 0
force Pb   0.006213675176242  -0.039506860516748  -0.037206746680461 0
force Pb  -0.009984122256403  -0.009984122256403  -0.052702240383254 0
force Pb  -0.016766815812581  -0.031053147778685  -0.006541492992790 0
force Pb   0.022766505881280  -0.008438817115290   0.010416147213880 0
force Pb   0.002123927693572   0.024791478255559   0.043707495091910 0
force Pb  -0.008438817115290   0.022766505881280   0.010416147213880 0
force Pb   0.001741447303998  -0.038647377722336   0.043228758416102 0
force Pb  -0.001489687357781   0.031415259368734  -0.057765006480370 0
force Pb   0.022343905915800  -0.031706255233301  -0.039038606122302 0
force Pb   0.026568785337822   0.005161433921192  -0.025226204548935 0
force Pb  -0.011247494899828  -0.011247494899828   0.052146799352597 0
force Pb   0.027979935915288  -0.014753769320637   0.028568966420746 0
force Pb  -0.019608364359728  -0.019608364359728   0.033346275202846 0
force Pb  -0.029509288942274   0.018270010885928   0.033557365055868 0
force Pb  -0.038647377722336   0.001741447303998   0.043228758416102 0
force Pb  -0.039506860516748   0.006213675176242  -0.037206746680461 0
force Pb   0.032641549139372   0.005408758015140  -0.052988223403554 0
force Pb   0.005161433921192   0.026568785337822  -0.025226204548935 0
force Pb  -0.004665955183508  -0.012207481945118   0.019948567828663 0
force Pb   0.017593998737234   0.017593998737234   0.004355493618128 0
force Pb  -0.014753769320637   0.027979935915288   0.028568966420746 0
force Pb  -0.020773705540608  -0.020773705540608   0.102246283060543 0
force Pb   0.005408758015140   0.032641549139372  -0.052988223403554 0
force Pb   0.031415259368734  -0.001489687357781  -0.057765006480370 0
force Pb   0.018025071913771   0.018025071913771  -0.041878682882837 0
force Pb  -0.031053147778685  -0.016766815812581  -0.006541492992790 0
force Pb   0.018270010885928  -0.029509288942274   0.033557365055868 0
force Pb   0.024791478255559   0.002123927693572   0.043707495091910 0

# Energy components:
   A_diel =       -0.0019523817502394
   Eewald =    11092.2269345182212419
       EH =    13416.4529699610629905
     Eloc =   -27659.5926514874008717
      Enl =      346.1125144159286720
      Exc =    -1210.1435958050524277
 Exc_core =      785.2101787919440312
       KE =      627.7320589071836139
-------------------------------------
     Etot =    -2602.0035430798643574
       TS =        0.0494565742083792
-------------------------------------
        F =    -2602.0529996540726643

IonicMinimize: Iter:   0  F: -2602.052999654072664  |grad|_K:  0.000e+00  t[s]:   7959.29
IonicMinimize: Converged (|grad|_K<1.000000e-04).

#--- Lowdin population analysis ---
# oxidation-state Pt -1.372 -1.359 -1.375 -1.372 -1.359 -1.330 -1.330 -1.375
# oxidation-state Pb +0.345 +0.377 +0.375 +0.408 +0.370 +0.379 +0.366 +0.352 +0.366 +0.396 +0.363 +0.375 +0.406 +0.378 +0.357 +0.382 +0.392 +0.396 +0.408 +0.368 +0.406 +0.345 +0.382 +0.357 +0.378 +0.368 +0.363 +0.396 +0.379 +0.392 +0.352


Dumping 'NbTe2.fillings' ... done
Dumping 'NbTe2.wfns' ... done
Dumping 'NbTe2.fluidState' ... done
Dumping 'NbTe2.eigenvals' ... done
End date and time: Sun Jul  5 06:34:49 2020  (Duration: 0-2:12:44.91)
Done!
