
*************** JDFTx 1.5.0  ***************

Start date and time: Fri Jul 17 21:58:21 2020
Executable jdftx_gpu with command-line: -i Charged.in -o Charged.out
Running on hosts (process indices):  amax (0-5)
Divided in process groups (process indices):  0 (0)  1 (1)  2 (2)  3 (3)  4 (4)  5 (5)
gpuInit: Found compatible cuda device 0 'Tesla K80'
gpuInit: Found compatible cuda device 1 'Tesla K80'
gpuInit: Found compatible cuda device 2 'Tesla K80'
gpuInit: Found compatible cuda device 3 'Tesla K80'
gpuInit: Found compatible cuda device 4 'Tesla K80'
gpuInit: Found compatible cuda device 5 'Tesla K80'
gpuInit: Selected device 0
Resource initialization completed at t[s]:     13.29
Run totals: 6 processes, 24 threads, 6 GPUs


Input parsed successfully to the following command list (including defaults):

basis kpoint-dependent
cache-projectors no
coords-type Lattice
core-overlap-check none
coulomb-interaction Slab 001
coulomb-truncation-embed 0 0 0.5
davidson-band-ratio 1.1
dump End State
dump-name NbTe2.$VAR
elec-cutoff 20 100
elec-eigen-algo Davidson
elec-ex-corr gga-PBE
elec-smearing Gauss 0.0073499
electronic-minimize  \
	dirUpdateScheme      FletcherReeves \
	linminMethod         DirUpdateRecommended \
	nIterations          500 \
	history              15 \
	knormThreshold       0 \
	energyDiffThreshold  1e-08 \
	nEnergyDiff          2 \
	alphaTstart          1 \
	alphaTmin            1e-10 \
	updateTestStepSize   yes \
	alphaTreduceFactor   0.1 \
	alphaTincreaseFactor 3 \
	nAlphaAdjustMax      3 \
	wolfeEnergy          0.0001 \
	wolfeGradient        0.9 \
	fdTest               no
exchange-regularization WignerSeitzTruncated
fluid LinearPCM 298.000000 1.013250
fluid-anion F- 1 MeanFieldLJ \
	epsBulk 1 \
	pMol 0 \
	epsInf 1 \
	Pvap 0 \
	sigmaBulk 0 \
	Rvdw 2.24877 \
	Res 0 \
	tauNuc 343133
fluid-cation Na+ 1 MeanFieldLJ \
	epsBulk 1 \
	pMol 0 \
	epsInf 1 \
	Pvap 0 \
	sigmaBulk 0 \
	Rvdw 2.19208 \
	Res 0 \
	tauNuc 343133
fluid-ex-corr lda-TF lda-PZ
fluid-gummel-loop 10 1.000000e-05
fluid-minimize  \
	dirUpdateScheme      PolakRibiere \
	linminMethod         DirUpdateRecommended \
	nIterations          400 \
	history              15 \
	knormThreshold       1e-11 \
	energyDiffThreshold  0 \
	nEnergyDiff          2 \
	alphaTstart          1 \
	alphaTmin            1e-10 \
	updateTestStepSize   yes \
	alphaTreduceFactor   0.1 \
	alphaTincreaseFactor 3 \
	nAlphaAdjustMax      6 \
	wolfeEnergy          0.0001 \
	wolfeGradient        0.9 \
	fdTest               no
fluid-solvent H2O 55.338 ScalarEOS \
	epsBulk 78.4 \
	pMol 0.92466 \
	epsInf 1.77 \
	Pvap 1.06736e-10 \
	sigmaBulk 4.62e-05 \
	Rvdw 2.61727 \
	Res 1.42 \
	tauNuc 343133 \
	poleEl 15 7 1
forces-output-coords Positions
initial-state NbTe2.$VAR
ion Zn   0.111674946202205   0.222681735609682   0.329255932420121 0
ion Zn   0.444336795407482   0.222681735609682   0.329255932420121 0
ion Zn   0.777779996000000   0.222220006999997   0.329274370845919 0
ion Zn   0.111674963202203   0.555663219592516   0.329255932420121 0
ion Zn   0.444440016999998   0.555560004999997   0.328906419606773 0
ion Zn   0.777318273390315   0.555663219592516   0.329255932420121 0
ion Zn   0.111110042999996   0.888890039000003   0.329190615118344 0
ion Zn   0.444336856407483   0.888325095797798   0.329255932420121 0
ion Zn   0.777318287390316   0.888325095797798   0.329255932420121 0
ion In  -0.000145585629577   0.000145585629577   0.485695394781003 0
ion In   0.223179030016992   0.113028053033991   0.648510028521651 0
ion In   0.333621178259155   0.000145585629577   0.485695394781003 0
ion In   0.553989490388433   0.110324752694216   0.648160629966248 0
ion In   0.666117968924275  -0.001104130151448   0.484712168478150 0
ion In   0.889675289305788   0.110324752694216   0.648160629966248 0
ion In   0.001104132151448   0.333882075075721   0.484712168478150 0
ion In   0.260052379024853   0.463356200012429   0.649471889050365 0
ion In   0.335055745177351   0.336781482354698   0.486055796289256 0
ion In   0.536643806987575   0.463356200012429   0.649471889050365 0
ion In   0.666117969924279   0.333882075075721   0.484712168478150 0
ion In   0.889675250305788   0.446010514611570   0.648160629966248 0
ion In  -0.000145586629574   0.666378860740844   0.485695394781003 0
ion In   0.223179058016995   0.776820986983006   0.648510028521651 0
ion In   0.335055742177347   0.664944295822649   0.486055796289256 0
ion In   0.536643812987575   0.739947639975145   0.649471889050365 0
ion In   0.663218560645303   0.664944295822649   0.486055796289256 0
ion In   0.886971955966007   0.776820986983006   0.648510028521651 0
ion Se   0.222204234105101   0.111078461210209   0.308614087651652 0
ion Se   0.222133091393011   0.110936175786028   0.549327313400804 0
ion Se   0.112041640377505   0.222118179587071   0.434302092133100 0
ion Se   0.115447828679643   0.228822284553339   0.691992944227311 0
ion Se   0.555359650209589   0.111009832604794   0.309462952796716 0
ion Se   0.556359280111048   0.111509647555523   0.548916986642502 0
ion Se   0.443406545209570   0.222118179587071   0.434302092133100 0
ion Se   0.446704461873700   0.228822284553339   0.691992944227311 0
ion Se   0.888990209395210   0.111009832604794   0.309462952796716 0
ion Se   0.888490394444481   0.111509647555523   0.548916986642502 0
ion Se   0.777779996000000   0.222220006999997   0.434304861147628 0
ion Se   0.777779996000000   0.222220006999997   0.693399324878097 0
ion Se   0.222108725081756   0.444384373040881   0.308062461628315 0
ion Se   0.221499763381207   0.444079892190606   0.548875739379283 0
ion Se   0.112041657377503   0.556593469790428   0.434302092133100 0
ion Se   0.115447845679641   0.553295553126297   0.691992944227311 0
ion Se   0.555615633959124   0.444384373040881   0.308062461628315 0
ion Se   0.555920114809398   0.444079892190606   0.548875739379283 0
ion Se   0.444440016999998   0.555560004999997   0.432741354794532 0
ion Se   0.888990170395210   0.444640354790415   0.309462952796716 0
ion Se   0.888490355444481   0.443640724888956   0.548916986642502 0
ion Se   0.777881829412927   0.556593469790428   0.434302092133100 0
ion Se   0.771177724446659   0.553295553126297   0.691992944227311 0
ion Se   0.222204262105103   0.777795782894897   0.308614087651652 0
ion Se   0.222133119393013   0.777866925606987   0.549327313400804 0
ion Se   0.111110042999996   0.888890039000003   0.434586286830789 0
ion Se   0.111110042999996   0.888890039000003   0.693465365336902 0
ion Se   0.555615639959124   0.777891293918242   0.308062461628315 0
ion Se   0.555920120809398   0.778500255618791   0.548875739379283 0
ion Se   0.443406606209572   0.887958401622499   0.434302092133100 0
ion Se   0.446704522873702   0.884552213320361   0.691992944227311 0
ion Se   0.888921547789789   0.777795782894897   0.308614087651652 0
ion Se   0.889063833213969   0.777866925606987   0.549327313400804 0
ion Se   0.777881843412928   0.887958401622499   0.434302092133100 0
ion Se   0.771177738446660   0.884552213320361   0.691992944227311 0
ion-species GBRV/$ID_pbe.uspp
ion-width Ecut
ionic-minimize  \
	dirUpdateScheme      L-BFGS \
	linminMethod         DirUpdateRecommended \
	nIterations          0 \
	history              15 \
	knormThreshold       0.0001 \
	energyDiffThreshold  1e-06 \
	nEnergyDiff          2 \
	alphaTstart          1 \
	alphaTmin            1e-10 \
	updateTestStepSize   yes \
	alphaTreduceFactor   0.1 \
	alphaTincreaseFactor 3 \
	nAlphaAdjustMax      3 \
	wolfeEnergy          0.0001 \
	wolfeGradient        0.9 \
	fdTest               no
kpoint   0.000000000000   0.000000000000   0.000000000000  1.00000000000000
kpoint-folding 3 3 1 
latt-move-scale 1 1 1
latt-scale 1 1 1 
lattice Triclinic 22.0331 22.0331 46.3688 90 90 120
lattice-minimize  \
	dirUpdateScheme      L-BFGS \
	linminMethod         DirUpdateRecommended \
	nIterations          0 \
	history              15 \
	knormThreshold       0 \
	energyDiffThreshold  1e-06 \
	nEnergyDiff          2 \
	alphaTstart          1 \
	alphaTmin            1e-10 \
	updateTestStepSize   yes \
	alphaTreduceFactor   0.1 \
	alphaTincreaseFactor 3 \
	nAlphaAdjustMax      3 \
	wolfeEnergy          0.0001 \
	wolfeGradient        0.9 \
	fdTest               no
lcao-params -1 1e-06 0.0073499
pcm-variant CANDLE
spintype no-spin
subspace-rotation-factor 1 yes
symmetries automatic
symmetry-threshold 0.0001
target-mu -0.171252 no




---------- Setting up symmetries ----------

Found 24 point-group symmetries of the bravais lattice
Found 6 space-group symmetries with basis
Applied RMS atom displacement 6.88499e-05 bohrs to make symmetries exact.

---------- Initializing the Grid ----------
R = 
[    22.0331   -11.0165          0  ]
[          0    19.0812          0  ]
[          0          0    46.3688  ]
unit cell volume = 19494.2
G =
[   0.285171   0.164643         -0  ]
[          0   0.329287          0  ]
[          0         -0   0.135505  ]
Minimum fftbox size, Smin = [  100  100  212  ]
Chosen fftbox size, S = [  100  100  216  ]

---------- Initializing tighter grid for wavefunction operations ----------
R = 
[    22.0331   -11.0165          0  ]
[          0    19.0812          0  ]
[          0          0    46.3688  ]
unit cell volume = 19494.2
G =
[   0.285171   0.164643         -0  ]
[          0   0.329287          0  ]
[          0         -0   0.135505  ]
Minimum fftbox size, Smin = [  92  92  188  ]
Chosen fftbox size, S = [  96  96  192  ]

---------- Exchange Correlation functional ----------
Initalized PBE GGA exchange.
Initalized PBE GGA correlation.

---------- Setting up pseudopotentials ----------
Width of ionic core gaussian charges (only for fluid interactions / plotting) set to 0.397384

Reading pseudopotential file '/home/guoxy/vasp/jdftx-1.5.0/build/pseudopotentials/GBRV/zn_pbe.uspp':
  Title: Zn.  Created by USPP 7.3.6 on 14-9-2013
  Reference state energy: -230.738654.  20 valence electrons in orbitals:
    |300>  occupation: 2  eigenvalue: -4.749171
    |310>  occupation: 6  eigenvalue: -3.064985
    |320>  occupation: 10  eigenvalue: -0.372657
    |400>  occupation: 2  eigenvalue: -0.219719
    |410>  occupation: 0  eigenvalue: -0.040996
  lMax: 2  lLocal: 3  QijEcut: 5
  6 projectors sampled on a log grid with 687 points:
    l: 0  eig: -4.749172  rCut: 1.35
    l: 0  eig: -0.219719  rCut: 1.35
    l: 1  eig: -3.064985  rCut: 1.4
    l: 1  eig: -0.040997  rCut: 1.4
    l: 2  eig: -0.372656  rCut: 1.6
    l: 2  eig: 1.000000  rCut: 1.6
  Transforming local potential to a uniform radial grid of dG=0.02 with 1608 points.
  Transforming nonlocal projectors to a uniform radial grid of dG=0.02 with 432 points.
  Transforming density augmentations to a uniform radial grid of dG=0.02 with 1608 points.
  Transforming atomic orbitals to a uniform radial grid of dG=0.02 with 432 points.
  Core radius for overlap checks: 1.80 bohrs.

Reading pseudopotential file '/home/guoxy/vasp/jdftx-1.5.0/build/pseudopotentials/GBRV/in_pbe.uspp':
  Title: In.  Created by USPP 7.3.6 on 31-3-15
  Reference state energy: -66.141337.  13 valence electrons in orbitals:
    |420>  occupation: 10  eigenvalue: -1.145775
    |500>  occupation: 1.5  eigenvalue: -0.705913
    |510>  occupation: 0  eigenvalue: -0.449223
  lMax: 2  lLocal: 3  QijEcut: 5.5
  6 projectors sampled on a log grid with 719 points:
    l: 0  eig: -0.705911  rCut: 1.8
    l: 0  eig: 1.000000  rCut: 1.8
    l: 1  eig: -0.705911  rCut: 2
    l: 1  eig: 1.000000  rCut: 2
    l: 2  eig: -1.145775  rCut: 1.65
    l: 2  eig: 0.750000  rCut: 1.65
  Partial core density with radius 1.4
  Transforming core density to a uniform radial grid of dG=0.02 with 1608 points.
  Transforming local potential to a uniform radial grid of dG=0.02 with 1608 points.
  Transforming nonlocal projectors to a uniform radial grid of dG=0.02 with 432 points.
  Transforming density augmentations to a uniform radial grid of dG=0.02 with 1608 points.
  Transforming atomic orbitals to a uniform radial grid of dG=0.02 with 432 points.
  Core radius for overlap checks: 2.40 bohrs.

Reading pseudopotential file '/home/guoxy/vasp/jdftx-1.5.0/build/pseudopotentials/GBRV/se_pbe.uspp':
  Title: Se.  Created by USPP 7.3.6 on 14-9-2013
  Reference state energy: -21.672887.  6 valence electrons in orbitals:
    |400>  occupation: 2  eigenvalue: -0.635284
    |410>  occupation: 4  eigenvalue: -0.239295
  lMax: 2  lLocal: 3  QijEcut: 5
  6 projectors sampled on a log grid with 625 points:
    l: 0  eig: -0.635278  rCut: 1.5
    l: 0  eig: 0.500000  rCut: 1.5
    l: 1  eig: -0.239295  rCut: 1.5
    l: 1  eig: 0.500000  rCut: 1.5
    l: 2  eig: 0.000000  rCut: 1.8
    l: 2  eig: 1.000000  rCut: 1.8
  Partial core density with radius 1.2
  Transforming core density to a uniform radial grid of dG=0.02 with 1608 points.
  Transforming local potential to a uniform radial grid of dG=0.02 with 1608 points.
  Transforming nonlocal projectors to a uniform radial grid of dG=0.02 with 432 points.
  Transforming density augmentations to a uniform radial grid of dG=0.02 with 1608 points.
  Transforming atomic orbitals to a uniform radial grid of dG=0.02 with 432 points.

*************** JDFTx 1.5.0  ***************

Start date and time: Fri Jul 17 21:59:02 2020
Executable jdftx_gpu with command-line: -i Charged.in -o Charged.out
Running on hosts (process indices):  amax (0-5)
Divided in process groups (process indices):  0 (0)  1 (1)  2 (2)  3 (3)  4 (4)  5 (5)
gpuInit: Found compatible cuda device 0 'Tesla K80'
gpuInit: Found compatible cuda device 1 'Tesla K80'
gpuInit: Found compatible cuda device 2 'Tesla K80'
gpuInit: Found compatible cuda device 3 'Tesla K80'
gpuInit: Found compatible cuda device 4 'Tesla K80'
gpuInit: Found compatible cuda device 5 'Tesla K80'
gpuInit: Selected device 0
Resource initialization completed at t[s]:     12.68
Run totals: 6 processes, 24 threads, 6 GPUs


Input parsed successfully to the following command list (including defaults):

basis kpoint-dependent
cache-projectors no
coords-type Lattice
core-overlap-check none
coulomb-interaction Slab 001
coulomb-truncation-embed 0 0 0.5
davidson-band-ratio 1.1
dump End State
dump-name NbTe2.$VAR
elec-cutoff 20 100
elec-eigen-algo Davidson
elec-ex-corr gga-PBE
elec-smearing Gauss 0.0073499
electronic-minimize  \
	dirUpdateScheme      FletcherReeves \
	linminMethod         DirUpdateRecommended \
	nIterations          500 \
	history              15 \
	knormThreshold       0 \
	energyDiffThreshold  1e-08 \
	nEnergyDiff          2 \
	alphaTstart          1 \
	alphaTmin            1e-10 \
	updateTestStepSize   yes \
	alphaTreduceFactor   0.1 \
	alphaTincreaseFactor 3 \
	nAlphaAdjustMax      3 \
	wolfeEnergy          0.0001 \
	wolfeGradient        0.9 \
	fdTest               no
exchange-regularization WignerSeitzTruncated
fluid LinearPCM 298.000000 1.013250
fluid-anion F- 1 MeanFieldLJ \
	epsBulk 1 \
	pMol 0 \
	epsInf 1 \
	Pvap 0 \
	sigmaBulk 0 \
	Rvdw 2.24877 \
	Res 0 \
	tauNuc 343133
fluid-cation Na+ 1 MeanFieldLJ \
	epsBulk 1 \
	pMol 0 \
	epsInf 1 \
	Pvap 0 \
	sigmaBulk 0 \
	Rvdw 2.19208 \
	Res 0 \
	tauNuc 343133
fluid-ex-corr lda-TF lda-PZ
fluid-gummel-loop 10 1.000000e-05
fluid-minimize  \
	dirUpdateScheme      PolakRibiere \
	linminMethod         DirUpdateRecommended \
	nIterations          400 \
	history              15 \
	knormThreshold       1e-11 \
	energyDiffThreshold  0 \
	nEnergyDiff          2 \
	alphaTstart          1 \
	alphaTmin            1e-10 \
	updateTestStepSize   yes \
	alphaTreduceFactor   0.1 \
	alphaTincreaseFactor 3 \
	nAlphaAdjustMax      6 \
	wolfeEnergy          0.0001 \
	wolfeGradient        0.9 \
	fdTest               no
fluid-solvent H2O 55.338 ScalarEOS \
	epsBulk 78.4 \
	pMol 0.92466 \
	epsInf 1.77 \
	Pvap 1.06736e-10 \
	sigmaBulk 4.62e-05 \
	Rvdw 2.61727 \
	Res 1.42 \
	tauNuc 343133 \
	poleEl 15 7 1
forces-output-coords Positions
initial-state NbTe2.$VAR
ion Zn   0.111674946202205   0.222681735609682   0.329255932420121 0
ion Zn   0.444336795407482   0.222681735609682   0.329255932420121 0
ion Zn   0.777779996000000   0.222220006999997   0.329274370845919 0
ion Zn   0.111674963202203   0.555663219592516   0.329255932420121 0
ion Zn   0.444440016999998   0.555560004999997   0.328906419606773 0
ion Zn   0.777318273390315   0.555663219592516   0.329255932420121 0
ion Zn   0.111110042999996   0.888890039000003   0.329190615118344 0
ion Zn   0.444336856407483   0.888325095797798   0.329255932420121 0
ion Zn   0.777318287390316   0.888325095797798   0.329255932420121 0
ion In  -0.000145585629577   0.000145585629577   0.485695394781003 0
ion In   0.223179030016992   0.113028053033991   0.648510028521651 0
ion In   0.333621178259155   0.000145585629577   0.485695394781003 0
ion In   0.553989490388433   0.110324752694216   0.648160629966248 0
ion In   0.666117968924275  -0.001104130151448   0.484712168478150 0
ion In   0.889675289305788   0.110324752694216   0.648160629966248 0
ion In   0.001104132151448   0.333882075075721   0.484712168478150 0
ion In   0.260052379024853   0.463356200012429   0.649471889050365 0
ion In   0.335055745177351   0.336781482354698   0.486055796289256 0
ion In   0.536643806987575   0.463356200012429   0.649471889050365 0
ion In   0.666117969924279   0.333882075075721   0.484712168478150 0
ion In   0.889675250305788   0.446010514611570   0.648160629966248 0
ion In  -0.000145586629574   0.666378860740844   0.485695394781003 0
ion In   0.223179058016995   0.776820986983006   0.648510028521651 0
ion In   0.335055742177347   0.664944295822649   0.486055796289256 0
ion In   0.536643812987575   0.739947639975145   0.649471889050365 0
ion In   0.663218560645303   0.664944295822649   0.486055796289256 0
ion In   0.886971955966007   0.776820986983006   0.648510028521651 0
ion Se   0.222204234105101   0.111078461210209   0.308614087651652 0
ion Se   0.222133091393011   0.110936175786028   0.549327313400804 0
ion Se   0.112041640377505   0.222118179587071   0.434302092133100 0
ion Se   0.115447828679643   0.228822284553339   0.691992944227311 0
ion Se   0.555359650209589   0.111009832604794   0.309462952796716 0
ion Se   0.556359280111048   0.111509647555523   0.548916986642502 0
ion Se   0.443406545209570   0.222118179587071   0.434302092133100 0
ion Se   0.446704461873700   0.228822284553339   0.691992944227311 0
ion Se   0.888990209395210   0.111009832604794   0.309462952796716 0
ion Se   0.888490394444481   0.111509647555523   0.548916986642502 0
ion Se   0.777779996000000   0.222220006999997   0.434304861147628 0
ion Se   0.777779996000000   0.222220006999997   0.693399324878097 0
ion Se   0.222108725081756   0.444384373040881   0.308062461628315 0
ion Se   0.221499763381207   0.444079892190606   0.548875739379283 0
ion Se   0.112041657377503   0.556593469790428   0.434302092133100 0
ion Se   0.115447845679641   0.553295553126297   0.691992944227311 0
ion Se   0.555615633959124   0.444384373040881   0.308062461628315 0
ion Se   0.555920114809398   0.444079892190606   0.548875739379283 0
ion Se   0.444440016999998   0.555560004999997   0.432741354794532 0
ion Se   0.888990170395210   0.444640354790415   0.309462952796716 0
ion Se   0.888490355444481   0.443640724888956   0.548916986642502 0
ion Se   0.777881829412927   0.556593469790428   0.434302092133100 0
ion Se   0.771177724446659   0.553295553126297   0.691992944227311 0
ion Se   0.222204262105103   0.777795782894897   0.308614087651652 0
ion Se   0.222133119393013   0.777866925606987   0.549327313400804 0
ion Se   0.111110042999996   0.888890039000003   0.434586286830789 0
ion Se   0.111110042999996   0.888890039000003   0.693465365336902 0
ion Se   0.555615639959124   0.777891293918242   0.308062461628315 0
ion Se   0.555920120809398   0.778500255618791   0.548875739379283 0
ion Se   0.443406606209572   0.887958401622499   0.434302092133100 0
ion Se   0.446704522873702   0.884552213320361   0.691992944227311 0
ion Se   0.888921547789789   0.777795782894897   0.308614087651652 0
ion Se   0.889063833213969   0.777866925606987   0.549327313400804 0
ion Se   0.777881843412928   0.887958401622499   0.434302092133100 0
ion Se   0.771177738446660   0.884552213320361   0.691992944227311 0
ion-species GBRV/$ID_pbe.uspp
ion-width Ecut
ionic-minimize  \
	dirUpdateScheme      L-BFGS \
	linminMethod         DirUpdateRecommended \
	nIterations          0 \
	history              15 \
	knormThreshold       0.0001 \
	energyDiffThreshold  1e-06 \
	nEnergyDiff          2 \
	alphaTstart          1 \
	alphaTmin            1e-10 \
	updateTestStepSize   yes \
	alphaTreduceFactor   0.1 \
	alphaTincreaseFactor 3 \
	nAlphaAdjustMax      3 \
	wolfeEnergy          0.0001 \
	wolfeGradient        0.9 \
	fdTest               no
kpoint   0.000000000000   0.000000000000   0.000000000000  1.00000000000000
kpoint-folding 3 3 1 
latt-move-scale 1 1 1
latt-scale 1 1 1 
lattice Triclinic 22.0331 22.0331 46.3688 90 90 120
lattice-minimize  \
	dirUpdateScheme      L-BFGS \
	linminMethod         DirUpdateRecommended \
	nIterations          0 \
	history              15 \
	knormThreshold       0 \
	energyDiffThreshold  1e-06 \
	nEnergyDiff          2 \
	alphaTstart          1 \
	alphaTmin            1e-10 \
	updateTestStepSize   yes \
	alphaTreduceFactor   0.1 \
	alphaTincreaseFactor 3 \
	nAlphaAdjustMax      3 \
	wolfeEnergy          0.0001 \
	wolfeGradient        0.9 \
	fdTest               no
lcao-params -1 1e-06 0.0073499
pcm-variant CANDLE
spintype no-spin
subspace-rotation-factor 1 yes
symmetries automatic
symmetry-threshold 0.0001
target-mu -0.24475 no




---------- Setting up symmetries ----------

Found 24 point-group symmetries of the bravais lattice
Found 6 space-group symmetries with basis
Applied RMS atom displacement 6.88499e-05 bohrs to make symmetries exact.

---------- Initializing the Grid ----------
R = 
[    22.0331   -11.0165          0  ]
[          0    19.0812          0  ]
[          0          0    46.3688  ]
unit cell volume = 19494.2
G =
[   0.285171   0.164643         -0  ]
[          0   0.329287          0  ]
[          0         -0   0.135505  ]
Minimum fftbox size, Smin = [  100  100  212  ]
Chosen fftbox size, S = [  100  100  216  ]

---------- Initializing tighter grid for wavefunction operations ----------
R = 
[    22.0331   -11.0165          0  ]
[          0    19.0812          0  ]
[          0          0    46.3688  ]
unit cell volume = 19494.2
G =
[   0.285171   0.164643         -0  ]
[          0   0.329287          0  ]
[          0         -0   0.135505  ]
Minimum fftbox size, Smin = [  92  92  188  ]
Chosen fftbox size, S = [  96  96  192  ]

---------- Exchange Correlation functional ----------
Initalized PBE GGA exchange.
Initalized PBE GGA correlation.

---------- Setting up pseudopotentials ----------
Width of ionic core gaussian charges (only for fluid interactions / plotting) set to 0.397384

Reading pseudopotential file '/home/guoxy/vasp/jdftx-1.5.0/build/pseudopotentials/GBRV/zn_pbe.uspp':
  Title: Zn.  Created by USPP 7.3.6 on 14-9-2013
  Reference state energy: -230.738654.  20 valence electrons in orbitals:
    |300>  occupation: 2  eigenvalue: -4.749171
    |310>  occupation: 6  eigenvalue: -3.064985
    |320>  occupation: 10  eigenvalue: -0.372657
    |400>  occupation: 2  eigenvalue: -0.219719
    |410>  occupation: 0  eigenvalue: -0.040996
  lMax: 2  lLocal: 3  QijEcut: 5
  6 projectors sampled on a log grid with 687 points:
    l: 0  eig: -4.749172  rCut: 1.35
    l: 0  eig: -0.219719  rCut: 1.35
    l: 1  eig: -3.064985  rCut: 1.4
    l: 1  eig: -0.040997  rCut: 1.4
    l: 2  eig: -0.372656  rCut: 1.6
    l: 2  eig: 1.000000  rCut: 1.6
  Transforming local potential to a uniform radial grid of dG=0.02 with 1608 points.
  Transforming nonlocal projectors to a uniform radial grid of dG=0.02 with 432 points.
  Transforming density augmentations to a uniform radial grid of dG=0.02 with 1608 points.
  Transforming atomic orbitals to a uniform radial grid of dG=0.02 with 432 points.
  Core radius for overlap checks: 1.80 bohrs.

Reading pseudopotential file '/home/guoxy/vasp/jdftx-1.5.0/build/pseudopotentials/GBRV/in_pbe.uspp':
  Title: In.  Created by USPP 7.3.6 on 31-3-15
  Reference state energy: -66.141337.  13 valence electrons in orbitals:
    |420>  occupation: 10  eigenvalue: -1.145775
    |500>  occupation: 1.5  eigenvalue: -0.705913
    |510>  occupation: 0  eigenvalue: -0.449223
  lMax: 2  lLocal: 3  QijEcut: 5.5
  6 projectors sampled on a log grid with 719 points:
    l: 0  eig: -0.705911  rCut: 1.8
    l: 0  eig: 1.000000  rCut: 1.8
    l: 1  eig: -0.705911  rCut: 2
    l: 1  eig: 1.000000  rCut: 2
    l: 2  eig: -1.145775  rCut: 1.65
    l: 2  eig: 0.750000  rCut: 1.65
  Partial core density with radius 1.4
  Transforming core density to a uniform radial grid of dG=0.02 with 1608 points.
  Transforming local potential to a uniform radial grid of dG=0.02 with 1608 points.
  Transforming nonlocal projectors to a uniform radial grid of dG=0.02 with 432 points.
  Transforming density augmentations to a uniform radial grid of dG=0.02 with 1608 points.
  Transforming atomic orbitals to a uniform radial grid of dG=0.02 with 432 points.
  Core radius for overlap checks: 2.40 bohrs.

Reading pseudopotential file '/home/guoxy/vasp/jdftx-1.5.0/build/pseudopotentials/GBRV/se_pbe.uspp':
  Title: Se.  Created by USPP 7.3.6 on 14-9-2013
  Reference state energy: -21.672887.  6 valence electrons in orbitals:
    |400>  occupation: 2  eigenvalue: -0.635284
    |410>  occupation: 4  eigenvalue: -0.239295
  lMax: 2  lLocal: 3  QijEcut: 5
  6 projectors sampled on a log grid with 625 points:
    l: 0  eig: -0.635278  rCut: 1.5
    l: 0  eig: 0.500000  rCut: 1.5
    l: 1  eig: -0.239295  rCut: 1.5
    l: 1  eig: 0.500000  rCut: 1.5
    l: 2  eig: 0.000000  rCut: 1.8
    l: 2  eig: 1.000000  rCut: 1.8
  Partial core density with radius 1.2
  Transforming core density to a uniform radial grid of dG=0.02 with 1608 points.
  Transforming local potential to a uniform radial grid of dG=0.02 with 1608 points.
  Transforming nonlocal projectors to a uniform radial grid of dG=0.02 with 432 points.
  Transforming density augmentations to a uniform radial grid of dG=0.02 with 1608 points.
  Transforming atomic orbitals to a uniform radial grid of dG=0.02 with 432 points.
  Core radius for overlap checks: 1.80 bohrs.

Initialized 3 species with 62 total atoms.

Folded 1 k-points by 3x3x1 to 9 k-points.

---------- Setting up k-points, bands, fillings ----------
Adding inversion symmetry to k-mesh for non-inversion-symmetric unit cell.
Reduced to 3 k-points under symmetry. 
Computing the number of bands and number of electrons
Reading initial fillings from file NbTe2.fillings.
nElectrons: 624.000000   nBands: 419   nStates: 3

----- Setting up reduced wavefunction bases (one per k-point) -----
average nbasis = 83283.667 , ideal nbasis = 83280.880

---------- Setting up coulomb interaction ----------
Fluid mode embedding: using embedded box, but periodic Coulomb kernel.
(Fluid response is responsible for (approximate) separation between periodic images.)
Setting up double-sized grid for truncated Coulomb potentials:
R = 
[    22.0331   -11.0165          0  ]
[          0    19.0812          0  ]
[          0          0    92.7375  ]
unit cell volume = 38988.5
G =
[   0.285171   0.164643         -0  ]
[          0   0.329287          0  ]
[          0         -0  0.0677523  ]
Chosen fftbox size, S = [  100  100  432  ]
Integer grid location selected as the embedding center:
   Grid: [  0  0  108  ]
   Lattice: [  0  0  0.5  ]
   Cartesian: [  0  0  23.1844  ]
Constructing Wigner-Seitz cell: 8 faces (6 quadrilaterals, 2 hexagons)
Range-separation parameter for embedded mesh potentials due to point charges: 0.592172 bohrs.

Initializing van der Waals corrections
	NOTE: vdW corrections apply only for interactions with fluid.
	Zn:  C6:  187.33 Eh-a0^6  R0: 2.952 a0
	In:  C6:  647.33 Eh-a0^6  R0: 3.160 a0
	Se:  C6:  219.24 Eh-a0^6  R0: 3.347 a0

---------- Setting up ewald sum ----------
Optimum gaussian width for ewald sums = 6.799707 bohr.
Real space sum over 605 unit cells with max indices [  5  5  2  ]
Reciprocal space sum over 7605 terms with max indices [  6  6  22  ]

---------- Allocating electronic variables ----------
Initializing wave functions:  reading from 'NbTe2.wfns'
----- createFluidSolver() ----- (Fluid-side solver setup)
   Initializing fluid molecule 'H2O'
     Initializing site 'O'
       Electron density: proportional to exp(-r/0.36935)*erfc((r-0.51523)/0.36823) with norm 6.826
       Charge density: gaussian nuclear width 0.478731 with net site charge 0.826
       Polarizability: cuspless exponential with width 0.32 and norm 3.73
       Hard sphere radius: 2.57003 bohrs
       Positions in reference frame:
         [ +0.000000 +0.000000 +0.000000 ]
     Initializing site 'H'
       Electron density: proportional to exp(-r/0.34641)*erfc((r-0)/0.390882) with norm 0.587
       Charge density: gaussian nuclear width 0.377945 with net site charge -0.413
       Polarizability: cuspless exponential with width 0.39 and norm 3.3
       Positions in reference frame:
         [ +0.000000 -1.441945 +1.122523 ]
         [ +0.000000 +1.441945 +1.122523 ]
     Net charge: 0   dipole magnitude: 0.927204
     Initializing spherical shell mfKernel with radius 2.61727 Bohr
     deltaS corrections:
       site 'O': -7.54299
       site 'H': -6.83917
   Initializing fluid molecule 'Na+'
     Initializing site 'Na'
       Electron density: proportional to exp(-r/0.19682)*erfc((r-0.71491)/0.41314) with norm 8.1383
       Charge density: gaussian nuclear width 0.365347 with net site charge -1
       Hard sphere radius: 1.86327 bohrs
       Positions in reference frame:
         [ +0.000000 +0.000000 +0.000000 ]
     Net charge: -1   dipole magnitude: 0
     Initializing gaussian mfKernel with width: 1.55004 Bohr
     deltaS corrections:
       site 'Na': -22.3555
   Initializing fluid molecule 'F-'
     Initializing site 'F'
       Electron density: proportional to exp(-r/0.38886)*erfc((r-0)/0.438782) with norm 8
       Charge density: gaussian nuclear width 0.374796 with net site charge 1
       Hard sphere radius: 2.39995 bohrs
       Positions in reference frame:
         [ +0.000000 +0.000000 +0.000000 ]
     Net charge: 1   dipole magnitude: 0
     Initializing gaussian mfKernel with width: 1.59012 Bohr
     deltaS corrections:
       site 'F': -9.04335

Correction to mu due to finite nuclear width = -0.0158799
   Cavity determined by nc: 0.00142 and sigma: 0.707107
   Nonlocal vdW cavity from gaussian model electron density with norm = 8 and sigma = 0.993594 bohr
   Charge asymmetry in cavity with sensitivity pCavity = 36.5 e-bohr/Eh
   Electrostatic cavity expanded by eta = 1.46 bohrs
   Weighted density cavitation model constrained by Nbulk: 0.0049383 bohr^-3, Pvap: 3.14029 kPa, Rvdw: 2.61727 bohr and sigmaBulk: 4.62e-05 Eh/bohr^2 at T: 298 K.
   Weighted density dispersion model using vdW pair potentials with single solvent site with sqrtC6eff: 0.77 SI.
Reading fluid state from 'NbTe2.fluidState'


---- Citations for features of the code used in this run ----

   Software package:
      R. Sundararaman, K. Letchworth-Weaver, K.A. Schwarz, D. Gunceler, Y. Ozhabes and T.A. Arias, 'JDFTx: software for joint density-functional theory', SoftwareX 6, 278 (2017)

   gga-PBE exchange-correlation functional:
      J.P. Perdew, K. Burke and M. Ernzerhof, Phys. Rev. Lett. 77, 3865 (1996)

   Pseudopotentials:
      KF Garrity, JW Bennett, KM Rabe and D Vanderbilt, Comput. Mater. Sci. 81, 446 (2014)

   Truncated Coulomb potentials:
      R. Sundararaman and T.A. Arias, Phys. Rev. B 87, 165122 (2013)

   Van der Waals correction pair-potentials:
      S. Grimme, J. Comput. Chem. 27, 1787 (2006)

   Charge-asymmetric nonlocally-determined local-electric (CANDLE) solvation model:
      R. Sundararaman and W.A. Goddard III, J. Chem. Phys. 142, 064107 (2015)

   Total energy minimization with Auxiliary Hamiltonian:
      C. Freysoldt, S. Boeck, and J. Neugebauer, Phys. Rev. B 79, 241103(R) (2009)

   Grand-canonical (fixed-potential) DFT:
      R. Sundararaman, W. A. Goddard III and T. A. Arias, J. Chem. Phys. 146, 114104 (2017)

This list may not be complete. Please suggest additional citations or
report any other bugs at https://github.com/shankar1729/jdftx/issues

Initialization completed successfully at t[s]:     31.21

Shifting auxilliary hamiltonian by -0.061982 to set nElectrons=624.000000
	Linear fluid (dielectric constant: 78.4, screening length: 5.74355 Bohr) occupying 0.691585 of unit cell:	Completed after 3 iterations at t[s]:     46.35

-------- Electronic minimization -----------
	Linear fluid (dielectric constant: 78.4, screening length: 5.74355 Bohr) occupying 0.691585 of unit cell:	Completed after 0 iterations at t[s]:     58.42
	FillingsUpdate:  mu: -0.244750400  nElectrons: 624.000000
ElecMinimize: Iter:   0  G: -3312.069233556657764  |grad|_K:  6.217e-05  alpha:  1.000e+00
	Linear fluid (dielectric constant: 78.4, screening length: 5.74355 Bohr) occupying 0.699351 of unit cell:	Completed after 31 iterations at t[s]:    109.26
	Linear fluid (dielectric constant: 78.4, screening length: 5.74355 Bohr) occupying 0.691459 of unit cell:	Completed after 30 iterations at t[s]:    140.31
	FillingsUpdate:  mu: -0.244750400  nElectrons: 623.917648
	SubspaceRotationAdjust: set factor to 0.5
ElecMinimize: Iter:   1  G: -3312.074152606156986  |grad|_K:  5.831e-05  alpha:  6.215e-03  linmin: -7.961e-02  t[s]:    159.95
	Linear fluid (dielectric constant: 78.4, screening length: 5.74355 Bohr) occupying 0.691324 of unit cell:	Completed after 16 iterations at t[s]:    183.62
ElecMinimize: 	Predicted alpha/alphaT>3.000000, increasing alphaT to 1.864517e-02.
	Linear fluid (dielectric constant: 78.4, screening length: 5.74355 Bohr) occupying 0.691319 of unit cell:	Completed after 18 iterations at t[s]:    206.30
	Linear fluid (dielectric constant: 78.4, screening length: 5.74355 Bohr) occupying 0.691488 of unit cell:	Completed after 23 iterations at t[s]:    225.25
	FillingsUpdate:  mu: -0.244750400  nElectrons: 622.451339
	SubspaceRotationAdjust: set factor to 0.211
ElecMinimize: Iter:   2  G: -3312.092986668358208  |grad|_K:  4.201e-05  alpha:  4.931e-02  linmin:  8.521e-03  t[s]:    246.34
ElecMinimize: 	Bad step direction: g.d > 0.
ElecMinimize: 	Undoing step.
	Linear fluid (dielectric constant: 78.4, screening length: 5.74355 Bohr) occupying 0.691488 of unit cell:	Completed after 0 iterations at t[s]:    258.92
ElecMinimize: 	Step failed: resetting search direction.
	FillingsUpdate:  mu: -0.244750400  nElectrons: 622.451339
	SubspaceRotationAdjust: set factor to 0.147
ElecMinimize: Iter:   3  G: -3312.092986668364574  |grad|_K:  2.984e-05  alpha:  0.000e+00
	Linear fluid (dielectric constant: 78.4, screening length: 5.74355 Bohr) occupying 0.691551 of unit cell:	Completed after 18 iterations at t[s]:    297.57
ElecMinimize: 	Predicted alpha/alphaT>3.000000, increasing alphaT to 1.479157e-01.
	Linear fluid (dielectric constant: 78.4, screening length: 5.74355 Bohr) occupying 0.691679 of unit cell:	Completed after 20 iterations at t[s]:    318.37
	Linear fluid (dielectric constant: 78.4, screening length: 5.74355 Bohr) occupying 0.691755 of unit cell:	Completed after 18 iterations at t[s]:    338.92
	FillingsUpdate:  mu: -0.244750400  nElectrons: 622.898857
	SubspaceRotationAdjust: set factor to 0.148
ElecMinimize: Iter:   4  G: -3312.112752135164556  |grad|_K:  9.607e-06  alpha:  2.059e-01  linmin: -2.217e-03  t[s]:    356.66
	Linear fluid (dielectric constant: 78.4, screening length: 5.74355 Bohr) occupying 0.691953 of unit cell:	Completed after 14 iterations at t[s]:    376.00
ElecMinimize: 	Predicted alpha/alphaT>3.000000, increasing alphaT to 6.176615e-01.
	Linear fluid (dielectric constant: 78.4, screening length: 5.74355 Bohr) occupying 0.692348 of unit cell:	Completed after 16 iterations at t[s]:    398.19
	Linear fluid (dielectric constant: 78.4, screening length: 5.74355 Bohr) occupying 0.692384 of unit cell:	Completed after 11 iterations at t[s]:    418.35
	FillingsUpdate:  mu: -0.244750400  nElectrons: 622.768773
	SubspaceRotationAdjust: set factor to 0.178
ElecMinimize: Iter:   5  G: -3312.119581383790774  |grad|_K:  1.564e-05  alpha:  6.557e-01  linmin: -1.379e-05  t[s]:    438.06
	Linear fluid (dielectric constant: 78.4, screening length: 5.74355 Bohr) occupying 0.694534 of unit cell:	Completed after 23 iterations at t[s]:    461.27
	Linear fluid (dielectric constant: 78.4, screening length: 5.74355 Bohr) occupying 0.694006 of unit cell:	Completed after 18 iterations at t[s]:    485.51
	FillingsUpdate:  mu: -0.244750400  nElectrons: 622.075375
	SubspaceRotationAdjust: set factor to 0.191
ElecMinimize: Iter:   6  G: -3312.132413823655043  |grad|_K:  1.045e-05  alpha:  4.939e-01  linmin:  2.740e-05  t[s]:    504.68
	Linear fluid (dielectric constant: 78.4, screening length: 5.74355 Bohr) occupying 0.695106 of unit cell:	Completed after 22 iterations at t[s]:    523.17
	Linear fluid (dielectric constant: 78.4, screening length: 5.74355 Bohr) occupying 0.694553 of unit cell:	Completed after 18 iterations at t[s]:    545.79
	FillingsUpdate:  mu: -0.244750400  nElectrons: 621.729552
	SubspaceRotationAdjust: set factor to 0.167
ElecMinimize: Iter:   7  G: -3312.135452643712597  |grad|_K:  7.278e-06  alpha:  2.454e-01  linmin: -4.313e-04  t[s]:    562.09
	Linear fluid (dielectric constant: 78.4, screening length: 5.74355 Bohr) occupying 0.694988 of unit cell:	Completed after 16 iterations at t[s]:    581.97
	Linear fluid (dielectric constant: 78.4, screening length: 5.74355 Bohr) occupying 0.695471 of unit cell:	Completed after 16 iterations at t[s]:    597.92
	FillingsUpdate:  mu: -0.244750400  nElectrons: 621.578058
	SubspaceRotationAdjust: set factor to 0.138
ElecMinimize: Iter:   8  G: -3312.138545815419093  |grad|_K:  7.536e-06  alpha:  5.256e-01  linmin: -1.445e-04  t[s]:    616.77
	Linear fluid (dielectric constant: 78.4, screening length: 5.74355 Bohr) occupying 0.696558 of unit cell:	Completed after 18 iterations at t[s]:    634.62
	Linear fluid (dielectric constant: 78.4, screening length: 5.74355 Bohr) occupying 0.696024 of unit cell:	Completed after 18 iterations at t[s]:    657.86
	FillingsUpdate:  mu: -0.244750400  nElectrons: 621.652854
	SubspaceRotationAdjust: set factor to 0.158
ElecMinimize: Iter:   9  G: -3312.140122150993648  |grad|_K:  4.583e-06  alpha:  2.613e-01  linmin:  6.647e-05  t[s]:    674.46
	Linear fluid (dielectric constant: 78.4, screening length: 5.74355 Bohr) occupying 0.696238 of unit cell:	Completed after 13 iterations at t[s]:    688.51
	Linear fluid (dielectric constant: 78.4, screening length: 5.74355 Bohr) occupying 0.696444 of unit cell:	Completed after 13 iterations at t[s]:    712.28
	FillingsUpdate:  mu: -0.244750400  nElectrons: 621.697174
	SubspaceRotationAdjust: set factor to 0.146
ElecMinimize: Iter:  10  G: -3312.141268811637929  |grad|_K:  4.305e-06  alpha:  5.231e-01  linmin: -6.565e-05  t[s]:    729.48
	Linear fluid (dielectric constant: 78.4, screening length: 5.74355 Bohr) occupying 0.696735 of unit cell:	Completed after 18 iterations at t[s]:    743.44
	Linear fluid (dielectric constant: 78.4, screening length: 5.74355 Bohr) occupying 0.696650 of unit cell:	Completed after 13 iterations at t[s]:    763.68
	FillingsUpdate:  mu: -0.244750400  nElectrons: 621.612800
	SubspaceRotationAdjust: set factor to 0.141
ElecMinimize: Iter:  11  G: -3312.141986389191970  |grad|_K:  2.799e-06  alpha:  3.648e-01  linmin:  2.263e-06  t[s]:    780.44
	Linear fluid (dielectric constant: 78.4, screening length: 5.74355 Bohr) occupying 0.696680 of unit cell:	Completed after 11 iterations at t[s]:    798.58
	Linear fluid (dielectric constant: 78.4, screening length: 5.74355 Bohr) occupying 0.696690 of unit cell:	Completed after 8 iterations at t[s]:    814.37
	FillingsUpdate:  mu: -0.244750400  nElectrons: 621.581776
	SubspaceRotationAdjust: set factor to 0.162
ElecMinimize: Iter:  12  G: -3312.142394721959590  |grad|_K:  2.629e-06  alpha:  4.962e-01  linmin: -1.368e-05  t[s]:    834.67
	Linear fluid (dielectric constant: 78.4, screening length: 5.74355 Bohr) occupying 0.696667 of unit cell:	Completed after 13 iterations at t[s]:    853.70
	Linear fluid (dielectric constant: 78.4, screening length: 5.74355 Bohr) occupying 0.696677 of unit cell:	Completed after 11 iterations at t[s]:    873.25
	FillingsUpdate:  mu: -0.244750400  nElectrons: 621.602112
	SubspaceRotationAdjust: set factor to 0.186
ElecMinimize: Iter:  13  G: -3312.142620218282900  |grad|_K:  1.992e-06  alpha:  3.098e-01  linmin:  1.066e-05  t[s]:    890.33
	Linear fluid (dielectric constant: 78.4, screening length: 5.74355 Bohr) occupying 0.696651 of unit cell:	Completed after 11 iterations at t[s]:    903.81
	Linear fluid (dielectric constant: 78.4, screening length: 5.74355 Bohr) occupying 0.696649 of unit cell:	Completed after 3 iterations at t[s]:    919.11
	FillingsUpdate:  mu: -0.244750400  nElectrons: 621.622869
	SubspaceRotationAdjust: set factor to 0.191
ElecMinimize: Iter:  14  G: -3312.142758594884526  |grad|_K:  1.563e-06  alpha:  3.327e-01  linmin: -4.996e-05  t[s]:    935.43
	Linear fluid (dielectric constant: 78.4, screening length: 5.74355 Bohr) occupying 0.696625 of unit cell:	Completed after 11 iterations at t[s]:    950.62
	Linear fluid (dielectric constant: 78.4, screening length: 5.74355 Bohr) occupying 0.696623 of unit cell:	Completed after 3 iterations at t[s]:    966.92
	FillingsUpdate:  mu: -0.244750400  nElectrons: 621.604829
	SubspaceRotationAdjust: set factor to 0.203
ElecMinimize: Iter:  15  G: -3312.142853907021163  |grad|_K:  1.176e-06  alpha:  3.702e-01  linmin:  1.798e-05  t[s]:    986.72
	Linear fluid (dielectric constant: 78.4, screening length: 5.74355 Bohr) occupying 0.696611 of unit cell:	Completed after 8 iterations at t[s]:   1002.12
	Linear fluid (dielectric constant: 78.4, screening length: 5.74355 Bohr) occupying 0.696611 of unit cell:	Completed after 0 iterations at t[s]:   1017.13
	FillingsUpdate:  mu: -0.244750400  nElectrons: 621.597852
	SubspaceRotationAdjust: set factor to 0.223
ElecMinimize: Iter:  16  G: -3312.142910037841375  |grad|_K:  1.047e-06  alpha:  3.874e-01  linmin: -1.109e-04  t[s]:   1036.32
	Linear fluid (dielectric constant: 78.4, screening length: 5.74355 Bohr) occupying 0.696609 of unit cell:	Completed after 11 iterations at t[s]:   1049.54
	Linear fluid (dielectric constant: 78.4, screening length: 5.74355 Bohr) occupying 0.696609 of unit cell:	Completed after 8 iterations at t[s]:   1068.07
	FillingsUpdate:  mu: -0.244750400  nElectrons: 621.611323
	SubspaceRotationAdjust: set factor to 0.208
ElecMinimize: Iter:  17  G: -3312.142941731023257  |grad|_K:  6.550e-07  alpha:  2.681e-01  linmin:  6.197e-05  t[s]:   1087.02
	Linear fluid (dielectric constant: 78.4, screening length: 5.74355 Bohr) occupying 0.696614 of unit cell:	Completed after 3 iterations at t[s]:   1098.44
	Linear fluid (dielectric constant: 78.4, screening length: 5.74355 Bohr) occupying 0.696617 of unit cell:	Completed after 2 iterations at t[s]:   1112.24
	FillingsUpdate:  mu: -0.244750400  nElectrons: 621.612412
	SubspaceRotationAdjust: set factor to 0.241
ElecMinimize: Iter:  18  G: -3312.142963159137707  |grad|_K:  5.888e-07  alpha:  4.791e-01  linmin: -1.620e-05  t[s]:   1129.90
	Linear fluid (dielectric constant: 78.4, screening length: 5.74355 Bohr) occupying 0.696629 of unit cell:	Completed after 8 iterations at t[s]:   1144.05
	Linear fluid (dielectric constant: 78.4, screening length: 5.74355 Bohr) occupying 0.696624 of unit cell:	Completed after 3 iterations at t[s]:   1159.75
	FillingsUpdate:  mu: -0.244750400  nElectrons: 621.607375
	SubspaceRotationAdjust: set factor to 0.224
ElecMinimize: Iter:  19  G: -3312.142973372001052  |grad|_K:  4.377e-07  alpha:  2.728e-01  linmin:  7.590e-05  t[s]:   1178.30
	Linear fluid (dielectric constant: 78.4, screening length: 5.74355 Bohr) occupying 0.696630 of unit cell:	Completed after 7 iterations at t[s]:   1192.26
	Linear fluid (dielectric constant: 78.4, screening length: 5.74355 Bohr) occupying 0.696630 of unit cell:	Completed after 0 iterations at t[s]:   1205.44
	FillingsUpdate:  mu: -0.244750400  nElectrons: 621.610253
	SubspaceRotationAdjust: set factor to 0.214
ElecMinimize: Iter:  20  G: -3312.142979177511279  |grad|_K:  2.727e-07  alpha:  2.940e-01  linmin: -2.242e-04  t[s]:   1222.60
	Linear fluid (dielectric constant: 78.4, screening length: 5.74355 Bohr) occupying 0.696634 of unit cell:	Completed after 3 iterations at t[s]:   1234.97
	Linear fluid (dielectric constant: 78.4, screening length: 5.74355 Bohr) occupying 0.696635 of unit cell:	Completed after 0 iterations at t[s]:   1250.14
	FillingsUpdate:  mu: -0.244750400  nElectrons: 621.608941
	SubspaceRotationAdjust: set factor to 0.234
ElecMinimize: Iter:  21  G: -3312.142982554673836  |grad|_K:  2.449e-07  alpha:  3.945e-01  linmin: -1.026e-04  t[s]:   1268.55
	Linear fluid (dielectric constant: 78.4, screening length: 5.74355 Bohr) occupying 0.696640 of unit cell:	Completed after 3 iterations at t[s]:   1281.88
	Linear fluid (dielectric constant: 78.4, screening length: 5.74355 Bohr) occupying 0.696638 of unit cell:	Completed after 2 iterations at t[s]:   1298.78
	FillingsUpdate:  mu: -0.244750400  nElectrons: 621.606820
	SubspaceRotationAdjust: set factor to 0.227
ElecMinimize: Iter:  22  G: -3312.142984263037306  |grad|_K:  1.752e-07  alpha:  2.686e-01  linmin: -1.862e-05  t[s]:   1317.61
	Linear fluid (dielectric constant: 78.4, screening length: 5.74355 Bohr) occupying 0.696640 of unit cell:	Completed after 0 iterations at t[s]:   1331.85
	Linear fluid (dielectric constant: 78.4, screening length: 5.74355 Bohr) occupying 0.696641 of unit cell:	Completed after 2 iterations at t[s]:   1346.31
	FillingsUpdate:  mu: -0.244750400  nElectrons: 621.608166
	SubspaceRotationAdjust: set factor to 0.25
ElecMinimize: Iter:  23  G: -3312.142985288956879  |grad|_K:  1.717e-07  alpha:  3.785e-01  linmin:  1.270e-04  t[s]:   1362.69
	Linear fluid (dielectric constant: 78.4, screening length: 5.74355 Bohr) occupying 0.696645 of unit cell:	Completed after 3 iterations at t[s]:   1379.11
	Linear fluid (dielectric constant: 78.4, screening length: 5.74355 Bohr) occupying 0.696643 of unit cell:	Completed after 1 iterations at t[s]:   1392.46
	FillingsUpdate:  mu: -0.244750400  nElectrons: 621.609247
	SubspaceRotationAdjust: set factor to 0.236
ElecMinimize: Iter:  24  G: -3312.142985643244174  |grad|_K:  1.345e-07  alpha:  1.692e-01  linmin:  5.501e-05  t[s]:   1410.03
	Linear fluid (dielectric constant: 78.4, screening length: 5.74355 Bohr) occupying 0.696644 of unit cell:	Completed after 0 iterations at t[s]:   1421.49
	Linear fluid (dielectric constant: 78.4, screening length: 5.74355 Bohr) occupying 0.696645 of unit cell:	Completed after 0 iterations at t[s]:   1436.83
	FillingsUpdate:  mu: -0.244750400  nElectrons: 621.607927
	SubspaceRotationAdjust: set factor to 0.32
ElecMinimize: Iter:  25  G: -3312.142986123603805  |grad|_K:  1.214e-07  alpha:  2.613e-01  linmin: -3.325e-05  t[s]:   1451.92
	Linear fluid (dielectric constant: 78.4, screening length: 5.74355 Bohr) occupying 0.696647 of unit cell:	Completed after 3 iterations at t[s]:   1466.35
	Linear fluid (dielectric constant: 78.4, screening length: 5.74355 Bohr) occupying 0.696646 of unit cell:	Completed after 0 iterations at t[s]:   1478.25
	FillingsUpdate:  mu: -0.244750400  nElectrons: 621.606258
	SubspaceRotationAdjust: set factor to 0.278
ElecMinimize: Iter:  26  G: -3312.142986290239605  |grad|_K:  1.319e-07  alpha:  1.345e-01  linmin:  5.914e-05  t[s]:   1488.11
	Linear fluid (dielectric constant: 78.4, screening length: 5.74355 Bohr) occupying 0.696647 of unit cell:	Completed after 1 iterations at t[s]:   1496.80
	Linear fluid (dielectric constant: 78.4, screening length: 5.74355 Bohr) occupying 0.696646 of unit cell:	Completed after 0 iterations at t[s]:   1506.34
	FillingsUpdate:  mu: -0.244750400  nElectrons: 621.605746
	SubspaceRotationAdjust: set factor to 0.361
ElecMinimize: Iter:  27  G: -3312.142986363255204  |grad|_K:  8.007e-08  alpha:  7.379e-02  linmin: -1.888e-05  t[s]:   1516.48
	Linear fluid (dielectric constant: 78.4, screening length: 5.74355 Bohr) occupying 0.696647 of unit cell:	Completed after 0 iterations at t[s]:   1524.40
ElecMinimize: 	Predicted alpha/alphaT>3.000000, increasing alphaT to 2.213765e-01.
	Linear fluid (dielectric constant: 78.4, screening length: 5.74355 Bohr) occupying 0.696647 of unit cell:	Completed after 0 iterations at t[s]:   1532.76
	Linear fluid (dielectric constant: 78.4, screening length: 5.74355 Bohr) occupying 0.696647 of unit cell:	Completed after 0 iterations at t[s]:   1541.88
	FillingsUpdate:  mu: -0.244750400  nElectrons: 621.606892
	SubspaceRotationAdjust: set factor to 0.474
ElecMinimize: Iter:  28  G: -3312.142986557814311  |grad|_K:  9.141e-08  alpha:  2.814e-01  linmin: -3.322e-08  t[s]:   1552.42
	Linear fluid (dielectric constant: 78.4, screening length: 5.74355 Bohr) occupying 0.696648 of unit cell:	Completed after 7 iterations at t[s]:   1561.90
	Linear fluid (dielectric constant: 78.4, screening length: 5.74355 Bohr) occupying 0.696647 of unit cell:	Completed after 3 iterations at t[s]:   1571.17
	FillingsUpdate:  mu: -0.244750400  nElectrons: 621.607550
	SubspaceRotationAdjust: set factor to 0.322
ElecMinimize: Iter:  29  G: -3312.142986584565278  |grad|_K:  1.534e-07  alpha:  4.783e-02  linmin:  2.442e-04  t[s]:   1580.39
ElecMinimize: 	Bad step direction: g.d > 0.
ElecMinimize: 	Undoing step.
	Linear fluid (dielectric constant: 78.4, screening length: 5.74355 Bohr) occupying 0.696647 of unit cell:	Completed after 0 iterations at t[s]:   1588.38
ElecMinimize: 	Step failed: resetting search direction.
	FillingsUpdate:  mu: -0.244750400  nElectrons: 621.607550
	SubspaceRotationAdjust: set factor to 0.246
ElecMinimize: Iter:  30  G: -3312.142986584559367  |grad|_K:  1.341e-07  alpha:  0.000e+00
	Linear fluid (dielectric constant: 78.4, screening length: 5.74355 Bohr) occupying 0.696647 of unit cell:	Completed after 0 iterations at t[s]:   1606.82
ElecMinimize: 	Predicted alpha/alphaT>3.000000, increasing alphaT to 1.434989e-01.
	Linear fluid (dielectric constant: 78.4, screening length: 5.74355 Bohr) occupying 0.696647 of unit cell:	Completed after 4 iterations at t[s]:   1616.66
	Linear fluid (dielectric constant: 78.4, screening length: 5.74355 Bohr) occupying 0.696647 of unit cell:	Completed after 0 iterations at t[s]:   1625.33
	FillingsUpdate:  mu: -0.244750400  nElectrons: 621.606416
	SubspaceRotationAdjust: set factor to 0.116
	SubspaceRotationAdjust: resetting CG because factor has changed by 0.115809
	Linear fluid (dielectric constant: 78.4, screening length: 5.74355 Bohr) occupying 0.696647 of unit cell:	Completed after 0 iterations at t[s]:   1640.72
ElecMinimize: 	State modified externally: resetting search direction.
ElecMinimize: Iter:  31  G: -3312.142986648151236  |grad|_K:  6.669e-08  alpha:  6.940e-02
	Linear fluid (dielectric constant: 78.4, screening length: 5.74355 Bohr) occupying 0.696647 of unit cell:	Completed after 0 iterations at t[s]:   1658.38
	Linear fluid (dielectric constant: 78.4, screening length: 5.74355 Bohr) occupying 0.696647 of unit cell:	Completed after 0 iterations at t[s]:   1667.31
	FillingsUpdate:  mu: -0.244750400  nElectrons: 621.606862
	SubspaceRotationAdjust: set factor to 0.0462
ElecMinimize: Iter:  32  G: -3312.142986729492804  |grad|_K:  5.516e-08  alpha:  1.157e-01  linmin: -2.748e-03  t[s]:   1677.00
	Linear fluid (dielectric constant: 78.4, screening length: 5.74355 Bohr) occupying 0.696647 of unit cell:	Completed after 2 iterations at t[s]:   1685.78
	Linear fluid (dielectric constant: 78.4, screening length: 5.74355 Bohr) occupying 0.696647 of unit cell:	Completed after 0 iterations at t[s]:   1695.18
ElecMinimize: 	Step increased G by 7.581048e-08, reducing alpha to 4.123220e-03.
	Linear fluid (dielectric constant: 78.4, screening length: 5.74355 Bohr) occupying 0.696647 of unit cell:	Completed after 0 iterations at t[s]:   1711.38
ElecMinimize: 	Step increased G by 8.574716e-08, reducing alpha to 4.123220e-04.
	Linear fluid (dielectric constant: 78.4, screening length: 5.74355 Bohr) occupying 0.696647 of unit cell:	Completed after 0 iterations at t[s]:   1728.66
ElecMinimize: 	Step increased G by 8.691177e-08, reducing alpha to 4.123220e-05.
ElecMinimize: 	Step failed to reduce G after 3 attempts. Quitting step.
ElecMinimize: 	Undoing step.
	Linear fluid (dielectric constant: 78.4, screening length: 5.74355 Bohr) occupying 0.696647 of unit cell:	Completed after 0 iterations at t[s]:   1745.40
ElecMinimize: 	Step failed: resetting search direction.
	FillingsUpdate:  mu: -0.244750400  nElectrons: 621.606865
	SubspaceRotationAdjust: set factor to 0.0417
ElecMinimize: Iter:  33  G: -3312.142986642630149  |grad|_K:  3.749e-08  alpha:  4.123e-05
	Linear fluid (dielectric constant: 78.4, screening length: 5.74355 Bohr) occupying 0.696647 of unit cell:	Completed after 0 iterations at t[s]:   1763.00
ElecMinimize: 	Predicted alpha/alphaT>3.000000, increasing alphaT to 3.470775e-01.
	Linear fluid (dielectric constant: 78.4, screening length: 5.74355 Bohr) occupying 0.696647 of unit cell:	Completed after 0 iterations at t[s]:   1771.94
	Linear fluid (dielectric constant: 78.4, screening length: 5.74355 Bohr) occupying 0.696647 of unit cell:	Completed after 0 iterations at t[s]:   1780.85
	FillingsUpdate:  mu: -0.244750400  nElectrons: 621.606754
	SubspaceRotationAdjust: set factor to 0.044
ElecMinimize: Iter:  34  G: -3312.142986727834341  |grad|_K:  3.087e-08  alpha:  5.765e-01  linmin: -4.379e-06  t[s]:   1790.54
	Linear fluid (dielectric constant: 78.4, screening length: 5.74355 Bohr) occupying 0.696648 of unit cell:	Completed after 2 iterations at t[s]:   1798.91
	Linear fluid (dielectric constant: 78.4, screening length: 5.74355 Bohr) occupying 0.696647 of unit cell:	Completed after 0 iterations at t[s]:   1808.53
ElecMinimize: 	Step increased G by 4.882077e-08, reducing alpha to 1.591533e-02.
	Linear fluid (dielectric constant: 78.4, screening length: 5.74355 Bohr) occupying 0.696647 of unit cell:	Completed after 0 iterations at t[s]:   1825.81
ElecMinimize: 	Step increased G by 5.345510e-08, reducing alpha to 1.591533e-03.
	Linear fluid (dielectric constant: 78.4, screening length: 5.74355 Bohr) occupying 0.696647 of unit cell:	Completed after 0 iterations at t[s]:   1841.62
ElecMinimize: 	Step increased G by 5.449874e-08, reducing alpha to 1.591533e-04.
ElecMinimize: 	Step failed to reduce G after 3 attempts. Quitting step.
ElecMinimize: 	Undoing step.
	Linear fluid (dielectric constant: 78.4, screening length: 5.74355 Bohr) occupying 0.696647 of unit cell:	Completed after 0 iterations at t[s]:   1860.62
ElecMinimize: 	Step failed: resetting search direction.
	FillingsUpdate:  mu: -0.244750400  nElectrons: 621.606753
	SubspaceRotationAdjust: set factor to 0.0439
ElecMinimize: Iter:  35  G: -3312.142986673303767  |grad|_K:  6.236e-08  alpha:  1.592e-04
	Linear fluid (dielectric constant: 78.4, screening length: 5.74355 Bohr) occupying 0.696648 of unit cell:	Completed after 2 iterations at t[s]:   1880.23
	Linear fluid (dielectric constant: 78.4, screening length: 5.74355 Bohr) occupying 0.696647 of unit cell:	Completed after 3 iterations at t[s]:   1890.39
	FillingsUpdate:  mu: -0.244750400  nElectrons: 621.606808
	SubspaceRotationAdjust: set factor to 0.0464
ElecMinimize: Iter:  36  G: -3312.142986706709053  |grad|_K:  2.074e-08  alpha:  1.417e-01  linmin:  7.086e-04  t[s]:   1901.84
	Linear fluid (dielectric constant: 78.4, screening length: 5.74355 Bohr) occupying 0.696647 of unit cell:	Completed after 0 iterations at t[s]:   1911.24
ElecMinimize: 	Predicted alpha/alphaT>3.000000, increasing alphaT to 4.251816e-01.
	Linear fluid (dielectric constant: 78.4, screening length: 5.74355 Bohr) occupying 0.696648 of unit cell:	Completed after 0 iterations at t[s]:   1920.69
	Linear fluid (dielectric constant: 78.4, screening length: 5.74355 Bohr) occupying 0.696648 of unit cell:	Completed after 0 iterations at t[s]:   1929.37
	FillingsUpdate:  mu: -0.244750400  nElectrons: 621.606866
	SubspaceRotationAdjust: set factor to 0.0481
ElecMinimize: Iter:  37  G: -3312.142986729101722  |grad|_K:  2.283e-08  alpha:  5.363e-01  linmin:  4.265e-07  t[s]:   1939.67
	Linear fluid (dielectric constant: 78.4, screening length: 5.74355 Bohr) occupying 0.696648 of unit cell:	Completed after 0 iterations at t[s]:   1948.56
	Linear fluid (dielectric constant: 78.4, screening length: 5.74355 Bohr) occupying 0.696648 of unit cell:	Completed after 0 iterations at t[s]:   1958.90
	FillingsUpdate:  mu: -0.244750400  nElectrons: 621.606938
	SubspaceRotationAdjust: set factor to 0.0525
ElecMinimize: Iter:  38  G: -3312.142986749104693  |grad|_K:  1.473e-08  alpha:  3.657e-01  linmin: -1.094e-06  t[s]:   1971.06
	Linear fluid (dielectric constant: 78.4, screening length: 5.74355 Bohr) occupying 0.696648 of unit cell:	Completed after 0 iterations at t[s]:   1979.75
	Linear fluid (dielectric constant: 78.4, screening length: 5.74355 Bohr) occupying 0.696648 of unit cell:	Completed after 0 iterations at t[s]:   1988.73
	FillingsUpdate:  mu: -0.244750400  nElectrons: 621.607014
	SubspaceRotationAdjust: set factor to 0.059
ElecMinimize: Iter:  39  G: -3312.142986760808526  |grad|_K:  1.240e-08  alpha:  5.095e-01  linmin: -4.680e-06  t[s]:   1998.82
	Linear fluid (dielectric constant: 78.4, screening length: 5.74355 Bohr) occupying 0.696648 of unit cell:	Completed after 0 iterations at t[s]:   2007.85
	Linear fluid (dielectric constant: 78.4, screening length: 5.74355 Bohr) occupying 0.696648 of unit cell:	Completed after 0 iterations at t[s]:   2017.32
	FillingsUpdate:  mu: -0.244750400  nElectrons: 621.607071
	SubspaceRotationAdjust: set factor to 0.0678
ElecMinimize: Iter:  40  G: -3312.142986766139074  |grad|_K:  1.141e-08  alpha:  3.241e-01  linmin:  4.186e-07  t[s]:   2026.20
	Linear fluid (dielectric constant: 78.4, screening length: 5.74355 Bohr) occupying 0.696648 of unit cell:	Completed after 0 iterations at t[s]:   2033.88
	Linear fluid (dielectric constant: 78.4, screening length: 5.74355 Bohr) occupying 0.696648 of unit cell:	Completed after 0 iterations at t[s]:   2043.67
	FillingsUpdate:  mu: -0.244750400  nElectrons: 621.607153
	SubspaceRotationAdjust: set factor to 0.0815
ElecMinimize: Iter:  41  G: -3312.142986771117648  |grad|_K:  9.997e-09  alpha:  3.661e-01  linmin: -9.834e-08  t[s]:   2055.76
ElecMinimize: Converged (|Delta G|<1.000000e-08 for 2 iters).
Setting wave functions to eigenvectors of Hamiltonian

# Ionic positions in lattice coordinates:
ion Zn   0.111676130718332   0.222680566545168   0.329255932420121 0
ion Zn   0.444337998423611   0.222680566545168   0.329255932420121 0
ion Zn   0.777777863349463   0.222222164102150   0.329274370845919 0
ion Zn   0.111676130718332   0.555662029028002   0.329255932420121 0
ion Zn   0.444444530016129   0.555555497435484   0.328906419606773 0
ion Zn   0.777319460906445   0.555662029028002   0.329255932420121 0
ion Zn   0.111111196682796   0.888888830768817   0.329190615118344 0
ion Zn   0.444337998423611   0.888323896733281   0.329255932420121 0
ion Zn   0.777319460906445   0.888323896733281   0.329255932420121 0
ion In  -0.000144384780115   0.000144412231728   0.485695394781003 0
ion In   0.223180224699792   0.113026886802808   0.648510028521651 0
ion In   0.333622359608618   0.000144412231728   0.485695394781003 0
ion In   0.553987343071226   0.110326903963032   0.648160629966248 0
ion In   0.666115802107073  -0.001101958382629   0.484712168478150 0
ion In   0.889673123488581   0.110326903963032   0.648160629966248 0
ion In   0.001101985834242   0.333884225344540   0.484712168478150 0
ion In   0.260050240707650   0.463358352781244   0.649471889050365 0
ion In   0.335056924693478   0.336780286790181   0.486055796289256 0
ion In   0.536641674670369   0.463358352781244   0.649471889050365 0
ion In   0.666115802107073   0.333884225344540   0.484712168478150 0
ion In   0.889673123488581   0.446012684380387   0.648160629966248 0
ion In  -0.000144384780115   0.666377667842995   0.485695394781003 0
ion In   0.223180224699792   0.776819802751821   0.648510028521651 0
ion In   0.335056924693478   0.664943102758135   0.486055796289256 0
ion In   0.536641674670369   0.739949786743963   0.649471889050365 0
ion In   0.663219740661432   0.664943102758135   0.486055796289256 0
ion In   0.886973140648805   0.776819802751821   0.648510028521651 0
ion Se   0.222205428787900   0.111077294979026   0.308614087651652 0
ion Se   0.222134286075810   0.110935009554846   0.549327313400804 0
ion Se   0.112042824893631   0.222117010522556   0.434302092133100 0
ion Se   0.115449013195769   0.228821115488824   0.691992944227311 0
ion Se   0.555357502892382   0.111011983873610   0.309462952796716 0
ion Se   0.556357132793841   0.111511798824339   0.548916986642502 0
ion Se   0.443407748225700   0.222117010522556   0.434302092133100 0
ion Se   0.446705664889830   0.228821115488824   0.691992944227311 0
ion Se   0.888988043578003   0.111011983873610   0.309462952796716 0
ion Se   0.888488228627274   0.111511798824339   0.548916986642502 0
ion Se   0.777777863349463   0.222222164102150   0.434304861147628 0
ion Se   0.777777863349463   0.222222164102150   0.693399324878097 0
ion Se   0.222106586764553   0.444386525809695   0.308062461628315 0
ion Se   0.221497625064004   0.444082044959421   0.548875739379283 0
ion Se   0.112042824893631   0.556592279225913   0.434302092133100 0
ion Se   0.115449013195769   0.553294362561783   0.691992944227311 0
ion Se   0.555613501641918   0.444386525809695   0.308062461628315 0
ion Se   0.555917982492192   0.444082044959421   0.548875739379283 0
ion Se   0.444444530016129   0.555555497435484   0.432741354794532 0
ion Se   0.888988043578003   0.444642524559231   0.309462952796716 0
ion Se   0.888488228627274   0.443642894657772   0.548916986642502 0
ion Se   0.777883016929057   0.556592279225913   0.434302092133100 0
ion Se   0.771178911962789   0.553294362561783   0.691992944227311 0
ion Se   0.222205428787900   0.777794598663713   0.308614087651652 0
ion Se   0.222134286075810   0.777865741375803   0.549327313400804 0
ion Se   0.111111196682796   0.888888830768817   0.434586286830789 0
ion Se   0.111111196682796   0.888888830768817   0.693465365336902 0
ion Se   0.555613501641918   0.777893440687060   0.308062461628315 0
ion Se   0.555917982492192   0.778502402387609   0.548875739379283 0
ion Se   0.443407748225700   0.887957202557982   0.434302092133100 0
ion Se   0.446705664889830   0.884551014255844   0.691992944227311 0
ion Se   0.888922732472587   0.777794598663713   0.308614087651652 0
ion Se   0.889065017896767   0.777865741375803   0.549327313400804 0
ion Se   0.777883016929057   0.887957202557982   0.434302092133100 0
ion Se   0.771178911962789   0.884551014255844   0.691992944227311 0


# Forces in Lattice coordinates:
force Zn  -0.002018317486939   0.001134417078483   0.250751280714137 0
force Zn   0.002018317486939  -0.000883900408455   0.250751280713228 0
force Zn   0.000000000000000   0.000000000000000   0.243451470259718 0
force Zn  -0.000883900408455  -0.001134417078483   0.250751280713228 0
force Zn   0.000000000000000  -0.000000000000000   0.210371382972145 0
force Zn   0.000883900408455  -0.002018317486939   0.250751280713228 0
force Zn   0.000000000000000  -0.000000000000000   0.278971736396027 0
force Zn   0.001134417078483   0.000883900408455   0.250751280713228 0
force Zn  -0.001134417078483   0.002018317486939   0.250751280713228 0
force In   0.006939683041645  -0.006939683041645   0.718603930966595 0
force In   0.000000000000000  -0.082908977257141   0.282626431038999 0
force In  -0.006939683041645   0.000000000000000   0.718603930966652 0
force In   0.042699393093464   0.000000000000000   0.236319885239927 0
force In   0.000000000000000   0.061946922305233   0.636958477907148 0
force In  -0.042699393093463   0.042699393093464   0.236319885239927 0
force In  -0.061946922305233   0.000000000000000   0.636958477907148 0
force In   0.137191293278609   0.000000000000000   0.661516114215326 0
force In   0.000000000000000  -0.055487192671385   0.638962644061787 0
force In  -0.137191293278609   0.137191293278609   0.661516114215326 0
force In   0.061946922305233  -0.061946922305232   0.636958477907148 0
force In   0.000000000000000  -0.042699393093463   0.236319885239927 0
force In   0.000000000000000   0.006939683041645   0.718603930966595 0
force In  -0.082908977257140   0.082908977257140   0.282626431038999 0
force In  -0.055487192671381   0.055487192671381   0.638962644062014 0
force In   0.000000000000000  -0.137191293278609   0.661516114215781 0
force In   0.055487192671383   0.000000000000000   0.638962644061901 0
force In   0.082908977257140  -0.000000000000000   0.282626431038999 0
force Se   0.000000000000000  -0.002657229413163  -0.783007761007180 0
force Se   0.000000000000000   0.017803650808932  -0.608539461853996 0
force Se   0.018978055675636   0.005893720697383  -1.121284856407685 0
force Se   0.001677407868405   0.199742406644555   1.123830271345751 0
force Se  -0.007470667919848  -0.000000000000000  -0.764109422994357 0
force Se   0.009261272198874  -0.000000000000000  -0.579483819762727 0
force Se  -0.018978055675636   0.024871776373018  -1.121284856407657 0
force Se  -0.001677407868406   0.201419814512962   1.123830271345753 0
force Se   0.007470667919848  -0.007470667919848  -0.764109422994357 0
force Se  -0.009261272198874   0.009261272198874  -0.579483819762727 0
force Se   0.000000000000000   0.000000000000000  -1.144264409190658 0
force Se   0.000000000000000  -0.000000000000000   1.226769089066664 0
force Se   0.003854353912444  -0.000000000000000  -0.803942752447572 0
force Se  -0.017633771653969   0.000000000000000  -0.014875862415254 0
force Se   0.024871776373018  -0.005893720697383  -1.121284856407685 0
force Se   0.201419814512962  -0.199742406644552   1.123830271346208 0
force Se  -0.003854353912444   0.003854353912444  -0.803942752447572 0
force Se   0.017633771653967  -0.017633771653967  -0.014875862415254 0
force Se   0.000000000000000   0.000000000000000  -1.206068370714067 0
force Se   0.000000000000000   0.007470667919848  -0.764109422994812 0
force Se   0.000000000000000  -0.009261272198875  -0.579483819762727 0
force Se  -0.024871776373018   0.018978055675636  -1.121284856407685 0
force Se  -0.201419814512963   0.001677407868407   1.123830271346206 0
force Se  -0.002657229413163   0.002657229413163  -0.783007761006726 0
force Se   0.017803650808932  -0.017803650808932  -0.608539461853996 0
force Se   0.000000000000000   0.000000000000000  -1.184027588611081 0
force Se   0.000000000000000   0.000000000000000   1.238840748459673 0
force Se   0.000000000000000  -0.003854353912444  -0.803942752447572 0
force Se   0.000000000000000   0.017633771653965  -0.014875862415254 0
force Se   0.005893720697383  -0.024871776373018  -1.121284856407685 0
force Se   0.199742406644555  -0.201419814512962   1.123830271345751 0
force Se   0.002657229413163  -0.000000000000000  -0.783007761006726 0
force Se  -0.017803650808932  -0.000000000000000  -0.608539461853996 0
force Se  -0.005893720697383  -0.018978055675636  -1.121284856407685 0
force Se  -0.199742406644555  -0.001677407868406   1.123830271345751 0

# Energy components:
   A_diel =       -0.0983546014203235
   Eewald =    24536.9613124512143258
       EH =    27501.7025197524017130
     Eloc =   -55919.4486106232725433
      Enl =      265.2081039457258385
      Exc =    -1051.5162096386598023
 Exc_core =      577.3629458884154246
       KE =      625.5497944450802379
  MuShift =        0.0379981823236886
-------------------------------------
     Etot =    -3464.2405001981892383
       TS =        0.0410858891369651
-------------------------------------
        F =    -3464.2815860873261045
      muN =     -152.1385993162086834
-------------------------------------
        G =    -3312.1429867711176485

IonicMinimize: Iter:   0  G: -3312.142986771117648  |grad|_K:  0.000e+00  t[s]:   2066.07
IonicMinimize: Converged (|grad|_K<1.000000e-04).

#--- Lowdin population analysis ---
# oxidation-state Zn -0.068 -0.068 -0.066 -0.068 -0.067 -0.068 -0.066 -0.068 -0.068
# oxidation-state In +0.409 +0.367 +0.409 +0.386 +0.408 +0.386 +0.408 +0.388 +0.405 +0.388 +0.408 +0.386 +0.409 +0.367 +0.405 +0.388 +0.405 +0.367
# oxidation-state Se +0.067 -0.256 -0.067 -0.020 +0.068 -0.248 -0.067 -0.020 +0.068 -0.248 -0.064 -0.022 +0.067 -0.243 -0.067 -0.020 +0.067 -0.243 -0.071 +0.068 -0.248 -0.067 -0.020 +0.067 -0.256 -0.072 -0.023 +0.067 -0.243 -0.067 -0.020 +0.067 -0.256 -0.067 -0.020


Dumping 'NbTe2.fillings' ... done
Dumping 'NbTe2.wfns' ... done
Dumping 'NbTe2.fluidState' ... done
Dumping 'NbTe2.eigenvals' ... done
End date and time: Fri Jul 17 22:33:36 2020  (Duration: 0-0:34:33.55)
Done!

*************** JDFTx 1.5.0  ***************

Start date and time: Sat Jul 18 08:23:42 2020
Executable jdftx_gpu with command-line: -i Charged.in -o Charged.out
Running on hosts (process indices):  amax (0-5)
Divided in process groups (process indices):  0 (0)  1 (1)  2 (2)  3 (3)  4 (4)  5 (5)
gpuInit: Found compatible cuda device 0 'Tesla K80'
gpuInit: Found compatible cuda device 1 'Tesla K80'
gpuInit: Found compatible cuda device 2 'Tesla K80'
gpuInit: Found compatible cuda device 3 'Tesla K80'
gpuInit: Found compatible cuda device 4 'Tesla K80'
gpuInit: Found compatible cuda device 5 'Tesla K80'
gpuInit: Selected device 0
Resource initialization completed at t[s]:      8.41
Run totals: 6 processes, 24 threads, 6 GPUs


Input parsed successfully to the following command list (including defaults):

basis kpoint-dependent
cache-projectors no
coords-type Lattice
core-overlap-check none
coulomb-interaction Slab 001
coulomb-truncation-embed 0 0 0.5
davidson-band-ratio 1.1
dump End State
dump-name NbTe2.$VAR
elec-cutoff 20 100
elec-eigen-algo Davidson
elec-ex-corr gga-PBE
elec-smearing Gauss 0.0073499
electronic-minimize  \
	dirUpdateScheme      FletcherReeves \
	linminMethod         DirUpdateRecommended \
	nIterations          500 \
	history              15 \
	knormThreshold       0 \
	energyDiffThreshold  1e-08 \
	nEnergyDiff          2 \
	alphaTstart          1 \
	alphaTmin            1e-10 \
	updateTestStepSize   yes \
	alphaTreduceFactor   0.1 \
	alphaTincreaseFactor 3 \
	nAlphaAdjustMax      3 \
	wolfeEnergy          0.0001 \
	wolfeGradient        0.9 \
	fdTest               no
exchange-regularization WignerSeitzTruncated
fluid LinearPCM 298.000000 1.013250
fluid-anion F- 1 MeanFieldLJ \
	epsBulk 1 \
	pMol 0 \
	epsInf 1 \
	Pvap 0 \
	sigmaBulk 0 \
	Rvdw 2.24877 \
	Res 0 \
	tauNuc 343133
fluid-cation Na+ 1 MeanFieldLJ \
	epsBulk 1 \
	pMol 0 \
	epsInf 1 \
	Pvap 0 \
	sigmaBulk 0 \
	Rvdw 2.19208 \
	Res 0 \
	tauNuc 343133
fluid-ex-corr lda-TF lda-PZ
fluid-gummel-loop 10 1.000000e-05
fluid-minimize  \
	dirUpdateScheme      PolakRibiere \
	linminMethod         DirUpdateRecommended \
	nIterations          400 \
	history              15 \
	knormThreshold       1e-11 \
	energyDiffThreshold  0 \
	nEnergyDiff          2 \
	alphaTstart          1 \
	alphaTmin            1e-10 \
	updateTestStepSize   yes \
	alphaTreduceFactor   0.1 \
	alphaTincreaseFactor 3 \
	nAlphaAdjustMax      6 \
	wolfeEnergy          0.0001 \
	wolfeGradient        0.9 \
	fdTest               no
fluid-solvent H2O 55.338 ScalarEOS \
	epsBulk 78.4 \
	pMol 0.92466 \
	epsInf 1.77 \
	Pvap 1.06736e-10 \
	sigmaBulk 4.62e-05 \
	Rvdw 2.61727 \
	Res 1.42 \
	tauNuc 343133 \
	poleEl 15 7 1
forces-output-coords Positions
initial-state NbTe2.$VAR
ion Zn   0.111674946202205   0.222681735609682   0.329255932420121 0
ion Zn   0.444336795407482   0.222681735609682   0.329255932420121 0
ion Zn   0.777779996000000   0.222220006999997   0.329274370845919 0
ion Zn   0.111674963202203   0.555663219592516   0.329255932420121 0
ion Zn   0.444440016999998   0.555560004999997   0.328906419606773 0
ion Zn   0.777318273390315   0.555663219592516   0.329255932420121 0
ion Zn   0.111110042999996   0.888890039000003   0.329190615118344 0
ion Zn   0.444336856407483   0.888325095797798   0.329255932420121 0
ion Zn   0.777318287390316   0.888325095797798   0.329255932420121 0
ion In  -0.000145585629577   0.000145585629577   0.485695394781003 0
ion In   0.223179030016992   0.113028053033991   0.648510028521651 0
ion In   0.333621178259155   0.000145585629577   0.485695394781003 0
ion In   0.553989490388433   0.110324752694216   0.648160629966248 0
ion In   0.666117968924275  -0.001104130151448   0.484712168478150 0
ion In   0.889675289305788   0.110324752694216   0.648160629966248 0
ion In   0.001104132151448   0.333882075075721   0.484712168478150 0
ion In   0.260052379024853   0.463356200012429   0.649471889050365 0
ion In   0.335055745177351   0.336781482354698   0.486055796289256 0
ion In   0.536643806987575   0.463356200012429   0.649471889050365 0
ion In   0.666117969924279   0.333882075075721   0.484712168478150 0
ion In   0.889675250305788   0.446010514611570   0.648160629966248 0
ion In  -0.000145586629574   0.666378860740844   0.485695394781003 0
ion In   0.223179058016995   0.776820986983006   0.648510028521651 0
ion In   0.335055742177347   0.664944295822649   0.486055796289256 0
ion In   0.536643812987575   0.739947639975145   0.649471889050365 0
ion In   0.663218560645303   0.664944295822649   0.486055796289256 0
ion In   0.886971955966007   0.776820986983006   0.648510028521651 0
ion S   0.222204234105101   0.111078461210209   0.308614087651652 0
ion S   0.222133091393011   0.110936175786028   0.549327313400804 0
ion S   0.112041640377505   0.222118179587071   0.434302092133100 0
ion S   0.115447828679643   0.228822284553339   0.691992944227311 0
ion S   0.555359650209589   0.111009832604794   0.309462952796716 0
ion S   0.556359280111048   0.111509647555523   0.548916986642502 0
ion S   0.443406545209570   0.222118179587071   0.434302092133100 0
ion S   0.446704461873700   0.228822284553339   0.691992944227311 0
ion S   0.888990209395210   0.111009832604794   0.309462952796716 0
ion S   0.888490394444481   0.111509647555523   0.548916986642502 0
ion S   0.777779996000000   0.222220006999997   0.434304861147628 0
ion S   0.777779996000000   0.222220006999997   0.693399324878097 0
ion S   0.222108725081756   0.444384373040881   0.308062461628315 0
ion S   0.221499763381207   0.444079892190606   0.548875739379283 0
ion S   0.112041657377503   0.556593469790428   0.434302092133100 0
ion S   0.115447845679641   0.553295553126297   0.691992944227311 0
ion S   0.555615633959124   0.444384373040881   0.308062461628315 0
ion S   0.555920114809398   0.444079892190606   0.548875739379283 0
ion S   0.444440016999998   0.555560004999997   0.432741354794532 0
ion S   0.888990170395210   0.444640354790415   0.309462952796716 0
ion S   0.888490355444481   0.443640724888956   0.548916986642502 0
ion S   0.777881829412927   0.556593469790428   0.434302092133100 0
ion S   0.771177724446659   0.553295553126297   0.691992944227311 0
ion S   0.222204262105103   0.777795782894897   0.308614087651652 0
ion S   0.222133119393013   0.777866925606987   0.549327313400804 0
ion S   0.111110042999996   0.888890039000003   0.434586286830789 0
ion S   0.111110042999996   0.888890039000003   0.693465365336902 0
ion S   0.555615639959124   0.777891293918242   0.308062461628315 0
ion S   0.555920120809398   0.778500255618791   0.548875739379283 0
ion S   0.443406606209572   0.887958401622499   0.434302092133100 0
ion S   0.446704522873702   0.884552213320361   0.691992944227311 0
ion S   0.888921547789789   0.777795782894897   0.308614087651652 0
ion S   0.889063833213969   0.777866925606987   0.549327313400804 0
ion S   0.777881843412928   0.887958401622499   0.434302092133100 0
ion S   0.771177738446660   0.884552213320361   0.691992944227311 0
ion-species GBRV/$ID_pbe.uspp
ion-width Ecut
ionic-minimize  \
	dirUpdateScheme      L-BFGS \
	linminMethod         DirUpdateRecommended \
	nIterations          0 \
	history              15 \
	knormThreshold       0.0001 \
	energyDiffThreshold  1e-06 \
	nEnergyDiff          2 \
	alphaTstart          1 \
	alphaTmin            1e-10 \
	updateTestStepSize   yes \
	alphaTreduceFactor   0.1 \
	alphaTincreaseFactor 3 \
	nAlphaAdjustMax      3 \
	wolfeEnergy          0.0001 \
	wolfeGradient        0.9 \
	fdTest               no
kpoint   0.000000000000   0.000000000000   0.000000000000  1.00000000000000
kpoint-folding 3 3 1 
latt-move-scale 1 1 1
latt-scale 1 1 1 
lattice Triclinic 22.0331 22.0331 46.3688 90 90 120
lattice-minimize  \
	dirUpdateScheme      L-BFGS \
	linminMethod         DirUpdateRecommended \
	nIterations          0 \
	history              15 \
	knormThreshold       0 \
	energyDiffThreshold  1e-06 \
	nEnergyDiff          2 \
	alphaTstart          1 \
	alphaTmin            1e-10 \
	updateTestStepSize   yes \
	alphaTreduceFactor   0.1 \
	alphaTincreaseFactor 3 \
	nAlphaAdjustMax      3 \
	wolfeEnergy          0.0001 \
	wolfeGradient        0.9 \
	fdTest               no
lcao-params -1 1e-06 0.0073499
pcm-variant CANDLE
spintype no-spin
subspace-rotation-factor 1 yes
symmetries automatic
symmetry-threshold 0.0001
target-mu -0.24475 no




---------- Setting up symmetries ----------

Found 24 point-group symmetries of the bravais lattice
Found 6 space-group symmetries with basis
Applied RMS atom displacement 6.88499e-05 bohrs to make symmetries exact.

---------- Initializing the Grid ----------
R = 
[    22.0331   -11.0165          0  ]
[          0    19.0812          0  ]
[          0          0    46.3688  ]
unit cell volume = 19494.2
G =
[   0.285171   0.164643         -0  ]
[          0   0.329287          0  ]
[          0         -0   0.135505  ]
Minimum fftbox size, Smin = [  100  100  212  ]
Chosen fftbox size, S = [  100  100  216  ]

---------- Initializing tighter grid for wavefunction operations ----------
R = 
[    22.0331   -11.0165          0  ]
[          0    19.0812          0  ]
[          0          0    46.3688  ]
unit cell volume = 19494.2
G =
[   0.285171   0.164643         -0  ]
[          0   0.329287          0  ]
[          0         -0   0.135505  ]
Minimum fftbox size, Smin = [  92  92  188  ]
Chosen fftbox size, S = [  96  96  192  ]

---------- Exchange Correlation functional ----------
Initalized PBE GGA exchange.
Initalized PBE GGA correlation.

---------- Setting up pseudopotentials ----------
Width of ionic core gaussian charges (only for fluid interactions / plotting) set to 0.397384

Reading pseudopotential file '/home/guoxy/vasp/jdftx-1.5.0/build/pseudopotentials/GBRV/zn_pbe.uspp':
  Title: Zn.  Created by USPP 7.3.6 on 14-9-2013
  Reference state energy: -230.738654.  20 valence electrons in orbitals:
    |300>  occupation: 2  eigenvalue: -4.749171
    |310>  occupation: 6  eigenvalue: -3.064985
    |320>  occupation: 10  eigenvalue: -0.372657
    |400>  occupation: 2  eigenvalue: -0.219719
    |410>  occupation: 0  eigenvalue: -0.040996
  lMax: 2  lLocal: 3  QijEcut: 5
  6 projectors sampled on a log grid with 687 points:
    l: 0  eig: -4.749172  rCut: 1.35
    l: 0  eig: -0.219719  rCut: 1.35
    l: 1  eig: -3.064985  rCut: 1.4
    l: 1  eig: -0.040997  rCut: 1.4
    l: 2  eig: -0.372656  rCut: 1.6
    l: 2  eig: 1.000000  rCut: 1.6
  Transforming local potential to a uniform radial grid of dG=0.02 with 1608 points.
  Transforming nonlocal projectors to a uniform radial grid of dG=0.02 with 432 points.
  Transforming density augmentations to a uniform radial grid of dG=0.02 with 1608 points.
  Transforming atomic orbitals to a uniform radial grid of dG=0.02 with 432 points.
  Core radius for overlap checks: 1.80 bohrs.

[...]
	Linear fluid (dielectric constant: 78.4, screening length: 5.74355 Bohr) occupying 0.699079 of unit cell:	Completed after 0 iterations at t[s]:   1042.50
	FillingsUpdate:  mu: -0.244750400  nElectrons: 622.281017
	SubspaceRotationAdjust: set factor to 0.52
ElecMinimize: Iter:  26  G: -3337.320395352191554  |grad|_K:  8.573e-08  alpha:  1.035e-01  linmin: -7.848e-09  t[s]:   1054.90
	Linear fluid (dielectric constant: 78.4, screening length: 5.74355 Bohr) occupying 0.699078 of unit cell:	Completed after 2 iterations at t[s]:   1064.49
	Linear fluid (dielectric constant: 78.4, screening length: 5.74355 Bohr) occupying 0.699078 of unit cell:	Completed after 0 iterations at t[s]:   1075.87
ElecMinimize: 	Step increased G by 3.279274e-08, reducing alpha to 3.292927e-03.
	Linear fluid (dielectric constant: 78.4, screening length: 5.74355 Bohr) occupying 0.699079 of unit cell:	Completed after 0 iterations at t[s]:   1095.94
ElecMinimize: 	Step increased G by 2.370189e-08, reducing alpha to 3.292927e-04.
	Linear fluid (dielectric constant: 78.4, screening length: 5.74355 Bohr) occupying 0.699079 of unit cell:	Completed after 0 iterations at t[s]:   1115.66
ElecMinimize: 	Step increased G by 2.329853e-08, reducing alpha to 3.292927e-05.
ElecMinimize: 	Step failed to reduce G after 3 attempts. Quitting step.
ElecMinimize: 	Undoing step.
	Linear fluid (dielectric constant: 78.4, screening length: 5.74355 Bohr) occupying 0.699079 of unit cell:	Completed after 0 iterations at t[s]:   1135.13
ElecMinimize: 	Step failed: resetting search direction.
	FillingsUpdate:  mu: -0.244750400  nElectrons: 622.281018
	SubspaceRotationAdjust: set factor to 0.585
ElecMinimize: Iter:  27  G: -3337.320395328901213  |grad|_K:  6.083e-08  alpha:  3.293e-05
	Linear fluid (dielectric constant: 78.4, screening length: 5.74355 Bohr) occupying 0.699079 of unit cell:	Completed after 0 iterations at t[s]:   1157.75
	Linear fluid (dielectric constant: 78.4, screening length: 5.74355 Bohr) occupying 0.699079 of unit cell:	Completed after 0 iterations at t[s]:   1167.84
	FillingsUpdate:  mu: -0.244750400  nElectrons: 622.280767
	SubspaceRotationAdjust: set factor to 0.793
ElecMinimize: Iter:  28  G: -3337.320395406456555  |grad|_K:  4.493e-08  alpha:  1.494e-01  linmin: -5.573e-04  t[s]:   1180.58
	Linear fluid (dielectric constant: 78.4, screening length: 5.74355 Bohr) occupying 0.699079 of unit cell:	Completed after 2 iterations at t[s]:   1189.26
	Linear fluid (dielectric constant: 78.4, screening length: 5.74355 Bohr) occupying 0.699079 of unit cell:	Completed after 0 iterations at t[s]:   1200.61
ElecMinimize: 	Step increased G by 4.884259e-08, reducing alpha to 4.842761e-03.
	Linear fluid (dielectric constant: 78.4, screening length: 5.74355 Bohr) occupying 0.699079 of unit cell:	Completed after 0 iterations at t[s]:   1222.21
ElecMinimize: 	Step increased G by 5.019820e-08, reducing alpha to 4.842761e-04.
	Linear fluid (dielectric constant: 78.4, screening length: 5.74355 Bohr) occupying 0.699079 of unit cell:	Completed after 0 iterations at t[s]:   1244.49
ElecMinimize: 	Step increased G by 5.047650e-08, reducing alpha to 4.842761e-05.
ElecMinimize: 	Step failed to reduce G after 3 attempts. Quitting step.
ElecMinimize: 	Undoing step.
	Linear fluid (dielectric constant: 78.4, screening length: 5.74355 Bohr) occupying 0.699079 of unit cell:	Completed after 0 iterations at t[s]:   1264.94
ElecMinimize: 	Step failed: resetting search direction.
	FillingsUpdate:  mu: -0.244750400  nElectrons: 622.280766
	SubspaceRotationAdjust: set factor to 0.81
ElecMinimize: Iter:  29  G: -3337.320395355942765  |grad|_K:  7.333e-08  alpha:  4.843e-05
	Linear fluid (dielectric constant: 78.4, screening length: 5.74355 Bohr) occupying 0.699079 of unit cell:	Completed after 0 iterations at t[s]:   1287.20
ElecMinimize: 	Predicted alpha/alphaT>3.000000, increasing alphaT to 4.481204e-01.
	Linear fluid (dielectric constant: 78.4, screening length: 5.74355 Bohr) occupying 0.699078 of unit cell:	Completed after 2 iterations at t[s]:   1298.10
	Linear fluid (dielectric constant: 78.4, screening length: 5.74355 Bohr) occupying 0.699079 of unit cell:	Completed after 2 iterations at t[s]:   1310.29
	FillingsUpdate:  mu: -0.244750400  nElectrons: 622.280817
	SubspaceRotationAdjust: set factor to 0.824
ElecMinimize: Iter:  30  G: -3337.320395403293332  |grad|_K:  4.631e-08  alpha:  1.283e-01  linmin:  1.265e-04  t[s]:   1323.38
	Linear fluid (dielectric constant: 78.4, screening length: 5.74355 Bohr) occupying 0.699078 of unit cell:	Completed after 0 iterations at t[s]:   1332.76
ElecMinimize: 	Predicted alpha/alphaT>3.000000, increasing alphaT to 3.848930e-01.
	Linear fluid (dielectric constant: 78.4, screening length: 5.74355 Bohr) occupying 0.699078 of unit cell:	Completed after 0 iterations at t[s]:   1342.60
	Linear fluid (dielectric constant: 78.4, screening length: 5.74355 Bohr) occupying 0.699078 of unit cell:	Completed after 3 iterations at t[s]:   1355.37
ElecMinimize: 	Step increased G by 5.019683e-08, reducing alpha to 8.236568e-02.
	Linear fluid (dielectric constant: 78.4, screening length: 5.74355 Bohr) occupying 0.699079 of unit cell:	Completed after 0 iterations at t[s]:   1375.68
	FillingsUpdate:  mu: -0.244750400  nElectrons: 622.280912
	SubspaceRotationAdjust: set factor to 0.51
ElecMinimize: Iter:  31  G: -3337.320395527302480  |grad|_K:  8.002e-08  alpha:  8.237e-02  linmin:  4.093e-05  t[s]:   1387.29
	Linear fluid (dielectric constant: 78.4, screening length: 5.74355 Bohr) occupying 0.699078 of unit cell:	Completed after 2 iterations at t[s]:   1397.63
	Linear fluid (dielectric constant: 78.4, screening length: 5.74355 Bohr) occupying 0.699078 of unit cell:	Completed after 0 iterations at t[s]:   1407.67
ElecMinimize: 	Step increased G by 8.434336e-08, reducing alpha to 2.405521e-03.
	Linear fluid (dielectric constant: 78.4, screening length: 5.74355 Bohr) occupying 0.699079 of unit cell:	Completed after 0 iterations at t[s]:   1428.23
ElecMinimize: 	Step increased G by 9.527412e-08, reducing alpha to 2.405521e-04.
	Linear fluid (dielectric constant: 78.4, screening length: 5.74355 Bohr) occupying 0.699079 of unit cell:	Completed after 0 iterations at t[s]:   1448.41
ElecMinimize: 	Step increased G by 9.646374e-08, reducing alpha to 2.405521e-05.
ElecMinimize: 	Step failed to reduce G after 3 attempts. Quitting step.
ElecMinimize: 	Undoing step.
	Linear fluid (dielectric constant: 78.4, screening length: 5.74355 Bohr) occupying 0.699079 of unit cell:	Completed after 0 iterations at t[s]:   1470.05
ElecMinimize: 	Step failed: resetting search direction.
	FillingsUpdate:  mu: -0.244750400  nElectrons: 622.280910
	SubspaceRotationAdjust: set factor to 0.269
ElecMinimize: Iter:  32  G: -3337.320395430828285  |grad|_K:  3.093e-08  alpha:  2.406e-05
	Linear fluid (dielectric constant: 78.4, screening length: 5.74355 Bohr) occupying 0.699079 of unit cell:	Completed after 0 iterations at t[s]:   1493.62
ElecMinimize: 	Predicted alpha/alphaT>3.000000, increasing alphaT to 2.470971e-01.
	Linear fluid (dielectric constant: 78.4, screening length: 5.74355 Bohr) occupying 0.699078 of unit cell:	Completed after 0 iterations at t[s]:   1505.03
ElecMinimize: 	Predicted alpha/alphaT>3.000000, increasing alphaT to 7.412912e-01.
	Linear fluid (dielectric constant: 78.4, screening length: 5.74355 Bohr) occupying 0.699078 of unit cell:	Completed after 3 iterations at t[s]:   1515.60
	Linear fluid (dielectric constant: 78.4, screening length: 5.74355 Bohr) occupying 0.699078 of unit cell:	Completed after 0 iterations at t[s]:   1524.67
	FillingsUpdate:  mu: -0.244750400  nElectrons: 622.281422
	SubspaceRotationAdjust: set factor to 0.237
ElecMinimize: Iter:  33  G: -3337.320395506085333  |grad|_K:  8.567e-08  alpha:  2.059e-01  linmin:  1.551e-04  t[s]:   1538.19
ElecMinimize: 	Bad step direction: g.d > 0.
ElecMinimize: 	Undoing step.
	Linear fluid (dielectric constant: 78.4, screening length: 5.74355 Bohr) occupying 0.699078 of unit cell:	Completed after 0 iterations at t[s]:   1547.47
ElecMinimize: 	Step failed: resetting search direction.
	FillingsUpdate:  mu: -0.244750400  nElectrons: 622.281422
	SubspaceRotationAdjust: set factor to 0.326
ElecMinimize: Iter:  34  G: -3337.320395506075783  |grad|_K:  8.365e-08  alpha:  0.000e+00
	Linear fluid (dielectric constant: 78.4, screening length: 5.74355 Bohr) occupying 0.699079 of unit cell:	Completed after 2 iterations at t[s]:   1571.46
	Linear fluid (dielectric constant: 78.4, screening length: 5.74355 Bohr) occupying 0.699078 of unit cell:	Completed after 0 iterations at t[s]:   1581.67
ElecMinimize: 	Step increased G by 8.783445e-09, reducing alpha to 6.645937e-03.
	Linear fluid (dielectric constant: 78.4, screening length: 5.74355 Bohr) occupying 0.699078 of unit cell:	Completed after 2 iterations at t[s]:   1602.54
ElecMinimize: 	Step increased G by 6.961272e-08, reducing alpha to 6.645937e-04.
	Linear fluid (dielectric constant: 78.4, screening length: 5.74355 Bohr) occupying 0.699078 of unit cell:	Completed after 0 iterations at t[s]:   1622.72
ElecMinimize: 	Step increased G by 7.094513e-08, reducing alpha to 6.645937e-05.
ElecMinimize: 	Step failed to reduce G after 3 attempts. Quitting step.
ElecMinimize: 	Undoing step.
	Linear fluid (dielectric constant: 78.4, screening length: 5.74355 Bohr) occupying 0.699078 of unit cell:	Completed after 0 iterations at t[s]:   1643.74
ElecMinimize: 	Step failed along negative gradient direction.
ElecMinimize: Probably at roundoff error limit. (Stopping)
Setting wave functions to eigenvectors of Hamiltonian

# Ionic positions in lattice coordinates:
ion Zn   0.111676130718332   0.222680566545168   0.329255932420121 0
ion Zn   0.444337998423611   0.222680566545168   0.329255932420121 0
ion Zn   0.777777863349463   0.222222164102150   0.329274370845919 0
ion Zn   0.111676130718332   0.555662029028002   0.329255932420121 0
ion Zn   0.444444530016129   0.555555497435484   0.328906419606773 0
ion Zn   0.777319460906445   0.555662029028002   0.329255932420121 0
ion Zn   0.111111196682796   0.888888830768817   0.329190615118344 0
ion Zn   0.444337998423611   0.888323896733281   0.329255932420121 0
ion Zn   0.777319460906445   0.888323896733281   0.329255932420121 0
ion In  -0.000144384780115   0.000144412231728   0.485695394781003 0
ion In   0.223180224699792   0.113026886802808   0.648510028521651 0
ion In   0.333622359608618   0.000144412231728   0.485695394781003 0
ion In   0.553987343071226   0.110326903963032   0.648160629966248 0
ion In   0.666115802107073  -0.001101958382629   0.484712168478150 0
ion In   0.889673123488581   0.110326903963032   0.648160629966248 0
ion In   0.001101985834242   0.333884225344540   0.484712168478150 0
ion In   0.260050240707650   0.463358352781244   0.649471889050365 0
ion In   0.335056924693478   0.336780286790181   0.486055796289256 0
ion In   0.536641674670369   0.463358352781244   0.649471889050365 0
ion In   0.666115802107073   0.333884225344540   0.484712168478150 0
ion In   0.889673123488581   0.446012684380387   0.648160629966248 0
ion In  -0.000144384780115   0.666377667842995   0.485695394781003 0
ion In   0.223180224699792   0.776819802751821   0.648510028521651 0
ion In   0.335056924693478   0.664943102758135   0.486055796289256 0
ion In   0.536641674670369   0.739949786743963   0.649471889050365 0
ion In   0.663219740661432   0.664943102758135   0.486055796289256 0
ion In   0.886973140648805   0.776819802751821   0.648510028521651 0
ion S   0.222205428787900   0.111077294979026   0.308614087651652 0
ion S   0.222134286075810   0.110935009554846   0.549327313400804 0
ion S   0.112042824893631   0.222117010522556   0.434302092133100 0
ion S   0.115449013195769   0.228821115488824   0.691992944227311 0
ion S   0.555357502892382   0.111011983873610   0.309462952796716 0
ion S   0.556357132793841   0.111511798824339   0.548916986642502 0
ion S   0.443407748225700   0.222117010522556   0.434302092133100 0
ion S   0.446705664889830   0.228821115488824   0.691992944227311 0
ion S   0.888988043578003   0.111011983873610   0.309462952796716 0
ion S   0.888488228627274   0.111511798824339   0.548916986642502 0
ion S   0.777777863349463   0.222222164102150   0.434304861147628 0
ion S   0.777777863349463   0.222222164102150   0.693399324878097 0
ion S   0.222106586764553   0.444386525809695   0.308062461628315 0
ion S   0.221497625064004   0.444082044959421   0.548875739379283 0
ion S   0.112042824893631   0.556592279225913   0.434302092133100 0
ion S   0.115449013195769   0.553294362561783   0.691992944227311 0
ion S   0.555613501641918   0.444386525809695   0.308062461628315 0
ion S   0.555917982492192   0.444082044959421   0.548875739379283 0
ion S   0.444444530016129   0.555555497435484   0.432741354794532 0
ion S   0.888988043578003   0.444642524559231   0.309462952796716 0
ion S   0.888488228627274   0.443642894657772   0.548916986642502 0
ion S   0.777883016929057   0.556592279225913   0.434302092133100 0
ion S   0.771178911962789   0.553294362561783   0.691992944227311 0
ion S   0.222205428787900   0.777794598663713   0.308614087651652 0
ion S   0.222134286075810   0.777865741375803   0.549327313400804 0
ion S   0.111111196682796   0.888888830768817   0.434586286830789 0
ion S   0.111111196682796   0.888888830768817   0.693465365336902 0
ion S   0.555613501641918   0.777893440687060   0.308062461628315 0
ion S   0.555917982492192   0.778502402387609   0.548875739379283 0
ion S   0.443407748225700   0.887957202557982   0.434302092133100 0
ion S   0.446705664889830   0.884551014255844   0.691992944227311 0
ion S   0.888922732472587   0.777794598663713   0.308614087651652 0
ion S   0.889065017896767   0.777865741375803   0.549327313400804 0
ion S   0.777883016929057   0.887957202557982   0.434302092133100 0
ion S   0.771178911962789   0.884551014255844   0.691992944227311 0


# Forces in Lattice coordinates:
force Zn  -0.001122649409531  -0.000694879018510  -0.088781024364556 0
force Zn   0.001122649409531  -0.001817528428041  -0.088781024364556 0
force Zn   0.000000000000000   0.000000000000000  -0.080263780660146 0
force Zn  -0.001817528428041   0.000694879018510  -0.088781024364556 0
force Zn   0.000000000000000   0.000000000000000  -0.104367806963115 0
force Zn   0.001817528428040  -0.001122649409531  -0.088781024364556 0
force Zn   0.000000000000000   0.000000000000000  -0.075523947688871 0
force Zn  -0.000694879018510   0.001817528428041  -0.088781024365010 0
force Zn   0.000694879018511   0.001122649409531  -0.088781024364556 0
force In   0.007660385837288  -0.007660385837288   0.283818544118095 0
force In   0.000000000000000  -0.032943840871865   0.418762848261763 0
force In  -0.007660385837288   0.000000000000000   0.283818544118152 0
force In   0.049671734786652  -0.000000000000000   0.352048984811594 0
force In   0.000000000000000   0.037069381835877   0.247825953383921 0
force In  -0.049671734786652   0.049671734786652   0.352048984811594 0
force In  -0.037069381835876   0.000000000000000   0.247825953383921 0
force In  -0.193891328697460   0.000000000000000   0.364161792333396 0
force In   0.000000000000000  -0.031217522180674   0.237302449697752 0
force In   0.193891328697460  -0.193891328697460   0.364161792333396 0
force In   0.037069381835877  -0.037069381835876   0.247825953383921 0
force In   0.000000000000000  -0.049671734786652   0.352048984811594 0
force In   0.000000000000000   0.007660385837288   0.283818544118096 0
force In  -0.032943840871865   0.032943840871865   0.418762848261763 0
force In  -0.031217522180672   0.031217522180674   0.237302449697752 0
force In   0.000000000000000   0.193891328697459   0.364161792332941 0
force In   0.031217522180674   0.000000000000000   0.237302449697752 0
force In   0.032943840871865   0.000000000000000   0.418762848261763 0
force S   0.000000000000000  -0.000213424278858   0.002897163475788 0
force S   0.000000000000000   0.008966815125755  -0.339824246612620 0
force S   0.000852323554464   0.011253077958966  -0.089061884805705 0
force S   0.047405517740654   0.049187186627718  -0.195180365799164 0
force S  -0.001786064071208  -0.000000000000000  -0.003211271237917 0
force S  -0.005166259358532   0.000000000000000  -0.332897106570446 0
force S  -0.000852323554464   0.012105401513430  -0.089061884805677 0
force S  -0.047405517740655   0.096592704368370  -0.195180365798709 0
force S   0.001786064071208  -0.001786064071208  -0.003211271237917 0
force S   0.005166259358532  -0.005166259358532  -0.332897106570446 0
force S   0.000000000000000   0.000000000000000  -0.113207805063475 0
force S   0.000000000000000  -0.000000000000000  -0.202417302848152 0
force S   0.001319510276377  -0.000000000000000   0.000799321664402 0
force S   0.036913550909777   0.000000000000000  -0.150680322451098 0
force S   0.012105401513430  -0.011253077958966  -0.089061884805706 0
force S   0.096592704368369  -0.049187186627712  -0.195180365799165 0
force S  -0.001319510276377   0.001319510276377   0.000799321664401 0
force S  -0.036913550909775   0.036913550909777  -0.150680322451098 0
force S   0.000000000000000   0.000000000000000  -0.106137814514202 0
force S   0.000000000000000   0.001786064071208  -0.003211271238372 0
force S   0.000000000000000   0.005166259358532  -0.332897106570446 0
force S  -0.012105401513430   0.000852323554464  -0.089061884805705 0
force S  -0.096592704368370   0.047405517740655  -0.195180365799165 0
force S  -0.000213424278858   0.000213424278859   0.002897163475788 0
force S   0.008966815125755  -0.008966815125755  -0.339824246612620 0
force S   0.000000000000000   0.000000000000000  -0.118791127666379 0
force S   0.000000000000000   0.000000000000000  -0.186843247904696 0
force S   0.000000000000000  -0.001319510276378   0.000799321664402 0
force S   0.000000000000000  -0.036913550909779  -0.150680322450984 0
force S   0.011253077958966  -0.012105401513430  -0.089061884805705 0
force S   0.049187186627714  -0.096592704368368  -0.195180365799164 0
force S   0.000213424278858   0.000000000000000   0.002897163475788 0
force S  -0.008966815125755  -0.000000000000000  -0.339824246612734 0
force S  -0.011253077958967  -0.000852323554464  -0.089061884805706 0
force S  -0.049187186627716  -0.047405517740654  -0.195180365799164 0

# Energy components:
   A_diel =       -0.0780443712887502
   Eewald =    24536.9613124512143258
       EH =    27562.0414151158729510
     Eloc =   -56005.8285390827295487
      Enl =      237.5984905490675487
      Exc =     -677.5143913820777470
 Exc_core =      211.2418354372041165
       KE =      645.9656395962637134
  MuShift =        0.0272909168515317
-------------------------------------
     Etot =    -3489.5849907696192531
       TS =        0.0390306403855747
-------------------------------------
        F =    -3489.6240214100048433
      muN =     -152.3036259748256782
-------------------------------------
        G =    -3337.3203954351793072

IonicMinimize: Iter:   0  G: -3337.320395435179307  |grad|_K:  0.000e+00  t[s]:   1668.77
IonicMinimize: Converged (|grad|_K<1.000000e-04).

#--- Lowdin population analysis ---
# oxidation-state Zn +0.080 +0.080 +0.081 +0.080 +0.081 +0.080 +0.082 +0.080 +0.080
# oxidation-state In +0.581 +0.536 +0.581 +0.555 +0.580 +0.555 +0.580 +0.502 +0.576 +0.502 +0.580 +0.555 +0.581 +0.536 +0.576 +0.502 +0.576 +0.536
# oxidation-state S -0.095 -0.375 -0.205 -0.177 -0.095 -0.369 -0.205 -0.177 -0.095 -0.369 -0.203 -0.175 -0.096 -0.366 -0.205 -0.177 -0.096 -0.366 -0.208 -0.095 -0.369 -0.205 -0.177 -0.095 -0.375 -0.209 -0.177 -0.096 -0.366 -0.205 -0.177 -0.095 -0.375 -0.205 -0.177


Dumping 'NbTe2.fillings' ... done
Dumping 'NbTe2.wfns' ... done
Dumping 'NbTe2.fluidState' ... done
Dumping 'NbTe2.eigenvals' ... done
End date and time: Sat Jul 18 08:51:35 2020  (Duration: 0-0:27:53.64)
Done!
