
*************** JDFTx 1.5.0  ***************

Start date and time: Sat Jul 18 10:32:35 2020
Executable jdftx_gpu with command-line: -i Charged.in -o Charged.out
Running on hosts (process indices):  amax (0-5)
Divided in process groups (process indices):  0 (0)  1 (1)  2 (2)  3 (3)  4 (4)  5 (5)
gpuInit: Found compatible cuda device 0 'Tesla K80'
gpuInit: Found compatible cuda device 1 'Tesla K80'
gpuInit: Found compatible cuda device 2 'Tesla K80'
gpuInit: Found compatible cuda device 3 'Tesla K80'
gpuInit: Found compatible cuda device 4 'Tesla K80'
gpuInit: Found compatible cuda device 5 'Tesla K80'
gpuInit: Selected device 0
Resource initialization completed at t[s]:      4.70
Run totals: 6 processes, 24 threads, 6 GPUs


Input parsed successfully to the following command list (including defaults):

basis kpoint-dependent
cache-projectors no
coords-type Lattice
core-overlap-check none
coulomb-interaction Slab 001
coulomb-truncation-embed 0 0 0.5
davidson-band-ratio 1.1
dump End State
dump-name NbTe2.$VAR
elec-cutoff 20 100
elec-eigen-algo Davidson
elec-ex-corr gga-PBE
elec-smearing Gauss 0.0073499
electronic-minimize  \
	dirUpdateScheme      FletcherReeves \
	linminMethod         DirUpdateRecommended \
	nIterations          500 \
	history              15 \
	knormThreshold       0 \
	energyDiffThreshold  1e-08 \
	nEnergyDiff          2 \
	alphaTstart          1 \
	alphaTmin            1e-10 \
	updateTestStepSize   yes \
	alphaTreduceFactor   0.1 \
	alphaTincreaseFactor 3 \
	nAlphaAdjustMax      3 \
	wolfeEnergy          0.0001 \
	wolfeGradient        0.9 \
	fdTest               no
exchange-regularization WignerSeitzTruncated
fluid LinearPCM 298.000000 1.013250
fluid-anion F- 1 MeanFieldLJ \
	epsBulk 1 \
	pMol 0 \
	epsInf 1 \
	Pvap 0 \
	sigmaBulk 0 \
	Rvdw 2.24877 \
	Res 0 \
	tauNuc 343133
fluid-cation Na+ 1 MeanFieldLJ \
	epsBulk 1 \
	pMol 0 \
	epsInf 1 \
	Pvap 0 \
	sigmaBulk 0 \
	Rvdw 2.19208 \
	Res 0 \
	tauNuc 343133
fluid-ex-corr lda-TF lda-PZ
fluid-gummel-loop 10 1.000000e-05
fluid-minimize  \
	dirUpdateScheme      PolakRibiere \
	linminMethod         DirUpdateRecommended \
	nIterations          400 \
	history              15 \
	knormThreshold       1e-11 \
	energyDiffThreshold  0 \
	nEnergyDiff          2 \
	alphaTstart          1 \
	alphaTmin            1e-10 \
	updateTestStepSize   yes \
	alphaTreduceFactor   0.1 \
	alphaTincreaseFactor 3 \
	nAlphaAdjustMax      6 \
	wolfeEnergy          0.0001 \
	wolfeGradient        0.9 \
	fdTest               no
fluid-solvent H2O 55.338 ScalarEOS \
	epsBulk 78.4 \
	pMol 0.92466 \
	epsInf 1.77 \
	Pvap 1.06736e-10 \
	sigmaBulk 4.62e-05 \
	Rvdw 2.61727 \
	Res 1.42 \
	tauNuc 343133 \
	poleEl 15 7 1
forces-output-coords Positions
initial-state NbTe2.$VAR
ion Sc   0.749845517559356   0.535711137695579   0.552893177251682 0
ion Sc   0.415990705659878   0.683938525959875   0.446172173950895 0
ion Sc   0.930434014457292   0.338369646053942   0.493744033820237 0
ion Sc   0.249065962984179   0.870431449330988   0.516150605951713 0
ion Sc   0.692262998819754   0.336686962678945   0.597376419899231 0
ion Sc   0.472025311353502   0.885213340009330   0.395540608593030 0
ion Sc   0.429533078819882   0.424768338482634   0.518566935081030 0
ion Sc   0.729557508149469   0.794607339417606   0.490832438409040 0
ion Sc   0.667059146381918   0.429208198487971   0.415333829667104 0
ion Sc   0.617251095993434   0.230389459714450   0.462380074925993 0
ion Sc   0.551422442744179   0.986151608101921   0.544386320885555 0
ion C   0.473993367986514   0.799719841900739   0.478053174527668 0
ion C   0.696818677607403   0.422818728527388   0.517186560776573 0
ion C   0.505412508663737   0.872435489744245   0.501655537813844 0
ion C   0.661960013033081   0.345265631068169   0.495234173238838 0
ion I   0.762402901243525   0.475597530105102   0.670583295341582 0
ion I   0.407172818728904   0.741121327679028   0.326961454561121 0
ion I   0.067640003829976   0.487492552294048   0.534189186363781 0
ion I   0.107199908899613   0.725053822366054   0.464282226762301 0
ion I   0.431708069488225   0.598202366478605   0.563151430955704 0
ion I   0.735612640937968   0.612953023717861   0.429864162445777 0
ion I   0.544138927971933   0.057743077941017   0.416879904224375 0
ion I   0.621764878254952   0.160028095702181   0.581986686498393 0
ion I   0.924250035924453   0.172873415878685   0.444727575993163 0
ion I   0.241527941701412   0.042727813814101   0.555237944365483 0
ion I   0.290410344664694   0.281602400532888   0.476513961365243 0
ion I   0.874703553398680   0.935107195085265   0.524642981263949 0
ion I   0.776288278185913   0.840522200974908   0.366829181560187 0
ion I   0.393640878374725   0.373023536696853   0.637204723339625 0
ion I   0.173672653778217   0.947872286920436   0.393711037579616 0
ion I   0.991164010170154   0.266330170636535   0.608345775865981 0
ion I   0.802530249290338   0.703980383718901   0.595272468164028 0
ion I   0.363763952403339   0.506975572542121   0.402051566387688 0
ion I   0.218882069022667   0.806446937375769   0.624906458755927 0
ion I   0.960649912377381   0.401904586506312   0.374292925379495 0
ion I   0.584152243052766   0.930057302121160   0.656382238167615 0
ion I   0.585826226086606   0.295609887738380   0.342818653866540 0
ion-species GBRV/$ID_pbe.uspp
ion-width Ecut
ionic-minimize  \
	dirUpdateScheme      L-BFGS \
	linminMethod         DirUpdateRecommended \
	nIterations          0 \
	history              15 \
	knormThreshold       0.0001 \
	energyDiffThreshold  1e-06 \
	nEnergyDiff          2 \
	alphaTstart          1 \
	alphaTmin            1e-10 \
	updateTestStepSize   yes \
	alphaTreduceFactor   0.1 \
	alphaTincreaseFactor 3 \
	nAlphaAdjustMax      3 \
	wolfeEnergy          0.0001 \
	wolfeGradient        0.9 \
	fdTest               no
kpoint   0.000000000000   0.000000000000   0.000000000000  1.00000000000000
kpoint-folding 4 2 1 
latt-move-scale 1 1 1
latt-scale 1 1 1 
lattice Triclinic 17.0941 30.5336 42.9804 90 90 83.1108
lattice-minimize  \
	dirUpdateScheme      L-BFGS \
	linminMethod         DirUpdateRecommended \
	nIterations          0 \
	history              15 \
	knormThreshold       0 \
	energyDiffThreshold  1e-06 \
	nEnergyDiff          2 \
	alphaTstart          1 \
	alphaTmin            1e-10 \
	updateTestStepSize   yes \
	alphaTreduceFactor   0.1 \
	alphaTincreaseFactor 3 \
	nAlphaAdjustMax      3 \
	wolfeEnergy          0.0001 \
	wolfeGradient        0.9 \
	fdTest               no
lcao-params -1 1e-06 0.0073499
pcm-variant CANDLE
spintype no-spin
subspace-rotation-factor 1 yes
symmetries automatic
symmetry-threshold 0.0001
target-mu -0.171252 no




---------- Setting up symmetries ----------

Found 4 point-group symmetries of the bravais lattice
Found 1 space-group symmetries with basis
Applied RMS atom displacement 0 bohrs to make symmetries exact.

---------- Initializing the Grid ----------
R = 
[    17.0941    3.66249          0  ]
[          0    30.3131          0  ]
[          0          0    42.9804  ]
unit cell volume = 22271.4
G =
[   0.367565 -0.0444099          0  ]
[          0   0.207276          0  ]
[          0          0   0.146187  ]
Minimum fftbox size, Smin = [  80  140  196  ]
Chosen fftbox size, S = [  80  140  196  ]

---------- Initializing tighter grid for wavefunction operations ----------
R = 
[    17.0941    3.66249          0  ]
[          0    30.3131          0  ]
[          0          0    42.9804  ]
unit cell volume = 22271.4
G =
[   0.367565 -0.0444099          0  ]
[          0   0.207276          0  ]
[          0          0   0.146187  ]
Minimum fftbox size, Smin = [  72  124  176  ]
Chosen fftbox size, S = [  72  126  180  ]

---------- Exchange Correlation functional ----------
Initalized PBE GGA exchange.
Initalized PBE GGA correlation.

---------- Setting up pseudopotentials ----------
Width of ionic core gaussian charges (only for fluid interactions / plotting) set to 0.397384

Reading pseudopotential file '/home/guoxy/vasp/jdftx-1.5.0/build/pseudopotentials/GBRV/sc_pbe.uspp':
  Title: Sc.  Created by USPP 7.3.6 on 14-9-2013
  Reference state energy: -46.994501.  11 valence electrons in orbitals:
    |300>  occupation: 2  eigenvalue: -2.022603
    |310>  occupation: 6  eigenvalue: -1.235690
    |400>  occupation: 2  eigenvalue: -0.153725
    |320>  occupation: 1  eigenvalue: -0.118830
    |410>  occupation: 0  eigenvalue: -0.053919
  lMax: 2  lLocal: 3  QijEcut: 5
  6 projectors sampled on a log grid with 593 points:
    l: 0  eig: -2.022603  rCut: 2.2
    l: 0  eig: -0.153726  rCut: 2.2
    l: 1  eig: -1.235690  rCut: 2.2
    l: 1  eig: -0.053919  rCut: 2.2
    l: 2  eig: -0.118830  rCut: 2.2
    l: 2  eig: 0.150000  rCut: 2.2
  Partial core density with radius 1
  Transforming core density to a uniform radial grid of dG=0.02 with 1316 points.
  Transforming local potential to a uniform radial grid of dG=0.02 with 1316 points.
  Transforming nonlocal projectors to a uniform radial grid of dG=0.02 with 432 points.
  Transforming density augmentations to a uniform radial grid of dG=0.02 with 1316 points.
  Transforming atomic orbitals to a uniform radial grid of dG=0.02 with 432 points.
  Core radius for overlap checks: 2.20 bohrs.

Reading pseudopotential file '/home/guoxy/vasp/jdftx-1.5.0/build/pseudopotentials/GBRV/c_pbe.uspp':
  Title: C.  Created by USPP 7.3.6 on 3-2-2014
  Reference state energy: -5.406344.  4 valence electrons in orbitals:
    |200>  occupation: 2  eigenvalue: -0.504890
    |210>  occupation: 2  eigenvalue: -0.194356
  lMax: 1  lLocal: 2  QijEcut: 5
  4 projectors sampled on a log grid with 503 points:
    l: 0  eig: -0.504890  rCut: 1.3
    l: 0  eig: 0.000000  rCut: 1.3
    l: 1  eig: -0.194357  rCut: 1.3
    l: 1  eig: 0.000000  rCut: 1.3
  Partial core density with radius 1.1
  Transforming core density to a uniform radial grid of dG=0.02 with 1316 points.
  Transforming local potential to a uniform radial grid of dG=0.02 with 1316 points.
  Transforming nonlocal projectors to a uniform radial grid of dG=0.02 with 432 points.
  Transforming density augmentations to a uniform radial grid of dG=0.02 with 1316 points.
  Transforming atomic orbitals to a uniform radial grid of dG=0.02 with 432 points.
  Core radius for overlap checks: 1.30 bohrs.

Reading pseudopotential file '/home/guoxy/vasp/jdftx-1.5.0/build/pseudopotentials/GBRV/i_pbe.uspp':
  Title: I.  Created by USPP 7.3.6 on 14-9-2013
  Reference state energy: -32.770235.  7 valence electrons in orbitals:
    |500>  occupation: 2  eigenvalue: -0.639712
    |510>  occupation: 5  eigenvalue: -0.260406
  lMax: 2  lLocal: 3  QijEcut: 5
  6 projectors sampled on a log grid with 725 points:
    l: 0  eig: -0.639710  rCut: 1.9
    l: 0  eig: 0.000000  rCut: 1.9
    l: 1  eig: -0.260404  rCut: 2
    l: 1  eig: 0.000000  rCut: 2
    l: 2  eig: -0.500000  rCut: 2.45
    l: 2  eig: 0.500000  rCut: 2.45
  Partial core density with radius 1.3
  Transforming core density to a uniform radial grid of dG=0.02 with 1316 points.
  Transforming local potential to a uniform radial grid of dG=0.02 with 1316 points.
  Transforming nonlocal projectors to a uniform radial grid of dG=0.02 with 432 points.
  Transforming density augmentations to a uniform radial grid of dG=0.02 with 1316 points.
  Transforming atomic orbitals to a uniform radial grid of dG=0.02 with 432 points.
  Core radius for overlap checks: 2.45 bohrs.

Initialized 3 species with 37 total atoms.

Folded 1 k-points by 4x2x1 to 8 k-points.

---------- Setting up k-points, bands, fillings ----------
Adding inversion symmetry to k-mesh for non-inversion-symmetric unit cell.
Reduced to 6 k-points under symmetry. 
Computing the number of bands and number of electrons
Reading initial fillings from file NbTe2.fillings.
nElectrons: 291.000000   nBands: 247   nStates: 6

----- Setting up reduced wavefunction bases (one per k-point) -----
average nbasis = 95156.125 , ideal nbasis = 95144.912

---------- Setting up coulomb interaction ----------
Fluid mode embedding: using embedded box, but periodic Coulomb kernel.
(Fluid response is responsible for (approximate) separation between periodic images.)
Setting up double-sized grid for truncated Coulomb potentials:
R = 
[    17.0941    3.66249          0  ]
[          0    30.3131          0  ]
[          0          0    85.9608  ]
unit cell volume = 44542.7
G =
[   0.367565 -0.0444099          0  ]
[          0   0.207276          0  ]
[          0          0  0.0730936  ]
Chosen fftbox size, S = [  80  140  392  ]
Integer grid location selected as the embedding center:
   Grid: [  0  0  98  ]
   Lattice: [  0  0  0.5  ]
   Cartesian: [  0  0  21.4902  ]
Constructing Wigner-Seitz cell: 8 faces (6 quadrilaterals, 2 hexagons)
Range-separation parameter for embedded mesh potentials due to point charges: 0.590768 bohrs.

Initializing van der Waals corrections
	NOTE: vdW corrections apply only for interactions with fluid.
	Sc:  C6:  187.33 Eh-a0^6  R0: 2.952 a0
	 C:  C6:   30.35 Eh-a0^6  R0: 2.744 a0
	 I:  C6:  546.38 Eh-a0^6  R0: 3.575 a0

---------- Setting up ewald sum ----------
Optimum gaussian width for ewald sums = 7.747031 bohr.
Real space sum over 585 unit cells with max indices [  6  4  2  ]
Reciprocal space sum over 6105 terms with max indices [  5  7  18  ]

---------- Allocating electronic variables ----------
Initializing wave functions:  reading from 'NbTe2.wfns'
----- createFluidSolver() ----- (Fluid-side solver setup)
   Initializing fluid molecule 'H2O'
     Initializing site 'O'
       Electron density: proportional to exp(-r/0.36935)*erfc((r-0.51523)/0.36823) with norm 6.826
       Charge density: gaussian nuclear width 0.478731 with net site charge 0.826
       Polarizability: cuspless exponential with width 0.32 and norm 3.73
       Hard sphere radius: 2.57003 bohrs
       Positions in reference frame:
         [ +0.000000 +0.000000 +0.000000 ]
     Initializing site 'H'
       Electron density: proportional to exp(-r/0.34641)*erfc((r-0)/0.390882) with norm 0.587
       Charge density: gaussian nuclear width 0.377945 with net site charge -0.413
       Polarizability: cuspless exponential with width 0.39 and norm 3.3
       Positions in reference frame:
         [ +0.000000 -1.441945 +1.122523 ]
         [ +0.000000 +1.441945 +1.122523 ]
     Net charge: 0   dipole magnitude: 0.927204
     Initializing spherical shell mfKernel with radius 2.61727 Bohr
     deltaS corrections:
       site 'O': -7.54299
       site 'H': -6.83917
   Initializing fluid molecule 'Na+'
     Initializing site 'Na'
       Electron density: proportional to exp(-r/0.19682)*erfc((r-0.71491)/0.41314) with norm 8.1383
       Charge density: gaussian nuclear width 0.365347 with net site charge -1
       Hard sphere radius: 1.86327 bohrs
       Positions in reference frame:
         [ +0.000000 +0.000000 +0.000000 ]
     Net charge: -1   dipole magnitude: 0
     Initializing gaussian mfKernel with width: 1.55004 Bohr
     deltaS corrections:
       site 'Na': -22.3555
   Initializing fluid molecule 'F-'
     Initializing site 'F'
       Electron density: proportional to exp(-r/0.38886)*erfc((r-0)/0.438782) with norm 8
       Charge density: gaussian nuclear width 0.374796 with net site charge 1
       Hard sphere radius: 2.39995 bohrs
       Positions in reference frame:
         [ +0.000000 +0.000000 +0.000000 ]
     Net charge: 1   dipole magnitude: 0
     Initializing gaussian mfKernel with width: 1.59012 Bohr
     deltaS corrections:
       site 'F': -9.04335

Correction to mu due to finite nuclear width = -0.0064821
   Cavity determined by nc: 0.00142 and sigma: 0.707107
   Nonlocal vdW cavity from gaussian model electron density with norm = 8 and sigma = 0.993594 bohr
   Charge asymmetry in cavity with sensitivity pCavity = 36.5 e-bohr/Eh
   Electrostatic cavity expanded by eta = 1.46 bohrs
   Weighted density cavitation model constrained by Nbulk: 0.0049383 bohr^-3, Pvap: 3.14029 kPa, Rvdw: 2.61727 bohr and sigmaBulk: 4.62e-05 Eh/bohr^2 at T: 298 K.
   Weighted density dispersion model using vdW pair potentials with single solvent site with sqrtC6eff: 0.77 SI.
Reading fluid state from 'NbTe2.fluidState'


---- Citations for features of the code used in this run ----

   Software package:
      R. Sundararaman, K. Letchworth-Weaver, K.A. Schwarz, D. Gunceler, Y. Ozhabes and T.A. Arias, 'JDFTx: software for joint density-functional theory', SoftwareX 6, 278 (2017)

   gga-PBE exchange-correlation functional:
      J.P. Perdew, K. Burke and M. Ernzerhof, Phys. Rev. Lett. 77, 3865 (1996)

   Pseudopotentials:
      KF Garrity, JW Bennett, KM Rabe and D Vanderbilt, Comput. Mater. Sci. 81, 446 (2014)

   Truncated Coulomb potentials:
      R. Sundararaman and T.A. Arias, Phys. Rev. B 87, 165122 (2013)

   Van der Waals correction pair-potentials:
      S. Grimme, J. Comput. Chem. 27, 1787 (2006)

   Charge-asymmetric nonlocally-determined local-electric (CANDLE) solvation model:
      R. Sundararaman and W.A. Goddard III, J. Chem. Phys. 142, 064107 (2015)

   Total energy minimization with Auxiliary Hamiltonian:
      C. Freysoldt, S. Boeck, and J. Neugebauer, Phys. Rev. B 79, 241103(R) (2009)

   Grand-canonical (fixed-potential) DFT:
      R. Sundararaman, W. A. Goddard III and T. A. Arias, J. Chem. Phys. 146, 114104 (2017)

This list may not be complete. Please suggest additional citations or
report any other bugs at https://github.com/shankar1729/jdftx/issues

Initialization completed successfully at t[s]:     21.74

Shifting auxilliary hamiltonian by 0.012166 to set nElectrons=291.000000
	Linear fluid (dielectric constant: 78.4, screening length: 5.74355 Bohr) occupying 0.754337 of unit cell:	Completed after 3 iterations at t[s]:     33.11

-------- Electronic minimization -----------
	Linear fluid (dielectric constant: 78.4, screening length: 5.74355 Bohr) occupying 0.754337 of unit cell:	Completed after 0 iterations at t[s]:     45.22
	FillingsUpdate:  mu: -0.171251800  nElectrons: 291.000000
ElecMinimize: Iter:   0  G: -746.287791375114125  |grad|_K:  9.518e-06  alpha:  1.000e+00
	Linear fluid (dielectric constant: 78.4, screening length: 5.74355 Bohr) occupying 0.764539 of unit cell:	Completed after 25 iterations at t[s]:     83.88
	Linear fluid (dielectric constant: 78.4, screening length: 5.74355 Bohr) occupying 0.754540 of unit cell:	Completed after 23 iterations at t[s]:    103.28
	FillingsUpdate:  mu: -0.171251800  nElectrons: 291.181269
	SubspaceRotationAdjust: set factor to 0.55
ElecMinimize: Iter:   1  G: -746.288645011337280  |grad|_K:  5.864e-06  alpha:  8.669e-02  linmin:  3.440e-03  t[s]:    112.73
	Linear fluid (dielectric constant: 78.4, screening length: 5.74355 Bohr) occupying 0.754521 of unit cell:	Completed after 8 iterations at t[s]:    122.17
ElecMinimize: 	Predicted alpha/alphaT>3.000000, increasing alphaT to 2.600588e-01.
	Linear fluid (dielectric constant: 78.4, screening length: 5.74355 Bohr) occupying 0.754485 of unit cell:	Completed after 11 iterations at t[s]:    131.78
	Linear fluid (dielectric constant: 78.4, screening length: 5.74355 Bohr) occupying 0.754477 of unit cell:	Completed after 7 iterations at t[s]:    140.38
	FillingsUpdate:  mu: -0.171251800  nElectrons: 291.272558
	SubspaceRotationAdjust: set factor to 0.267
ElecMinimize: Iter:   2  G: -746.289779349678042  |grad|_K:  2.981e-06  alpha:  3.008e-01  linmin: -2.014e-04  t[s]:    148.81
	Linear fluid (dielectric constant: 78.4, screening length: 5.74355 Bohr) occupying 0.754599 of unit cell:	Completed after 15 iterations at t[s]:    163.29
	Linear fluid (dielectric constant: 78.4, screening length: 5.74355 Bohr) occupying 0.754554 of unit cell:	Completed after 11 iterations at t[s]:    186.17
	FillingsUpdate:  mu: -0.171251800  nElectrons: 291.350882
	SubspaceRotationAdjust: set factor to 0.131
	SubspaceRotationAdjust: resetting CG because factor has changed by 0.130816
	Linear fluid (dielectric constant: 78.4, screening length: 5.74355 Bohr) occupying 0.754554 of unit cell:	Completed after 0 iterations at t[s]:    210.51
ElecMinimize: 	State modified externally: resetting search direction.
ElecMinimize: Iter:   3  G: -746.290039665587869  |grad|_K:  1.334e-06  alpha:  2.054e-01
	Linear fluid (dielectric constant: 78.4, screening length: 5.74355 Bohr) occupying 0.754515 of unit cell:	Completed after 9 iterations at t[s]:    245.77
ElecMinimize: 	Predicted alpha/alphaT>3.000000, increasing alphaT to 6.163392e-01.
	Linear fluid (dielectric constant: 78.4, screening length: 5.74355 Bohr) occupying 0.754436 of unit cell:	Completed after 11 iterations at t[s]:    268.77
	Linear fluid (dielectric constant: 78.4, screening length: 5.74355 Bohr) occupying 0.754423 of unit cell:	Completed after 3 iterations at t[s]:    288.22
	FillingsUpdate:  mu: -0.171251800  nElectrons: 291.333091
	SubspaceRotationAdjust: set factor to 0.104
ElecMinimize: Iter:   4  G: -746.290212677537966  |grad|_K:  9.434e-07  alpha:  6.874e-01  linmin: -5.133e-04  t[s]:    304.22
	Linear fluid (dielectric constant: 78.4, screening length: 5.74355 Bohr) occupying 0.754367 of unit cell:	Completed after 5 iterations at t[s]:    318.23
	Linear fluid (dielectric constant: 78.4, screening length: 5.74355 Bohr) occupying 0.754340 of unit cell:	Completed after 5 iterations at t[s]:    339.01
	FillingsUpdate:  mu: -0.171251800  nElectrons: 291.371981
	SubspaceRotationAdjust: set factor to 0.14
ElecMinimize: Iter:   5  G: -746.290342800362737  |grad|_K:  6.704e-07  alpha:  1.027e+00  linmin:  7.103e-05  t[s]:    356.19
	Linear fluid (dielectric constant: 78.4, screening length: 5.74355 Bohr) occupying 0.754287 of unit cell:	Completed after 9 iterations at t[s]:    372.87
	Linear fluid (dielectric constant: 78.4, screening length: 5.74355 Bohr) occupying 0.754300 of unit cell:	Completed after 3 iterations at t[s]:    392.42
	FillingsUpdate:  mu: -0.171251800  nElectrons: 291.396703
	SubspaceRotationAdjust: set factor to 0.17
ElecMinimize: Iter:   6  G: -746.290391105899630  |grad|_K:  5.653e-07  alpha:  7.711e-01  linmin: -1.119e-05  t[s]:    408.04
	Linear fluid (dielectric constant: 78.4, screening length: 5.74355 Bohr) occupying 0.754250 of unit cell:	Completed after 4 iterations at t[s]:    421.22
	Linear fluid (dielectric constant: 78.4, screening length: 5.74355 Bohr) occupying 0.754239 of unit cell:	Completed after 3 iterations at t[s]:    436.98
	FillingsUpdate:  mu: -0.171251800  nElectrons: 291.417067
	SubspaceRotationAdjust: set factor to 0.211
ElecMinimize: Iter:   7  G: -746.290433241441633  |grad|_K:  4.560e-07  alpha:  9.329e-01  linmin: -8.004e-06  t[s]:    454.20
	Linear fluid (dielectric constant: 78.4, screening length: 5.74355 Bohr) occupying 0.754219 of unit cell:	Completed after 8 iterations at t[s]:    468.48
	Linear fluid (dielectric constant: 78.4, screening length: 5.74355 Bohr) occupying 0.754226 of unit cell:	Completed after 3 iterations at t[s]:    486.28
	FillingsUpdate:  mu: -0.171251800  nElectrons: 291.431767
	SubspaceRotationAdjust: set factor to 0.252
ElecMinimize: Iter:   8  G: -746.290451161341366  |grad|_K:  3.751e-07  alpha:  6.080e-01  linmin:  3.144e-05  t[s]:    503.36
	Linear fluid (dielectric constant: 78.4, screening length: 5.74355 Bohr) occupying 0.754208 of unit cell:	Completed after 3 iterations at t[s]:    516.73
	Linear fluid (dielectric constant: 78.4, screening length: 5.74355 Bohr) occupying 0.754198 of unit cell:	Completed after 2 iterations at t[s]:    532.96
	FillingsUpdate:  mu: -0.171251800  nElectrons: 291.442665
	SubspaceRotationAdjust: set factor to 0.272
ElecMinimize: Iter:   9  G: -746.290469233311910  |grad|_K:  2.923e-07  alpha:  9.191e-01  linmin: -7.588e-06  t[s]:    549.37
	Linear fluid (dielectric constant: 78.4, screening length: 5.74355 Bohr) occupying 0.754191 of unit cell:	Completed after 4 iterations at t[s]:    563.10
	Linear fluid (dielectric constant: 78.4, screening length: 5.74355 Bohr) occupying 0.754193 of unit cell:	Completed after 3 iterations at t[s]:    581.04
	FillingsUpdate:  mu: -0.171251800  nElectrons: 291.451327
	SubspaceRotationAdjust: set factor to 0.277
ElecMinimize: Iter:  10  G: -746.290477487738485  |grad|_K:  2.027e-07  alpha:  6.855e-01  linmin:  7.757e-06  t[s]:    596.85
	Linear fluid (dielectric constant: 78.4, screening length: 5.74355 Bohr) occupying 0.754176 of unit cell:	Completed after 2 iterations at t[s]:    609.90
	Linear fluid (dielectric constant: 78.4, screening length: 5.74355 Bohr) occupying 0.754180 of unit cell:	Completed after 0 iterations at t[s]:    626.35
	FillingsUpdate:  mu: -0.171251800  nElectrons: 291.450858
	SubspaceRotationAdjust: set factor to 0.258
ElecMinimize: Iter:  11  G: -746.290480669332055  |grad|_K:  1.275e-07  alpha:  5.431e-01  linmin:  1.003e-04  t[s]:    641.48
	Linear fluid (dielectric constant: 78.4, screening length: 5.74355 Bohr) occupying 0.754177 of unit cell:	Completed after 2 iterations at t[s]:    653.64
	Linear fluid (dielectric constant: 78.4, screening length: 5.74355 Bohr) occupying 0.754177 of unit cell:	Completed after 0 iterations at t[s]:    669.07
	FillingsUpdate:  mu: -0.171251800  nElectrons: 291.451919
	SubspaceRotationAdjust: set factor to 0.242
ElecMinimize: Iter:  12  G: -746.290482052404514  |grad|_K:  7.972e-08  alpha:  6.207e-01  linmin: -1.621e-04  t[s]:    685.17
	Linear fluid (dielectric constant: 78.4, screening length: 5.74355 Bohr) occupying 0.754172 of unit cell:	Completed after 0 iterations at t[s]:    696.41
	Linear fluid (dielectric constant: 78.4, screening length: 5.74355 Bohr) occupying 0.754172 of unit cell:	Completed after 0 iterations at t[s]:    712.07
	FillingsUpdate:  mu: -0.171251800  nElectrons: 291.450323
	SubspaceRotationAdjust: set factor to 0.324
ElecMinimize: Iter:  13  G: -746.290482741684514  |grad|_K:  5.668e-08  alpha:  6.930e-01  linmin: -5.381e-05  t[s]:    729.41
	Linear fluid (dielectric constant: 78.4, screening length: 5.74355 Bohr) occupying 0.754167 of unit cell:	Completed after 3 iterations at t[s]:    744.34
	Linear fluid (dielectric constant: 78.4, screening length: 5.74355 Bohr) occupying 0.754169 of unit cell:	Completed after 0 iterations at t[s]:    758.44
	FillingsUpdate:  mu: -0.171251800  nElectrons: 291.448884
	SubspaceRotationAdjust: set factor to 0.258
ElecMinimize: Iter:  14  G: -746.290482888690349  |grad|_K:  7.649e-08  alpha:  3.779e-01  linmin:  1.183e-04  t[s]:    774.85
	Linear fluid (dielectric constant: 78.4, screening length: 5.74355 Bohr) occupying 0.754169 of unit cell:	Completed after 2 iterations at t[s]:    789.42
	Linear fluid (dielectric constant: 78.4, screening length: 5.74355 Bohr) occupying 0.754169 of unit cell:	Completed after 0 iterations at t[s]:    805.55
	FillingsUpdate:  mu: -0.171251800  nElectrons: 291.448320
	SubspaceRotationAdjust: set factor to 0.417
ElecMinimize: Iter:  15  G: -746.290482984652840  |grad|_K:  4.033e-08  alpha:  2.019e-01  linmin: -1.898e-05  t[s]:    821.42
	Linear fluid (dielectric constant: 78.4, screening length: 5.74355 Bohr) occupying 0.754170 of unit cell:	Completed after 0 iterations at t[s]:    833.15
ElecMinimize: 	Predicted alpha/alphaT>3.000000, increasing alphaT to 6.057985e-01.
	Linear fluid (dielectric constant: 78.4, screening length: 5.74355 Bohr) occupying 0.754171 of unit cell:	Completed after 0 iterations at t[s]:    850.37
	Linear fluid (dielectric constant: 78.4, screening length: 5.74355 Bohr) occupying 0.754171 of unit cell:	Completed after 0 iterations at t[s]:    865.75
	FillingsUpdate:  mu: -0.171251800  nElectrons: 291.448149
	SubspaceRotationAdjust: set factor to 0.523
ElecMinimize: Iter:  16  G: -746.290483129114591  |grad|_K:  3.256e-08  alpha:  6.119e-01  linmin:  5.797e-08  t[s]:    880.32
	Linear fluid (dielectric constant: 78.4, screening length: 5.74355 Bohr) occupying 0.754177 of unit cell:	Completed after 2 iterations at t[s]:    892.64
	Linear fluid (dielectric constant: 78.4, screening length: 5.74355 Bohr) occupying 0.754173 of unit cell:	Completed after 0 iterations at t[s]:    908.96
ElecMinimize: 	Step increased G by 1.726903e-09, reducing alpha to 1.353377e-02.
	Linear fluid (dielectric constant: 78.4, screening length: 5.74355 Bohr) occupying 0.754172 of unit cell:	Completed after 0 iterations at t[s]:    935.78
	FillingsUpdate:  mu: -0.171251800  nElectrons: 291.448159
	SubspaceRotationAdjust: set factor to 0.306
ElecMinimize: Iter:  17  G: -746.290483173146754  |grad|_K:  1.026e-07  alpha:  1.353e-02  linmin:  2.951e-04  t[s]:    951.21
ElecMinimize: 	Bad step direction: g.d > 0.
ElecMinimize: 	Undoing step.
	Linear fluid (dielectric constant: 78.4, screening length: 5.74355 Bohr) occupying 0.754172 of unit cell:	Completed after 0 iterations at t[s]:    962.55
ElecMinimize: 	Step failed: resetting search direction.
	FillingsUpdate:  mu: -0.171251800  nElectrons: 291.448159
	SubspaceRotationAdjust: set factor to 0.198
ElecMinimize: Iter:  18  G: -746.290483173138114  |grad|_K:  8.243e-08  alpha:  0.000e+00
	Linear fluid (dielectric constant: 78.4, screening length: 5.74355 Bohr) occupying 0.754171 of unit cell:	Completed after 0 iterations at t[s]:    988.78
ElecMinimize: 	Predicted alpha/alphaT>3.000000, increasing alphaT to 4.060131e-02.
	Linear fluid (dielectric constant: 78.4, screening length: 5.74355 Bohr) occupying 0.754171 of unit cell:	Completed after 1 iterations at t[s]:   1006.29
	Linear fluid (dielectric constant: 78.4, screening length: 5.74355 Bohr) occupying 0.754171 of unit cell:	Completed after 0 iterations at t[s]:   1021.23
ElecMinimize: 	Step increased G by 5.993854e-08, reducing alpha to 1.475874e-03.
	Linear fluid (dielectric constant: 78.4, screening length: 5.74355 Bohr) occupying 0.754171 of unit cell:	Completed after 0 iterations at t[s]:   1048.01
ElecMinimize: 	Step increased G by 7.584924e-08, reducing alpha to 1.475874e-04.
	Linear fluid (dielectric constant: 78.4, screening length: 5.74355 Bohr) occupying 0.754172 of unit cell:	Completed after 0 iterations at t[s]:   1076.34
ElecMinimize: 	Step increased G by 7.745882e-08, reducing alpha to 1.475874e-05.
ElecMinimize: 	Step failed to reduce G after 3 attempts. Quitting step.
ElecMinimize: 	Undoing step.
	Linear fluid (dielectric constant: 78.4, screening length: 5.74355 Bohr) occupying 0.754172 of unit cell:	Completed after 0 iterations at t[s]:   1103.14
ElecMinimize: 	Step failed along negative gradient direction.
ElecMinimize: Probably at roundoff error limit. (Stopping)
Setting wave functions to eigenvectors of Hamiltonian

# Ionic positions in lattice coordinates:
ion Sc   0.749845517559356   0.535711137695579   0.552893177251682 0
ion Sc   0.415990705659878   0.683938525959875   0.446172173950895 0
ion Sc   0.930434014457292   0.338369646053942   0.493744033820237 0
ion Sc   0.249065962984179   0.870431449330988   0.516150605951713 0
ion Sc   0.692262998819754   0.336686962678945   0.597376419899231 0
ion Sc   0.472025311353502   0.885213340009330   0.395540608593030 0
ion Sc   0.429533078819882   0.424768338482634   0.518566935081030 0
ion Sc   0.729557508149469   0.794607339417606   0.490832438409040 0
ion Sc   0.667059146381918   0.429208198487971   0.415333829667104 0
ion Sc   0.617251095993434   0.230389459714450   0.462380074925993 0
ion Sc   0.551422442744179   0.986151608101921   0.544386320885555 0
ion C   0.473993367986514   0.799719841900739   0.478053174527668 0
ion C   0.696818677607403   0.422818728527388   0.517186560776573 0
ion C   0.505412508663737   0.872435489744245   0.501655537813844 0
ion C   0.661960013033081   0.345265631068169   0.495234173238838 0
ion I   0.762402901243525   0.475597530105102   0.670583295341582 0
ion I   0.407172818728904   0.741121327679028   0.326961454561121 0
ion I   0.067640003829976   0.487492552294048   0.534189186363781 0
ion I   0.107199908899613   0.725053822366054   0.464282226762301 0
ion I   0.431708069488225   0.598202366478605   0.563151430955704 0
ion I   0.735612640937968   0.612953023717861   0.429864162445777 0
ion I   0.544138927971933   0.057743077941017   0.416879904224375 0
ion I   0.621764878254952   0.160028095702181   0.581986686498393 0
ion I   0.924250035924453   0.172873415878685   0.444727575993163 0
ion I   0.241527941701412   0.042727813814101   0.555237944365483 0
ion I   0.290410344664694   0.281602400532888   0.476513961365243 0
ion I   0.874703553398680   0.935107195085265   0.524642981263949 0
ion I   0.776288278185913   0.840522200974908   0.366829181560187 0
ion I   0.393640878374725   0.373023536696853   0.637204723339625 0
ion I   0.173672653778217   0.947872286920436   0.393711037579616 0
ion I   0.991164010170154   0.266330170636535   0.608345775865981 0
ion I   0.802530249290338   0.703980383718901   0.595272468164028 0
ion I   0.363763952403339   0.506975572542121   0.402051566387688 0
ion I   0.218882069022667   0.806446937375769   0.624906458755927 0
ion I   0.960649912377381   0.401904586506312   0.374292925379495 0
ion I   0.584152243052766   0.930057302121160   0.656382238167615 0
ion I   0.585826226086606   0.295609887738380   0.342818653866540 0


# Forces in Lattice coordinates:
force Sc  -0.022886686542927  -0.135228392812600  -0.110180231209929 0
force Sc   0.041535095683622   0.103849037360582  -0.077509786157678 0
force Sc  -0.041447820788976   0.043771406339594  -0.009915223838728 0
force Sc   0.069816943058315   0.019579165383965  -0.273163944233490 0
force Sc  -0.008460214847631  -0.008472003274173   0.022909713165035 0
force Sc   0.018079877014757  -0.016947685658819  -0.074362130100738 0
force Sc   0.037353323397999  -0.005946406676264  -0.038845126675376 0
force Sc  -0.058901943390496  -0.006462779430070  -0.122547580282815 0
force Sc  -0.000666103245743   0.033435871821505  -0.033614008703189 0
force Sc  -0.000664826285277   0.088405329477027   0.011835827730440 0
force Sc  -0.023653252262648  -0.082817489691053  -0.390248164017137 0
force C  -0.053773668941657  -0.191729451715795  -0.100474847168133 0
force C   0.002707033223713  -0.000640211264508  -0.005057570675134 0
force C   0.027354365403040   0.241260460684003   0.064890108629885 0
force C   0.005555985631752  -0.002177693419913   0.047618813287253 0
force I   0.004113214532032   0.031855281179573   0.037322154234274 0
force I  -0.004806417566906  -0.033439266516991  -0.006762451173284 0
force I   0.003611342530861  -0.007427802088639   0.002703742039143 0
force I  -0.012271405035811   0.040596635950618   0.036147959176909 0
force I  -0.006091415260390  -0.012237155356331   0.021456214638603 0
force I   0.006384141554758   0.036402929295245   0.038184224190317 0
force I   0.012607615463939   0.041276266681191   0.092142130417364 0
force I  -0.007264069067980  -0.038176460376191   0.009088696039545 0
force I   0.006788658202613  -0.017439000086919  -0.037455590945482 0
force I  -0.004851109943101  -0.012342093137662   0.050981818239317 0
force I  -0.006331290073893   0.006854481581476  -0.029079289321082 0
force I   0.011226477216297   0.007639860432810   0.039199522176911 0
force I   0.017125274073653  -0.025301600115229   0.066049578753578 0
force I  -0.005361117906241   0.009069633282228   0.001994621490495 0
force I  -0.032849684261032  -0.008099603608824   0.096751049763292 0
force I   0.013557173455905  -0.001724753839585  -0.002767378499553 0
force I   0.005728726189205  -0.001615094167249   0.084034947441876 0
force I  -0.000472842285362  -0.004930464163183   0.043655218827265 0
force I  -0.018053523262167  -0.031701895050181   0.219407564414351 0
force I   0.013560416942875  -0.013088316921768   0.018582436126675 0
force I   0.018156076967425  -0.006368484862546   0.313531625202600 0
force I  -0.004570627688448  -0.044880140777574  -0.024948870522049 0

# Energy components:
   A_diel =       -0.0432623235823774
   Eewald =     4868.6534565348538308
       EH =     5528.4643805567120580
     Eloc =   -11330.8496656327879464
      Enl =      130.3510621814305068
      Exc =     -613.4961655494919341
 Exc_core =      469.2664339681997490
       KE =      151.4731857390669347
  MuShift =       -0.0029050052179465
-------------------------------------
     Etot =     -796.1834795308176354
       TS =        0.0180251852997424
-------------------------------------
        F =     -796.2015047161173698
      muN =      -49.9110216204651209
-------------------------------------
        G =     -746.2904830956522346

IonicMinimize: Iter:   0  G: -746.290483095652235  |grad|_K:  0.000e+00  t[s]:   1133.41
IonicMinimize: Converged (|grad|_K<1.000000e-04).

#--- Lowdin population analysis ---
# oxidation-state Sc -0.345 -0.345 -0.287 -0.272 -0.162 -0.110 -0.273 -0.209 -0.148 -0.346 -0.384
# oxidation-state C -0.241 -0.283 -0.228 -0.275
# oxidation-state I +0.152 +0.150 +0.239 +0.223 +0.357 +0.355 +0.199 +0.253 +0.186 +0.164 +0.249 +0.256 +0.150 +0.205 +0.137 +0.205 +0.157 +0.305 -0.070 +0.185 -0.071 +0.128


Dumping 'NbTe2.fillings' ... done
Dumping 'NbTe2.wfns' ... done
Dumping 'NbTe2.fluidState' ... done
Dumping 'NbTe2.eigenvals' ... done
End date and time: Sat Jul 18 10:51:35 2020  (Duration: 0-0:19:00.36)
Done!
