
*************** JDFTx 1.5.0  ***************

Start date and time: Tue Jul 14 14:34:04 2020
Executable jdftx_gpu with command-line: -i Neutral.in -o Neutral.out
Running on hosts (process indices):  amax (0-3)
Divided in process groups (process indices):  0 (0)  1 (1)  2 (2)  3 (3)
gpuInit: Found compatible cuda device 0 'Tesla K80'
gpuInit: Found compatible cuda device 1 'Tesla K80'
gpuInit: Found compatible cuda device 2 'Tesla K80'
gpuInit: Found compatible cuda device 3 'Tesla K80'
gpuInit: Selected device 0
Resource initialization completed at t[s]:     17.04
Run totals: 4 processes, 24 threads, 4 GPUs


Input parsed successfully to the following command list (including defaults):

basis kpoint-dependent
cache-projectors no
coords-type Lattice
core-overlap-check none
coulomb-interaction Slab 001
coulomb-truncation-embed 0 0 0.5
davidson-band-ratio 1.1
dump End State
dump-name NbTe2.$VAR
elec-cutoff 20 100
elec-eigen-algo Davidson
elec-ex-corr gga-PBE
elec-smearing Gauss 0.0073499
electronic-minimize  \
	dirUpdateScheme      FletcherReeves \
	linminMethod         DirUpdateRecommended \
	nIterations          500 \
	history              15 \
	knormThreshold       0 \
	energyDiffThreshold  1e-08 \
	nEnergyDiff          2 \
	alphaTstart          1 \
	alphaTmin            1e-10 \
	updateTestStepSize   yes \
	alphaTreduceFactor   0.1 \
	alphaTincreaseFactor 3 \
	nAlphaAdjustMax      3 \
	wolfeEnergy          0.0001 \
	wolfeGradient        0.9 \
	fdTest               no
exchange-regularization WignerSeitzTruncated
fluid LinearPCM 298.000000 1.013250
fluid-anion F- 1 MeanFieldLJ \
	epsBulk 1 \
	pMol 0 \
	epsInf 1 \
	Pvap 0 \
	sigmaBulk 0 \
	Rvdw 2.24877 \
	Res 0 \
	tauNuc 343133
fluid-cation Na+ 1 MeanFieldLJ \
	epsBulk 1 \
	pMol 0 \
	epsInf 1 \
	Pvap 0 \
	sigmaBulk 0 \
	Rvdw 2.19208 \
	Res 0 \
	tauNuc 343133
fluid-ex-corr lda-TF lda-PZ
fluid-gummel-loop 10 1.000000e-05
fluid-minimize  \
	dirUpdateScheme      PolakRibiere \
	linminMethod         DirUpdateRecommended \
	nIterations          400 \
	history              15 \
	knormThreshold       1e-11 \
	energyDiffThreshold  0 \
	nEnergyDiff          2 \
	alphaTstart          1 \
	alphaTmin            1e-10 \
	updateTestStepSize   yes \
	alphaTreduceFactor   0.1 \
	alphaTincreaseFactor 3 \
	nAlphaAdjustMax      6 \
	wolfeEnergy          0.0001 \
	wolfeGradient        0.9 \
	fdTest               no
fluid-solvent H2O 55.338 ScalarEOS \
	epsBulk 78.4 \
	pMol 0.92466 \
	epsInf 1.77 \
	Pvap 1.06736e-10 \
	sigmaBulk 4.62e-05 \
	Rvdw 2.61727 \
	Res 1.42 \
	tauNuc 343133 \
	poleEl 15 7 1
forces-output-coords Positions
initial-state NbTe2.$VAR
ion Cu   0.084202408917149   0.907728609058582   0.486605903865121 0
ion Cu   0.334212069586201   0.592238295816326   0.513473336437162 0
ion Cu   0.415797577082850   0.092271419941417   0.513404103134879 0
ion Cu   0.165787910413797   0.407761743183674   0.486516655562834 0
ion Cu   0.584202422917150   0.907728609058582   0.486605903865121 0
ion Cu   0.834212069586201   0.592238295816326   0.513473336437162 0
ion Cu   0.915797577082850   0.092271419941417   0.513404103134879 0
ion Cu   0.665787930413799   0.407761743183674   0.486516655562834 0
ion Se   0.191544044633908   0.149524430710110   0.479157360663119 0
ion Se   0.441430849559373   0.350535938195718   0.520906718465678 0
ion Se   0.308445951366095   0.850475550289892   0.520842639336880 0
ion Se   0.058579159440628   0.649474056804282   0.479083217534320 0
ion Se   0.691544044633908   0.149524430710110   0.479157360663119 0
ion Se   0.941430809559377   0.350535938195718   0.520906718465678 0
ion Se   0.808445971366097   0.850475550289892   0.520842639336880 0
ion Se   0.558579174440625   0.649474056804282   0.479083217534320 0
ion O   0.483312007311607   0.589240761992253   0.554325683899759 0
ion O   0.233148742958812   0.910732779269435   0.445615063563185 0
ion O   0.016697981688392   0.410749243007748   0.445664309100241 0
ion O   0.266841253041191   0.089257235730566   0.554394916436817 0
ion O   0.181876111969415   0.566455429973000   0.483873799976836 0
ion O   0.431768995654461   0.933633636604683   0.515995885781611 0
ion O   0.318123888030585   0.433544570027000   0.516126200023164 0
ion O   0.068230999345542   0.066366358395313   0.484004114218389 0
ion O   0.140771138798264   0.262889860845528   0.527534587710162 0
ion O   0.390645234326859   0.237171260053674   0.472495099915371 0
ion O   0.359228861201736   0.737110139154472   0.472465356289840 0
ion O   0.109344751673144   0.762838714946331   0.527524915084626 0
ion O   0.983312047311610   0.589240761992253   0.554325683899759 0
ion O   0.733148762958806   0.910732779269435   0.445615063563185 0
ion O   0.516697976688395   0.410749243007748   0.445664309100241 0
ion O   0.766841253041192   0.089257235730566   0.554394916436817 0
ion O   0.681876111969415   0.566455429973000   0.483873799976836 0
ion O   0.931769035654457   0.933633636604683   0.515995885781611 0
ion O   0.818123888030585   0.433544570027000   0.516126200023164 0
ion O   0.568230964345543   0.066366358395313   0.484004114218389 0
ion O   0.640771138798264   0.262889860845528   0.527534587710162 0
ion O   0.890645195326859   0.237171260053674   0.472495099915371 0
ion O   0.859228861201736   0.737110139154472   0.472465356289840 0
ion O   0.609344741673143   0.762838714946331   0.527524915084626 0
ion-species GBRV/$ID_pbe.uspp
ion-width Ecut
ionic-minimize  \
	dirUpdateScheme      L-BFGS \
	linminMethod         DirUpdateRecommended \
	nIterations          0 \
	history              15 \
	knormThreshold       0.0001 \
	energyDiffThreshold  1e-06 \
	nEnergyDiff          2 \
	alphaTstart          1 \
	alphaTmin            1e-10 \
	updateTestStepSize   yes \
	alphaTreduceFactor   0.1 \
	alphaTincreaseFactor 3 \
	nAlphaAdjustMax      3 \
	wolfeEnergy          0.0001 \
	wolfeGradient        0.9 \
	fdTest               no
kpoint   0.000000000000   0.000000000000   0.000000000000  1.00000000000000
kpoint-folding 3 3 1 
latt-move-scale 1 1 1
latt-scale 1 1 1 
lattice Triclinic 22.7432 23.0807 32.0547 90 90 90
lattice-minimize  \
	dirUpdateScheme      L-BFGS \
	linminMethod         DirUpdateRecommended \
	nIterations          0 \
	history              15 \
	knormThreshold       0 \
	energyDiffThreshold  1e-06 \
	nEnergyDiff          2 \
	alphaTstart          1 \
	alphaTmin            1e-10 \
	updateTestStepSize   yes \
	alphaTreduceFactor   0.1 \
	alphaTincreaseFactor 3 \
	nAlphaAdjustMax      3 \
	wolfeEnergy          0.0001 \
	wolfeGradient        0.9 \
	fdTest               no
lcao-params -1 1e-06 0.0073499
pcm-variant CANDLE
spintype no-spin
subspace-rotation-factor 1 yes
symmetries automatic
symmetry-threshold 0.0001



---------- Setting up symmetries ----------

Found 8 point-group symmetries of the bravais lattice
Found 2 space-group symmetries with basis
Applied RMS atom displacement 2.4511e-07 bohrs to make symmetries exact.

---------- Initializing the Grid ----------
R = 
[    22.7432          0          0  ]
[          0    23.0807          0  ]
[          0          0    32.0547  ]
unit cell volume = 16826.5
G =
[   0.276266          0          0  ]
[          0   0.272226          0  ]
[          0          0   0.196015  ]
Minimum fftbox size, Smin = [  104  104  148  ]
Chosen fftbox size, S = [  108  108  150  ]

---------- Initializing tighter grid for wavefunction operations ----------
R = 
[    22.7432          0          0  ]
[          0    23.0807          0  ]
[          0          0    32.0547  ]
unit cell volume = 16826.5
G =
[   0.276266          0          0  ]
[          0   0.272226          0  ]
[          0          0   0.196015  ]
Minimum fftbox size, Smin = [  92  96  132  ]
Chosen fftbox size, S = [  96  96  140  ]

---------- Exchange Correlation functional ----------
Initalized PBE GGA exchange.
Initalized PBE GGA correlation.

---------- Setting up pseudopotentials ----------
Width of ionic core gaussian charges (only for fluid interactions / plotting) set to 0.397384

Reading pseudopotential file '/home/guoxy/vasp/jdftx-1.5.0/build/pseudopotentials/GBRV/cu_pbe.uspp':
  Title: Cu.  Created by USPP 7.3.6 on 3-2-2014
  Reference state energy: -201.059491.  19 valence electrons in orbitals:
    |300>  occupation: 2  eigenvalue: -5.020764
    |310>  occupation: 6  eigenvalue: -3.445588
    |320>  occupation: 8  eigenvalue: -0.925168
    |400>  occupation: 2  eigenvalue: -0.567638
    |410>  occupation: 0  eigenvalue: -0.326154
  lMax: 2  lLocal: 3  QijEcut: 6
  6 projectors sampled on a log grid with 613 points:
    l: 0  eig: -5.020767  rCut: 1.4
    l: 0  eig: -0.567640  rCut: 1.4
    l: 1  eig: -3.445589  rCut: 1.55
    l: 1  eig: -0.326157  rCut: 1.55
    l: 2  eig: -0.925170  rCut: 1.5
    l: 2  eig: 1.500000  rCut: 1.5
  Partial core density with radius 0.8
  Transforming core density to a uniform radial grid of dG=0.02 with 1285 points.
  Transforming local potential to a uniform radial grid of dG=0.02 with 1285 points.
  Transforming nonlocal projectors to a uniform radial grid of dG=0.02 with 432 points.
  Transforming density augmentations to a uniform radial grid of dG=0.02 with 1285 points.
  Transforming atomic orbitals to a uniform radial grid of dG=0.02 with 432 points.
  Core radius for overlap checks: 1.55 bohrs.

Reading pseudopotential file '/home/guoxy/vasp/jdftx-1.5.0/build/pseudopotentials/GBRV/se_pbe.uspp':
  Title: Se.  Created by USPP 7.3.6 on 14-9-2013
  Reference state energy: -21.672887.  6 valence electrons in orbitals:
    |400>  occupation: 2  eigenvalue: -0.635284
    |410>  occupation: 4  eigenvalue: -0.239295
  lMax: 2  lLocal: 3  QijEcut: 5
  6 projectors sampled on a log grid with 625 points:
    l: 0  eig: -0.635278  rCut: 1.5
    l: 0  eig: 0.500000  rCut: 1.5
    l: 1  eig: -0.239295  rCut: 1.5
    l: 1  eig: 0.500000  rCut: 1.5
    l: 2  eig: 0.000000  rCut: 1.8
    l: 2  eig: 1.000000  rCut: 1.8
  Partial core density with radius 1.2
  Transforming core density to a uniform radial grid of dG=0.02 with 1285 points.
  Transforming local potential to a uniform radial grid of dG=0.02 with 1285 points.
  Transforming nonlocal projectors to a uniform radial grid of dG=0.02 with 432 points.
  Transforming density augmentations to a uniform radial grid of dG=0.02 with 1285 points.
  Transforming atomic orbitals to a uniform radial grid of dG=0.02 with 432 points.
  Core radius for overlap checks: 1.80 bohrs.

Reading pseudopotential file '/home/guoxy/vasp/jdftx-1.5.0/build/pseudopotentials/GBRV/o_pbe.uspp':
  Title: O.  Created by USPP 7.3.6 on 3-2-2014
  Reference state energy: -15.894388.  6 valence electrons in orbitals:
    |200>  occupation: 2  eigenvalue: -0.878823
    |210>  occupation: 4  eigenvalue: -0.332131
  lMax: 2  lLocal: 2  QijEcut: 6
  5 projectors sampled on a log grid with 511 points:
    l: 0  eig: -0.878823  rCut: 1.25
    l: 0  eig: 0.000000  rCut: 1.25
    l: 1  eig: -0.332132  rCut: 1.25
    l: 1  eig: 0.000000  rCut: 1.25
    l: 2  eig: 1.000000  rCut: 1.25
  Partial core density with radius 0.7
  Transforming core density to a uniform radial grid of dG=0.02 with 1285 points.
  Transforming local potential to a uniform radial grid of dG=0.02 with 1285 points.
  Transforming nonlocal projectors to a uniform radial grid of dG=0.02 with 432 points.
  Transforming density augmentations to a uniform radial grid of dG=0.02 with 1285 points.
  Transforming atomic orbitals to a uniform radial grid of dG=0.02 with 432 points.
  Core radius for overlap checks: 1.25 bohrs.

Initialized 3 species with 40 total atoms.

Folded 1 k-points by 3x3x1 to 9 k-points.

---------- Setting up k-points, bands, fillings ----------
Adding inversion symmetry to k-mesh for non-inversion-symmetric unit cell.
Reduced to 5 k-points under symmetry. 
Computing the number of bands and number of electrons
Calculating initial fillings.
nElectrons: 344.000000   nBands: 232   nStates: 5

----- Setting up reduced wavefunction bases (one per k-point) -----
average nbasis = 71865.667 , ideal nbasis = 71883.967

---------- Setting up coulomb interaction ----------
Fluid mode embedding: using embedded box, but periodic Coulomb kernel.
(Fluid response is responsible for (approximate) separation between periodic images.)
Setting up double-sized grid for truncated Coulomb potentials:
R = 
[    22.7432          0          0  ]
[          0    23.0807          0  ]
[          0          0    64.1093  ]
unit cell volume = 33652.9
G =
[   0.276266          0          0  ]
[          0   0.272226          0  ]
[          0          0  0.0980073  ]
Chosen fftbox size, S = [  108  108  300  ]
Integer grid location selected as the embedding center:
   Grid: [  0  0  75  ]
   Lattice: [  0  0  0.5  ]
   Cartesian: [  0  0  16.0273  ]
Constructing Wigner-Seitz cell: 6 faces (6 quadrilaterals, 0 hexagons)
Range-separation parameter for embedded mesh potentials due to point charges: 0.583207 bohrs.

Initializing van der Waals corrections
	NOTE: vdW corrections apply only for interactions with fluid.
	Cu:  C6:  187.33 Eh-a0^6  R0: 2.952 a0
	Se:  C6:  219.24 Eh-a0^6  R0: 3.347 a0
	 O:  C6:   12.14 Eh-a0^6  R0: 2.536 a0

---------- Setting up ewald sum ----------
Optimum gaussian width for ewald sums = 6.964786 bohr.
Real space sum over 567 unit cells with max indices [  4  4  3  ]
Reciprocal space sum over 6045 terms with max indices [  6  7  15  ]

---------- Allocating electronic variables ----------
Initializing wave functions:  linear combination of atomic orbitals
Cu pseudo-atom occupations:   s ( 2 1 )  p ( 6 0 )  d ( 10 )
Se pseudo-atom occupations:   s ( 2 )  p ( 4 )
O pseudo-atom occupations:   s ( 2 )  p ( 4 )
	FillingsUpdate:  mu: +0.273788057  nElectrons: 344.000000
LCAOMinimize: Iter:   0  F: -1816.9526043787684557  |grad|_K:  2.922e-02  alpha:  1.000e+00
	FillingsUpdate:  mu: +1.263454525  nElectrons: 344.000000
LCAOMinimize: Iter:   1  F: -1944.3557382530132145  |grad|_K:  2.270e-02  alpha:  1.160e+00  linmin:  1.442e-02  cgtest: -1.784e+00  t[s]:     65.40
	FillingsUpdate:  mu: +0.566644940  nElectrons: 344.000000
LCAOMinimize: Iter:   2  F: -1978.5721252551325051  |grad|_K:  1.922e-02  alpha:  4.770e-01  linmin:  3.955e-02  cgtest: -4.828e-01  t[s]:     74.24
LCAOMinimize: 	Bad step direction: g.d > 0.
LCAOMinimize: 	Undoing step.
LCAOMinimize: 	Step failed: resetting search direction.
	FillingsUpdate:  mu: +0.566644940  nElectrons: 344.000000
LCAOMinimize: Iter:   3  F: -1978.5721252551325051  |grad|_K:  1.922e-02  alpha:  0.000e+00
	FillingsUpdate:  mu: +0.593970369  nElectrons: 344.000000
LCAOMinimize: Iter:   4  F: -1998.6269479473469346  |grad|_K:  1.382e-02  alpha:  1.686e-01  linmin: -3.400e-02  cgtest:  3.276e-01  t[s]:     88.26
	FillingsUpdate:  mu: +0.679494276  nElectrons: 344.000000
LCAOMinimize: Iter:   5  F: -2002.5724519746049737  |grad|_K:  1.161e-02  alpha:  5.974e-02  linmin: -1.394e-02  cgtest:  5.241e-01  t[s]:     96.75
LCAOMinimize: 	Predicted alpha/alphaT>3.000000, increasing alphaT to 1.792290e-01.
LCAOMinimize: 	Wrong curvature in test step, increasing alphaT to 5.376869e-01.
	FillingsUpdate:  mu: +0.677241747  nElectrons: 344.000000
LCAOMinimize: Iter:   6  F: -2011.9861681608381332  |grad|_K:  2.473e-02  alpha: -5.796e-01  linmin: -1.002e-02  cgtest:  2.513e-01  t[s]:    107.42
LCAOMinimize: 	Step increased F by 6.240832e+02, reducing alpha to 1.978829e-02.
	FillingsUpdate:  mu: +0.633240027  nElectrons: 344.000000
LCAOMinimize: Iter:   7  F: -2026.3462988572648555  |grad|_K:  2.529e-02  alpha:  1.979e-02  linmin: -2.876e-02  cgtest:  8.183e-01  t[s]:    121.58
LCAOMinimize: 	Wrong curvature in test step, increasing alphaT to 5.936487e-02.
	FillingsUpdate:  mu: +0.604775429  nElectrons: 344.000000
LCAOMinimize: Iter:   8  F: -2034.3007373188136171  |grad|_K:  2.138e-02  alpha: -3.119e-01  linmin: -5.210e-02  cgtest:  8.769e-01  t[s]:    130.08
LCAOMinimize: Encountered beta<0, resetting CG.
	FillingsUpdate:  mu: +0.459440138  nElectrons: 344.000000
LCAOMinimize: Iter:   9  F: -2053.6325816575831595  |grad|_K:  1.494e-02  alpha:  1.652e-01  linmin: -4.953e-02  cgtest:  3.952e-01  t[s]:    139.08
	FillingsUpdate:  mu: +0.403116521  nElectrons: 344.000000
LCAOMinimize: Iter:  10  F: -2063.4597896614282035  |grad|_K:  1.285e-02  alpha:  2.571e-01  linmin: -3.025e-03  cgtest: -1.466e-02  t[s]:    147.66
	FillingsUpdate:  mu: +0.405012012  nElectrons: 344.000000
LCAOMinimize: Iter:  11  F: -2063.8688344822571707  |grad|_K:  1.206e-02  alpha:  8.443e-03  linmin: -2.272e-02  cgtest:  9.558e-01  t[s]:    172.19
LCAOMinimize: Encountered beta<0, resetting CG.
LCAOMinimize: 	Predicted alpha/alphaT>3.000000, increasing alphaT to 2.532823e-02.
LCAOMinimize: 	Predicted alpha/alphaT>3.000000, increasing alphaT to 7.598468e-02.
	FillingsUpdate:  mu: +0.401102892  nElectrons: 344.000000
LCAOMinimize: Iter:  12  F: -2065.2071021474134795  |grad|_K:  7.499e-03  alpha:  6.583e-02  linmin:  1.066e-02  cgtest: -2.175e-01  t[s]:    187.36
	FillingsUpdate:  mu: +0.360464947  nElectrons: 344.000000
LCAOMinimize: Iter:  13  F: -2065.7449088992852921  |grad|_K:  1.307e-02  alpha:  1.269e-01  linmin:  5.061e-03  cgtest:  2.272e-01  t[s]:    196.78
	FillingsUpdate:  mu: +0.359874175  nElectrons: 344.000000
LCAOMinimize: Iter:  14  F: -2065.7744008299905545  |grad|_K:  1.312e-02  alpha:  9.847e-04  linmin: -7.691e-03  cgtest:  9.959e-01  t[s]:    205.55
LCAOMinimize: 	Predicted alpha/alphaT>3.000000, increasing alphaT to 2.954122e-03.
LCAOMinimize: 	Predicted alpha/alphaT>3.000000, increasing alphaT to 8.862366e-03.
LCAOMinimize: 	Predicted alpha/alphaT>3.000000, increasing alphaT to 2.658710e-02.
	FillingsUpdate:  mu: +0.371880530  nElectrons: 344.000000
LCAOMinimize: Iter:  15  F: -2066.6700696298726143  |grad|_K:  1.153e-02  alpha:  6.646e-02  linmin:  1.784e-02  cgtest: -5.530e-01  t[s]:    219.98
LCAOMinimize: 	Wrong curvature in test step, increasing alphaT to 1.993791e-01.
	FillingsUpdate:  mu: +0.301061450  nElectrons: 344.000000
LCAOMinimize: Iter:  16  F: -2069.0017260958752559  |grad|_K:  1.261e-02  alpha: -6.277e-02  linmin: -5.650e-02  cgtest:  5.374e-01  t[s]:    228.63
	FillingsUpdate:  mu: +0.034625932  nElectrons: 344.000000
LCAOMinimize: Iter:  17  F: -2072.4573565048076489  |grad|_K:  6.420e-03  alpha:  7.675e-02  linmin:  5.234e-02  cgtest: -1.979e-01  t[s]:    238.29
	FillingsUpdate:  mu: +0.033753233  nElectrons: 344.000000
LCAOMinimize: Iter:  18  F: -2072.4574345431515212  |grad|_K:  6.408e-03  alpha:  2.008e-04  linmin: -1.619e-03  cgtest:  9.997e-01  t[s]:    247.65
LCAOMinimize: Encountered beta<0, resetting CG.
LCAOMinimize: 	Predicted alpha/alphaT>3.000000, increasing alphaT to 6.023825e-04.
LCAOMinimize: 	Predicted alpha/alphaT>3.000000, increasing alphaT to 1.807148e-03.
LCAOMinimize: 	Predicted alpha/alphaT>3.000000, increasing alphaT to 5.421443e-03.
	FillingsUpdate:  mu: -0.033314394  nElectrons: 344.000000
LCAOMinimize: Iter:  19  F: -2072.6484558136635314  |grad|_K:  2.934e-03  alpha:  3.440e-02  linmin: -3.059e-04  cgtest:  1.985e-02  t[s]:    261.81
LCAOMinimize: 	Predicted alpha/alphaT>3.000000, increasing alphaT to 1.031953e-01.
	FillingsUpdate:  mu: +0.011513323  nElectrons: 344.000000
LCAOMinimize: Iter:  20  F: -2072.9184012562327553  |grad|_K:  1.674e-03  alpha:  2.179e-01  linmin: -4.993e-02  cgtest: -1.354e-01  t[s]:    273.11
	FillingsUpdate:  mu: +0.015177701  nElectrons: 344.000000
LCAOMinimize: Iter:  21  F: -2072.9897740432397768  |grad|_K:  2.757e-03  alpha:  1.650e-01  linmin:  4.007e-04  cgtest: -8.834e-02  t[s]:    282.49
	FillingsUpdate:  mu: -0.040269375  nElectrons: 344.000000
LCAOMinimize: Iter:  22  F: -2073.0543116005983393  |grad|_K:  1.596e-03  alpha:  4.797e-02  linmin: -2.697e-02  cgtest:  9.233e-01  t[s]:    291.88
LCAOMinimize: Encountered beta<0, resetting CG.
	FillingsUpdate:  mu: -0.056664129  nElectrons: 344.000000
LCAOMinimize: Iter:  23  F: -2073.0675736937441798  |grad|_K:  7.203e-04  alpha:  3.825e-02  linmin:  2.266e-03  cgtest: -7.761e-03  t[s]:    300.77
LCAOMinimize: 	Predicted alpha/alphaT>3.000000, increasing alphaT to 1.147516e-01.
	FillingsUpdate:  mu: -0.057321640  nElectrons: 344.000000
LCAOMinimize: Iter:  24  F: -2073.0814540694791503  |grad|_K:  2.762e-04  alpha:  1.956e-01  linmin: -1.135e-02  cgtest:  1.031e-01  t[s]:    312.56
	FillingsUpdate:  mu: -0.056997301  nElectrons: 344.000000
LCAOMinimize: Iter:  25  F: -2073.0820877197847949  |grad|_K:  2.446e-04  alpha:  5.975e-02  linmin: -1.305e-03  cgtest: -1.422e-02  t[s]:    321.49
LCAOMinimize: 	Predicted alpha/alphaT>3.000000, increasing alphaT to 1.792589e-01.
	FillingsUpdate:  mu: -0.055565350  nElectrons: 344.000000
LCAOMinimize: Iter:  26  F: -2073.0842046007901445  |grad|_K:  9.409e-05  alpha:  2.592e-01  linmin: -7.323e-04  cgtest:  8.127e-02  t[s]:    333.36
	FillingsUpdate:  mu: -0.056852673  nElectrons: 344.000000
LCAOMinimize: Iter:  27  F: -2073.0843171609649289  |grad|_K:  1.103e-04  alpha:  9.292e-02  linmin: -6.314e-04  cgtest:  4.987e-03  t[s]:    342.81
	FillingsUpdate:  mu: -0.059120137  nElectrons: 344.000000
LCAOMinimize: Iter:  28  F: -2073.0844611220104525  |grad|_K:  4.004e-05  alpha:  8.665e-02  linmin:  1.524e-03  cgtest: -9.323e-03  t[s]:    352.00
	FillingsUpdate:  mu: -0.058327011  nElectrons: 344.000000
LCAOMinimize: Iter:  29  F: -2073.0845115957513372  |grad|_K:  3.525e-05  alpha:  2.328e-01  linmin:  1.323e-04  cgtest:  4.599e-03  t[s]:    360.89
	FillingsUpdate:  mu: -0.058229108  nElectrons: 344.000000
LCAOMinimize: Iter:  30  F: -2073.0845180953774616  |grad|_K:  1.172e-05  alpha:  3.861e-02  linmin:  6.309e-04  cgtest:  2.227e-04  t[s]:    369.63
LCAOMinimize: None of the convergence criteria satisfied after 30 iterations.
----- createFluidSolver() ----- (Fluid-side solver setup)
   Initializing fluid molecule 'H2O'
     Initializing site 'O'
       Electron density: proportional to exp(-r/0.36935)*erfc((r-0.51523)/0.36823) with norm 6.826
       Charge density: gaussian nuclear width 0.478731 with net site charge 0.826
       Polarizability: cuspless exponential with width 0.32 and norm 3.73
       Hard sphere radius: 2.57003 bohrs
       Positions in reference frame:
         [ +0.000000 +0.000000 +0.000000 ]
     Initializing site 'H'
       Electron density: proportional to exp(-r/0.34641)*erfc((r-0)/0.390882) with norm 0.587
       Charge density: gaussian nuclear width 0.377945 with net site charge -0.413
       Polarizability: cuspless exponential with width 0.39 and norm 3.3
       Positions in reference frame:
         [ +0.000000 -1.441945 +1.122523 ]
         [ +0.000000 +1.441945 +1.122523 ]
     Net charge: 0   dipole magnitude: 0.927204
     Initializing spherical shell mfKernel with radius 2.61727 Bohr
     deltaS corrections:
       site 'O': -7.54299
       site 'H': -6.83917
   Initializing fluid molecule 'Na+'
     Initializing site 'Na'
       Electron density: proportional to exp(-r/0.19682)*erfc((r-0.71491)/0.41314) with norm 8.1383
       Charge density: gaussian nuclear width 0.365347 with net site charge -1
       Hard sphere radius: 1.86327 bohrs
       Positions in reference frame:
         [ +0.000000 +0.000000 +0.000000 ]
     Net charge: -1   dipole magnitude: 0
     Initializing gaussian mfKernel with width: 1.55004 Bohr
     deltaS corrections:
       site 'Na': -22.3555
   Initializing fluid molecule 'F-'
     Initializing site 'F'
       Electron density: proportional to exp(-r/0.38886)*erfc((r-0)/0.438782) with norm 8
       Charge density: gaussian nuclear width 0.374796 with net site charge 1
       Hard sphere radius: 2.39995 bohrs
       Positions in reference frame:
         [ +0.000000 +0.000000 +0.000000 ]
     Net charge: 1   dipole magnitude: 0
     Initializing gaussian mfKernel with width: 1.59012 Bohr
     deltaS corrections:
       site 'F': -9.04335

Correction to mu due to finite nuclear width = -0.0101423
   Cavity determined by nc: 0.00142 and sigma: 0.707107
   Nonlocal vdW cavity from gaussian model electron density with norm = 8 and sigma = 0.993594 bohr
   Charge asymmetry in cavity with sensitivity pCavity = 36.5 e-bohr/Eh
   Electrostatic cavity expanded by eta = 1.46 bohrs
   Weighted density cavitation model constrained by Nbulk: 0.0049383 bohr^-3, Pvap: 3.14029 kPa, Rvdw: 2.61727 bohr and sigmaBulk: 4.62e-05 Eh/bohr^2 at T: 298 K.
   Weighted density dispersion model using vdW pair potentials with single solvent site with sqrtC6eff: 0.77 SI.


---- Citations for features of the code used in this run ----

   Software package:
      R. Sundararaman, K. Letchworth-Weaver, K.A. Schwarz, D. Gunceler, Y. Ozhabes and T.A. Arias, 'JDFTx: software for joint density-functional theory', SoftwareX 6, 278 (2017)

   gga-PBE exchange-correlation functional:
      J.P. Perdew, K. Burke and M. Ernzerhof, Phys. Rev. Lett. 77, 3865 (1996)

   Pseudopotentials:
      KF Garrity, JW Bennett, KM Rabe and D Vanderbilt, Comput. Mater. Sci. 81, 446 (2014)

   Truncated Coulomb potentials:
      R. Sundararaman and T.A. Arias, Phys. Rev. B 87, 165122 (2013)

   Van der Waals correction pair-potentials:
      S. Grimme, J. Comput. Chem. 27, 1787 (2006)

   Charge-asymmetric nonlocally-determined local-electric (CANDLE) solvation model:
      R. Sundararaman and W.A. Goddard III, J. Chem. Phys. 142, 064107 (2015)

   Total energy minimization with Auxiliary Hamiltonian:
      C. Freysoldt, S. Boeck, and J. Neugebauer, Phys. Rev. B 79, 241103(R) (2009)

This list may not be complete. Please suggest additional citations or
report any other bugs at https://github.com/shankar1729/jdftx/issues

Initialization completed successfully at t[s]:    372.61

Fluid solver invoked on fresh (partially random / LCAO) wavefunctions
Running a vacuum solve first:

-------- Initial electronic minimization -----------
	FillingsUpdate:  mu: -0.058229107  nElectrons: 344.000000
ElecMinimize: Iter:   0  F: -2073.084518095376097  |grad|_K:  3.394e-04  alpha:  1.000e+00
	FillingsUpdate:  mu: -0.186514055  nElectrons: 344.000000
	SubspaceRotationAdjust: set factor to 1
ElecMinimize: Iter:   1  F: -2074.236876297578419  |grad|_K:  2.647e-04  alpha:  1.260e-01  linmin:  1.463e-05  t[s]:    395.43
	FillingsUpdate:  mu: -0.154650887  nElectrons: 344.000000
	SubspaceRotationAdjust: set factor to 1.1
ElecMinimize: Iter:   2  F: -2075.671943974888109  |grad|_K:  1.308e-04  alpha:  2.326e-01  linmin: -3.593e-05  t[s]:    408.74
	FillingsUpdate:  mu: -0.058945254  nElectrons: 344.000000
	SubspaceRotationAdjust: set factor to 1.24
ElecMinimize: Iter:   3  F: -2075.991241265440749  |grad|_K:  1.524e-04  alpha:  1.859e-01  linmin: -2.218e-07  t[s]:    422.81
	FillingsUpdate:  mu: -0.123850982  nElectrons: 344.000000
	SubspaceRotationAdjust: set factor to 1.05
ElecMinimize: Iter:   4  F: -2076.348029855493223  |grad|_K:  8.720e-05  alpha:  1.832e-01  linmin: -1.592e-07  t[s]:    436.72
	FillingsUpdate:  mu: -0.143057727  nElectrons: 344.000000
	SubspaceRotationAdjust: set factor to 0.832
ElecMinimize: Iter:   5  F: -2076.389688257903799  |grad|_K:  8.019e-05  alpha:  6.658e-02  linmin:  1.677e-06  t[s]:    450.49
	FillingsUpdate:  mu: -0.156485599  nElectrons: 344.000000
	SubspaceRotationAdjust: set factor to 0.889
ElecMinimize: Iter:   6  F: -2076.441874228659799  |grad|_K:  6.679e-05  alpha:  9.843e-02  linmin: -6.223e-07  t[s]:    465.39
	FillingsUpdate:  mu: -0.134327240  nElectrons: 344.000000
	SubspaceRotationAdjust: set factor to 0.906
ElecMinimize: Iter:   7  F: -2076.487539071255924  |grad|_K:  4.632e-05  alpha:  1.218e-01  linmin:  2.996e-07  t[s]:    481.76
	FillingsUpdate:  mu: -0.131516416  nElectrons: 344.000000
	SubspaceRotationAdjust: set factor to 0.742
ElecMinimize: Iter:   8  F: -2076.503896424113918  |grad|_K:  4.743e-05  alpha:  9.228e-02  linmin: -9.601e-07  t[s]:    498.10
	FillingsUpdate:  mu: -0.141877588  nElectrons: 344.000000
	SubspaceRotationAdjust: set factor to 1.09
ElecMinimize: Iter:   9  F: -2076.525908129393429  |grad|_K:  2.258e-05  alpha:  1.166e-01  linmin: -2.161e-06  t[s]:    514.47
	FillingsUpdate:  mu: -0.147471528  nElectrons: 344.000000
	SubspaceRotationAdjust: set factor to 1.03
ElecMinimize: Iter:  10  F: -2076.531101690191008  |grad|_K:  2.727e-05  alpha:  1.218e-01  linmin:  5.585e-07  t[s]:    530.69
	FillingsUpdate:  mu: -0.152049745  nElectrons: 344.000000
	SubspaceRotationAdjust: set factor to 0.786
ElecMinimize: Iter:  11  F: -2076.537513322981340  |grad|_K:  2.241e-05  alpha:  1.033e-01  linmin:  4.225e-07  t[s]:    547.26
	FillingsUpdate:  mu: -0.149114166  nElectrons: 344.000000
	SubspaceRotationAdjust: set factor to 0.972
ElecMinimize: Iter:  12  F: -2076.542203564827560  |grad|_K:  1.265e-05  alpha:  1.124e-01  linmin:  5.067e-08  t[s]:    563.38
	FillingsUpdate:  mu: -0.150100235  nElectrons: 344.000000
	SubspaceRotationAdjust: set factor to 0.834
ElecMinimize: Iter:  13  F: -2076.543828194746766  |grad|_K:  1.341e-05  alpha:  1.217e-01  linmin:  1.854e-07  t[s]:    580.19
	FillingsUpdate:  mu: -0.151479731  nElectrons: 344.000000
	SubspaceRotationAdjust: set factor to 0.692
ElecMinimize: Iter:  14  F: -2076.545177119713571  |grad|_K:  9.998e-06  alpha:  9.006e-02  linmin:  9.952e-09  t[s]:    596.57
	FillingsUpdate:  mu: -0.150434658  nElectrons: 344.000000
	SubspaceRotationAdjust: set factor to 0.734
ElecMinimize: Iter:  15  F: -2076.546499970624609  |grad|_K:  6.514e-06  alpha:  1.586e-01  linmin:  7.978e-08  t[s]:    612.54
	FillingsUpdate:  mu: -0.149268313  nElectrons: 344.000000
	SubspaceRotationAdjust: set factor to 0.744
ElecMinimize: Iter:  16  F: -2076.547093139100980  |grad|_K:  5.615e-06  alpha:  1.676e-01  linmin: -1.141e-09  t[s]:    629.17
	FillingsUpdate:  mu: -0.149631962  nElectrons: 344.000000
	SubspaceRotationAdjust: set factor to 0.624
ElecMinimize: Iter:  17  F: -2076.547355562419853  |grad|_K:  4.513e-06  alpha:  9.971e-02  linmin:  4.870e-09  t[s]:    645.36
	FillingsUpdate:  mu: -0.150252223  nElectrons: 344.000000
	SubspaceRotationAdjust: set factor to 0.554
ElecMinimize: Iter:  18  F: -2076.547584185909272  |grad|_K:  4.140e-06  alpha:  1.344e-01  linmin:  6.676e-08  t[s]:    661.18
	FillingsUpdate:  mu: -0.149809860  nElectrons: 344.000000
	SubspaceRotationAdjust: set factor to 0.668
ElecMinimize: Iter:  19  F: -2076.547799563394165  |grad|_K:  2.246e-06  alpha:  1.506e-01  linmin:  7.908e-08  t[s]:    677.32
	FillingsUpdate:  mu: -0.149756185  nElectrons: 344.000000
	SubspaceRotationAdjust: set factor to 0.615
ElecMinimize: Iter:  20  F: -2076.547880859508041  |grad|_K:  2.924e-06  alpha:  1.931e-01  linmin:  2.492e-07  t[s]:    693.55
	FillingsUpdate:  mu: -0.149963275  nElectrons: 344.000000
	SubspaceRotationAdjust: set factor to 0.53
ElecMinimize: Iter:  21  F: -2076.547957533709450  |grad|_K:  1.734e-06  alpha:  1.074e-01  linmin: -7.111e-08  t[s]:    709.50
	FillingsUpdate:  mu: -0.150184007  nElectrons: 344.000000
	SubspaceRotationAdjust: set factor to 0.559
ElecMinimize: Iter:  22  F: -2076.547999712705405  |grad|_K:  1.565e-06  alpha:  1.680e-01  linmin:  2.368e-08  t[s]:    726.57
	FillingsUpdate:  mu: -0.150054564  nElectrons: 344.000000
	SubspaceRotationAdjust: set factor to 0.575
ElecMinimize: Iter:  23  F: -2076.548033891764589  |grad|_K:  1.248e-06  alpha:  1.673e-01  linmin:  2.261e-08  t[s]:    742.53
	FillingsUpdate:  mu: -0.150022254  nElectrons: 344.000000
	SubspaceRotationAdjust: set factor to 0.529
ElecMinimize: Iter:  24  F: -2076.548054546665753  |grad|_K:  1.346e-06  alpha:  1.589e-01  linmin:  1.179e-08  t[s]:    758.08
	FillingsUpdate:  mu: -0.150097429  nElectrons: 344.000000
	SubspaceRotationAdjust: set factor to 0.453
ElecMinimize: Iter:  25  F: -2076.548075753405101  |grad|_K:  1.033e-06  alpha:  1.402e-01  linmin:  1.633e-08  t[s]:    774.36
	FillingsUpdate:  mu: -0.150078510  nElectrons: 344.000000
	SubspaceRotationAdjust: set factor to 0.494
ElecMinimize: Iter:  26  F: -2076.548091260739966  |grad|_K:  8.341e-07  alpha:  1.741e-01  linmin:  2.421e-08  t[s]:    790.65
	FillingsUpdate:  mu: -0.149932079  nElectrons: 344.000000
	SubspaceRotationAdjust: set factor to 0.462
ElecMinimize: Iter:  27  F: -2076.548106253813785  |grad|_K:  1.019e-06  alpha:  2.582e-01  linmin:  2.901e-08  t[s]:    806.71
	FillingsUpdate:  mu: -0.149965122  nElectrons: 344.000000
	SubspaceRotationAdjust: set factor to 0.428
ElecMinimize: Iter:  28  F: -2076.548115855298875  |grad|_K:  6.863e-07  alpha:  1.107e-01  linmin: -1.416e-08  t[s]:    826.19
	FillingsUpdate:  mu: -0.150143771  nElectrons: 344.000000
	SubspaceRotationAdjust: set factor to 0.438
ElecMinimize: Iter:  29  F: -2076.548125690528650  |grad|_K:  7.894e-07  alpha:  2.501e-01  linmin:  4.782e-08  t[s]:    842.42
	FillingsUpdate:  mu: -0.150061373  nElectrons: 344.000000
	SubspaceRotationAdjust: set factor to 0.455
ElecMinimize: Iter:  30  F: -2076.548134177804513  |grad|_K:  6.507e-07  alpha:  1.632e-01  linmin:  6.291e-09  t[s]:    859.96
	FillingsUpdate:  mu: -0.150067968  nElectrons: 344.000000
	SubspaceRotationAdjust: set factor to 0.461
ElecMinimize: Iter:  31  F: -2076.548141854687856  |grad|_K:  6.799e-07  alpha:  2.171e-01  linmin:  5.683e-08  t[s]:    877.48
	FillingsUpdate:  mu: -0.150164093  nElectrons: 344.000000
	SubspaceRotationAdjust: set factor to 0.403
ElecMinimize: Iter:  32  F: -2076.548146492253181  |grad|_K:  5.257e-07  alpha:  1.202e-01  linmin: -2.997e-09  t[s]:    895.66
	FillingsUpdate:  mu: -0.150139832  nElectrons: 344.000000
	SubspaceRotationAdjust: set factor to 0.421
ElecMinimize: Iter:  33  F: -2076.548152600908907  |grad|_K:  4.998e-07  alpha:  2.648e-01  linmin:  6.432e-08  t[s]:    912.59
	FillingsUpdate:  mu: -0.150011591  nElectrons: 344.000000
	SubspaceRotationAdjust: set factor to 0.429
ElecMinimize: Iter:  34  F: -2076.548155827989831  |grad|_K:  4.273e-07  alpha:  1.548e-01  linmin: -1.519e-08  t[s]:    931.02
	FillingsUpdate:  mu: -0.150033978  nElectrons: 344.000000
	SubspaceRotationAdjust: set factor to 0.389
ElecMinimize: Iter:  35  F: -2076.548158641005102  |grad|_K:  4.240e-07  alpha:  1.845e-01  linmin:  2.707e-08  t[s]:    948.21
	FillingsUpdate:  mu: -0.150073139  nElectrons: 344.000000
	SubspaceRotationAdjust: set factor to 0.405
ElecMinimize: Iter:  36  F: -2076.548160801190534  |grad|_K:  2.901e-07  alpha:  1.440e-01  linmin:  8.728e-09  t[s]:    966.89
	FillingsUpdate:  mu: -0.150006795  nElectrons: 344.000000
	SubspaceRotationAdjust: set factor to 0.42
ElecMinimize: Iter:  37  F: -2076.548162123498514  |grad|_K:  2.647e-07  alpha:  1.882e-01  linmin:  1.912e-08  t[s]:    984.74
	FillingsUpdate:  mu: -0.150057024  nElectrons: 344.000000
	SubspaceRotationAdjust: set factor to 0.431
ElecMinimize: Iter:  38  F: -2076.548163111301619  |grad|_K:  2.098e-07  alpha:  1.689e-01  linmin:  1.574e-08  t[s]:   1002.68
	FillingsUpdate:  mu: -0.150093993  nElectrons: 344.000000
	SubspaceRotationAdjust: set factor to 0.413
ElecMinimize: Iter:  39  F: -2076.548163743186251  |grad|_K:  2.061e-07  alpha:  1.720e-01  linmin:  1.999e-08  t[s]:   1020.53
	FillingsUpdate:  mu: -0.150065899  nElectrons: 344.000000
	SubspaceRotationAdjust: set factor to 0.401
ElecMinimize: Iter:  40  F: -2076.548164213733799  |grad|_K:  1.228e-07  alpha:  1.327e-01  linmin:  7.898e-09  t[s]:   1038.17
	FillingsUpdate:  mu: -0.150048044  nElectrons: 344.000000
	SubspaceRotationAdjust: set factor to 0.426
ElecMinimize: Iter:  41  F: -2076.548164521418130  |grad|_K:  1.337e-07  alpha:  2.445e-01  linmin:  4.805e-08  t[s]:   1056.14
	FillingsUpdate:  mu: -0.150060037  nElectrons: 344.000000
	SubspaceRotationAdjust: set factor to 0.404
ElecMinimize: Iter:  42  F: -2076.548164749096031  |grad|_K:  9.355e-08  alpha:  1.525e-01  linmin: -1.998e-08  t[s]:   1073.60
	FillingsUpdate:  mu: -0.150049524  nElectrons: 344.000000
	SubspaceRotationAdjust: set factor to 0.389
ElecMinimize: Iter:  43  F: -2076.548164847738008  |grad|_K:  7.842e-08  alpha:  1.350e-01  linmin: -1.382e-07  t[s]:   1090.59
	FillingsUpdate:  mu: -0.150035687  nElectrons: 344.000000
	SubspaceRotationAdjust: set factor to 0.387
ElecMinimize: Iter:  44  F: -2076.548164952203933  |grad|_K:  6.720e-08  alpha:  2.033e-01  linmin:  1.853e-08  t[s]:   1107.09
	FillingsUpdate:  mu: -0.150053902  nElectrons: 344.000000
	SubspaceRotationAdjust: set factor to 0.404
ElecMinimize: Iter:  45  F: -2076.548165017876272  |grad|_K:  6.058e-08  alpha:  1.742e-01  linmin:  2.348e-08  t[s]:   1124.77
	FillingsUpdate:  mu: -0.150051512  nElectrons: 344.000000
	SubspaceRotationAdjust: set factor to 0.392
ElecMinimize: Iter:  46  F: -2076.548165071194489  |grad|_K:  4.374e-08  alpha:  1.740e-01  linmin:  4.022e-08  t[s]:   1141.89
	FillingsUpdate:  mu: -0.150045221  nElectrons: 344.000000
	SubspaceRotationAdjust: set factor to 0.366
ElecMinimize: Iter:  47  F: -2076.548165096106914  |grad|_K:  4.540e-08  alpha:  1.560e-01  linmin: -5.752e-09  t[s]:   1159.26
	FillingsUpdate:  mu: -0.150052758  nElectrons: 344.000000
	SubspaceRotationAdjust: set factor to 0.39
ElecMinimize: Iter:  48  F: -2076.548165130741836  |grad|_K:  3.234e-08  alpha:  2.013e-01  linmin:  2.544e-08  t[s]:   1175.78
	FillingsUpdate:  mu: -0.150057901  nElectrons: 344.000000
	SubspaceRotationAdjust: set factor to 0.392
ElecMinimize: Iter:  49  F: -2076.548165150287787  |grad|_K:  3.407e-08  alpha:  2.239e-01  linmin:  8.778e-09  t[s]:   1193.17
	FillingsUpdate:  mu: -0.150051239  nElectrons: 344.000000
	SubspaceRotationAdjust: set factor to 0.382
ElecMinimize: Iter:  50  F: -2076.548165164876991  |grad|_K:  2.786e-08  alpha:  1.505e-01  linmin:  2.593e-09  t[s]:   1209.91
	FillingsUpdate:  mu: -0.150048907  nElectrons: 344.000000
	SubspaceRotationAdjust: set factor to 0.372
ElecMinimize: Iter:  51  F: -2076.548165176619023  |grad|_K:  2.595e-08  alpha:  1.815e-01  linmin:  1.186e-08  t[s]:   1227.42
	FillingsUpdate:  mu: -0.150053939  nElectrons: 344.000000
	SubspaceRotationAdjust: set factor to 0.384
ElecMinimize: Iter:  52  F: -2076.548165187424274  |grad|_K:  2.213e-08  alpha:  1.920e-01  linmin:  4.087e-08  t[s]:   1244.08
	FillingsUpdate:  mu: -0.150049312  nElectrons: 344.000000
	SubspaceRotationAdjust: set factor to 0.397
ElecMinimize: Iter:  53  F: -2076.548165194791181  |grad|_K:  2.109e-08  alpha:  1.797e-01  linmin: -1.093e-07  t[s]:   1259.53
	FillingsUpdate:  mu: -0.150048851  nElectrons: 344.000000
	SubspaceRotationAdjust: set factor to 0.376
ElecMinimize: Iter:  54  F: -2076.548165202388191  |grad|_K:  1.831e-08  alpha:  2.037e-01  linmin: -1.046e-07  t[s]:   1275.44
ElecMinimize: Converged (|Delta F|<1.000000e-08 for 2 iters).
Setting wave functions to eigenvectors of Hamiltonian
Vacuum energy after initial minimize, F = -2076.548165202388191

	Linear fluid (dielectric constant: 78.4, screening length: 5.74355 Bohr) occupying 0.814565 of unit cell:	Completed after 20 iterations at t[s]:   1280.51

-------- Electronic minimization -----------
	Linear fluid (dielectric constant: 78.4, screening length: 5.74355 Bohr) occupying 0.814565 of unit cell:	Completed after 0 iterations at t[s]:   1284.15
	FillingsUpdate:  mu: -0.191966463  nElectrons: 344.000000
ElecMinimize: Iter:   0  F: -2076.555052024451015  |grad|_K:  5.026e-06  alpha:  1.000e+00
	Linear fluid (dielectric constant: 78.4, screening length: 5.74355 Bohr) occupying 0.815136 of unit cell:	Completed after 14 iterations at t[s]:   1298.62
	Linear fluid (dielectric constant: 78.4, screening length: 5.74355 Bohr) occupying 0.815079 of unit cell:	Completed after 4 iterations at t[s]:   1304.54
	FillingsUpdate:  mu: -0.192314240  nElectrons: 344.000000
	SubspaceRotationAdjust: set factor to 0.407
ElecMinimize: Iter:   1  F: -2076.556949315824113  |grad|_K:  4.618e-06  alpha:  9.003e-01  linmin: -2.151e-06  t[s]:   1311.11
	Linear fluid (dielectric constant: 78.4, screening length: 5.74355 Bohr) occupying 0.815676 of unit cell:	Completed after 13 iterations at t[s]:   1318.11
	Linear fluid (dielectric constant: 78.4, screening length: 5.74355 Bohr) occupying 0.815214 of unit cell:	Completed after 14 iterations at t[s]:   1324.73
	FillingsUpdate:  mu: -0.191631399  nElectrons: 344.000000
	SubspaceRotationAdjust: set factor to 0.407
ElecMinimize: Iter:   2  F: -2076.557305795974571  |grad|_K:  4.631e-06  alpha:  1.995e-01  linmin: -2.100e-08  t[s]:   1331.30
	Linear fluid (dielectric constant: 78.4, screening length: 5.74355 Bohr) occupying 0.815375 of unit cell:	Completed after 8 iterations at t[s]:   1338.16
	Linear fluid (dielectric constant: 78.4, screening length: 5.74355 Bohr) occupying 0.815326 of unit cell:	Completed after 4 iterations at t[s]:   1344.34
	FillingsUpdate:  mu: -0.191376036  nElectrons: 344.000000
	SubspaceRotationAdjust: set factor to 0.386
ElecMinimize: Iter:   3  F: -2076.557552606714580  |grad|_K:  3.276e-06  alpha:  1.377e-01  linmin:  5.893e-07  t[s]:   1350.95
	Linear fluid (dielectric constant: 78.4, screening length: 5.74355 Bohr) occupying 0.815395 of unit cell:	Completed after 8 iterations at t[s]:   1357.48
	Linear fluid (dielectric constant: 78.4, screening length: 5.74355 Bohr) occupying 0.815445 of unit cell:	Completed after 6 iterations at t[s]:   1363.31
	FillingsUpdate:  mu: -0.191157122  nElectrons: 344.000000
	SubspaceRotationAdjust: set factor to 0.381
ElecMinimize: Iter:   4  F: -2076.557766803826780  |grad|_K:  2.842e-06  alpha:  2.391e-01  linmin: -6.517e-07  t[s]:   1369.75
	Linear fluid (dielectric constant: 78.4, screening length: 5.74355 Bohr) occupying 0.815543 of unit cell:	Completed after 8 iterations at t[s]:   1376.31
	Linear fluid (dielectric constant: 78.4, screening length: 5.74355 Bohr) occupying 0.815498 of unit cell:	Completed after 4 iterations at t[s]:   1382.55
	FillingsUpdate:  mu: -0.190485510  nElectrons: 344.000000
	SubspaceRotationAdjust: set factor to 0.409
ElecMinimize: Iter:   5  F: -2076.557854137564846  |grad|_K:  1.546e-06  alpha:  1.295e-01  linmin:  7.937e-07  t[s]:   1389.34
	Linear fluid (dielectric constant: 78.4, screening length: 5.74355 Bohr) occupying 0.815517 of unit cell:	Completed after 2 iterations at t[s]:   1395.49
	Linear fluid (dielectric constant: 78.4, screening length: 5.74355 Bohr) occupying 0.815535 of unit cell:	Completed after 2 iterations at t[s]:   1400.95
	FillingsUpdate:  mu: -0.190576664  nElectrons: 344.000000
	SubspaceRotationAdjust: set factor to 0.412
ElecMinimize: Iter:   6  F: -2076.557905997789476  |grad|_K:  1.741e-06  alpha:  2.610e-01  linmin:  1.132e-06  t[s]:   1407.74
	Linear fluid (dielectric constant: 78.4, screening length: 5.74355 Bohr) occupying 0.815582 of unit cell:	Completed after 6 iterations at t[s]:   1414.22
	Linear fluid (dielectric constant: 78.4, screening length: 5.74355 Bohr) occupying 0.815560 of unit cell:	Completed after 3 iterations at t[s]:   1419.62
	FillingsUpdate:  mu: -0.190447063  nElectrons: 344.000000
	SubspaceRotationAdjust: set factor to 0.372
ElecMinimize: Iter:   7  F: -2076.557940341641824  |grad|_K:  9.146e-07  alpha:  1.364e-01  linmin:  7.854e-07  t[s]:   1426.30
	Linear fluid (dielectric constant: 78.4, screening length: 5.74355 Bohr) occupying 0.815566 of unit cell:	Completed after 2 iterations at t[s]:   1432.61
	Linear fluid (dielectric constant: 78.4, screening length: 5.74355 Bohr) occupying 0.815567 of unit cell:	Completed after 2 iterations at t[s]:   1438.43
	FillingsUpdate:  mu: -0.190365261  nElectrons: 344.000000
	SubspaceRotationAdjust: set factor to 0.361
ElecMinimize: Iter:   8  F: -2076.557951615698585  |grad|_K:  8.382e-07  alpha:  1.618e-01  linmin: -4.333e-06  t[s]:   1445.23
	Linear fluid (dielectric constant: 78.4, screening length: 5.74355 Bohr) occupying 0.815572 of unit cell:	Completed after 2 iterations at t[s]:   1451.27
	Linear fluid (dielectric constant: 78.4, screening length: 5.74355 Bohr) occupying 0.815573 of unit cell:	Completed after 1 iterations at t[s]:   1456.97
	FillingsUpdate:  mu: -0.190469997  nElectrons: 344.000000
	SubspaceRotationAdjust: set factor to 0.38
ElecMinimize: Iter:   9  F: -2076.557963275448856  |grad|_K:  6.010e-07  alpha:  1.970e-01  linmin: -3.270e-06  t[s]:   1463.40
	Linear fluid (dielectric constant: 78.4, screening length: 5.74355 Bohr) occupying 0.815575 of unit cell:	Completed after 2 iterations at t[s]:   1469.17
	Linear fluid (dielectric constant: 78.4, screening length: 5.74355 Bohr) occupying 0.815575 of unit cell:	Completed after 0 iterations at t[s]:   1474.81
	FillingsUpdate:  mu: -0.190535300  nElectrons: 344.000000
	SubspaceRotationAdjust: set factor to 0.409
ElecMinimize: Iter:  10  F: -2076.557969175857124  |grad|_K:  4.000e-07  alpha:  1.942e-01  linmin: -6.765e-06  t[s]:   1481.63
	Linear fluid (dielectric constant: 78.4, screening length: 5.74355 Bohr) occupying 0.815575 of unit cell:	Completed after 3 iterations at t[s]:   1487.91
	Linear fluid (dielectric constant: 78.4, screening length: 5.74355 Bohr) occupying 0.815575 of unit cell:	Completed after 1 iterations at t[s]:   1493.31
	FillingsUpdate:  mu: -0.190489864  nElectrons: 344.000000
	SubspaceRotationAdjust: set factor to 0.392
ElecMinimize: Iter:  11  F: -2076.557970940890300  |grad|_K:  3.243e-07  alpha:  1.302e-01  linmin:  1.172e-05  t[s]:   1499.80
	Linear fluid (dielectric constant: 78.4, screening length: 5.74355 Bohr) occupying 0.815574 of unit cell:	Completed after 2 iterations at t[s]:   1505.83
	Linear fluid (dielectric constant: 78.4, screening length: 5.74355 Bohr) occupying 0.815574 of unit cell:	Completed after 0 iterations at t[s]:   1511.24
	FillingsUpdate:  mu: -0.190498521  nElectrons: 344.000000
	SubspaceRotationAdjust: set factor to 0.399
ElecMinimize: Iter:  12  F: -2076.557972532667463  |grad|_K:  2.778e-07  alpha:  1.771e-01  linmin: -5.441e-05  t[s]:   1518.00
	Linear fluid (dielectric constant: 78.4, screening length: 5.74355 Bohr) occupying 0.815572 of unit cell:	Completed after 2 iterations at t[s]:   1524.36
	Linear fluid (dielectric constant: 78.4, screening length: 5.74355 Bohr) occupying 0.815572 of unit cell:	Completed after 0 iterations at t[s]:   1529.96
	FillingsUpdate:  mu: -0.190526953  nElectrons: 344.000000
	SubspaceRotationAdjust: set factor to 0.428
ElecMinimize: Iter:  13  F: -2076.557973555887656  |grad|_K:  2.524e-07  alpha:  1.444e-01  linmin: -2.200e-05  t[s]:   1536.79
	Linear fluid (dielectric constant: 78.4, screening length: 5.74355 Bohr) occupying 0.815571 of unit cell:	Completed after 3 iterations at t[s]:   1542.97
	Linear fluid (dielectric constant: 78.4, screening length: 5.74355 Bohr) occupying 0.815572 of unit cell:	Completed after 1 iterations at t[s]:   1548.40
	FillingsUpdate:  mu: -0.190513256  nElectrons: 344.000000
	SubspaceRotationAdjust: set factor to 0.408
ElecMinimize: Iter:  14  F: -2076.557973976900030  |grad|_K:  1.603e-07  alpha:  7.432e-02  linmin:  1.949e-05  t[s]:   1555.12
	Linear fluid (dielectric constant: 78.4, screening length: 5.74355 Bohr) occupying 0.815571 of unit cell:	Completed after 0 iterations at t[s]:   1560.97
	Linear fluid (dielectric constant: 78.4, screening length: 5.74355 Bohr) occupying 0.815570 of unit cell:	Completed after 0 iterations at t[s]:   1566.49
	FillingsUpdate:  mu: -0.190513915  nElectrons: 344.000000
	SubspaceRotationAdjust: set factor to 0.452
ElecMinimize: Iter:  15  F: -2076.557974291308255  |grad|_K:  1.390e-07  alpha:  1.532e-01  linmin:  4.233e-08  t[s]:   1572.79
	Linear fluid (dielectric constant: 78.4, screening length: 5.74355 Bohr) occupying 0.815569 of unit cell:	Completed after 2 iterations at t[s]:   1578.89
	Linear fluid (dielectric constant: 78.4, screening length: 5.74355 Bohr) occupying 0.815570 of unit cell:	Completed after 0 iterations at t[s]:   1584.76
	FillingsUpdate:  mu: -0.190469514  nElectrons: 344.000000
	SubspaceRotationAdjust: set factor to 0.444
ElecMinimize: Iter:  16  F: -2076.557974432137144  |grad|_K:  1.297e-07  alpha:  1.037e-01  linmin: -1.535e-05  t[s]:   1591.43
	Linear fluid (dielectric constant: 78.4, screening length: 5.74355 Bohr) occupying 0.815569 of unit cell:	Completed after 0 iterations at t[s]:   1597.33
	Linear fluid (dielectric constant: 78.4, screening length: 5.74355 Bohr) occupying 0.815569 of unit cell:	Completed after 2 iterations at t[s]:   1602.55
	FillingsUpdate:  mu: -0.190518572  nElectrons: 344.000000
	SubspaceRotationAdjust: set factor to 0.478
ElecMinimize: Iter:  17  F: -2076.557974544397894  |grad|_K:  1.346e-07  alpha:  1.292e-01  linmin:  6.024e-05  t[s]:   1609.02
	Linear fluid (dielectric constant: 78.4, screening length: 5.74355 Bohr) occupying 0.815567 of unit cell:	Completed after 0 iterations at t[s]:   1614.84
	Linear fluid (dielectric constant: 78.4, screening length: 5.74355 Bohr) occupying 0.815567 of unit cell:	Completed after 0 iterations at t[s]:   1619.96
	FillingsUpdate:  mu: -0.190517321  nElectrons: 344.000000
	SubspaceRotationAdjust: set factor to 0.538
ElecMinimize: Iter:  18  F: -2076.557974654914688  |grad|_K:  1.085e-07  alpha:  1.148e-01  linmin: -2.822e-09  t[s]:   1627.00
	Linear fluid (dielectric constant: 78.4, screening length: 5.74355 Bohr) occupying 0.815567 of unit cell:	Completed after 1 iterations at t[s]:   1633.27
	Linear fluid (dielectric constant: 78.4, screening length: 5.74355 Bohr) occupying 0.815567 of unit cell:	Completed after 0 iterations at t[s]:   1638.54
	FillingsUpdate:  mu: -0.190541879  nElectrons: 344.000000
	SubspaceRotationAdjust: set factor to 0.482
ElecMinimize: Iter:  19  F: -2076.557974673436547  |grad|_K:  1.241e-07  alpha:  4.799e-02  linmin:  1.941e-05  t[s]:   1645.09
	Linear fluid (dielectric constant: 78.4, screening length: 5.74355 Bohr) occupying 0.815567 of unit cell:	Completed after 0 iterations at t[s]:   1650.91
	Linear fluid (dielectric constant: 78.4, screening length: 5.74355 Bohr) occupying 0.815567 of unit cell:	Completed after 0 iterations at t[s]:   1656.36
	FillingsUpdate:  mu: -0.190542534  nElectrons: 344.000000
	SubspaceRotationAdjust: set factor to 0.632
ElecMinimize: Iter:  20  F: -2076.557974726496468  |grad|_K:  1.219e-07  alpha:  4.852e-02  linmin: -1.945e-08  t[s]:   1663.17
	Linear fluid (dielectric constant: 78.4, screening length: 5.74355 Bohr) occupying 0.815566 of unit cell:	Completed after 2 iterations at t[s]:   1669.38
	Linear fluid (dielectric constant: 78.4, screening length: 5.74355 Bohr) occupying 0.815566 of unit cell:	Completed after 0 iterations at t[s]:   1675.18
ElecMinimize: 	Step increased F by 5.622041e-09, reducing alpha to 1.562893e-03.
	Linear fluid (dielectric constant: 78.4, screening length: 5.74355 Bohr) occupying 0.815567 of unit cell:	Completed after 0 iterations at t[s]:   1686.73
	FillingsUpdate:  mu: -0.190502046  nElectrons: 344.000000
	SubspaceRotationAdjust: set factor to 0.595
ElecMinimize: Iter:  21  F: -2076.557974734573236  |grad|_K:  8.790e-08  alpha:  1.563e-03  linmin:  3.368e-05  t[s]:   1693.31
	Linear fluid (dielectric constant: 78.4, screening length: 5.74355 Bohr) occupying 0.815567 of unit cell:	Completed after 0 iterations at t[s]:   1699.42
ElecMinimize: 	Wrong curvature in test step, increasing alphaT to 4.688680e-03.
	Linear fluid (dielectric constant: 78.4, screening length: 5.74355 Bohr) occupying 0.815567 of unit cell:	Completed after 0 iterations at t[s]:   1703.22
	FillingsUpdate:  mu: -0.190502064  nElectrons: 344.000000
	SubspaceRotationAdjust: set factor to 0.652
ElecMinimize: Iter:  22  F: -2076.557974736019332  |grad|_K:  8.665e-08  alpha: -1.454e-01  linmin: -6.212e-05  t[s]:   1709.77
ElecMinimize: Converged (|Delta F|<1.000000e-08 for 2 iters).
Setting wave functions to eigenvectors of Hamiltonian
Single-point solvation energy estimate, DeltaF = -0.009809533631142

# Ionic positions in lattice coordinates:
ion Cu   0.084202415917150   0.907728609058582   0.486605903865121 0
ion Cu   0.334212069586201   0.592238295816326   0.513473336437162 0
ion Cu   0.415797577082850   0.092271419941417   0.513404103134879 0
ion Cu   0.165787920413798   0.407761743183674   0.486516655562834 0
ion Cu   0.584202415917150   0.907728609058582   0.486605903865121 0
ion Cu   0.834212069586201   0.592238295816326   0.513473336437162 0
ion Cu   0.915797577082850   0.092271419941417   0.513404103134879 0
ion Cu   0.665787920413798   0.407761743183674   0.486516655562834 0
ion Se   0.191544044633908   0.149524430710110   0.479157360663119 0
ion Se   0.441430829559375   0.350535938195718   0.520906718465678 0
ion Se   0.308445961366096   0.850475550289892   0.520842639336880 0
ion Se   0.058579166940626   0.649474056804282   0.479083217534320 0
ion Se   0.691544044633908   0.149524430710110   0.479157360663119 0
ion Se   0.941430829559375   0.350535938195718   0.520906718465678 0
ion Se   0.808445961366096   0.850475550289892   0.520842639336880 0
ion Se   0.558579166940626   0.649474056804282   0.479083217534320 0
ion O   0.483312027311609   0.589240761992253   0.554325683899759 0
ion O   0.233148752958809   0.910732779269435   0.445615063563185 0
ion O   0.016697979188393   0.410749243007748   0.445664309100241 0
ion O   0.266841253041192   0.089257235730566   0.554394916436817 0
ion O   0.181876111969415   0.566455429973000   0.483873799976836 0
ion O   0.431769015654459   0.933633636604683   0.515995885781611 0
ion O   0.318123888030585   0.433544570027000   0.516126200023164 0
ion O   0.068230981845542   0.066366358395313   0.484004114218389 0
ion O   0.140771138798264   0.262889860845528   0.527534587710162 0
ion O   0.390645214826859   0.237171260053674   0.472495099915371 0
ion O   0.359228861201736   0.737110139154472   0.472465356289840 0
ion O   0.109344746673143   0.762838714946331   0.527524915084626 0
ion O   0.983312027311609   0.589240761992253   0.554325683899759 0
ion O   0.733148752958809   0.910732779269435   0.445615063563185 0
ion O   0.516697979188393   0.410749243007748   0.445664309100241 0
ion O   0.766841253041192   0.089257235730566   0.554394916436817 0
ion O   0.681876111969415   0.566455429973000   0.483873799976836 0
ion O   0.931769015654459   0.933633636604683   0.515995885781611 0
ion O   0.818123888030585   0.433544570027000   0.516126200023164 0
ion O   0.568230981845542   0.066366358395313   0.484004114218389 0
ion O   0.640771138798264   0.262889860845528   0.527534587710162 0
ion O   0.890645214826859   0.237171260053674   0.472495099915371 0
ion O   0.859228861201736   0.737110139154472   0.472465356289840 0
ion O   0.609344746673143   0.762838714946331   0.527524915084626 0


# Forces in Lattice coordinates:
force Cu  -0.035958709097923   0.030689644742706  -0.024183322295579 0
force Cu  -0.029998495140155  -0.030260790818428   0.023961370365651 0
force Cu   0.035056471538217  -0.030411513826312   0.024078816792500 0
force Cu   0.031059375228008   0.029852549281141  -0.023960968629545 0
force Cu  -0.035958709097923   0.030689644742706  -0.024183322295579 0
force Cu  -0.029998495140155  -0.030260790818428   0.023961370365651 0
force Cu   0.035056471538217  -0.030411513826312   0.024078816792500 0
force Cu   0.031059375228008   0.029852549281141  -0.023960968629545 0
force Se  -0.061505142476920  -0.033601828514584   0.036490776681822 0
force Se  -0.058512749925843   0.026701410146641  -0.034450299072237 0
force Se   0.063842569898190   0.032494253480288  -0.034673220629184 0
force Se   0.057184077692653  -0.026385179486381   0.037938641190548 0
force Se  -0.061505142476920  -0.033601828514584   0.036490776681822 0
force Se  -0.058512749925843   0.026701410146641  -0.034450299072237 0
force Se   0.063842569898190   0.032494253480288  -0.034673220629184 0
force Se   0.057184077692653  -0.026385179486381   0.037938641190548 0
force O   0.051241090189842   0.030422676906707  -0.031175804964764 0
force O   0.058476688489577  -0.030977408484206   0.028995622509171 0
force O  -0.054922870905475  -0.029713513446202   0.025856991982614 0
force O  -0.056609456127578   0.031838443060239  -0.033238945391780 0
force O  -0.095544653611077   0.083669365839934  -0.018573287137247 0
force O  -0.099522793738170  -0.087343236037788   0.019676911761805 0
force O   0.099940461926230  -0.077557900052231   0.020128779827092 0
force O   0.096422211668179   0.090657640902482  -0.018574289646407 0
force O   0.011982805888644  -0.066290683519859   0.003127986600688 0
force O   0.015200342678111   0.063376853118472   0.000662565065490 0
force O  -0.012942433490327   0.063310852268473   0.000720400314194 0
force O  -0.015025144670476  -0.066543914156932   0.000394288012348 0
force O   0.051241090189842   0.030422676906707  -0.031175804964764 0
force O   0.058476688489577  -0.030977408484206   0.028995622509171 0
force O  -0.054922870905475  -0.029713513446202   0.025856991982614 0
force O  -0.056609456127578   0.031838443060239  -0.033238945391780 0
force O  -0.095544653611077   0.083669365839934  -0.018573287137247 0
force O  -0.099522793738170  -0.087343236037788   0.019676911761805 0
force O   0.099940461926230  -0.077557900052231   0.020128779827092 0
force O   0.096422211668179   0.090657640902482  -0.018574289646407 0
force O   0.011982805888644  -0.066290683519859   0.003127986600688 0
force O   0.015200342678111   0.063376853118472   0.000662565065490 0
force O  -0.012942433490327   0.063310852268473   0.000720400314194 0
force O  -0.015025144670476  -0.066543914156932   0.000394288012348 0

# Energy components:
   A_diel =       -0.0131964794446937
   Eewald =     5642.5734715034186593
       EH =     7482.7048786622781336
     Eloc =   -15675.6188406712190044
      Enl =      369.1207067889745304
      Exc =     -360.9646088377459137
 Exc_core =       99.7633809028906171
       KE =      365.9146418335038220
-------------------------------------
     Etot =    -2076.5195662973433173
       TS =        0.0384084386759314
-------------------------------------
        F =    -2076.5579747360193323

IonicMinimize: Iter:   0  F: -2076.557974736019332  |grad|_K:  0.000e+00  t[s]:   1714.76
IonicMinimize: Converged (|grad|_K<1.000000e-04).

#--- Lowdin population analysis ---
# oxidation-state Cu +0.345 +0.346 +0.345 +0.345 +0.345 +0.346 +0.345 +0.345
# oxidation-state Se +1.637 +1.637 +1.637 +1.637 +1.637 +1.637 +1.637 +1.637
# oxidation-state O -0.592 -0.592 -0.593 -0.592 -0.475 -0.475 -0.475 -0.475 -0.602 -0.602 -0.602 -0.602 -0.592 -0.592 -0.593 -0.592 -0.475 -0.475 -0.475 -0.475 -0.602 -0.602 -0.602 -0.602


Dumping 'NbTe2.fillings' ... done
Dumping 'NbTe2.wfns' ... done
Dumping 'NbTe2.fluidState' ... done
Dumping 'NbTe2.eigenvals' ... done
End date and time: Tue Jul 14 15:02:42 2020  (Duration: 0-0:28:37.73)
Done!
