
*************** JDFTx 1.5.0  ***************

Start date and time: Thu Apr  1 14:21:52 2021
Executable jdftx_gpu with command-line: -i Charged.in -o Charged.out
Running on hosts (process indices):  amax (0-6)
Divided in process groups (process indices):  0 (0)  1 (1)  2 (2)  3 (3)  4 (4)  5 (5)  6 (6)
gpuInit: Found compatible cuda device 0 'Tesla K80'
gpuInit: Found compatible cuda device 1 'Tesla K80'
gpuInit: Found compatible cuda device 2 'Tesla K80'
gpuInit: Found compatible cuda device 3 'Tesla K80'
gpuInit: Found compatible cuda device 4 'Tesla K80'
gpuInit: Found compatible cuda device 5 'Tesla K80'
gpuInit: Found compatible cuda device 6 'Tesla K80'
gpuInit: Selected device 0
Resource initialization completed at t[s]:      3.63
Run totals: 7 processes, 24 threads, 7 GPUs


Input parsed successfully to the following command list (including defaults):

basis kpoint-dependent
cache-projectors no
coords-type Lattice
core-overlap-check none
coulomb-interaction Slab 001
coulomb-truncation-embed 0.5 0.5 0.5
davidson-band-ratio 1.1
dump End State
dump-name NbTe2.$VAR
elec-cutoff 20
elec-eigen-algo Davidson
elec-ex-corr gga-PBE
elec-initial-charge 1.000000
elec-smearing Gauss 0.0073499
electronic-minimize  \
	dirUpdateScheme      FletcherReeves \
	linminMethod         DirUpdateRecommended \
	nIterations          200 \
	history              15 \
	knormThreshold       0 \
	energyDiffThreshold  1e-08 \
	nEnergyDiff          2 \
	alphaTstart          1 \
	alphaTmin            1e-10 \
	updateTestStepSize   yes \
	alphaTreduceFactor   0.1 \
	alphaTincreaseFactor 3 \
	nAlphaAdjustMax      3 \
	wolfeEnergy          0.0001 \
	wolfeGradient        0.9 \
	fdTest               no
exchange-regularization WignerSeitzTruncated
fluid LinearPCM 298.000000 1.013250
fluid-anion F- 1 MeanFieldLJ \
	epsBulk 1 \
	pMol 0 \
	epsInf 1 \
	Pvap 0 \
	sigmaBulk 0 \
	Rvdw 2.24877 \
	Res 0 \
	tauNuc 343133
fluid-cation Na+ 1 MeanFieldLJ \
	epsBulk 1 \
	pMol 0 \
	epsInf 1 \
	Pvap 0 \
	sigmaBulk 0 \
	Rvdw 2.19208 \
	Res 0 \
	tauNuc 343133
fluid-ex-corr lda-TF lda-PZ
fluid-gummel-loop 10 1.000000e-05
fluid-minimize  \
	dirUpdateScheme      PolakRibiere \
	linminMethod         DirUpdateRecommended \
	nIterations          400 \
	history              15 \
	knormThreshold       1e-11 \
	energyDiffThreshold  0 \
	nEnergyDiff          2 \
	alphaTstart          1 \
	alphaTmin            1e-10 \
	updateTestStepSize   yes \
	alphaTreduceFactor   0.1 \
	alphaTincreaseFactor 3 \
	nAlphaAdjustMax      6 \
	wolfeEnergy          0.0001 \
	wolfeGradient        0.9 \
	fdTest               no
fluid-solvent H2O 55.338 ScalarEOS \
	epsBulk 78.4 \
	pMol 0.92466 \
	epsInf 1.77 \
	Pvap 1.06736e-10 \
	sigmaBulk 4.62e-05 \
	Rvdw 2.61727 \
	Res 1.42 \
	tauNuc 343133 \
	poleEl 15 7 1
forces-output-coords Positions
initial-state NbTe2.$VAR
ion C   0.167454248459894   0.083932301100728   0.557295694344403 1
ion C   0.084168255733299   0.167283603018563   0.442712607455854 1
ion C   0.417454248459894   0.083932301100728   0.557295694344403 1
ion C   0.334168255733299   0.167283603018563   0.442712607455854 1
ion C   0.667454248459894   0.083932301100728   0.557295694344403 1
ion C   0.584168255733299   0.167283603018563   0.442712607455854 1
ion C   0.917454248459894   0.083932301100728   0.557295694344403 1
ion C   0.834168255733299   0.167283603018563   0.442712607455854 1
ion C   0.167454248459894   0.333932301100728   0.557295694344403 1
ion C   0.084168255733299   0.417283603018563   0.442712607455854 1
ion C   0.417454248459894   0.333932301100728   0.557295694344403 1
ion C   0.334168255733299   0.417283603018563   0.442712607455854 1
ion C   0.667454248459894   0.333932301100728   0.557295694344403 1
ion C   0.584168255733299   0.417283603018563   0.442712607455854 1
ion C   0.917454248459894   0.333932301100728   0.557295694344403 1
ion C   0.834168255733299   0.417283603018563   0.442712607455854 1
ion C   0.167454248459894   0.583932301100728   0.557295694344403 1
ion C   0.084168255733299   0.667283603018563   0.442712607455854 1
ion C   0.417454248459894   0.583932301100728   0.557295694344403 1
ion C   0.334168255733299   0.667283603018563   0.442712607455854 1
ion C   0.667454248459894   0.583932301100728   0.557295694344403 1
ion C   0.584168255733299   0.667283603018563   0.442712607455854 1
ion C   0.917454248459894   0.583932301100728   0.557295694344403 1
ion C   0.834168255733299   0.667283603018563   0.442712607455854 1
ion C   0.167454248459894   0.833932301100728   0.557295694344403 1
ion C   0.084168255733299   0.917283603018563   0.442712607455854 1
ion C   0.417454248459894   0.833932301100728   0.557295694344403 1
ion C   0.334168255733299   0.917283603018563   0.442712607455854 1
ion C   0.667454248459894   0.833932301100728   0.557295694344403 1
ion C   0.584168255733299   0.917283603018563   0.442712607455854 1
ion C   0.917454248459894   0.833932301100728   0.557295694344403 1
ion C   0.834168255733299   0.917283603018563   0.442712607455854 1
ion Ti   0.000707133590249   0.000528530881105   0.500005673079691 1
ion Ti   0.084056284511458   0.167207045170162   0.617113083023031 1
ion Ti   0.167466284317293   0.083935586185678   0.382892326537440 1
ion Ti   0.250707133590249   0.000528530881105   0.500005673079691 1
ion Ti   0.334056284511458   0.167207045170162   0.617113083023031 1
ion Ti   0.417466284317293   0.083935586185678   0.382892326537440 1
ion Ti   0.500707133590249   0.000528530881105   0.500005673079691 1
ion Ti   0.584056284511458   0.167207045170162   0.617113083023031 1
ion Ti   0.667466284317293   0.083935586185678   0.382892326537440 1
ion Ti   0.750707133590249   0.000528530881105   0.500005673079691 1
ion Ti   0.834056284511458   0.167207045170162   0.617113083023031 1
ion Ti   0.917466284317293   0.083935586185678   0.382892326537440 1
ion Ti   0.000707133590249   0.250528530881105   0.500005673079691 1
ion Ti   0.084056284511458   0.417207045170162   0.617113083023031 1
ion Ti   0.167466284317293   0.333935586185677   0.382892326537440 1
ion Ti   0.250707133590249   0.250528530881105   0.500005673079691 1
ion Ti   0.334056284511458   0.417207045170162   0.617113083023031 1
ion Ti   0.417466284317293   0.333935586185677   0.382892326537440 1
ion Ti   0.500707133590249   0.250528530881105   0.500005673079691 1
ion Ti   0.584056284511458   0.417207045170162   0.617113083023031 1
ion Ti   0.667466284317293   0.333935586185677   0.382892326537440 1
ion Ti   0.750707133590249   0.250528530881105   0.500005673079691 1
ion Ti   0.834056284511458   0.417207045170162   0.617113083023031 1
ion Ti   0.917466284317293   0.333935586185677   0.382892326537440 1
ion Ti   0.000707133590249   0.500528530881105   0.500005673079691 1
ion Ti   0.084056284511458   0.667207045170162   0.617113083023031 1
ion Ti   0.167466284317293   0.583935586185678   0.382892326537440 1
ion Ti   0.250707133590249   0.500528530881105   0.500005673079691 1
ion Ti   0.334056284511458   0.667207045170162   0.617113083023031 1
ion Ti   0.417466284317293   0.583935586185678   0.382892326537440 1
ion Ti   0.500707133590249   0.500528530881105   0.500005673079691 1
ion Ti   0.584056284511458   0.667207045170162   0.617113083023031 1
ion Ti   0.667466284317293   0.583935586185678   0.382892326537440 1
ion Ti   0.750707133590249   0.500528530881105   0.500005673079691 1
ion Ti   0.834056284511458   0.667207045170162   0.617113083023031 1
ion Ti   0.917466284317293   0.583935586185678   0.382892326537440 1
ion Ti   0.000707133590249   0.750528530881105   0.500005673079691 1
ion Ti   0.084056284511458   0.917207045170162   0.617113083023031 1
ion Ti   0.167466284317293   0.833935586185678   0.382892326537440 1
ion Ti   0.250707133590249   0.750528530881105   0.500005673079691 1
ion Ti   0.334056284511458   0.917207045170162   0.617113083023031 1
ion Ti   0.417466284317293   0.833935586185678   0.382892326537440 1
ion Ti   0.500707133590249   0.750528530881105   0.500005673079691 1
ion Ti   0.584056284511458   0.917207045170162   0.617113083023031 1
ion Ti   0.667466284317293   0.833935586185678   0.382892326537440 1
ion Ti   0.750707133590249   0.750528530881105   0.500005673079691 1
ion Ti   0.834056284511458   0.917207045170162   0.617113083023031 1
ion Ti   0.917466284317293   0.833935586185678   0.382892326537440 1
ion O   0.000765137994074   0.000604888857194   0.659136780199781 1
ion O   0.000942736956232   0.000667975036571   0.340873800359799 1
ion O   0.250765137994074   0.000604888857194   0.659136780199781 1
ion O   0.250942736956232   0.000667975036571   0.340873800359799 1
ion O   0.500765137994074   0.000604888857194   0.659136780199781 1
ion O   0.500942736956232   0.000667975036571   0.340873800359799 1
ion O   0.750765137994074   0.000604888857194   0.659136780199781 1
ion O   0.750942736956232   0.000667975036571   0.340873800359799 1
ion O   0.000765137994074   0.250604888857194   0.659136780199781 1
ion O   0.000942736956232   0.250667975036571   0.340873800359799 1
ion O   0.250765137994074   0.250604888857194   0.659136780199781 1
ion O   0.250942736956232   0.250667975036571   0.340873800359799 1
ion O   0.500765137994074   0.250604888857194   0.659136780199781 1
ion O   0.500942736956232   0.250667975036571   0.340873800359799 1
ion O   0.750765137994074   0.250604888857194   0.659136780199781 1
ion O   0.750942736956232   0.250667975036571   0.340873800359799 1
ion O   0.000765137994074   0.500604888857194   0.659136780199781 1
ion O   0.000942736956232   0.500667975036570   0.340873800359799 1
ion O   0.250765137994074   0.500604888857194   0.659136780199781 1
ion O   0.250942736956232   0.500667975036570   0.340873800359799 1
ion O   0.500765137994074   0.500604888857194   0.659136780199781 1
ion O   0.500942736956232   0.500667975036570   0.340873800359799 1
ion O   0.750765137994074   0.500604888857194   0.659136780199781 1
ion O   0.750942736956232   0.500667975036570   0.340873800359799 1
ion O   0.000765137994074   0.750604888857194   0.659136780199781 1
ion O   0.000942736956232   0.750667975036570   0.340873800359799 1
ion O   0.250765137994074   0.750604888857194   0.659136780199781 1
ion O   0.250942736956232   0.750667975036570   0.340873800359799 1
ion O   0.500765137994074   0.750604888857194   0.659136780199781 1
ion O   0.500942736956232   0.750667975036570   0.340873800359799 1
ion O   0.750765137994074   0.750604888857194   0.659136780199781 1
ion O   0.750942736956232   0.750667975036570   0.340873800359799 1
ion-species GBRV/$ID_pbe.uspp
ion-width Ecut
ionic-minimize  \
	dirUpdateScheme      L-BFGS \
	linminMethod         DirUpdateRecommended \
	nIterations          500 \
	history              15 \
	knormThreshold       0.0001 \
	energyDiffThreshold  1e-06 \
	nEnergyDiff          2 \
	alphaTstart          1 \
	alphaTmin            1e-10 \
	updateTestStepSize   yes \
	alphaTreduceFactor   0.1 \
	alphaTincreaseFactor 3 \
	nAlphaAdjustMax      3 \
	wolfeEnergy          0.0001 \
	wolfeGradient        0.9 \
	fdTest               no
kpoint   0.000000000000   0.000000000000   0.000000000000  1.00000000000000
kpoint-folding 3 3 1 
latt-move-scale 1 1 1
latt-scale 1.88973 1.88973 1.88973 
lattice Triclinic 12.0174 12.0182 21.9917 90 90 119.998
lattice-minimize  \
	dirUpdateScheme      L-BFGS \
	linminMethod         DirUpdateRecommended \
	nIterations          0 \
	history              15 \
	knormThreshold       0 \
	energyDiffThreshold  1e-06 \
	nEnergyDiff          2 \
	alphaTstart          1 \
	alphaTmin            1e-10 \
	updateTestStepSize   yes \
	alphaTreduceFactor   0.1 \
	alphaTincreaseFactor 3 \
	nAlphaAdjustMax      3 \
	wolfeEnergy          0.0001 \
	wolfeGradient        0.9 \
	fdTest               no
lcao-params -1 1e-06 0.0073499
pcm-variant CANDLE
spintype no-spin
subspace-rotation-factor 1 yes
symmetries automatic
symmetry-threshold 0.0001



---------- Setting up symmetries ----------

Found 24 point-group symmetries of the bravais lattice
Found 16 space-group symmetries with basis
Applied RMS atom displacement 5.64462e-15 bohrs to make symmetries exact.

---------- Initializing the Grid ----------
R = 
[    22.7096   -11.3548          0  ]
[          0    19.6688          0  ]
[          0          0    41.5583  ]
unit cell volume = 18562.9
G =
[   0.276675   0.159724         -0  ]
[          0   0.319449          0  ]
[          0         -0    0.15119  ]
Minimum fftbox size, Smin = [  92  92  168  ]
Chosen fftbox size, S = [  96  96  168  ]

---------- Exchange Correlation functional ----------
Initalized PBE GGA exchange.
Initalized PBE GGA correlation.

---------- Setting up pseudopotentials ----------
Width of ionic core gaussian charges (only for fluid interactions / plotting) set to 0.397384

Reading pseudopotential file '/home/guoxy/vasp/jdftx-1.5.0/build/pseudopotentials/GBRV/c_pbe.uspp':
  Title: C.  Created by USPP 7.3.6 on 3-2-2014
  Reference state energy: -5.406344.  4 valence electrons in orbitals:
    |200>  occupation: 2  eigenvalue: -0.504890
    |210>  occupation: 2  eigenvalue: -0.194356
  lMax: 1  lLocal: 2  QijEcut: 5
  4 projectors sampled on a log grid with 503 points:
    l: 0  eig: -0.504890  rCut: 1.3
    l: 0  eig: 0.000000  rCut: 1.3
    l: 1  eig: -0.194357  rCut: 1.3
    l: 1  eig: 0.000000  rCut: 1.3
  Partial core density with radius 1.1
  Transforming core density to a uniform radial grid of dG=0.02 with 1477 points.
  Transforming local potential to a uniform radial grid of dG=0.02 with 1477 points.
  Transforming nonlocal projectors to a uniform radial grid of dG=0.02 with 432 points.
  Transforming density augmentations to a uniform radial grid of dG=0.02 with 1477 points.
  Transforming atomic orbitals to a uniform radial grid of dG=0.02 with 432 points.
  Core radius for overlap checks: 1.30 bohrs.

Reading pseudopotential file '/home/guoxy/vasp/jdftx-1.5.0/build/pseudopotentials/GBRV/ti_pbe.uspp':
  Title: Ti.  Created by USPP 7.3.6 on 31-3-15
  Reference state energy: -59.020943.  12 valence electrons in orbitals:
    |300>  occupation: 2  eigenvalue: -2.777623
    |310>  occupation: 6  eigenvalue: -1.894596
    |400>  occupation: 2  eigenvalue: -0.438610
    |320>  occupation: 1  eigenvalue: -0.583119
  lMax: 2  lLocal: 3  QijEcut: 6
  6 projectors sampled on a log grid with 597 points:
    l: 0  eig: -2.777624  rCut: 1.8
    l: 0  eig: -0.438611  rCut: 1.8
    l: 1  eig: -1.894596  rCut: 1.8
    l: 1  eig: 0.500000  rCut: 1.8
    l: 2  eig: -0.583118  rCut: 1.8
    l: 2  eig: 0.150000  rCut: 1.8
  Partial core density with radius 0.8
  Transforming core density to a uniform radial grid of dG=0.02 with 1477 points.
  Transforming local potential to a uniform radial grid of dG=0.02 with 1477 points.
  Transforming nonlocal projectors to a uniform radial grid of dG=0.02 with 432 points.
  Transforming density augmentations to a uniform radial grid of dG=0.02 with 1477 points.
  Transforming atomic orbitals to a uniform radial grid of dG=0.02 with 432 points.
  Core radius for overlap checks: 1.80 bohrs.

Reading pseudopotential file '/home/guoxy/vasp/jdftx-1.5.0/build/pseudopotentials/GBRV/o_pbe.uspp':
  Title: O.  Created by USPP 7.3.6 on 3-2-2014
  Reference state energy: -15.894388.  6 valence electrons in orbitals:
    |200>  occupation: 2  eigenvalue: -0.878823
    |210>  occupation: 4  eigenvalue: -0.332131
  lMax: 2  lLocal: 2  QijEcut: 6
  5 projectors sampled on a log grid with 511 points:
    l: 0  eig: -0.878823  rCut: 1.25
    l: 0  eig: 0.000000  rCut: 1.25
    l: 1  eig: -0.332132  rCut: 1.25
    l: 1  eig: 0.000000  rCut: 1.25
    l: 2  eig: 1.000000  rCut: 1.25
  Partial core density with radius 0.7
  Transforming core density to a uniform radial grid of dG=0.02 with 1477 points.
  Transforming local potential to a uniform radial grid of dG=0.02 with 1477 points.
  Transforming nonlocal projectors to a uniform radial grid of dG=0.02 with 432 points.
  Transforming density augmentations to a uniform radial grid of dG=0.02 with 1477 points.
  Transforming atomic orbitals to a uniform radial grid of dG=0.02 with 432 points.
  Core radius for overlap checks: 1.25 bohrs.

Initialized 3 species with 112 total atoms.

Folded 1 k-points by 3x3x1 to 9 k-points.

---------- Setting up k-points, bands, fillings ----------
Adding inversion symmetry to k-mesh for non-inversion-symmetric unit cell.
Reduced to 5 k-points under symmetry. 
Computing the number of bands and number of electrons
Calculating initial fillings.
nElectrons: 897.000000   nBands: 736   nStates: 5

----- Setting up reduced wavefunction bases (one per k-point) -----
average nbasis = 79305.444 , ideal nbasis = 79302.148

---------- Setting up coulomb interaction ----------
Fluid mode embedding: using embedded box, but periodic Coulomb kernel.
(Fluid response is responsible for (approximate) separation between periodic images.)
Setting up double-sized grid for truncated Coulomb potentials:
R = 
[    22.7096   -11.3548          0  ]
[          0    19.6688          0  ]
[          0          0    83.1166  ]
unit cell volume = 37125.8
G =
[   0.276675   0.159724         -0  ]
[          0   0.319449          0  ]
[          0         -0  0.0755949  ]
Chosen fftbox size, S = [  96  96  336  ]
Integer grid location selected as the embedding center:
   Grid: [  48  48  84  ]
   Lattice: [  0.5  0.5  0.5  ]
   Cartesian: [  5.67742  9.83442  20.7791  ]
Constructing Wigner-Seitz cell: 8 faces (6 quadrilaterals, 2 hexagons)
Range-separation parameter for embedded mesh potentials due to point charges: 0.627457 bohrs.

Initializing van der Waals corrections
	NOTE: vdW corrections apply only for interactions with fluid.
	 C:  C6:   30.35 Eh-a0^6  R0: 2.744 a0
	Ti:  C6:  187.33 Eh-a0^6  R0: 2.952 a0
	 O:  C6:   12.14 Eh-a0^6  R0: 2.536 a0

---------- Setting up ewald sum ----------
Optimum gaussian width for ewald sums = 6.061764 bohr.
Real space sum over 405 unit cells with max indices [  4  4  2  ]
Reciprocal space sum over 10125 terms with max indices [  7  7  22  ]

---------- Allocating electronic variables ----------
Initializing wave functions:  linear combination of atomic orbitals
C pseudo-atom occupations:   s ( 2 )  p ( 2 )
Ti pseudo-atom occupations:   s ( 2 0 )  p ( 6 )  d ( 4 )
O pseudo-atom occupations:   s ( 2 )  p ( 4 )
	FillingsUpdate:  mu: +4.337139305  nElectrons: 897.000000
LCAOMinimize: Iter:   0  F: -2663.4936229428876686  |grad|_K:  3.226e-02  alpha:  1.000e+00
	FillingsUpdate:  mu: -2.051369033  nElectrons: 897.000000
LCAOMinimize: Iter:   1  F: -2971.5471652586029450  |grad|_K:  5.898e-02  alpha:  4.841e-01  linmin:  5.986e-02  cgtest: -4.960e-01  t[s]:    219.34
LCAOMinimize: 	Bad step direction: g.d > 0.
LCAOMinimize: 	Undoing step.
LCAOMinimize: 	Step failed: resetting search direction.
	FillingsUpdate:  mu: -2.051369033  nElectrons: 897.000000
LCAOMinimize: Iter:   2  F: -2971.5471652586029450  |grad|_K:  5.898e-02  alpha:  0.000e+00
	FillingsUpdate:  mu: -1.174277512  nElectrons: 897.000000
LCAOMinimize: Iter:   3  F: -3331.1161916065343576  |grad|_K:  2.938e-02  alpha:  1.111e-01  linmin:  1.981e-04  cgtest: -1.745e-01  t[s]:    329.34
	FillingsUpdate:  mu: -0.728769325  nElectrons: 897.000000
LCAOMinimize: Iter:   4  F: -3443.8805202616103998  |grad|_K:  5.784e-03  alpha:  9.932e-02  linmin: -1.172e-01  cgtest: -1.312e-01  t[s]:    392.88
LCAOMinimize: 	Wrong curvature in test step, increasing alphaT to 2.979686e-01.
	FillingsUpdate:  mu: -0.594537454  nElectrons: 897.000000
LCAOMinimize: Iter:   5  F: -3454.8454839530218123  |grad|_K:  5.966e-03  alpha: -5.741e-01  linmin: -1.536e-01  cgtest:  7.781e-01  t[s]:    455.67
	FillingsUpdate:  mu: -0.461271500  nElectrons: 897.000000
LCAOMinimize: Iter:   6  F: -3462.0819218625156282  |grad|_K:  5.333e-03  alpha:  6.022e-02  linmin: -2.147e-01  cgtest:  9.400e-01  t[s]:    519.37
LCAOMinimize: Encountered beta<0, resetting CG.
LCAOMinimize: 	Wrong curvature in test step, increasing alphaT to 1.806450e-01.
	FillingsUpdate:  mu: -0.347120628  nElectrons: 897.000000
LCAOMinimize: Iter:   7  F: -3467.3341212200875816  |grad|_K:  5.104e-03  alpha: -2.326e-01  linmin: -1.671e-01  cgtest:  9.095e-01  t[s]:    581.88
	FillingsUpdate:  mu: -0.327727477  nElectrons: 897.000000
LCAOMinimize: Iter:   8  F: -3471.2888385276119152  |grad|_K:  4.815e-03  alpha:  5.373e-02  linmin: -2.811e-01  cgtest:  9.358e-01  t[s]:    646.09
LCAOMinimize: 	Wrong curvature in test step, increasing alphaT to 1.611902e-01.
	FillingsUpdate:  mu: -0.318582794  nElectrons: 897.000000
LCAOMinimize: Iter:   9  F: -3474.7899011012455048  |grad|_K:  4.652e-03  alpha: -1.024e+00  linmin: -2.878e-01  cgtest:  9.138e-01  t[s]:    708.51
	FillingsUpdate:  mu: -0.309827530  nElectrons: 897.000000
LCAOMinimize: Iter:  10  F: -3478.0931583442529700  |grad|_K:  4.483e-03  alpha:  5.177e-02  linmin: -3.007e-01  cgtest:  9.108e-01  t[s]:    772.75
LCAOMinimize: 	Wrong curvature in test step, increasing alphaT to 1.553191e-01.
	FillingsUpdate:  mu: -0.296868107  nElectrons: 897.000000
LCAOMinimize: Iter:  11  F: -3481.1695032894681390  |grad|_K:  4.304e-03  alpha: -9.902e-01  linmin: -3.143e-01  cgtest:  9.086e-01  t[s]:    836.14
	FillingsUpdate:  mu: -0.277485783  nElectrons: 897.000000
LCAOMinimize: Iter:  12  F: -3483.8897187604452483  |grad|_K:  4.112e-03  alpha:  4.988e-02  linmin: -3.274e-01  cgtest:  9.112e-01  t[s]:    900.41
LCAOMinimize: 	Wrong curvature in test step, increasing alphaT to 1.496470e-01.
	FillingsUpdate:  mu: -0.249906801  nElectrons: 897.000000
LCAOMinimize: Iter:  13  F: -3486.3412902752247646  |grad|_K:  3.891e-03  alpha: -1.383e+00  linmin: -3.426e-01  cgtest:  9.124e-01  t[s]:    963.35
	FillingsUpdate:  mu: -0.216756660  nElectrons: 897.000000
LCAOMinimize: Iter:  14  F: -3488.3497700575894669  |grad|_K:  3.651e-03  alpha:  4.657e-02  linmin: -3.573e-01  cgtest:  9.211e-01  t[s]:   1027.42
LCAOMinimize: 	Wrong curvature in test step, increasing alphaT to 1.397130e-01.
	FillingsUpdate:  mu: -0.178552553  nElectrons: 897.000000
LCAOMinimize: Iter:  15  F: -3490.0698805599208754  |grad|_K:  3.375e-03  alpha: -2.984e+01  linmin: -3.718e-01  cgtest:  9.256e-01  t[s]:   1089.79
LCAOMinimize: Encountered beta<0, resetting CG.
	FillingsUpdate:  mu: -0.143331311  nElectrons: 897.000000
LCAOMinimize: Iter:  16  F: -3491.3307053038815866  |grad|_K:  3.106e-03  alpha:  4.111e-02  linmin: -3.831e-01  cgtest:  9.396e-01  t[s]:   1153.86
LCAOMinimize: Encountered beta<0, resetting CG.
LCAOMinimize: 	Predicted alpha/alphaT>3.000000, increasing alphaT to 1.233212e-01.
LCAOMinimize: 	Predicted alpha/alphaT>3.000000, increasing alphaT to 3.699636e-01.
	FillingsUpdate:  mu: +0.012133956  nElectrons: 897.000000
LCAOMinimize: Iter:  17  F: -3494.9580113036654438  |grad|_K:  1.384e-03  alpha:  1.628e-01  linmin: -4.222e-01  cgtest:  7.609e-01  t[s]:   1253.40
LCAOMinimize: Encountered beta<0, resetting CG.
	FillingsUpdate:  mu: +0.106980867  nElectrons: 897.000000
LCAOMinimize: Iter:  18  F: -3495.4942632989632330  |grad|_K:  4.537e-04  alpha:  2.303e-01  linmin:  3.592e-01  cgtest: -6.827e-01  t[s]:   1317.04
	FillingsUpdate:  mu: +0.108594505  nElectrons: 897.000000
LCAOMinimize: Iter:  19  F: -3495.4951006038304513  |grad|_K:  4.572e-04  alpha:  3.257e-02  linmin: -2.002e-03  cgtest:  9.831e-01  t[s]:   1380.79
LCAOMinimize: 	Predicted alpha/alphaT>3.000000, increasing alphaT to 9.769936e-02.
	FillingsUpdate:  mu: +0.085483609  nElectrons: 897.000000
LCAOMinimize: Iter:  20  F: -3495.5457471561421698  |grad|_K:  2.033e-04  alpha:  1.756e-01  linmin: -3.228e-02  cgtest:  4.774e-02  t[s]:   1462.58
	FillingsUpdate:  mu: +0.086611669  nElectrons: 897.000000
LCAOMinimize: Iter:  21  F: -3495.5520386436937770  |grad|_K:  1.795e-04  alpha:  1.090e-01  linmin:  9.252e-05  cgtest: -3.863e-02  t[s]:   1526.80
LCAOMinimize: 	Predicted alpha/alphaT>3.000000, increasing alphaT to 3.271395e-01.
	FillingsUpdate:  mu: +0.096997979  nElectrons: 897.000000
LCAOMinimize: Iter:  22  F: -3495.5672090145781112  |grad|_K:  1.041e-04  alpha:  3.472e-01  linmin:  1.679e-03  cgtest:  1.414e-01  t[s]:   1609.37
	FillingsUpdate:  mu: +0.093254551  nElectrons: 897.000000
LCAOMinimize: Iter:  23  F: -3495.5687823261923768  |grad|_K:  2.893e-05  alpha:  1.053e-01  linmin: -1.553e-02  cgtest:  7.069e-02  t[s]:   1673.12
	FillingsUpdate:  mu: +0.093834129  nElectrons: 897.000000
LCAOMinimize: Iter:  24  F: -3495.5689670616261537  |grad|_K:  3.169e-05  alpha:  1.610e-01  linmin:  8.344e-04  cgtest: -1.147e-02  t[s]:   1736.97
	FillingsUpdate:  mu: +0.094898976  nElectrons: 897.000000
LCAOMinimize: Iter:  25  F: -3495.5691580003340277  |grad|_K:  1.593e-05  alpha:  1.405e-01  linmin:  4.417e-04  cgtest:  3.694e-02  t[s]:   1801.16
	FillingsUpdate:  mu: +0.094145044  nElectrons: 897.000000
LCAOMinimize: Iter:  26  F: -3495.5692415531029837  |grad|_K:  5.276e-06  alpha:  2.427e-01  linmin: -2.721e-04  cgtest: -7.512e-04  t[s]:   1865.29
	FillingsUpdate:  mu: +0.094347648  nElectrons: 897.000000
LCAOMinimize: Iter:  27  F: -3495.5692451858071763  |grad|_K:  2.697e-06  alpha:  9.613e-02  linmin:  1.729e-04  cgtest: -1.456e-03  t[s]:   1929.17
	FillingsUpdate:  mu: +0.094435629  nElectrons: 897.000000
LCAOMinimize: Iter:  28  F: -3495.5692461607859514  |grad|_K:  1.581e-06  alpha:  9.874e-02  linmin: -6.950e-05  cgtest:  1.292e-03  t[s]:   1994.04
	FillingsUpdate:  mu: +0.094396472  nElectrons: 897.000000
LCAOMinimize: Iter:  29  F: -3495.5692468807815203  |grad|_K:  1.130e-06  alpha:  2.123e-01  linmin:  1.402e-04  cgtest: -1.031e-03  t[s]:   2058.03
LCAOMinimize: Converged (|Delta F|<1.000000e-06 for 2 iters).
----- createFluidSolver() ----- (Fluid-side solver setup)
   Initializing fluid molecule 'H2O'
     Initializing site 'O'
       Electron density: proportional to exp(-r/0.36935)*erfc((r-0.51523)/0.36823) with norm 6.826
       Charge density: gaussian nuclear width 0.478731 with net site charge 0.826
       Polarizability: cuspless exponential with width 0.32 and norm 3.73
       Hard sphere radius: 2.57003 bohrs
       Positions in reference frame:
         [ +0.000000 +0.000000 +0.000000 ]
     Initializing site 'H'
       Electron density: proportional to exp(-r/0.34641)*erfc((r-0)/0.390882) with norm 0.587
       Charge density: gaussian nuclear width 0.377945 with net site charge -0.413
       Polarizability: cuspless exponential with width 0.39 and norm 3.3
       Positions in reference frame:
         [ +0.000000 -1.441945 +1.122523 ]
         [ +0.000000 +1.441945 +1.122523 ]
     Net charge: 0   dipole magnitude: 0.927204
     Initializing spherical shell mfKernel with radius 2.61727 Bohr
     deltaS corrections:
       site 'O': -7.54299
       site 'H': -6.83917
   Initializing fluid molecule 'Na+'
     Initializing site 'Na'
       Electron density: proportional to exp(-r/0.19682)*erfc((r-0.71491)/0.41314) with norm 8.1383
       Charge density: gaussian nuclear width 0.365347 with net site charge -1
       Hard sphere radius: 1.86327 bohrs
       Positions in reference frame:
         [ +0.000000 +0.000000 +0.000000 ]
     Net charge: -1   dipole magnitude: 0
     Initializing gaussian mfKernel with width: 1.55004 Bohr
     deltaS corrections:
       site 'Na': -22.3555
   Initializing fluid molecule 'F-'
     Initializing site 'F'
       Electron density: proportional to exp(-r/0.38886)*erfc((r-0)/0.438782) with norm 8
       Charge density: gaussian nuclear width 0.374796 with net site charge 1
       Hard sphere radius: 2.39995 bohrs
       Positions in reference frame:
         [ +0.000000 +0.000000 +0.000000 ]
     Net charge: 1   dipole magnitude: 0
     Initializing gaussian mfKernel with width: 1.59012 Bohr
     deltaS corrections:
       site 'F': -9.04335

Correction to mu due to finite nuclear width = -0.0239459
   Cavity determined by nc: 0.00142 and sigma: 0.707107
   Nonlocal vdW cavity from gaussian model electron density with norm = 8 and sigma = 0.993594 bohr
   Charge asymmetry in cavity with sensitivity pCavity = 36.5 e-bohr/Eh
   Electrostatic cavity expanded by eta = 1.46 bohrs
   Weighted density cavitation model constrained by Nbulk: 0.0049383 bohr^-3, Pvap: 3.14029 kPa, Rvdw: 2.61727 bohr and sigmaBulk: 4.62e-05 Eh/bohr^2 at T: 298 K.
   Weighted density dispersion model using vdW pair potentials with single solvent site with sqrtC6eff: 0.77 SI.


---- Citations for features of the code used in this run ----

   Software package:
      R. Sundararaman, K. Letchworth-Weaver, K.A. Schwarz, D. Gunceler, Y. Ozhabes and T.A. Arias, 'JDFTx: software for joint density-functional theory', SoftwareX 6, 278 (2017)

   gga-PBE exchange-correlation functional:
      J.P. Perdew, K. Burke and M. Ernzerhof, Phys. Rev. Lett. 77, 3865 (1996)

   Pseudopotentials:
      KF Garrity, JW Bennett, KM Rabe and D Vanderbilt, Comput. Mater. Sci. 81, 446 (2014)

   Truncated Coulomb potentials:
      R. Sundararaman and T.A. Arias, Phys. Rev. B 87, 165122 (2013)

   Van der Waals correction pair-potentials:
      S. Grimme, J. Comput. Chem. 27, 1787 (2006)

   Charge-asymmetric nonlocally-determined local-electric (CANDLE) solvation model:
      R. Sundararaman and W.A. Goddard III, J. Chem. Phys. 142, 064107 (2015)

   Total energy minimization with Auxiliary Hamiltonian:
      C. Freysoldt, S. Boeck, and J. Neugebauer, Phys. Rev. B 79, 241103(R) (2009)

This list may not be complete. Please suggest additional citations or
report any other bugs at https://github.com/shankar1729/jdftx/issues

Initialization completed successfully at t[s]:   2073.72

Fluid solver invoked on fresh (partially random / LCAO) wavefunctions
Running a vacuum solve first:

-------- Initial electronic minimization -----------
	FillingsUpdate:  mu: +0.094396472  nElectrons: 897.000000
ElecMinimize: Iter:   0  F: -3495.569246880768333  |grad|_K:  1.883e-04  alpha:  1.000e+00
	FillingsUpdate:  mu: +0.052306243  nElectrons: 897.000000
	SubspaceRotationAdjust: set factor to 1
ElecMinimize: Iter:   1  F: -3499.596907975999329  |grad|_K:  9.545e-05  alpha:  3.906e-01  linmin:  1.854e-05  t[s]:   2243.31
	FillingsUpdate:  mu: -0.011844712  nElectrons: 897.000000
	SubspaceRotationAdjust: set factor to 0.668
ElecMinimize: Iter:   2  F: -3500.687006895127979  |grad|_K:  7.325e-05  alpha:  4.114e-01  linmin:  3.177e-06  t[s]:   2348.80
	FillingsUpdate:  mu: +0.056764591  nElectrons: 897.000000
	SubspaceRotationAdjust: set factor to 0.484
ElecMinimize: Iter:   3  F: -3500.990776279455986  |grad|_K:  4.808e-05  alpha:  2.034e-01  linmin:  2.994e-05  t[s]:   2454.39
	FillingsUpdate:  mu: +0.040229492  nElectrons: 897.000000
	SubspaceRotationAdjust: set factor to 0.447
ElecMinimize: Iter:   4  F: -3501.163460067048618  |grad|_K:  2.271e-05  alpha:  2.591e-01  linmin: -3.918e-05  t[s]:   2559.93
	FillingsUpdate:  mu: +0.016757595  nElectrons: 897.000000
	SubspaceRotationAdjust: set factor to 0.337
ElecMinimize: Iter:   5  F: -3501.238979591358202  |grad|_K:  1.608e-05  alpha:  4.897e-01  linmin:  4.170e-05  t[s]:   2665.26
	FillingsUpdate:  mu: +0.032465533  nElectrons: 897.000000
	SubspaceRotationAdjust: set factor to 0.303
ElecMinimize: Iter:   6  F: -3501.261487173231217  |grad|_K:  8.953e-06  alpha:  2.973e-01  linmin: -9.172e-06  t[s]:   2771.03
	FillingsUpdate:  mu: +0.035189556  nElectrons: 897.000000
	SubspaceRotationAdjust: set factor to 0.369
ElecMinimize: Iter:   7  F: -3501.270859501029008  |grad|_K:  5.509e-06  alpha:  3.982e-01  linmin:  3.282e-05  t[s]:   2876.68
	FillingsUpdate:  mu: +0.029869074  nElectrons: 897.000000
	SubspaceRotationAdjust: set factor to 0.34
ElecMinimize: Iter:   8  F: -3501.274502401444806  |grad|_K:  3.600e-06  alpha:  4.108e-01  linmin:  5.805e-06  t[s]:   2982.71
	FillingsUpdate:  mu: +0.029980121  nElectrons: 897.000000
	SubspaceRotationAdjust: set factor to 0.375
ElecMinimize: Iter:   9  F: -3501.275851062921902  |grad|_K:  2.481e-06  alpha:  3.555e-01  linmin:  8.275e-07  t[s]:   3088.71
	FillingsUpdate:  mu: +0.031337666  nElectrons: 897.000000
	SubspaceRotationAdjust: set factor to 0.328
ElecMinimize: Iter:  10  F: -3501.276637876633231  |grad|_K:  2.106e-06  alpha:  4.363e-01  linmin:  2.034e-06  t[s]:   3193.82
	FillingsUpdate:  mu: +0.030992398  nElectrons: 897.000000
	SubspaceRotationAdjust: set factor to 0.298
ElecMinimize: Iter:  11  F: -3501.277020517115488  |grad|_K:  1.299e-06  alpha:  2.944e-01  linmin: -6.607e-09  t[s]:   3294.25
	FillingsUpdate:  mu: +0.030344937  nElectrons: 897.000000
	SubspaceRotationAdjust: set factor to 0.304
ElecMinimize: Iter:  12  F: -3501.277215099839395  |grad|_K:  8.793e-07  alpha:  3.932e-01  linmin:  5.009e-07  t[s]:   3394.60
	FillingsUpdate:  mu: +0.030528612  nElectrons: 897.000000
	SubspaceRotationAdjust: set factor to 0.323
ElecMinimize: Iter:  13  F: -3501.277306676839089  |grad|_K:  6.051e-07  alpha:  4.043e-01  linmin:  3.295e-07  t[s]:   3495.08
	FillingsUpdate:  mu: +0.030536040  nElectrons: 897.000000
	SubspaceRotationAdjust: set factor to 0.359
ElecMinimize: Iter:  14  F: -3501.277357824008959  |grad|_K:  4.244e-07  alpha:  4.770e-01  linmin:  1.126e-06  t[s]:   3595.35
	FillingsUpdate:  mu: +0.030363699  nElectrons: 897.000000
	SubspaceRotationAdjust: set factor to 0.319
ElecMinimize: Iter:  15  F: -3501.277376597603961  |grad|_K:  3.193e-07  alpha:  3.561e-01  linmin:  9.867e-08  t[s]:   3695.59
	FillingsUpdate:  mu: +0.030361630  nElectrons: 897.000000
	SubspaceRotationAdjust: set factor to 0.272
ElecMinimize: Iter:  16  F: -3501.277386124664190  |grad|_K:  2.046e-07  alpha:  3.187e-01  linmin:  1.697e-07  t[s]:   3795.96
	FillingsUpdate:  mu: +0.030425353  nElectrons: 897.000000
	SubspaceRotationAdjust: set factor to 0.273
ElecMinimize: Iter:  17  F: -3501.277390420108986  |grad|_K:  1.373e-07  alpha:  3.503e-01  linmin:  1.699e-07  t[s]:   3896.50
	FillingsUpdate:  mu: +0.030394589  nElectrons: 897.000000
	SubspaceRotationAdjust: set factor to 0.324
ElecMinimize: Iter:  18  F: -3501.277393170063988  |grad|_K:  9.931e-08  alpha:  4.980e-01  linmin:  2.579e-07  t[s]:   3996.93
	FillingsUpdate:  mu: +0.030359979  nElectrons: 897.000000
	SubspaceRotationAdjust: set factor to 0.321
ElecMinimize: Iter:  19  F: -3501.277394305713187  |grad|_K:  7.829e-08  alpha:  3.932e-01  linmin:  3.961e-08  t[s]:   4097.31
	FillingsUpdate:  mu: +0.030370911  nElectrons: 897.000000
	SubspaceRotationAdjust: set factor to 0.296
ElecMinimize: Iter:  20  F: -3501.277395020779295  |grad|_K:  6.240e-08  alpha:  3.980e-01  linmin:  1.002e-07  t[s]:   4197.65
	FillingsUpdate:  mu: +0.030385243  nElectrons: 897.000000
	SubspaceRotationAdjust: set factor to 0.306
ElecMinimize: Iter:  21  F: -3501.277395446822084  |grad|_K:  4.151e-08  alpha:  3.736e-01  linmin:  7.311e-08  t[s]:   4298.06
	FillingsUpdate:  mu: +0.030377723  nElectrons: 897.000000
	SubspaceRotationAdjust: set factor to 0.324
ElecMinimize: Iter:  22  F: -3501.277395679049732  |grad|_K:  3.060e-08  alpha:  4.606e-01  linmin:  1.118e-07  t[s]:   4398.52
	FillingsUpdate:  mu: +0.030381178  nElectrons: 897.000000
	SubspaceRotationAdjust: set factor to 0.342
ElecMinimize: Iter:  23  F: -3501.277395792106290  |grad|_K:  2.187e-08  alpha:  4.129e-01  linmin:  2.355e-08  t[s]:   4499.30
	FillingsUpdate:  mu: +0.030386315  nElectrons: 897.000000
	SubspaceRotationAdjust: set factor to 0.295
ElecMinimize: Iter:  24  F: -3501.277395846550007  |grad|_K:  1.771e-08  alpha:  3.885e-01  linmin:  2.240e-08  t[s]:   4599.78
	FillingsUpdate:  mu: +0.030384161  nElectrons: 897.000000
	SubspaceRotationAdjust: set factor to 0.258
ElecMinimize: Iter:  25  F: -3501.277395875286857  |grad|_K:  1.086e-08  alpha:  3.122e-01  linmin:  2.794e-08  t[s]:   4700.36
	FillingsUpdate:  mu: +0.030380963  nElectrons: 897.000000
	SubspaceRotationAdjust: set factor to 0.276
ElecMinimize: Iter:  26  F: -3501.277395890985645  |grad|_K:  8.512e-09  alpha:  4.545e-01  linmin:  9.153e-09  t[s]:   4800.75
	FillingsUpdate:  mu: +0.030382347  nElectrons: 897.000000
	SubspaceRotationAdjust: set factor to 0.302
ElecMinimize: Iter:  27  F: -3501.277395899724524  |grad|_K:  5.614e-09  alpha:  4.130e-01  linmin:  7.130e-08  t[s]:   4901.08
	FillingsUpdate:  mu: +0.030383632  nElectrons: 897.000000
	SubspaceRotationAdjust: set factor to 0.285
ElecMinimize: Iter:  28  F: -3501.277395903877732  |grad|_K:  5.104e-09  alpha:  4.547e-01  linmin:  4.970e-08  t[s]:   5001.81
ElecMinimize: Converged (|Delta F|<1.000000e-08 for 2 iters).
Setting wave functions to eigenvectors of Hamiltonian
Vacuum energy after initial minimize, F = -3501.277395903877732

	Linear fluid (dielectric constant: 78.4, screening length: 5.74355 Bohr) occupying 0.728181 of unit cell:	Completed after 21 iterations at t[s]:   5021.36

-------- Electronic minimization -----------
	Linear fluid (dielectric constant: 78.4, screening length: 5.74355 Bohr) occupying 0.728181 of unit cell:	Completed after 0 iterations at t[s]:   5043.66
	FillingsUpdate:  mu: -0.188760173  nElectrons: 897.000000
ElecMinimize: Iter:   0  F: -3501.454551927190550  |grad|_K:  2.329e-06  alpha:  1.000e+00
	Linear fluid (dielectric constant: 78.4, screening length: 5.74355 Bohr) occupying 0.728283 of unit cell:	Completed after 15 iterations at t[s]:   5127.15
	Linear fluid (dielectric constant: 78.4, screening length: 5.74355 Bohr) occupying 0.728216 of unit cell:	Completed after 15 iterations at t[s]:   5162.12
	FillingsUpdate:  mu: -0.194192385  nElectrons: 897.000000
	SubspaceRotationAdjust: set factor to 0.194
ElecMinimize: Iter:   1  F: -3501.455084166902907  |grad|_K:  8.725e-07  alpha:  3.344e-01  linmin: -1.280e-08  t[s]:   5207.19
	Linear fluid (dielectric constant: 78.4, screening length: 5.74355 Bohr) occupying 0.728256 of unit cell:	Completed after 9 iterations at t[s]:   5242.35
	Linear fluid (dielectric constant: 78.4, screening length: 5.74355 Bohr) occupying 0.728279 of unit cell:	Completed after 7 iterations at t[s]:   5275.09
	FillingsUpdate:  mu: -0.194709428  nElectrons: 897.000000
	SubspaceRotationAdjust: set factor to 0.214
ElecMinimize: Iter:   2  F: -3501.455203175275074  |grad|_K:  5.075e-07  alpha:  5.327e-01  linmin: -1.224e-07  t[s]:   5318.57
	Linear fluid (dielectric constant: 78.4, screening length: 5.74355 Bohr) occupying 0.728328 of unit cell:	Completed after 3 iterations at t[s]:   5353.16
	Linear fluid (dielectric constant: 78.4, screening length: 5.74355 Bohr) occupying 0.728327 of unit cell:	Completed after 0 iterations at t[s]:   5383.55
	FillingsUpdate:  mu: -0.194751043  nElectrons: 897.000000
	SubspaceRotationAdjust: set factor to 0.274
ElecMinimize: Iter:   3  F: -3501.455242654480116  |grad|_K:  3.456e-07  alpha:  5.218e-01  linmin:  1.997e-07  t[s]:   5425.34
	Linear fluid (dielectric constant: 78.4, screening length: 5.74355 Bohr) occupying 0.728367 of unit cell:	Completed after 2 iterations at t[s]:   5459.66
	Linear fluid (dielectric constant: 78.4, screening length: 5.74355 Bohr) occupying 0.728382 of unit cell:	Completed after 2 iterations at t[s]:   5490.30
	FillingsUpdate:  mu: -0.194641671  nElectrons: 897.000000
	SubspaceRotationAdjust: set factor to 0.365
ElecMinimize: Iter:   4  F: -3501.455268216953300  |grad|_K:  2.508e-07  alpha:  7.319e-01  linmin: -1.887e-07  t[s]:   5532.71
	Linear fluid (dielectric constant: 78.4, screening length: 5.74355 Bohr) occupying 0.728426 of unit cell:	Completed after 6 iterations at t[s]:   5567.56
	Linear fluid (dielectric constant: 78.4, screening length: 5.74355 Bohr) occupying 0.728427 of unit cell:	Completed after 0 iterations at t[s]:   5598.74
	FillingsUpdate:  mu: -0.194572616  nElectrons: 897.000000
	SubspaceRotationAdjust: set factor to 0.454
ElecMinimize: Iter:   5  F: -3501.455282125016311  |grad|_K:  1.952e-07  alpha:  7.484e-01  linmin: -2.006e-07  t[s]:   5640.50
	Linear fluid (dielectric constant: 78.4, screening length: 5.74355 Bohr) occupying 0.728464 of unit cell:	Completed after 9 iterations at t[s]:   5675.88
	Linear fluid (dielectric constant: 78.4, screening length: 5.74355 Bohr) occupying 0.728452 of unit cell:	Completed after 2 iterations at t[s]:   5708.00
	FillingsUpdate:  mu: -0.194298849  nElectrons: 897.000000
	SubspaceRotationAdjust: set factor to 0.475
ElecMinimize: Iter:   6  F: -3501.455287711696201  |grad|_K:  1.449e-07  alpha:  5.034e-01  linmin: -3.529e-08  t[s]:   5750.44
	Linear fluid (dielectric constant: 78.4, screening length: 5.74355 Bohr) occupying 0.728467 of unit cell:	Completed after 3 iterations at t[s]:   5784.90
	Linear fluid (dielectric constant: 78.4, screening length: 5.74355 Bohr) occupying 0.728466 of unit cell:	Completed after 0 iterations at t[s]:   5815.44
	FillingsUpdate:  mu: -0.194384032  nElectrons: 897.000000
	SubspaceRotationAdjust: set factor to 0.395
ElecMinimize: Iter:   7  F: -3501.455290510736177  |grad|_K:  9.543e-08  alpha:  4.539e-01  linmin:  1.913e-07  t[s]:   5857.24
	Linear fluid (dielectric constant: 78.4, screening length: 5.74355 Bohr) occupying 0.728470 of unit cell:	Completed after 2 iterations at t[s]:   5891.48
	Linear fluid (dielectric constant: 78.4, screening length: 5.74355 Bohr) occupying 0.728469 of unit cell:	Completed after 0 iterations at t[s]:   5921.82
	FillingsUpdate:  mu: -0.194332881  nElectrons: 897.000000
	SubspaceRotationAdjust: set factor to 0.287
ElecMinimize: Iter:   8  F: -3501.455291446077808  |grad|_K:  6.312e-08  alpha:  3.528e-01  linmin:  1.303e-06  t[s]:   5963.69
	Linear fluid (dielectric constant: 78.4, screening length: 5.74355 Bohr) occupying 0.728469 of unit cell:	Completed after 2 iterations at t[s]:   5998.06
	Linear fluid (dielectric constant: 78.4, screening length: 5.74355 Bohr) occupying 0.728469 of unit cell:	Completed after 0 iterations at t[s]:   6028.40
	FillingsUpdate:  mu: -0.194333180  nElectrons: 897.000000
	SubspaceRotationAdjust: set factor to 0.293
ElecMinimize: Iter:   9  F: -3501.455291844778458  |grad|_K:  3.175e-08  alpha:  3.612e-01  linmin: -5.215e-06  t[s]:   6070.27
	Linear fluid (dielectric constant: 78.4, screening length: 5.74355 Bohr) occupying 0.728467 of unit cell:	Completed after 0 iterations at t[s]:   6104.26
	Linear fluid (dielectric constant: 78.4, screening length: 5.74355 Bohr) occupying 0.728467 of unit cell:	Completed after 0 iterations at t[s]:   6134.00
	FillingsUpdate:  mu: -0.194332649  nElectrons: 897.000000
	SubspaceRotationAdjust: set factor to 0.331
ElecMinimize: Iter:  10  F: -3501.455292052312871  |grad|_K:  2.113e-08  alpha:  6.142e-01  linmin:  2.098e-08  t[s]:   6175.80
	Linear fluid (dielectric constant: 78.4, screening length: 5.74355 Bohr) occupying 0.728464 of unit cell:	Completed after 2 iterations at t[s]:   6210.14
	Linear fluid (dielectric constant: 78.4, screening length: 5.74355 Bohr) occupying 0.728466 of unit cell:	Completed after 0 iterations at t[s]:   6240.74
	FillingsUpdate:  mu: -0.194359119  nElectrons: 897.000000
	SubspaceRotationAdjust: set factor to 0.332
ElecMinimize: Iter:  11  F: -3501.455292056890357  |grad|_K:  2.137e-08  alpha:  3.024e-01  linmin: -1.750e-05  t[s]:   6284.09
	Linear fluid (dielectric constant: 78.4, screening length: 5.74355 Bohr) occupying 0.728464 of unit cell:	Completed after 0 iterations at t[s]:   6319.64
	Linear fluid (dielectric constant: 78.4, screening length: 5.74355 Bohr) occupying 0.728464 of unit cell:	Completed after 0 iterations at t[s]:   6351.21
	FillingsUpdate:  mu: -0.194358690  nElectrons: 897.000000
	SubspaceRotationAdjust: set factor to 0.466
ElecMinimize: Iter:  12  F: -3501.455292116767851  |grad|_K:  2.281e-08  alpha:  3.744e-01  linmin: -2.799e-08  t[s]:   6394.67
	Linear fluid (dielectric constant: 78.4, screening length: 5.74355 Bohr) occupying 0.728461 of unit cell:	Completed after 3 iterations at t[s]:   6431.00
	Linear fluid (dielectric constant: 78.4, screening length: 5.74355 Bohr) occupying 0.728463 of unit cell:	Completed after 0 iterations at t[s]:   6463.14
	FillingsUpdate:  mu: -0.194329386  nElectrons: 897.000000
	SubspaceRotationAdjust: set factor to 0.372
ElecMinimize: Iter:  13  F: -3501.455292160176668  |grad|_K:  4.220e-08  alpha:  8.554e-02  linmin:  2.505e-05  t[s]:   6506.70
ElecMinimize: 	Bad step direction: g.d > 0.
ElecMinimize: 	Undoing step.
	Linear fluid (dielectric constant: 78.4, screening length: 5.74355 Bohr) occupying 0.728463 of unit cell:	Completed after 0 iterations at t[s]:   6542.40
ElecMinimize: 	Step failed: resetting search direction.
	FillingsUpdate:  mu: -0.194329386  nElectrons: 897.000000
	SubspaceRotationAdjust: set factor to 0.325
ElecMinimize: Iter:  14  F: -3501.455292160176214  |grad|_K:  3.946e-08  alpha:  0.000e+00
	Linear fluid (dielectric constant: 78.4, screening length: 5.74355 Bohr) occupying 0.728463 of unit cell:	Completed after 1 iterations at t[s]:   6621.75
	Linear fluid (dielectric constant: 78.4, screening length: 5.74355 Bohr) occupying 0.728463 of unit cell:	Completed after 0 iterations at t[s]:   6654.03
ElecMinimize: 	Step increased F by 4.332696e-08, reducing alpha to 2.965040e-03.
	Linear fluid (dielectric constant: 78.4, screening length: 5.74355 Bohr) occupying 0.728463 of unit cell:	Completed after 0 iterations at t[s]:   6723.84
ElecMinimize: 	Step increased F by 4.868525e-08, reducing alpha to 2.965040e-04.
	Linear fluid (dielectric constant: 78.4, screening length: 5.74355 Bohr) occupying 0.728463 of unit cell:	Completed after 0 iterations at t[s]:   6793.98
ElecMinimize: 	Step increased F by 4.926596e-08, reducing alpha to 2.965040e-05.
ElecMinimize: 	Step failed to reduce F after 3 attempts. Quitting step.
ElecMinimize: 	Undoing step.
	Linear fluid (dielectric constant: 78.4, screening length: 5.74355 Bohr) occupying 0.728463 of unit cell:	Completed after 0 iterations at t[s]:   6864.35
ElecMinimize: 	Step failed along negative gradient direction.
ElecMinimize: Probably at roundoff error limit. (Stopping)
Setting wave functions to eigenvectors of Hamiltonian
Single-point solvation energy estimate, DeltaF = -0.177896207011599

# Ionic positions in lattice coordinates:
ion C   0.167454248459894   0.083932301100728   0.557295694344403 1
ion C   0.084168255733299   0.167283603018563   0.442712607455854 1
ion C   0.417454248459894   0.083932301100728   0.557295694344403 1
ion C   0.334168255733299   0.167283603018563   0.442712607455854 1
ion C   0.667454248459894   0.083932301100728   0.557295694344403 1
ion C   0.584168255733299   0.167283603018563   0.442712607455854 1
ion C   0.917454248459894   0.083932301100728   0.557295694344403 1
ion C   0.834168255733299   0.167283603018563   0.442712607455854 1
ion C   0.167454248459894   0.333932301100728   0.557295694344403 1
ion C   0.084168255733299   0.417283603018563   0.442712607455854 1
ion C   0.417454248459894   0.333932301100728   0.557295694344403 1
ion C   0.334168255733299   0.417283603018563   0.442712607455854 1
ion C   0.667454248459894   0.333932301100728   0.557295694344403 1
ion C   0.584168255733299   0.417283603018563   0.442712607455854 1
ion C   0.917454248459894   0.333932301100728   0.557295694344403 1
ion C   0.834168255733299   0.417283603018563   0.442712607455854 1
ion C   0.167454248459894   0.583932301100728   0.557295694344403 1
ion C   0.084168255733299   0.667283603018563   0.442712607455854 1
ion C   0.417454248459894   0.583932301100728   0.557295694344403 1
ion C   0.334168255733299   0.667283603018563   0.442712607455854 1
ion C   0.667454248459894   0.583932301100728   0.557295694344403 1
ion C   0.584168255733299   0.667283603018563   0.442712607455854 1
ion C   0.917454248459894   0.583932301100728   0.557295694344403 1
ion C   0.834168255733299   0.667283603018563   0.442712607455854 1
ion C   0.167454248459894   0.833932301100728   0.557295694344403 1
ion C   0.084168255733299   0.917283603018563   0.442712607455854 1
ion C   0.417454248459894   0.833932301100728   0.557295694344403 1
ion C   0.334168255733299   0.917283603018563   0.442712607455854 1
ion C   0.667454248459894   0.833932301100728   0.557295694344403 1
ion C   0.584168255733299   0.917283603018563   0.442712607455854 1
ion C   0.917454248459894   0.833932301100728   0.557295694344403 1
ion C   0.834168255733299   0.917283603018563   0.442712607455854 1
ion Ti   0.000707133590249   0.000528530881105   0.500005673079691 1
ion Ti   0.084056284511458   0.167207045170162   0.617113083023031 1
ion Ti   0.167466284317293   0.083935586185678   0.382892326537440 1
ion Ti   0.250707133590249   0.000528530881105   0.500005673079691 1
ion Ti   0.334056284511458   0.167207045170162   0.617113083023031 1
ion Ti   0.417466284317293   0.083935586185678   0.382892326537440 1
ion Ti   0.500707133590249   0.000528530881105   0.500005673079691 1
ion Ti   0.584056284511458   0.167207045170162   0.617113083023031 1
ion Ti   0.667466284317293   0.083935586185678   0.382892326537440 1
ion Ti   0.750707133590249   0.000528530881105   0.500005673079691 1
ion Ti   0.834056284511458   0.167207045170162   0.617113083023031 1
ion Ti   0.917466284317293   0.083935586185678   0.382892326537440 1
ion Ti   0.000707133590249   0.250528530881105   0.500005673079691 1
ion Ti   0.084056284511458   0.417207045170162   0.617113083023031 1
ion Ti   0.167466284317293   0.333935586185678   0.382892326537440 1
ion Ti   0.250707133590249   0.250528530881105   0.500005673079691 1
ion Ti   0.334056284511458   0.417207045170162   0.617113083023031 1
ion Ti   0.417466284317293   0.333935586185678   0.382892326537440 1
ion Ti   0.500707133590249   0.250528530881105   0.500005673079691 1
ion Ti   0.584056284511458   0.417207045170162   0.617113083023031 1
ion Ti   0.667466284317293   0.333935586185678   0.382892326537440 1
ion Ti   0.750707133590249   0.250528530881105   0.500005673079691 1
ion Ti   0.834056284511458   0.417207045170162   0.617113083023031 1
ion Ti   0.917466284317293   0.333935586185678   0.382892326537440 1
ion Ti   0.000707133590249   0.500528530881105   0.500005673079691 1
ion Ti   0.084056284511458   0.667207045170162   0.617113083023031 1
ion Ti   0.167466284317293   0.583935586185678   0.382892326537440 1
ion Ti   0.250707133590249   0.500528530881105   0.500005673079691 1
ion Ti   0.334056284511458   0.667207045170162   0.617113083023031 1
ion Ti   0.417466284317293   0.583935586185678   0.382892326537440 1
ion Ti   0.500707133590249   0.500528530881105   0.500005673079691 1
ion Ti   0.584056284511458   0.667207045170162   0.617113083023031 1
ion Ti   0.667466284317293   0.583935586185678   0.382892326537440 1
ion Ti   0.750707133590249   0.500528530881105   0.500005673079691 1
ion Ti   0.834056284511458   0.667207045170162   0.617113083023031 1
ion Ti   0.917466284317293   0.583935586185678   0.382892326537440 1
ion Ti   0.000707133590249   0.750528530881105   0.500005673079691 1
ion Ti   0.084056284511458   0.917207045170162   0.617113083023031 1
ion Ti   0.167466284317293   0.833935586185678   0.382892326537440 1
ion Ti   0.250707133590249   0.750528530881105   0.500005673079691 1
ion Ti   0.334056284511458   0.917207045170162   0.617113083023031 1
ion Ti   0.417466284317293   0.833935586185678   0.382892326537440 1
ion Ti   0.500707133590249   0.750528530881105   0.500005673079691 1
ion Ti   0.584056284511458   0.917207045170162   0.617113083023031 1
ion Ti   0.667466284317293   0.833935586185678   0.382892326537440 1
ion Ti   0.750707133590249   0.750528530881105   0.500005673079691 1
ion Ti   0.834056284511458   0.917207045170162   0.617113083023031 1
ion Ti   0.917466284317293   0.833935586185678   0.382892326537440 1
ion O   0.000765137994074   0.000604888857194   0.659136780199781 1
ion O   0.000942736956232   0.000667975036571   0.340873800359799 1
ion O   0.250765137994074   0.000604888857194   0.659136780199781 1
ion O   0.250942736956232   0.000667975036571   0.340873800359799 1
ion O   0.500765137994074   0.000604888857194   0.659136780199781 1
ion O   0.500942736956232   0.000667975036571   0.340873800359799 1
ion O   0.750765137994074   0.000604888857194   0.659136780199781 1
ion O   0.750942736956232   0.000667975036571   0.340873800359799 1
ion O   0.000765137994074   0.250604888857194   0.659136780199781 1
ion O   0.000942736956232   0.250667975036571   0.340873800359799 1
ion O   0.250765137994074   0.250604888857194   0.659136780199781 1
ion O   0.250942736956232   0.250667975036571   0.340873800359799 1
ion O   0.500765137994074   0.250604888857194   0.659136780199781 1
ion O   0.500942736956232   0.250667975036571   0.340873800359799 1
ion O   0.750765137994074   0.250604888857194   0.659136780199781 1
ion O   0.750942736956232   0.250667975036571   0.340873800359799 1
ion O   0.000765137994074   0.500604888857194   0.659136780199781 1
ion O   0.000942736956232   0.500667975036571   0.340873800359799 1
ion O   0.250765137994074   0.500604888857194   0.659136780199781 1
ion O   0.250942736956232   0.500667975036571   0.340873800359799 1
ion O   0.500765137994074   0.500604888857194   0.659136780199781 1
ion O   0.500942736956232   0.500667975036571   0.340873800359799 1
ion O   0.750765137994074   0.500604888857194   0.659136780199781 1
ion O   0.750942736956232   0.500667975036571   0.340873800359799 1
ion O   0.000765137994074   0.750604888857194   0.659136780199781 1
ion O   0.000942736956232   0.750667975036571   0.340873800359799 1
ion O   0.250765137994074   0.750604888857194   0.659136780199781 1
ion O   0.250942736956232   0.750667975036571   0.340873800359799 1
ion O   0.500765137994074   0.750604888857194   0.659136780199781 1
ion O   0.500942736956232   0.750667975036571   0.340873800359799 1
ion O   0.750765137994074   0.750604888857194   0.659136780199781 1
ion O   0.750942736956232   0.750667975036571   0.340873800359799 1


# Forces in Lattice coordinates:
force C  -0.001241744748957  -0.000583941382359   0.074258986610225 1
force C  -0.000971035244120  -0.000508930335692  -0.074182444118433 1
force C  -0.001241744748957  -0.000583941382359   0.074258986610282 1
force C  -0.000971035244120  -0.000508930335692  -0.074182444118376 1
force C  -0.001241744748957  -0.000583941382359   0.074258986610282 1
force C  -0.000971035244120  -0.000508930335692  -0.074182444118376 1
force C  -0.001241744748957  -0.000583941382359   0.074258986610339 1
force C  -0.000971035244120  -0.000508930335692  -0.074182444118376 1
force C  -0.001241744748957  -0.000583941382359   0.074258986610396 1
force C  -0.000971035244120  -0.000508930335692  -0.074182444118376 1
force C  -0.001241744748957  -0.000583941382359   0.074258986610509 1
force C  -0.000971035244120  -0.000508930335692  -0.074182444118376 1
force C  -0.001241744748957  -0.000583941382359   0.074258986610396 1
force C  -0.000971035244120  -0.000508930335692  -0.074182444118433 1
force C  -0.001241744748957  -0.000583941382359   0.074258986610452 1
force C  -0.000971035244120  -0.000508930335692  -0.074182444118376 1
force C  -0.001241744748957  -0.000583941382359   0.074258986610396 1
force C  -0.000971035244120  -0.000508930335692  -0.074182444118319 1
force C  -0.001241744748957  -0.000583941382359   0.074258986610339 1
force C  -0.000971035244120  -0.000508930335692  -0.074182444118319 1
force C  -0.001241744748957  -0.000583941382359   0.074258986610396 1
force C  -0.000971035244120  -0.000508930335692  -0.074182444118319 1
force C  -0.001241744748957  -0.000583941382359   0.074258986610452 1
force C  -0.000971035244120  -0.000508930335692  -0.074182444118319 1
force C  -0.001241744748957  -0.000583941382359   0.074258986610396 1
force C  -0.000971035244120  -0.000508930335692  -0.074182444118319 1
force C  -0.001241744748957  -0.000583941382359   0.074258986610339 1
force C  -0.000971035244120  -0.000508930335692  -0.074182444118319 1
force C  -0.001241744748957  -0.000583941382359   0.074258986610282 1
force C  -0.000971035244120  -0.000508930335692  -0.074182444118319 1
force C  -0.001241744748957  -0.000583941382359   0.074258986610339 1
force C  -0.000971035244120  -0.000508930335692  -0.074182444118319 1
force Ti   0.000325978636791   0.000467306820435  -0.000552600141300 1
force Ti  -0.001201146619616   0.000293250136586  -0.270606983255365 1
force Ti   0.001174726351309  -0.000362618121639   0.271353279480349 1
force Ti   0.000325978636791   0.000467306820435  -0.000552600141300 1
force Ti  -0.001201146619616   0.000293250136586  -0.270606983255820 1
force Ti   0.001174726351309  -0.000362618121639   0.271353279479894 1
force Ti   0.000325978636791   0.000467306820435  -0.000552600141300 1
force Ti  -0.001201146619616   0.000293250136586  -0.270606983255820 1
force Ti   0.001174726351309  -0.000362618121639   0.271353279479894 1
force Ti   0.000325978636791   0.000467306820435  -0.000552600141300 1
force Ti  -0.001201146619616   0.000293250136586  -0.270606983255820 1
force Ti   0.001174726351309  -0.000362618121639   0.271353279479894 1
force Ti   0.000325978636791   0.000467306820435  -0.000552600141300 1
force Ti  -0.001201146619616   0.000293250136586  -0.270606983257185 1
force Ti   0.001174726351309  -0.000362618121639   0.271353279480349 1
force Ti   0.000325978636791   0.000467306820435  -0.000552600141300 1
force Ti  -0.001201146619616   0.000293250136586  -0.270606983257185 1
force Ti   0.001174726351310  -0.000362618121639   0.271353279480349 1
force Ti   0.000325978636791   0.000467306820435  -0.000552600141300 1
force Ti  -0.001201146619616   0.000293250136586  -0.270606983257185 1
force Ti   0.001174726351309  -0.000362618121639   0.271353279480804 1
force Ti   0.000325978636791   0.000467306820435  -0.000552600141300 1
force Ti  -0.001201146619616   0.000293250136586  -0.270606983257185 1
force Ti   0.001174726351310  -0.000362618121639   0.271353279480804 1
force Ti   0.000325978636791   0.000467306820435  -0.000552600141300 1
force Ti  -0.001201146619616   0.000293250136586  -0.270606983255820 1
force Ti   0.001174726351310  -0.000362618121639   0.271353279479894 1
force Ti   0.000325978636791   0.000467306820435  -0.000552600141300 1
force Ti  -0.001201146619616   0.000293250136586  -0.270606983255820 1
force Ti   0.001174726351310  -0.000362618121639   0.271353279479894 1
force Ti   0.000325978636791   0.000467306820435  -0.000552600141300 1
force Ti  -0.001201146619616   0.000293250136586  -0.270606983255365 1
force Ti   0.001174726351310  -0.000362618121639   0.271353279479894 1
force Ti   0.000325978636791   0.000467306820435  -0.000552600141300 1
force Ti  -0.001201146619616   0.000293250136586  -0.270606983255820 1
force Ti   0.001174726351310  -0.000362618121639   0.271353279479894 1
force Ti   0.000325978636791   0.000467306820435  -0.000552600141300 1
force Ti  -0.001201146619616   0.000293250136586  -0.270606983255820 1
force Ti   0.001174726351310  -0.000362618121639   0.271353279479894 1
force Ti   0.000325978636791   0.000467306820435  -0.000552600141300 1
force Ti  -0.001201146619616   0.000293250136586  -0.270606983255820 1
force Ti   0.001174726351310  -0.000362618121639   0.271353279479440 1
force Ti   0.000325978636791   0.000467306820435  -0.000552600141300 1
force Ti  -0.001201146619616   0.000293250136586  -0.270606983255820 1
force Ti   0.001174726351310  -0.000362618121639   0.271353279479894 1
force Ti   0.000325978636791   0.000467306820435  -0.000552600141300 1
force Ti  -0.001201146619616   0.000293250136586  -0.270606983256275 1
force Ti   0.001174726351310  -0.000362618121639   0.271353279479439 1
force O   0.000781983059147  -0.000862747025090   0.208242343419411 1
force O  -0.003283155170528   0.000174892062689  -0.209351275888366 1
force O   0.000781983059147  -0.000862747025090   0.208242343419862 1
force O  -0.003283155170528   0.000174892062689  -0.209351275888363 1
force O   0.000781983059147  -0.000862747025090   0.208242343419865 1
force O  -0.003283155170528   0.000174892062689  -0.209351275888366 1
force O   0.000781983059147  -0.000862747025090   0.208242343419865 1
force O  -0.003283155170528   0.000174892062689  -0.209351275888821 1
force O   0.000781983059147  -0.000862747025090   0.208242343419407 1
force O  -0.003283155170528   0.000174892062689  -0.209351275888366 1
force O   0.000781983059147  -0.000862747025090   0.208242343420320 1
force O  -0.003283155170528   0.000174892062689  -0.209351275887911 1
force O   0.000781983059147  -0.000862747025090   0.208242343420320 1
force O  -0.003283155170528   0.000174892062689  -0.209351275888363 1
force O   0.000781983059147  -0.000862747025090   0.208242343420324 1
force O  -0.003283155170528   0.000174892062689  -0.209351275888363 1
force O   0.000781983059147  -0.000862747025090   0.208242343419865 1
force O  -0.003283155170528   0.000174892062689  -0.209351275887453 1
force O   0.000781983059147  -0.000862747025090   0.208242343420320 1
force O  -0.003283155170528   0.000174892062689  -0.209351275887457 1
force O   0.000781983059147  -0.000862747025090   0.208242343419865 1
force O  -0.003283155170528   0.000174892062689  -0.209351275887908 1
force O   0.000781983059147  -0.000862747025090   0.208242343420320 1
force O  -0.003283155170528   0.000174892062689  -0.209351275887453 1
force O   0.000781983059147  -0.000862747025090   0.208242343419865 1
force O  -0.003283155170528   0.000174892062689  -0.209351275887911 1
force O   0.000781983059147  -0.000862747025090   0.208242343419862 1
force O  -0.003283155170528   0.000174892062689  -0.209351275888363 1
force O   0.000781983059147  -0.000862747025090   0.208242343419862 1
force O  -0.003283155170528   0.000174892062689  -0.209351275888363 1
force O   0.000781983059147  -0.000862747025090   0.208242343419411 1
force O  -0.003283155170528   0.000174892062689  -0.209351275888366 1

# Energy components:
   A_diel =       -0.1546856738283043
   Eewald =    48771.7474531687985291
       EH =    51772.1606350811634911
     Eloc =  -104802.7432039473496843
      Enl =      356.4977235049109368
      Exc =     -608.9659891144397079
 Exc_core =       66.0158453988322691
       KE =      944.0546144144142318
  MuShift =       -0.0239459268909682
-------------------------------------
     Etot =    -3501.4115530943809063
       TS =        0.0437390165082269
-------------------------------------
        F =    -3501.4552921108893315

IonicMinimize: Iter:   0  F: -3501.455292110889332  |grad|_K:  2.600e-03  t[s]:   6936.05

#--- Lowdin population analysis ---
# oxidation-state C -1.124 -1.124 -1.124 -1.124 -1.124 -1.124 -1.124 -1.124 -1.124 -1.124 -1.124 -1.124 -1.124 -1.124 -1.124 -1.124 -1.124 -1.124 -1.124 -1.124 -1.124 -1.124 -1.124 -1.124 -1.124 -1.124 -1.124 -1.124 -1.124 -1.124 -1.124 -1.124
# oxidation-state Ti +1.182 +1.377 +1.377 +1.182 +1.377 +1.377 +1.182 +1.377 +1.377 +1.182 +1.377 +1.377 +1.182 +1.377 +1.377 +1.182 +1.377 +1.377 +1.182 +1.377 +1.377 +1.182 +1.377 +1.377 +1.182 +1.377 +1.377 +1.182 +1.377 +1.377 +1.182 +1.377 +1.377 +1.182 +1.377 +1.377 +1.182 +1.377 +1.377 +1.182 +1.377 +1.377 +1.182 +1.377 +1.377 +1.182 +1.377 +1.377
# oxidation-state O -0.741 -0.741 -0.741 -0.741 -0.741 -0.741 -0.741 -0.741 -0.741 -0.741 -0.741 -0.741 -0.741 -0.741 -0.741 -0.741 -0.741 -0.741 -0.741 -0.741 -0.741 -0.741 -0.741 -0.741 -0.741 -0.741 -0.741 -0.741 -0.741 -0.741 -0.741 -0.741

	Linear fluid (dielectric constant: 78.4, screening length: 5.74355 Bohr) occupying 0.728345 of unit cell:	Completed after 14 iterations at t[s]:   6976.90

-------- Electronic minimization -----------
	Linear fluid (dielectric constant: 78.4, screening length: 5.74355 Bohr) occupying 0.728345 of unit cell:	Completed after 0 iterations at t[s]:   7000.73
	FillingsUpdate:  mu: -0.199524194  nElectrons: 897.000000
ElecMinimize: Iter:   0  F: -3501.456057549904017  |grad|_K:  1.782e-06  alpha:  1.000e+00
	Linear fluid (dielectric constant: 78.4, screening length: 5.74355 Bohr) occupying 0.728390 of unit cell:	Completed after 15 iterations at t[s]:   7088.14
	Linear fluid (dielectric constant: 78.4, screening length: 5.74355 Bohr) occupying 0.728365 of unit cell:	Completed after 13 iterations at t[s]:   7125.35
	FillingsUpdate:  mu: -0.195621728  nElectrons: 897.000000
	SubspaceRotationAdjust: set factor to 0.218
ElecMinimize: Iter:   1  F: -3501.456456559934395  |grad|_K:  1.274e-06  alpha:  4.290e-01  linmin:  2.940e-06  t[s]:   7171.89
	Linear fluid (dielectric constant: 78.4, screening length: 5.74355 Bohr) occupying 0.728379 of unit cell:	Completed after 5 iterations at t[s]:   7208.13
	Linear fluid (dielectric constant: 78.4, screening length: 5.74355 Bohr) occupying 0.728389 of unit cell:	Completed after 6 iterations at t[s]:   7242.44
	FillingsUpdate:  mu: -0.196036036  nElectrons: 897.000000
	SubspaceRotationAdjust: set factor to 0.298
ElecMinimize: Iter:   2  F: -3501.456794573637580  |grad|_K:  9.533e-07  alpha:  7.101e-01  linmin: -4.509e-06  t[s]:   7287.79
	Linear fluid (dielectric constant: 78.4, screening length: 5.74355 Bohr) occupying 0.728405 of unit cell:	Completed after 10 iterations at t[s]:   7324.90
	Linear fluid (dielectric constant: 78.4, screening length: 5.74355 Bohr) occupying 0.728405 of unit cell:	Completed after 0 iterations at t[s]:   7359.43
	FillingsUpdate:  mu: -0.196716545  nElectrons: 897.000000
	SubspaceRotationAdjust: set factor to 0.343
ElecMinimize: Iter:   3  F: -3501.456980914047563  |grad|_K:  7.801e-07  alpha:  6.988e-01  linmin:  1.151e-05  t[s]:   7402.95
	Linear fluid (dielectric constant: 78.4, screening length: 5.74355 Bohr) occupying 0.728417 of unit cell:	Completed after 5 iterations at t[s]:   7439.34
	Linear fluid (dielectric constant: 78.4, screening length: 5.74355 Bohr) occupying 0.728414 of unit cell:	Completed after 3 iterations at t[s]:   7472.74
	FillingsUpdate:  mu: -0.196603572  nElectrons: 897.000000
	SubspaceRotationAdjust: set factor to 0.405
ElecMinimize: Iter:   4  F: -3501.457074644034947  |grad|_K:  3.756e-07  alpha:  5.274e-01  linmin: -7.452e-06  t[s]:   7517.24
	Linear fluid (dielectric constant: 78.4, screening length: 5.74355 Bohr) occupying 0.728415 of unit cell:	Completed after 2 iterations at t[s]:   7553.38
	Linear fluid (dielectric constant: 78.4, screening length: 5.74355 Bohr) occupying 0.728415 of unit cell:	Completed after 0 iterations at t[s]:   7585.67
	FillingsUpdate:  mu: -0.196554295  nElectrons: 897.000000
	SubspaceRotationAdjust: set factor to 0.449
ElecMinimize: Iter:   5  F: -3501.457096585704221  |grad|_K:  1.886e-07  alpha:  5.298e-01  linmin: -6.742e-07  t[s]:   7629.17
	Linear fluid (dielectric constant: 78.4, screening length: 5.74355 Bohr) occupying 0.728414 of unit cell:	Completed after 2 iterations at t[s]:   7664.96
	Linear fluid (dielectric constant: 78.4, screening length: 5.74355 Bohr) occupying 0.728414 of unit cell:	Completed after 0 iterations at t[s]:   7697.00
	FillingsUpdate:  mu: -0.196551911  nElectrons: 897.000000
	SubspaceRotationAdjust: set factor to 0.504
ElecMinimize: Iter:   6  F: -3501.457101338144184  |grad|_K:  1.082e-07  alpha:  4.543e-01  linmin:  2.009e-05  t[s]:   7740.74
	Linear fluid (dielectric constant: 78.4, screening length: 5.74355 Bohr) occupying 0.728413 of unit cell:	Completed after 2 iterations at t[s]:   7776.79
	Linear fluid (dielectric constant: 78.4, screening length: 5.74355 Bohr) occupying 0.728413 of unit cell:	Completed after 0 iterations at t[s]:   7808.88
	FillingsUpdate:  mu: -0.196559743  nElectrons: 897.000000
	SubspaceRotationAdjust: set factor to 0.626
ElecMinimize: Iter:   7  F: -3501.457102984379162  |grad|_K:  5.251e-08  alpha:  4.874e-01  linmin: -1.606e-05  t[s]:   7852.21
	Linear fluid (dielectric constant: 78.4, screening length: 5.74355 Bohr) occupying 0.728412 of unit cell:	Completed after 1 iterations at t[s]:   7888.14
	Linear fluid (dielectric constant: 78.4, screening length: 5.74355 Bohr) occupying 0.728412 of unit cell:	Completed after 0 iterations at t[s]:   7920.13
	FillingsUpdate:  mu: -0.196560467  nElectrons: 897.000000
	SubspaceRotationAdjust: set factor to 0.709
ElecMinimize: Iter:   8  F: -3501.457103418620591  |grad|_K:  3.107e-08  alpha:  5.205e-01  linmin: -1.206e-05  t[s]:   7963.76
	Linear fluid (dielectric constant: 78.4, screening length: 5.74355 Bohr) occupying 0.728412 of unit cell:	Completed after 0 iterations at t[s]:   7999.27
	Linear fluid (dielectric constant: 78.4, screening length: 5.74355 Bohr) occupying 0.728412 of unit cell:	Completed after 0 iterations at t[s]:   8032.15
	FillingsUpdate:  mu: -0.196560812  nElectrons: 897.000000
	SubspaceRotationAdjust: set factor to 0.883
ElecMinimize: Iter:   9  F: -3501.457103543654284  |grad|_K:  1.512e-08  alpha:  4.316e-01  linmin: -9.103e-06  t[s]:   8075.82
	Linear fluid (dielectric constant: 78.4, screening length: 5.74355 Bohr) occupying 0.728412 of unit cell:	Completed after 0 iterations at t[s]:   8111.46
	Linear fluid (dielectric constant: 78.4, screening length: 5.74355 Bohr) occupying 0.728412 of unit cell:	Completed after 0 iterations at t[s]:   8143.31
	FillingsUpdate:  mu: -0.196560713  nElectrons: 897.000000
	SubspaceRotationAdjust: set factor to 1.13
ElecMinimize: Iter:  10  F: -3501.457103583051321  |grad|_K:  9.061e-09  alpha:  5.556e-01  linmin: -2.407e-07  t[s]:   8186.93
	Linear fluid (dielectric constant: 78.4, screening length: 5.74355 Bohr) occupying 0.728411 of unit cell:	Completed after 0 iterations at t[s]:   8222.48
	Linear fluid (dielectric constant: 78.4, screening length: 5.74355 Bohr) occupying 0.728411 of unit cell:	Completed after 0 iterations at t[s]:   8254.38
	FillingsUpdate:  mu: -0.196560614  nElectrons: 897.000000
	SubspaceRotationAdjust: set factor to 1.44
ElecMinimize: Iter:  11  F: -3501.457103594802902  |grad|_K:  5.764e-09  alpha:  4.885e-01  linmin: -6.585e-08  t[s]:   8298.00
	Linear fluid (dielectric constant: 78.4, screening length: 5.74355 Bohr) occupying 0.728411 of unit cell:	Completed after 0 iterations at t[s]:   8333.61
	Linear fluid (dielectric constant: 78.4, screening length: 5.74355 Bohr) occupying 0.728411 of unit cell:	Completed after 0 iterations at t[s]:   8365.20
	FillingsUpdate:  mu: -0.196560539  nElectrons: 897.000000
	SubspaceRotationAdjust: set factor to 1.84
ElecMinimize: Iter:  12  F: -3501.457103599869697  |grad|_K:  3.246e-09  alpha:  5.163e-01  linmin:  3.769e-07  t[s]:   8409.16
	Linear fluid (dielectric constant: 78.4, screening length: 5.74355 Bohr) occupying 0.728411 of unit cell:	Completed after 2 iterations at t[s]:   8445.24
	Linear fluid (dielectric constant: 78.4, screening length: 5.74355 Bohr) occupying 0.728411 of unit cell:	Completed after 0 iterations at t[s]:   8477.47
ElecMinimize: 	Step increased F by 7.187373e-08, reducing alpha to 7.525237e-04.
	Linear fluid (dielectric constant: 78.4, screening length: 5.74355 Bohr) occupying 0.728411 of unit cell:	Completed after 0 iterations at t[s]:   8547.58
ElecMinimize: 	Step increased F by 7.140352e-08, reducing alpha to 7.525237e-05.
	Linear fluid (dielectric constant: 78.4, screening length: 5.74355 Bohr) occupying 0.728411 of unit cell:	Completed after 0 iterations at t[s]:   8617.43
ElecMinimize: 	Step increased F by 7.139170e-08, reducing alpha to 7.525237e-06.
ElecMinimize: 	Step failed to reduce F after 3 attempts. Quitting step.
ElecMinimize: 	Undoing step.
	Linear fluid (dielectric constant: 78.4, screening length: 5.74355 Bohr) occupying 0.728411 of unit cell:	Completed after 0 iterations at t[s]:   8686.83
ElecMinimize: 	Step failed: resetting search direction.
	FillingsUpdate:  mu: -0.196591532  nElectrons: 897.000000
	SubspaceRotationAdjust: set factor to 0.96
ElecMinimize: Iter:  13  F: -3501.457103528496191  |grad|_K:  6.786e-08  alpha:  7.525e-06
	Linear fluid (dielectric constant: 78.4, screening length: 5.74355 Bohr) occupying 0.728412 of unit cell:	Completed after 6 iterations at t[s]:   8765.54
	Linear fluid (dielectric constant: 78.4, screening length: 5.74355 Bohr) occupying 0.728411 of unit cell:	Completed after 5 iterations at t[s]:   8799.30
	FillingsUpdate:  mu: -0.196524780  nElectrons: 897.000000
	SubspaceRotationAdjust: set factor to 0.362
ElecMinimize: Iter:  14  F: -3501.457103615776305  |grad|_K:  1.199e-08  alpha:  5.091e-02  linmin:  6.420e-04  t[s]:   8844.21
	Linear fluid (dielectric constant: 78.4, screening length: 5.74355 Bohr) occupying 0.728411 of unit cell:	Completed after 0 iterations at t[s]:   8879.85
ElecMinimize: 	Predicted alpha/alphaT>3.000000, increasing alphaT to 1.527358e-01.
	Linear fluid (dielectric constant: 78.4, screening length: 5.74355 Bohr) occupying 0.728411 of unit cell:	Completed after 0 iterations at t[s]:   8911.11
ElecMinimize: 	Predicted alpha/alphaT>3.000000, increasing alphaT to 4.582073e-01.
	Linear fluid (dielectric constant: 78.4, screening length: 5.74355 Bohr) occupying 0.728411 of unit cell:	Completed after 0 iterations at t[s]:   8942.49
	Linear fluid (dielectric constant: 78.4, screening length: 5.74355 Bohr) occupying 0.728410 of unit cell:	Completed after 3 iterations at t[s]:   8974.58
ElecMinimize: 	Step increased F by 2.919228e-07, reducing alpha to 1.256981e-01.
	Linear fluid (dielectric constant: 78.4, screening length: 5.74355 Bohr) occupying 0.728411 of unit cell:	Completed after 3 iterations at t[s]:   9046.68
ElecMinimize: 	Step increased F by 3.226614e-08, reducing alpha to 1.256981e-02.
	Linear fluid (dielectric constant: 78.4, screening length: 5.74355 Bohr) occupying 0.728411 of unit cell:	Completed after 0 iterations at t[s]:   9117.52
ElecMinimize: 	Step increased F by 2.646311e-08, reducing alpha to 1.256981e-03.
ElecMinimize: 	Step failed to reduce F after 3 attempts. Quitting step.
ElecMinimize: 	Undoing step.
	Linear fluid (dielectric constant: 78.4, screening length: 5.74355 Bohr) occupying 0.728411 of unit cell:	Completed after 0 iterations at t[s]:   9188.10
ElecMinimize: 	Step failed: resetting search direction.
	FillingsUpdate:  mu: -0.196590210  nElectrons: 897.000000
	SubspaceRotationAdjust: set factor to 0.175
ElecMinimize: Iter:  15  F: -3501.457103589285907  |grad|_K:  1.005e-08  alpha:  1.257e-03
	Linear fluid (dielectric constant: 78.4, screening length: 5.74355 Bohr) occupying 0.728411 of unit cell:	Completed after 0 iterations at t[s]:   9267.90
ElecMinimize: 	Wrong curvature in test step, increasing alphaT to 1.527358e-01.
	Linear fluid (dielectric constant: 78.4, screening length: 5.74355 Bohr) occupying 0.728411 of unit cell:	Completed after 0 iterations at t[s]:   9288.59
	FillingsUpdate:  mu: -0.196590217  nElectrons: 897.000000
	SubspaceRotationAdjust: set factor to 0.231
ElecMinimize: Iter:  16  F: -3501.457103592308613  |grad|_K:  8.164e-09  alpha: -1.206e+01  linmin: -3.984e-04  t[s]:   9332.23
	Linear fluid (dielectric constant: 78.4, screening length: 5.74355 Bohr) occupying 0.728412 of unit cell:	Completed after 2 iterations at t[s]:   9368.41
	Linear fluid (dielectric constant: 78.4, screening length: 5.74355 Bohr) occupying 0.728411 of unit cell:	Completed after 0 iterations at t[s]:   9401.41
	FillingsUpdate:  mu: -0.196516204  nElectrons: 897.000000
	SubspaceRotationAdjust: set factor to 0.167
ElecMinimize: Iter:  17  F: -3501.457103640472269  |grad|_K:  2.850e-08  alpha:  1.654e-01  linmin:  4.386e-04  t[s]:   9445.33
ElecMinimize: 	Bad step direction: g.d > 0.
ElecMinimize: 	Undoing step.
	Linear fluid (dielectric constant: 78.4, screening length: 5.74355 Bohr) occupying 0.728411 of unit cell:	Completed after 0 iterations at t[s]:   9481.15
ElecMinimize: 	Step failed: resetting search direction.
	FillingsUpdate:  mu: -0.196516204  nElectrons: 897.000000
	SubspaceRotationAdjust: set factor to 0.135
ElecMinimize: Iter:  18  F: -3501.457103640457717  |grad|_K:  2.563e-08  alpha:  0.000e+00
	Linear fluid (dielectric constant: 78.4, screening length: 5.74355 Bohr) occupying 0.728411 of unit cell:	Completed after 2 iterations at t[s]:   9560.91
	Linear fluid (dielectric constant: 78.4, screening length: 5.74355 Bohr) occupying 0.728411 of unit cell:	Completed after 0 iterations at t[s]:   9593.53
ElecMinimize: 	Step increased F by 4.940603e-08, reducing alpha to 4.629646e-03.
	Linear fluid (dielectric constant: 78.4, screening length: 5.74355 Bohr) occupying 0.728411 of unit cell:	Completed after 0 iterations at t[s]:   9664.17
ElecMinimize: 	Step increased F by 4.985759e-08, reducing alpha to 4.629646e-04.
	Linear fluid (dielectric constant: 78.4, screening length: 5.74355 Bohr) occupying 0.728411 of unit cell:	Completed after 0 iterations at t[s]:   9734.91
ElecMinimize: 	Step increased F by 4.992262e-08, reducing alpha to 4.629646e-05.
ElecMinimize: 	Step failed to reduce F after 3 attempts. Quitting step.
ElecMinimize: 	Undoing step.
	Linear fluid (dielectric constant: 78.4, screening length: 5.74355 Bohr) occupying 0.728411 of unit cell:	Completed after 0 iterations at t[s]:   9805.44
ElecMinimize: 	Step failed along negative gradient direction.
ElecMinimize: Probably at roundoff error limit. (Stopping)
Setting wave functions to eigenvectors of Hamiltonian

# Ionic positions in lattice coordinates:
ion C   0.167452169179508   0.083930512465653   0.557338760279920 1
ion C   0.084166973247756   0.167282358154913   0.442669724584967 1
ion C   0.417452169179508   0.083930512465653   0.557338760279920 1
ion C   0.334166973247756   0.167282358154913   0.442669724584967 1
ion C   0.667452169179508   0.083930512465653   0.557338760279920 1
ion C   0.584166973247756   0.167282358154913   0.442669724584967 1
ion C   0.917452169179508   0.083930512465653   0.557338760279920 1
ion C   0.834166973247756   0.167282358154913   0.442669724584967 1
ion C   0.167452169179508   0.333930512465653   0.557338760279920 1
ion C   0.084166973247756   0.417282358154913   0.442669724584967 1
ion C   0.417452169179508   0.333930512465653   0.557338760279920 1
ion C   0.334166973247756   0.417282358154913   0.442669724584967 1
ion C   0.667452169179508   0.333930512465653   0.557338760279920 1
ion C   0.584166973247756   0.417282358154913   0.442669724584967 1
ion C   0.917452169179508   0.333930512465653   0.557338760279920 1
ion C   0.834166973247756   0.417282358154913   0.442669724584967 1
ion C   0.167452169179508   0.583930512465653   0.557338760279920 1
ion C   0.084166973247756   0.667282358154913   0.442669724584967 1
ion C   0.417452169179508   0.583930512465653   0.557338760279920 1
ion C   0.334166973247756   0.667282358154913   0.442669724584967 1
ion C   0.667452169179508   0.583930512465653   0.557338760279920 1
ion C   0.584166973247756   0.667282358154913   0.442669724584967 1
ion C   0.917452169179508   0.583930512465653   0.557338760279920 1
ion C   0.834166973247756   0.667282358154913   0.442669724584967 1
ion C   0.167452169179508   0.833930512465653   0.557338760279920 1
ion C   0.084166973247756   0.917282358154913   0.442669724584967 1
ion C   0.417452169179508   0.833930512465653   0.557338760279920 1
ion C   0.334166973247756   0.917282358154913   0.442669724584967 1
ion C   0.667452169179508   0.833930512465653   0.557338760279920 1
ion C   0.584166973247756   0.917282358154913   0.442669724584967 1
ion C   0.917452169179508   0.833930512465653   0.557338760279920 1
ion C   0.834166973247756   0.917282358154913   0.442669724584967 1
ion Ti   0.000710465918496   0.000531485797347   0.500005422492624 1
ion Ti   0.084055443905203   0.167207576449417   0.616956468732254 1
ion Ti   0.167470738227991   0.083937492793701   0.383049511685753 1
ion Ti   0.250710465918496   0.000531485797347   0.500005422492624 1
ion Ti   0.334055443905203   0.167207576449417   0.616956468732254 1
ion Ti   0.417470738227991   0.083937492793701   0.383049511685753 1
ion Ti   0.500710465918496   0.000531485797347   0.500005422492624 1
ion Ti   0.584055443905203   0.167207576449417   0.616956468732254 1
ion Ti   0.667470738227991   0.083937492793701   0.383049511685753 1
ion Ti   0.750710465918496   0.000531485797347   0.500005422492624 1
ion Ti   0.834055443905203   0.167207576449417   0.616956468732254 1
ion Ti   0.917470738227991   0.083937492793701   0.383049511685753 1
ion Ti   0.000710465918496   0.250531485797347   0.500005422492624 1
ion Ti   0.084055443905203   0.417207576449417   0.616956468732254 1
[...]
	SubspaceRotationAdjust: set factor to 0.882
ElecMinimize: Iter:   7  F: -3501.458315292290081  |grad|_K:  4.443e-08  alpha:  6.631e-05
	Linear fluid (dielectric constant: 78.4, screening length: 5.74355 Bohr) occupying 0.728118 of unit cell:	Completed after 3 iterations at t[s]:  25265.94
	Linear fluid (dielectric constant: 78.4, screening length: 5.74355 Bohr) occupying 0.728118 of unit cell:	Completed after 0 iterations at t[s]:  25298.67
	FillingsUpdate:  mu: -0.200219256  nElectrons: 897.000000
	SubspaceRotationAdjust: set factor to 0.521
ElecMinimize: Iter:   8  F: -3501.458315350302655  |grad|_K:  6.056e-08  alpha:  7.436e-02  linmin:  1.155e-03  t[s]:  25342.74
ElecMinimize: 	Bad step direction: g.d > 0.
ElecMinimize: 	Undoing step.
	Linear fluid (dielectric constant: 78.4, screening length: 5.74355 Bohr) occupying 0.728118 of unit cell:	Completed after 0 iterations at t[s]:  25378.31
ElecMinimize: 	Step failed: resetting search direction.
	FillingsUpdate:  mu: -0.200219256  nElectrons: 897.000000
	SubspaceRotationAdjust: set factor to 0.34
ElecMinimize: Iter:   9  F: -3501.458315350316752  |grad|_K:  4.895e-08  alpha:  0.000e+00
	Linear fluid (dielectric constant: 78.4, screening length: 5.74355 Bohr) occupying 0.728118 of unit cell:	Completed after 3 iterations at t[s]:  25458.52
	Linear fluid (dielectric constant: 78.4, screening length: 5.74355 Bohr) occupying 0.728118 of unit cell:	Completed after 0 iterations at t[s]:  25490.93
ElecMinimize: 	Step increased F by 6.616210e-08, reducing alpha to 2.339725e-03.
	Linear fluid (dielectric constant: 78.4, screening length: 5.74355 Bohr) occupying 0.728118 of unit cell:	Completed after 0 iterations at t[s]:  25561.52
ElecMinimize: 	Step increased F by 6.891378e-08, reducing alpha to 2.339725e-04.
	Linear fluid (dielectric constant: 78.4, screening length: 5.74355 Bohr) occupying 0.728118 of unit cell:	Completed after 0 iterations at t[s]:  25633.05
ElecMinimize: 	Step increased F by 6.917708e-08, reducing alpha to 2.339725e-05.
ElecMinimize: 	Step failed to reduce F after 3 attempts. Quitting step.
ElecMinimize: 	Undoing step.
	Linear fluid (dielectric constant: 78.4, screening length: 5.74355 Bohr) occupying 0.728118 of unit cell:	Completed after 0 iterations at t[s]:  25703.70
ElecMinimize: 	Step failed along negative gradient direction.
ElecMinimize: Probably at roundoff error limit. (Stopping)
Setting wave functions to eigenvectors of Hamiltonian

# Ionic positions in lattice coordinates:
ion C   0.167451469529961   0.083923388869907   0.557431136568309 1
ion C   0.084144070769823   0.167271191021801   0.442577761989058 1
ion C   0.417451469529961   0.083923388869907   0.557431136568309 1
ion C   0.334144070769823   0.167271191021801   0.442577761989058 1
ion C   0.667451469529961   0.083923388869907   0.557431136568309 1
ion C   0.584144070769823   0.167271191021801   0.442577761989058 1
ion C   0.917451469529961   0.083923388869907   0.557431136568309 1
ion C   0.834144070769823   0.167271191021801   0.442577761989058 1
ion C   0.167451469529961   0.333923388869907   0.557431136568309 1
ion C   0.084144070769823   0.417271191021801   0.442577761989058 1
ion C   0.417451469529961   0.333923388869907   0.557431136568309 1
ion C   0.334144070769823   0.417271191021801   0.442577761989058 1
ion C   0.667451469529961   0.333923388869907   0.557431136568309 1
ion C   0.584144070769823   0.417271191021801   0.442577761989058 1
ion C   0.917451469529961   0.333923388869907   0.557431136568309 1
ion C   0.834144070769823   0.417271191021801   0.442577761989058 1
ion C   0.167451469529961   0.583923388869907   0.557431136568309 1
ion C   0.084144070769823   0.667271191021801   0.442577761989058 1
ion C   0.417451469529961   0.583923388869907   0.557431136568309 1
ion C   0.334144070769823   0.667271191021801   0.442577761989058 1
ion C   0.667451469529961   0.583923388869907   0.557431136568309 1
ion C   0.584144070769823   0.667271191021801   0.442577761989058 1
ion C   0.917451469529961   0.583923388869907   0.557431136568309 1
ion C   0.834144070769823   0.667271191021801   0.442577761989058 1
ion C   0.167451469529961   0.833923388869907   0.557431136568309 1
ion C   0.084144070769823   0.917271191021801   0.442577761989058 1
ion C   0.417451469529961   0.833923388869907   0.557431136568309 1
ion C   0.334144070769823   0.917271191021801   0.442577761989058 1
ion C   0.667451469529961   0.833923388869907   0.557431136568309 1
ion C   0.584144070769823   0.917271191021801   0.442577761989058 1
ion C   0.917451469529961   0.833923388869907   0.557431136568309 1
ion C   0.834144070769823   0.917271191021801   0.442577761989058 1
ion Ti   0.000732746829371   0.000551873074184   0.500003488820477 1
ion Ti   0.084066630645308   0.167218751386576   0.616860866615502 1
ion Ti   0.167494050285512   0.083947845899431   0.383147025870392 1
ion Ti   0.250732746829371   0.000551873074184   0.500003488820477 1
ion Ti   0.334066630645308   0.167218751386576   0.616860866615502 1
ion Ti   0.417494050285512   0.083947845899431   0.383147025870392 1
ion Ti   0.500732746829371   0.000551873074184   0.500003488820477 1
ion Ti   0.584066630645307   0.167218751386576   0.616860866615502 1
ion Ti   0.667494050285513   0.083947845899431   0.383147025870392 1
ion Ti   0.750732746829371   0.000551873074184   0.500003488820477 1
ion Ti   0.834066630645307   0.167218751386576   0.616860866615502 1
ion Ti   0.917494050285513   0.083947845899431   0.383147025870392 1
ion Ti   0.000732746829371   0.250551873074185   0.500003488820477 1
ion Ti   0.084066630645308   0.417218751386576   0.616860866615502 1
ion Ti   0.167494050285512   0.333947845899431   0.383147025870392 1
ion Ti   0.250732746829371   0.250551873074185   0.500003488820477 1
ion Ti   0.334066630645308   0.417218751386576   0.616860866615502 1
ion Ti   0.417494050285512   0.333947845899431   0.383147025870392 1
ion Ti   0.500732746829371   0.250551873074185   0.500003488820477 1
ion Ti   0.584066630645307   0.417218751386576   0.616860866615502 1
ion Ti   0.667494050285513   0.333947845899431   0.383147025870392 1
ion Ti   0.750732746829371   0.250551873074185   0.500003488820477 1
ion Ti   0.834066630645307   0.417218751386576   0.616860866615502 1
ion Ti   0.917494050285513   0.333947845899431   0.383147025870392 1
ion Ti   0.000732746829371   0.500551873074184   0.500003488820477 1
ion Ti   0.084066630645308   0.667218751386576   0.616860866615502 1
ion Ti   0.167494050285512   0.583947845899431   0.383147025870392 1
ion Ti   0.250732746829371   0.500551873074184   0.500003488820477 1
ion Ti   0.334066630645308   0.667218751386576   0.616860866615502 1
ion Ti   0.417494050285512   0.583947845899431   0.383147025870392 1
ion Ti   0.500732746829371   0.500551873074184   0.500003488820477 1
ion Ti   0.584066630645307   0.667218751386576   0.616860866615502 1
ion Ti   0.667494050285513   0.583947845899431   0.383147025870392 1
ion Ti   0.750732746829371   0.500551873074184   0.500003488820477 1
ion Ti   0.834066630645307   0.667218751386576   0.616860866615502 1
ion Ti   0.917494050285513   0.583947845899431   0.383147025870392 1
ion Ti   0.000732746829371   0.750551873074184   0.500003488820477 1
ion Ti   0.084066630645308   0.917218751386576   0.616860866615502 1
ion Ti   0.167494050285512   0.833947845899431   0.383147025870392 1
ion Ti   0.250732746829371   0.750551873074184   0.500003488820477 1
ion Ti   0.334066630645308   0.917218751386576   0.616860866615502 1
ion Ti   0.417494050285512   0.833947845899431   0.383147025870392 1
ion Ti   0.500732746829371   0.750551873074184   0.500003488820477 1
ion Ti   0.584066630645307   0.917218751386576   0.616860866615502 1
ion Ti   0.667494050285513   0.833947845899431   0.383147025870392 1
ion Ti   0.750732746829371   0.750551873074184   0.500003488820477 1
ion Ti   0.834066630645307   0.917218751386576   0.616860866615502 1
ion Ti   0.917494050285513   0.833947845899431   0.383147025870392 1
ion O   0.000808194019190   0.000609121102156   0.659680740347541 1
ion O   0.000862919483334   0.000637758895945   0.340328944788720 1
ion O   0.250808194019190   0.000609121102156   0.659680740347541 1
ion O   0.250862919483334   0.000637758895945   0.340328944788720 1
ion O   0.500808194019190   0.000609121102156   0.659680740347541 1
ion O   0.500862919483334   0.000637758895945   0.340328944788720 1
ion O   0.750808194019190   0.000609121102156   0.659680740347541 1
ion O   0.750862919483334   0.000637758895945   0.340328944788720 1
ion O   0.000808194019190   0.250609121102156   0.659680740347541 1
ion O   0.000862919483334   0.250637758895945   0.340328944788720 1
ion O   0.250808194019190   0.250609121102156   0.659680740347541 1
ion O   0.250862919483334   0.250637758895945   0.340328944788720 1
ion O   0.500808194019190   0.250609121102156   0.659680740347541 1
ion O   0.500862919483334   0.250637758895945   0.340328944788720 1
ion O   0.750808194019190   0.250609121102156   0.659680740347541 1
ion O   0.750862919483334   0.250637758895945   0.340328944788720 1
ion O   0.000808194019190   0.500609121102156   0.659680740347541 1
ion O   0.000862919483334   0.500637758895945   0.340328944788720 1
ion O   0.250808194019190   0.500609121102156   0.659680740347541 1
ion O   0.250862919483334   0.500637758895945   0.340328944788720 1
ion O   0.500808194019190   0.500609121102156   0.659680740347541 1
ion O   0.500862919483334   0.500637758895945   0.340328944788720 1
ion O   0.750808194019190   0.500609121102156   0.659680740347541 1
ion O   0.750862919483334   0.500637758895945   0.340328944788720 1
ion O   0.000808194019190   0.750609121102156   0.659680740347541 1
ion O   0.000862919483334   0.750637758895945   0.340328944788720 1
ion O   0.250808194019190   0.750609121102156   0.659680740347541 1
ion O   0.250862919483334   0.750637758895945   0.340328944788720 1
ion O   0.500808194019190   0.750609121102156   0.659680740347541 1
ion O   0.500862919483334   0.750637758895945   0.340328944788720 1
ion O   0.750808194019190   0.750609121102156   0.659680740347541 1
ion O   0.750862919483334   0.750637758895945   0.340328944788720 1


# Forces in Lattice coordinates:
force C  -0.000588259625968  -0.000191467349640  -0.003208615048715 1
force C  -0.000533189844208  -0.000199306548310   0.002768226331902 1
force C  -0.000588259625968  -0.000191467349640  -0.003208615048715 1
force C  -0.000533189844208  -0.000199306548310   0.002768226332015 1
force C  -0.000588259625968  -0.000191467349640  -0.003208615048715 1
force C  -0.000533189844208  -0.000199306548310   0.002768226331959 1
force C  -0.000588259625968  -0.000191467349640  -0.003208615048715 1
force C  -0.000533189844208  -0.000199306548310   0.002768226332015 1
force C  -0.000588259625968  -0.000191467349640  -0.003208615048942 1
force C  -0.000533189844208  -0.000199306548310   0.002768226331959 1
force C  -0.000588259625968  -0.000191467349640  -0.003208615048829 1
force C  -0.000533189844208  -0.000199306548310   0.002768226331959 1
force C  -0.000588259625968  -0.000191467349640  -0.003208615048942 1
force C  -0.000533189844208  -0.000199306548310   0.002768226331959 1
force C  -0.000588259625968  -0.000191467349640  -0.003208615048829 1
force C  -0.000533189844208  -0.000199306548310   0.002768226331902 1
force C  -0.000588259625968  -0.000191467349640  -0.003208615048829 1
force C  -0.000533189844208  -0.000199306548310   0.002768226331959 1
force C  -0.000588259625968  -0.000191467349640  -0.003208615048886 1
force C  -0.000533189844208  -0.000199306548310   0.002768226331959 1
force C  -0.000588259625968  -0.000191467349640  -0.003208615048829 1
force C  -0.000533189844208  -0.000199306548310   0.002768226331959 1
force C  -0.000588259625968  -0.000191467349640  -0.003208615048886 1
force C  -0.000533189844208  -0.000199306548310   0.002768226331959 1
force C  -0.000588259625968  -0.000191467349640  -0.003208615048715 1
force C  -0.000533189844208  -0.000199306548310   0.002768226332015 1
force C  -0.000588259625968  -0.000191467349640  -0.003208615048772 1
force C  -0.000533189844208  -0.000199306548310   0.002768226331959 1
force C  -0.000588259625968  -0.000191467349640  -0.003208615048715 1
force C  -0.000533189844208  -0.000199306548310   0.002768226331959 1
force C  -0.000588259625968  -0.000191467349640  -0.003208615048658 1
force C  -0.000533189844208  -0.000199306548310   0.002768226332072 1
force Ti  -0.000695834637431  -0.000253915751194   0.001047896074112 1
force Ti  -0.000284441782593  -0.000376928436619   0.007245183502274 1
force Ti  -0.001255271194222  -0.000122082089115  -0.008268629429098 1
force Ti  -0.000695834637431  -0.000253915751194   0.001047896074112 1
force Ti  -0.000284441782593  -0.000376928436619   0.007245183502729 1
force Ti  -0.001255271194222  -0.000122082089115  -0.008268629429552 1
force Ti  -0.000695834637431  -0.000253915751194   0.001047896074112 1
force Ti  -0.000284441782593  -0.000376928436619   0.007245183502274 1
force Ti  -0.001255271194222  -0.000122082089115  -0.008268629429552 1
force Ti  -0.000695834637431  -0.000253915751194   0.001047896074112 1
force Ti  -0.000284441782593  -0.000376928436619   0.007245183502274 1
force Ti  -0.001255271194222  -0.000122082089115  -0.008268629429097 1
force Ti  -0.000695834637431  -0.000253915751194   0.001047896074112 1
force Ti  -0.000284441782593  -0.000376928436619   0.007245183502275 1
force Ti  -0.001255271194222  -0.000122082089115  -0.008268629429552 1
force Ti  -0.000695834637431  -0.000253915751194   0.001047896074112 1
force Ti  -0.000284441782593  -0.000376928436619   0.007245183502274 1
force Ti  -0.001255271194222  -0.000122082089115  -0.008268629429098 1
force Ti  -0.000695834637431  -0.000253915751194   0.001047896074112 1
force Ti  -0.000284441782593  -0.000376928436619   0.007245183502274 1
force Ti  -0.001255271194222  -0.000122082089115  -0.008268629429553 1
force Ti  -0.000695834637431  -0.000253915751194   0.001047896074112 1
force Ti  -0.000284441782593  -0.000376928436619   0.007245183501820 1
force Ti  -0.001255271194222  -0.000122082089115  -0.008268629429553 1
force Ti  -0.000695834637431  -0.000253915751194   0.001047896074112 1
force Ti  -0.000284441782593  -0.000376928436619   0.007245183503639 1
force Ti  -0.001255271194222  -0.000122082089115  -0.008268629430462 1
force Ti  -0.000695834637431  -0.000253915751194   0.001047896074112 1
force Ti  -0.000284441782593  -0.000376928436619   0.007245183503639 1
force Ti  -0.001255271194222  -0.000122082089115  -0.008268629430007 1
force Ti  -0.000695834637431  -0.000253915751194   0.001047896074112 1
force Ti  -0.000284441782593  -0.000376928436619   0.007245183502729 1
force Ti  -0.001255271194222  -0.000122082089115  -0.008268629430007 1
force Ti  -0.000695834637431  -0.000253915751194   0.001047896074112 1
force Ti  -0.000284441782593  -0.000376928436619   0.007245183503184 1
force Ti  -0.001255271194222  -0.000122082089115  -0.008268629430007 1
force Ti  -0.000695834637431  -0.000253915751194   0.001047896074112 1
force Ti  -0.000284441782593  -0.000376928436619   0.007245183503184 1
force Ti  -0.001255271194222  -0.000122082089115  -0.008268629429098 1
force Ti  -0.000695834637431  -0.000253915751194   0.001047896074112 1
force Ti  -0.000284441782593  -0.000376928436619   0.007245183502275 1
force Ti  -0.001255271194222  -0.000122082089115  -0.008268629429552 1
force Ti  -0.000695834637431  -0.000253915751194   0.001047896074112 1
force Ti  -0.000284441782593  -0.000376928436619   0.007245183502729 1
force Ti  -0.001255271194222  -0.000122082089115  -0.008268629429552 1
force Ti  -0.000695834637431  -0.000253915751194   0.001047896074112 1
force Ti  -0.000284441782593  -0.000376928436619   0.007245183502729 1
force Ti  -0.001255271194222  -0.000122082089115  -0.008268629429552 1
force O  -0.000641297823082  -0.000158759203100  -0.001968554560200 1
force O  -0.000443336159425  -0.000189243012569   0.001118547428884 1
force O  -0.000641297823082  -0.000158759203100  -0.001968554559749 1
force O  -0.000443336159425  -0.000189243012569   0.001118547428430 1
force O  -0.000641297823082  -0.000158759203100  -0.001968554559745 1
force O  -0.000443336159425  -0.000189243012569   0.001118547428884 1
force O  -0.000641297823082  -0.000158759203100  -0.001968554561113 1
force O  -0.000443336159425  -0.000189243012569   0.001118547428426 1
force O  -0.000641297823082  -0.000158759203100  -0.001968554560200 1
force O  -0.000443336159425  -0.000189243012569   0.001118547428430 1
force O  -0.000641297823082  -0.000158759203100  -0.001968554560200 1
force O  -0.000443336159425  -0.000189243012569   0.001118547428881 1
force O  -0.000641297823082  -0.000158759203100  -0.001968554560655 1
force O  -0.000443336159425  -0.000189243012569   0.001118547428430 1
force O  -0.000641297823082  -0.000158759203100  -0.001968554560655 1
force O  -0.000443336159425  -0.000189243012569   0.001118547428430 1
force O  -0.000641297823082  -0.000158759203100  -0.001968554560655 1
force O  -0.000443336159425  -0.000189243012569   0.001118547428881 1
force O  -0.000641297823082  -0.000158759203100  -0.001968554560651 1
force O  -0.000443336159425  -0.000189243012569   0.001118547428877 1
force O  -0.000641297823082  -0.000158759203100  -0.001968554560658 1
force O  -0.000443336159425  -0.000189243012569   0.001118547427971 1
force O  -0.000641297823082  -0.000158759203100  -0.001968554560655 1
force O  -0.000443336159425  -0.000189243012569   0.001118547428884 1
force O  -0.000641297823082  -0.000158759203100  -0.001968554560655 1
force O  -0.000443336159425  -0.000189243012569   0.001118547429336 1
force O  -0.000641297823082  -0.000158759203100  -0.001968554560655 1
force O  -0.000443336159425  -0.000189243012569   0.001118547428881 1
force O  -0.000641297823082  -0.000158759203100  -0.001968554560200 1
force O  -0.000443336159425  -0.000189243012569   0.001118547429339 1
force O  -0.000641297823082  -0.000158759203100  -0.001968554560200 1
force O  -0.000443336159425  -0.000189243012569   0.001118547429790 1

# Energy components:
   A_diel =       -0.1551354315705661
   Eewald =    48756.3322040231068968
       EH =    51753.7554598731949227
     Eloc =  -104768.5906853573542321
      Enl =      356.4186347987925387
      Exc =     -608.8196989544843518
 Exc_core =       66.0153366825545618
       KE =      943.6530978725995737
  MuShift =       -0.0239459268909682
-------------------------------------
     Etot =    -3501.4147324200480398
       TS =        0.0435828610639013
-------------------------------------
        F =    -3501.4583152811119362

IonicMinimize: Iter:   7  F: -3501.458315281111936  |grad|_K:  6.367e-05  alpha:  1.000e+00  linmin: -4.395e-01  t[s]:  25776.95
IonicMinimize: Converged (|grad|_K<1.000000e-04).

#--- Lowdin population analysis ---
# oxidation-state C -1.125 -1.125 -1.125 -1.125 -1.125 -1.125 -1.125 -1.125 -1.125 -1.125 -1.125 -1.125 -1.125 -1.125 -1.125 -1.125 -1.125 -1.125 -1.125 -1.125 -1.125 -1.125 -1.125 -1.125 -1.125 -1.125 -1.125 -1.125 -1.125 -1.125 -1.125 -1.125
# oxidation-state Ti +1.181 +1.378 +1.378 +1.181 +1.378 +1.378 +1.181 +1.378 +1.378 +1.181 +1.378 +1.378 +1.181 +1.378 +1.378 +1.181 +1.378 +1.378 +1.181 +1.378 +1.378 +1.181 +1.378 +1.378 +1.181 +1.378 +1.378 +1.181 +1.378 +1.378 +1.181 +1.378 +1.378 +1.181 +1.378 +1.378 +1.181 +1.378 +1.378 +1.181 +1.378 +1.378 +1.181 +1.378 +1.378 +1.181 +1.378 +1.378
# oxidation-state O -0.740 -0.740 -0.740 -0.740 -0.740 -0.740 -0.740 -0.740 -0.740 -0.740 -0.740 -0.740 -0.740 -0.740 -0.740 -0.740 -0.740 -0.740 -0.740 -0.740 -0.740 -0.740 -0.740 -0.740 -0.740 -0.740 -0.740 -0.740 -0.740 -0.740 -0.740 -0.740


Dumping 'NbTe2.fillings' ... done
Dumping 'NbTe2.wfns' ... done
Dumping 'NbTe2.fluidState' ... done
Dumping 'NbTe2.ionpos' ... done
Dumping 'NbTe2.eigenvals' ... done
End date and time: Thu Apr  1 21:31:49 2021  (Duration: 0-7:09:56.96)
Done!
