
*************** JDFTx 1.5.0  ***************

Start date and time: Fri Apr 16 09:36:27 2021
Executable jdftx_gpu with command-line: -i Charged.in -o Charged.out
Running on hosts (process indices):  amax (0-6)
Divided in process groups (process indices):  0 (0)  1 (1)  2 (2)  3 (3)  4 (4)  5 (5)  6 (6)
gpuInit: Found compatible cuda device 0 'Tesla K80'
gpuInit: Found compatible cuda device 1 'Tesla K80'
gpuInit: Found compatible cuda device 2 'Tesla K80'
gpuInit: Found compatible cuda device 3 'Tesla K80'
gpuInit: Found compatible cuda device 4 'Tesla K80'
gpuInit: Found compatible cuda device 5 'Tesla K80'
gpuInit: Found compatible cuda device 6 'Tesla K80'
gpuInit: Selected device 0
Resource initialization completed at t[s]:      3.93
Run totals: 7 processes, 24 threads, 7 GPUs


Input parsed successfully to the following command list (including defaults):

basis kpoint-dependent
cache-projectors no
coords-type Lattice
core-overlap-check none
coulomb-interaction Slab 001
coulomb-truncation-embed 0.5 0.5 0.5
davidson-band-ratio 1.1
dump End State
dump-name NbTe2.$VAR
elec-cutoff 20
elec-eigen-algo Davidson
elec-ex-corr gga-PBE
elec-initial-charge 0.500000
elec-smearing Gauss 0.0073499
electronic-minimize  \
	dirUpdateScheme      FletcherReeves \
	linminMethod         DirUpdateRecommended \
	nIterations          200 \
	history              15 \
	knormThreshold       0 \
	energyDiffThreshold  1e-08 \
	nEnergyDiff          2 \
	alphaTstart          1 \
	alphaTmin            1e-10 \
	updateTestStepSize   yes \
	alphaTreduceFactor   0.1 \
	alphaTincreaseFactor 3 \
	nAlphaAdjustMax      3 \
	wolfeEnergy          0.0001 \
	wolfeGradient        0.9 \
	fdTest               no
exchange-regularization WignerSeitzTruncated
fluid LinearPCM 298.000000 1.013250
fluid-anion F- 1 MeanFieldLJ \
	epsBulk 1 \
	pMol 0 \
	epsInf 1 \
	Pvap 0 \
	sigmaBulk 0 \
	Rvdw 2.24877 \
	Res 0 \
	tauNuc 343133
fluid-cation Na+ 1 MeanFieldLJ \
	epsBulk 1 \
	pMol 0 \
	epsInf 1 \
	Pvap 0 \
	sigmaBulk 0 \
	Rvdw 2.19208 \
	Res 0 \
	tauNuc 343133
fluid-ex-corr lda-TF lda-PZ
fluid-gummel-loop 10 1.000000e-05
fluid-minimize  \
	dirUpdateScheme      PolakRibiere \
	linminMethod         DirUpdateRecommended \
	nIterations          400 \
	history              15 \
	knormThreshold       1e-11 \
	energyDiffThreshold  0 \
	nEnergyDiff          2 \
	alphaTstart          1 \
	alphaTmin            1e-10 \
	updateTestStepSize   yes \
	alphaTreduceFactor   0.1 \
	alphaTincreaseFactor 3 \
	nAlphaAdjustMax      6 \
	wolfeEnergy          0.0001 \
	wolfeGradient        0.9 \
	fdTest               no
fluid-solvent H2O 55.338 ScalarEOS \
	epsBulk 78.4 \
	pMol 0.92466 \
	epsInf 1.77 \
	Pvap 1.06736e-10 \
	sigmaBulk 4.62e-05 \
	Rvdw 2.61727 \
	Res 1.42 \
	tauNuc 343133 \
	poleEl 15 7 1
forces-output-coords Positions
initial-state NbTe2.$VAR
ion Mo   0.000160000625000   0.125486616144824   0.570380142538101 1
ion Mo   0.125160000625000   0.125493810345100   0.429625233768340 1
ion Mo   0.250160000625000   0.125486616144824   0.570380142538101 1
ion Mo   0.375160000625000   0.125493810345100   0.429625233768340 1
ion Mo   0.500160000625000   0.125486616144824   0.570380142538101 1
ion Mo   0.625160000625000   0.125493810345100   0.429625233768340 1
ion Mo   0.750160000625000   0.125486616144824   0.570380142538101 1
ion Mo   0.875160000625000   0.125493810345100   0.429625233768340 1
ion Mo   0.000160000625000   0.375486616144824   0.570380142538101 1
ion Mo   0.125160000625000   0.375493810345100   0.429625233768340 1
ion Mo   0.250160000625000   0.375486616144824   0.570380142538101 1
ion Mo   0.375160000625000   0.375493810345100   0.429625233768340 1
ion Mo   0.500160000625000   0.375486616144824   0.570380142538101 1
ion Mo   0.625160000625000   0.375493810345100   0.429625233768340 1
ion Mo   0.750160000625000   0.375486616144824   0.570380142538101 1
ion Mo   0.875160000625000   0.375493810345100   0.429625233768340 1
ion Mo   0.000160000625000   0.625486616144824   0.570380142538101 1
ion Mo   0.125160000625000   0.625493810345100   0.429625233768340 1
ion Mo   0.250160000625000   0.625486616144824   0.570380142538101 1
ion Mo   0.375160000625000   0.625493810345100   0.429625233768340 1
ion Mo   0.500160000625000   0.625486616144824   0.570380142538101 1
ion Mo   0.625160000625000   0.625493810345100   0.429625233768340 1
ion Mo   0.750160000625000   0.625486616144824   0.570380142538101 1
ion Mo   0.875160000625000   0.625493810345100   0.429625233768340 1
ion Mo   0.000160000625000   0.875486616144824   0.570380142538101 1
ion Mo   0.125160000625000   0.875493810345100   0.429625233768340 1
ion Mo   0.250160000625000   0.875486616144824   0.570380142538101 1
ion Mo   0.375160000625000   0.875493810345100   0.429625233768340 1
ion Mo   0.500160000625000   0.875486616144824   0.570380142538101 1
ion Mo   0.625160000625000   0.875493810345100   0.429625233768340 1
ion Mo   0.750160000625000   0.875486616144824   0.570380142538101 1
ion Mo   0.875160000625000   0.875493810345100   0.429625233768340 1
ion B   0.000160000625000   0.000510623589349   0.478502488694816 1
ion B   0.125160000625000   0.000506145876216   0.521494522801560 1
ion B   0.250160000625000   0.000510623589349   0.478502488694816 1
ion B   0.375160000625000   0.000506145876216   0.521494522801560 1
ion B   0.500160000625000   0.000510623589349   0.478502488694816 1
ion B   0.625160000625000   0.000506145876216   0.521494522801560 1
ion B   0.750160000625000   0.000510623589349   0.478502488694816 1
ion B   0.875160000625000   0.000506145876216   0.521494522801560 1
ion B   0.000160000625000   0.250510623589349   0.478502488694816 1
ion B   0.125160000625000   0.250506145876216   0.521494522801560 1
ion B   0.250160000625000   0.250510623589349   0.478502488694816 1
ion B   0.375160000625000   0.250506145876216   0.521494522801560 1
ion B   0.500160000625000   0.250510623589349   0.478502488694816 1
ion B   0.625160000625000   0.250506145876216   0.521494522801560 1
ion B   0.750160000625000   0.250510623589349   0.478502488694816 1
ion B   0.875160000625000   0.250506145876216   0.521494522801560 1
ion B   0.000160000625000   0.500510623589349   0.478502488694816 1
ion B   0.125160000625000   0.500506145876216   0.521494522801560 1
ion B   0.250160000625000   0.500510623589349   0.478502488694816 1
ion B   0.375160000625000   0.500506145876216   0.521494522801560 1
ion B   0.500160000625000   0.500510623589349   0.478502488694816 1
ion B   0.625160000625000   0.500506145876216   0.521494522801560 1
ion B   0.750160000625000   0.500510623589349   0.478502488694816 1
ion B   0.875160000625000   0.500506145876216   0.521494522801560 1
ion B   0.000160000625000   0.750510623589349   0.478502488694816 1
ion B   0.125160000625000   0.750506145876216   0.521494522801560 1
ion B   0.250160000625000   0.750510623589349   0.478502488694816 1
ion B   0.375160000625000   0.750506145876216   0.521494522801560 1
ion B   0.500160000625000   0.750510623589349   0.478502488694816 1
ion B   0.625160000625000   0.750506145876216   0.521494522801560 1
ion B   0.750160000625000   0.750510623589349   0.478502488694816 1
ion B   0.875160000625000   0.750506145876216   0.521494522801560 1
ion O   0.125160000625000   0.125418060344119   0.635955935936650 1
ion O   0.000160000625000   0.125434732700392   0.364031697260534 1
ion O   0.375160000625000   0.125418060344119   0.635955935936650 1
ion O   0.250160000625000   0.125434732700392   0.364031697260534 1
ion O   0.625160000625000   0.125418060344119   0.635955935936650 1
ion O   0.500160000625000   0.125434732700392   0.364031697260534 1
ion O   0.875160000625000   0.125418060344119   0.635955935936650 1
ion O   0.750160000625000   0.125434732700392   0.364031697260534 1
ion O   0.125160000625000   0.375418060344119   0.635955935936650 1
ion O   0.000160000625000   0.375434732700392   0.364031697260534 1
ion O   0.375160000625000   0.375418060344119   0.635955935936650 1
ion O   0.250160000625000   0.375434732700392   0.364031697260534 1
ion O   0.625160000625000   0.375418060344119   0.635955935936650 1
ion O   0.500160000625000   0.375434732700392   0.364031697260534 1
ion O   0.875160000625000   0.375418060344119   0.635955935936650 1
ion O   0.750160000625000   0.375434732700392   0.364031697260534 1
ion O   0.125160000625000   0.625418060344119   0.635955935936650 1
ion O   0.000160000625000   0.625434732700393   0.364031697260534 1
ion O   0.375160000625000   0.625418060344119   0.635955935936650 1
ion O   0.250160000625000   0.625434732700393   0.364031697260534 1
ion O   0.625160000625000   0.625418060344119   0.635955935936650 1
ion O   0.500160000625000   0.625434732700393   0.364031697260534 1
ion O   0.875160000625000   0.625418060344119   0.635955935936650 1
ion O   0.750160000625000   0.625434732700393   0.364031697260534 1
ion O   0.125160000625000   0.875418060344119   0.635955935936650 1
ion O   0.000160000625000   0.875434732700393   0.364031697260534 1
ion O   0.375160000625000   0.875418060344119   0.635955935936650 1
ion O   0.250160000625000   0.875434732700393   0.364031697260534 1
ion O   0.625160000625000   0.875418060344119   0.635955935936650 1
ion O   0.500160000625000   0.875434732700393   0.364031697260534 1
ion O   0.875160000625000   0.875418060344119   0.635955935936650 1
ion O   0.750160000625000   0.875434732700393   0.364031697260534 1
ion-species GBRV/$ID_pbe.uspp
ion-width Ecut
ionic-minimize  \
	dirUpdateScheme      L-BFGS \
	linminMethod         DirUpdateRecommended \
	nIterations          500 \
	history              15 \
	knormThreshold       0.0001 \
	energyDiffThreshold  1e-06 \
	nEnergyDiff          2 \
	alphaTstart          1 \
	alphaTmin            1e-10 \
	updateTestStepSize   yes \
	alphaTreduceFactor   0.1 \
	alphaTincreaseFactor 3 \
	nAlphaAdjustMax      3 \
	wolfeEnergy          0.0001 \
	wolfeGradient        0.9 \
	fdTest               no
kpoint   0.000000000000   0.000000000000   0.000000000000  1.00000000000000
kpoint-folding 3 3 1 
latt-move-scale 1 1 1
latt-scale 1.88973 1.88973 1.88973 
lattice Triclinic 11.4386 12.0462 20.3069 90 90 90
lattice-minimize  \
	dirUpdateScheme      L-BFGS \
	linminMethod         DirUpdateRecommended \
	nIterations          0 \
	history              15 \
	knormThreshold       0 \
	energyDiffThreshold  1e-06 \
	nEnergyDiff          2 \
	alphaTstart          1 \
	alphaTmin            1e-10 \
	updateTestStepSize   yes \
	alphaTreduceFactor   0.1 \
	alphaTincreaseFactor 3 \
	nAlphaAdjustMax      3 \
	wolfeEnergy          0.0001 \
	wolfeGradient        0.9 \
	fdTest               no
lcao-params -1 1e-06 0.0073499
pcm-variant CANDLE
spintype no-spin
subspace-rotation-factor 1 yes
symmetries automatic
symmetry-threshold 0.0001



---------- Setting up symmetries ----------

Found 8 point-group symmetries of the bravais lattice
Found 32 space-group symmetries with basis
Applied RMS atom displacement 4.46231e-15 bohrs to make symmetries exact.

---------- Initializing the Grid ----------
R = 
[    21.6158          0          0  ]
[          0     22.764          0  ]
[          0          0    38.3745  ]
unit cell volume = 18882.7
G =
[   0.290675          0          0  ]
[          0   0.276014          0  ]
[          0          0   0.163733  ]
Minimum fftbox size, Smin = [  88  92  156  ]
Chosen fftbox size, S = [  90  96  160  ]

---------- Exchange Correlation functional ----------
Initalized PBE GGA exchange.
Initalized PBE GGA correlation.

---------- Setting up pseudopotentials ----------
Width of ionic core gaussian charges (only for fluid interactions / plotting) set to 0.397384

Reading pseudopotential file '/home/guoxy/vasp/jdftx-1.5.0/build/pseudopotentials/GBRV/mo_pbe.uspp':
  Title: Mo.  Created by USPP 7.3.6 on 14-9-2013
  Reference state energy: -69.261020.  14 valence electrons in orbitals:
    |400>  occupation: 2  eigenvalue: -2.465796
    |410>  occupation: 6  eigenvalue: -1.510132
    |420>  occupation: 4  eigenvalue: -0.207728
    |500>  occupation: 2  eigenvalue: -0.179278
    |510>  occupation: 0  eigenvalue: -0.052696
  lMax: 2  lLocal: 3  QijEcut: 5
  6 projectors sampled on a log grid with 629 points:
    l: 0  eig: -2.465797  rCut: 1.8
    l: 0  eig: -0.179280  rCut: 1.8
    l: 1  eig: -1.510132  rCut: 2
    l: 1  eig: 0.150000  rCut: 2
    l: 2  eig: -0.052696  rCut: 2.2
    l: 2  eig: 0.150000  rCut: 2.2
  Partial core density with radius 1.2
  Transforming core density to a uniform radial grid of dG=0.02 with 1144 points.
  Transforming local potential to a uniform radial grid of dG=0.02 with 1144 points.
  Transforming nonlocal projectors to a uniform radial grid of dG=0.02 with 432 points.
  Transforming density augmentations to a uniform radial grid of dG=0.02 with 1144 points.
  Transforming atomic orbitals to a uniform radial grid of dG=0.02 with 432 points.
  Core radius for overlap checks: 2.20 bohrs.

Reading pseudopotential file '/home/guoxy/vasp/jdftx-1.5.0/build/pseudopotentials/GBRV/b_pbe.uspp':
  Title: B.  Created by USPP 7.3.6 on 8-4-15
  Reference state energy: -2.950027.  3 valence electrons in orbitals:
    |200>  occupation: 2  eigenvalue: -0.346865
    |210>  occupation: 1  eigenvalue: -0.132618
  lMax: 1  lLocal: 2  QijEcut: 6
  4 projectors sampled on a log grid with 559 points:
    l: 0  eig: -0.346865  rCut: 1.25
    l: 0  eig: -0.500000  rCut: 1.25
    l: 1  eig: -0.346865  rCut: 1.25
    l: 1  eig: -1.000000  rCut: 1.25
  Partial core density with radius 0.9
  Transforming core density to a uniform radial grid of dG=0.02 with 1144 points.
  Transforming local potential to a uniform radial grid of dG=0.02 with 1144 points.
  Transforming nonlocal projectors to a uniform radial grid of dG=0.02 with 432 points.
  Transforming density augmentations to a uniform radial grid of dG=0.02 with 1144 points.
  Transforming atomic orbitals to a uniform radial grid of dG=0.02 with 432 points.
  Core radius for overlap checks: 1.25 bohrs.

Reading pseudopotential file '/home/guoxy/vasp/jdftx-1.5.0/build/pseudopotentials/GBRV/o_pbe.uspp':
  Title: O.  Created by USPP 7.3.6 on 3-2-2014
  Reference state energy: -15.894388.  6 valence electrons in orbitals:
    |200>  occupation: 2  eigenvalue: -0.878823
    |210>  occupation: 4  eigenvalue: -0.332131
  lMax: 2  lLocal: 2  QijEcut: 6
  5 projectors sampled on a log grid with 511 points:
    l: 0  eig: -0.878823  rCut: 1.25
    l: 0  eig: 0.000000  rCut: 1.25
    l: 1  eig: -0.332132  rCut: 1.25
    l: 1  eig: 0.000000  rCut: 1.25
    l: 2  eig: 1.000000  rCut: 1.25
  Partial core density with radius 0.7
  Transforming core density to a uniform radial grid of dG=0.02 with 1144 points.
  Transforming local potential to a uniform radial grid of dG=0.02 with 1144 points.
  Transforming nonlocal projectors to a uniform radial grid of dG=0.02 with 432 points.
  Transforming density augmentations to a uniform radial grid of dG=0.02 with 1144 points.
  Transforming atomic orbitals to a uniform radial grid of dG=0.02 with 432 points.
  Core radius for overlap checks: 1.25 bohrs.

Initialized 3 species with 96 total atoms.

Folded 1 k-points by 3x3x1 to 9 k-points.

---------- Setting up k-points, bands, fillings ----------
Adding inversion symmetry to k-mesh for non-inversion-symmetric unit cell.
Reduced to 4 k-points under symmetry. 
Computing the number of bands and number of electrons
Calculating initial fillings.
nElectrons: 736.500000   nBands: 672   nStates: 4

----- Setting up reduced wavefunction bases (one per k-point) -----
average nbasis = 80683.000 , ideal nbasis = 80668.147

---------- Setting up coulomb interaction ----------
Fluid mode embedding: using embedded box, but periodic Coulomb kernel.
(Fluid response is responsible for (approximate) separation between periodic images.)
Setting up double-sized grid for truncated Coulomb potentials:
R = 
[    21.6158          0          0  ]
[          0     22.764          0  ]
[          0          0     76.749  ]
unit cell volume = 37765.3
G =
[   0.290675          0          0  ]
[          0   0.276014          0  ]
[          0          0  0.0818667  ]
Chosen fftbox size, S = [  90  96  320  ]
Integer grid location selected as the embedding center:
   Grid: [  45  48  80  ]
   Lattice: [  0.5  0.5  0.5  ]
   Cartesian: [  10.8079  11.382  19.1872  ]
Constructing Wigner-Seitz cell: 6 faces (6 quadrilaterals, 0 hexagons)
Range-separation parameter for embedded mesh potentials due to point charges: 0.618265 bohrs.

Initializing van der Waals corrections
	NOTE: vdW corrections apply only for interactions with fluid.
	Mo:  C6:  427.91 Eh-a0^6  R0: 3.097 a0
	 B:  C6:   54.29 Eh-a0^6  R0: 2.806 a0
	 O:  C6:   12.14 Eh-a0^6  R0: 2.536 a0

---------- Setting up ewald sum ----------
Optimum gaussian width for ewald sums = 6.255027 bohr.
Real space sum over 405 unit cells with max indices [  4  4  2  ]
Reciprocal space sum over 9225 terms with max indices [  7  7  20  ]

---------- Allocating electronic variables ----------
Initializing wave functions:  linear combination of atomic orbitals
Mo pseudo-atom occupations:   s ( 2 0 )  p ( 6 0 )  d ( 6 )
B pseudo-atom occupations:   s ( 2 )  p ( 1 )
O pseudo-atom occupations:   s ( 2 )  p ( 4 )
	FillingsUpdate:  mu: +3.320113701  nElectrons: 736.500000
LCAOMinimize: Iter:   0  F: -2358.7720507957742484  |grad|_K:  2.909e-02  alpha:  1.000e+00
	FillingsUpdate:  mu: -3.756091641  nElectrons: 736.500000
LCAOMinimize: Iter:   1  F: -2406.0576416223480010  |grad|_K:  3.127e-02  alpha:  4.489e-01  linmin:  5.052e-02  cgtest: -1.198e+00  t[s]:    194.64

*************** JDFTx 1.5.0  ***************

Start date and time: Fri Apr 16 16:22:07 2021
Executable jdftx_gpu with command-line: -i Charged.in -o Charged.out
Running on hosts (process indices):  amax (0-6)
Divided in process groups (process indices):  0 (0)  1 (1)  2 (2)  3 (3)  4 (4)  5 (5)  6 (6)
gpuInit: Found compatible cuda device 0 'Tesla K80'
gpuInit: Found compatible cuda device 1 'Tesla K80'
gpuInit: Found compatible cuda device 2 'Tesla K80'
gpuInit: Found compatible cuda device 3 'Tesla K80'
gpuInit: Found compatible cuda device 4 'Tesla K80'
gpuInit: Found compatible cuda device 5 'Tesla K80'
gpuInit: Found compatible cuda device 6 'Tesla K80'
gpuInit: Selected device 0
Resource initialization completed at t[s]:      3.91
Run totals: 7 processes, 24 threads, 7 GPUs


Input parsed successfully to the following command list (including defaults):

basis kpoint-dependent
cache-projectors no
coords-type Lattice
core-overlap-check none
coulomb-interaction Slab 001
coulomb-truncation-embed 0.5 0.5 0.5
davidson-band-ratio 1.1
dump End State
dump-name NbTe2.$VAR
elec-cutoff 20
elec-eigen-algo Davidson
elec-ex-corr gga-PBE
elec-initial-charge 1.000000
elec-smearing Gauss 0.0073499
electronic-minimize  \
	dirUpdateScheme      FletcherReeves \
	linminMethod         DirUpdateRecommended \
	nIterations          200 \
	history              15 \
	knormThreshold       0 \
	energyDiffThreshold  1e-08 \
	nEnergyDiff          2 \
	alphaTstart          1 \
	alphaTmin            1e-10 \
	updateTestStepSize   yes \
	alphaTreduceFactor   0.1 \
	alphaTincreaseFactor 3 \
	nAlphaAdjustMax      3 \
	wolfeEnergy          0.0001 \
	wolfeGradient        0.9 \
	fdTest               no
exchange-regularization WignerSeitzTruncated
fluid LinearPCM 298.000000 1.013250
fluid-anion F- 1 MeanFieldLJ \
	epsBulk 1 \
	pMol 0 \
	epsInf 1 \
	Pvap 0 \
	sigmaBulk 0 \
	Rvdw 2.24877 \
	Res 0 \
	tauNuc 343133
fluid-cation Na+ 1 MeanFieldLJ \
	epsBulk 1 \
	pMol 0 \
	epsInf 1 \
	Pvap 0 \
	sigmaBulk 0 \
	Rvdw 2.19208 \
	Res 0 \
	tauNuc 343133
fluid-ex-corr lda-TF lda-PZ
fluid-gummel-loop 10 1.000000e-05
fluid-minimize  \
	dirUpdateScheme      PolakRibiere \
	linminMethod         DirUpdateRecommended \
	nIterations          400 \
	history              15 \
	knormThreshold       1e-11 \
	energyDiffThreshold  0 \
	nEnergyDiff          2 \
	alphaTstart          1 \
	alphaTmin            1e-10 \
	updateTestStepSize   yes \
	alphaTreduceFactor   0.1 \
	alphaTincreaseFactor 3 \
	nAlphaAdjustMax      6 \
	wolfeEnergy          0.0001 \
	wolfeGradient        0.9 \
	fdTest               no
fluid-solvent H2O 55.338 ScalarEOS \
	epsBulk 78.4 \
	pMol 0.92466 \
	epsInf 1.77 \
	Pvap 1.06736e-10 \
	sigmaBulk 4.62e-05 \
	Rvdw 2.61727 \
	Res 1.42 \
	tauNuc 343133 \
	poleEl 15 7 1
forces-output-coords Positions
initial-state NbTe2.$VAR
ion Mo   0.000160000625000   0.125486616144824   0.570380142538101 1
ion Mo   0.125160000625000   0.125493810345100   0.429625233768340 1
ion Mo   0.250160000625000   0.125486616144824   0.570380142538101 1
ion Mo   0.375160000625000   0.125493810345100   0.429625233768340 1
ion Mo   0.500160000625000   0.125486616144824   0.570380142538101 1
ion Mo   0.625160000625000   0.125493810345100   0.429625233768340 1
ion Mo   0.750160000625000   0.125486616144824   0.570380142538101 1
ion Mo   0.875160000625000   0.125493810345100   0.429625233768340 1
ion Mo   0.000160000625000   0.375486616144824   0.570380142538101 1
ion Mo   0.125160000625000   0.375493810345100   0.429625233768340 1
ion Mo   0.250160000625000   0.375486616144824   0.570380142538101 1
ion Mo   0.375160000625000   0.375493810345100   0.429625233768340 1
ion Mo   0.500160000625000   0.375486616144824   0.570380142538101 1
ion Mo   0.625160000625000   0.375493810345100   0.429625233768340 1
ion Mo   0.750160000625000   0.375486616144824   0.570380142538101 1
ion Mo   0.875160000625000   0.375493810345100   0.429625233768340 1
ion Mo   0.000160000625000   0.625486616144824   0.570380142538101 1
ion Mo   0.125160000625000   0.625493810345100   0.429625233768340 1
ion Mo   0.250160000625000   0.625486616144824   0.570380142538101 1
ion Mo   0.375160000625000   0.625493810345100   0.429625233768340 1
ion Mo   0.500160000625000   0.625486616144824   0.570380142538101 1
ion Mo   0.625160000625000   0.625493810345100   0.429625233768340 1
ion Mo   0.750160000625000   0.625486616144824   0.570380142538101 1
ion Mo   0.875160000625000   0.625493810345100   0.429625233768340 1
ion Mo   0.000160000625000   0.875486616144824   0.570380142538101 1
ion Mo   0.125160000625000   0.875493810345100   0.429625233768340 1
ion Mo   0.250160000625000   0.875486616144824   0.570380142538101 1
ion Mo   0.375160000625000   0.875493810345100   0.429625233768340 1
ion Mo   0.500160000625000   0.875486616144824   0.570380142538101 1
ion Mo   0.625160000625000   0.875493810345100   0.429625233768340 1
ion Mo   0.750160000625000   0.875486616144824   0.570380142538101 1
ion Mo   0.875160000625000   0.875493810345100   0.429625233768340 1
ion B   0.000160000625000   0.000510623589349   0.478502488694816 1
ion B   0.125160000625000   0.000506145876216   0.521494522801560 1
ion B   0.250160000625000   0.000510623589349   0.478502488694816 1
ion B   0.375160000625000   0.000506145876216   0.521494522801560 1
ion B   0.500160000625000   0.000510623589349   0.478502488694816 1
ion B   0.625160000625000   0.000506145876216   0.521494522801560 1
ion B   0.750160000625000   0.000510623589349   0.478502488694816 1
ion B   0.875160000625000   0.000506145876216   0.521494522801560 1
ion B   0.000160000625000   0.250510623589349   0.478502488694816 1
ion B   0.125160000625000   0.250506145876216   0.521494522801560 1
ion B   0.250160000625000   0.250510623589349   0.478502488694816 1
ion B   0.375160000625000   0.250506145876216   0.521494522801560 1
ion B   0.500160000625000   0.250510623589349   0.478502488694816 1
ion B   0.625160000625000   0.250506145876216   0.521494522801560 1
ion B   0.750160000625000   0.250510623589349   0.478502488694816 1
ion B   0.875160000625000   0.250506145876216   0.521494522801560 1
ion B   0.000160000625000   0.500510623589349   0.478502488694816 1
ion B   0.125160000625000   0.500506145876216   0.521494522801560 1
ion B   0.250160000625000   0.500510623589349   0.478502488694816 1
ion B   0.375160000625000   0.500506145876216   0.521494522801560 1
ion B   0.500160000625000   0.500510623589349   0.478502488694816 1
ion B   0.625160000625000   0.500506145876216   0.521494522801560 1
ion B   0.750160000625000   0.500510623589349   0.478502488694816 1
ion B   0.875160000625000   0.500506145876216   0.521494522801560 1
ion B   0.000160000625000   0.750510623589349   0.478502488694816 1
ion B   0.125160000625000   0.750506145876216   0.521494522801560 1
ion B   0.250160000625000   0.750510623589349   0.478502488694816 1
ion B   0.375160000625000   0.750506145876216   0.521494522801560 1
ion B   0.500160000625000   0.750510623589349   0.478502488694816 1
ion B   0.625160000625000   0.750506145876216   0.521494522801560 1
ion B   0.750160000625000   0.750510623589349   0.478502488694816 1
ion B   0.875160000625000   0.750506145876216   0.521494522801560 1
ion O   0.125160000625000   0.125418060344119   0.635955935936650 1
ion O   0.000160000625000   0.125434732700392   0.364031697260534 1
ion O   0.375160000625000   0.125418060344119   0.635955935936650 1
ion O   0.250160000625000   0.125434732700392   0.364031697260534 1
ion O   0.625160000625000   0.125418060344119   0.635955935936650 1
ion O   0.500160000625000   0.125434732700392   0.364031697260534 1
ion O   0.875160000625000   0.125418060344119   0.635955935936650 1
ion O   0.750160000625000   0.125434732700392   0.364031697260534 1
ion O   0.125160000625000   0.375418060344119   0.635955935936650 1
ion O   0.000160000625000   0.375434732700392   0.364031697260534 1
ion O   0.375160000625000   0.375418060344119   0.635955935936650 1
ion O   0.250160000625000   0.375434732700392   0.364031697260534 1
ion O   0.625160000625000   0.375418060344119   0.635955935936650 1
ion O   0.500160000625000   0.375434732700392   0.364031697260534 1
ion O   0.875160000625000   0.375418060344119   0.635955935936650 1
ion O   0.750160000625000   0.375434732700392   0.364031697260534 1
ion O   0.125160000625000   0.625418060344119   0.635955935936650 1
ion O   0.000160000625000   0.625434732700393   0.364031697260534 1
ion O   0.375160000625000   0.625418060344119   0.635955935936650 1
ion O   0.250160000625000   0.625434732700393   0.364031697260534 1
ion O   0.625160000625000   0.625418060344119   0.635955935936650 1
ion O   0.500160000625000   0.625434732700393   0.364031697260534 1
ion O   0.875160000625000   0.625418060344119   0.635955935936650 1
ion O   0.750160000625000   0.625434732700393   0.364031697260534 1
ion O   0.125160000625000   0.875418060344119   0.635955935936650 1
ion O   0.000160000625000   0.875434732700393   0.364031697260534 1
ion O   0.375160000625000   0.875418060344119   0.635955935936650 1
ion O   0.250160000625000   0.875434732700393   0.364031697260534 1
ion O   0.625160000625000   0.875418060344119   0.635955935936650 1
ion O   0.500160000625000   0.875434732700393   0.364031697260534 1
ion O   0.875160000625000   0.875418060344119   0.635955935936650 1
ion O   0.750160000625000   0.875434732700393   0.364031697260534 1
ion-species GBRV/$ID_pbe.uspp
ion-width Ecut
ionic-minimize  \
	dirUpdateScheme      L-BFGS \
	linminMethod         DirUpdateRecommended \
	nIterations          500 \
	history              15 \
	knormThreshold       0.0001 \
	energyDiffThreshold  1e-06 \
	nEnergyDiff          2 \
	alphaTstart          1 \
	alphaTmin            1e-10 \
	updateTestStepSize   yes \
	alphaTreduceFactor   0.1 \
	alphaTincreaseFactor 3 \
	nAlphaAdjustMax      3 \
	wolfeEnergy          0.0001 \
	wolfeGradient        0.9 \
	fdTest               no
kpoint   0.000000000000   0.000000000000   0.000000000000  1.00000000000000
kpoint-folding 3 3 1 
latt-move-scale 1 1 1
latt-scale 1.88973 1.88973 1.88973 
lattice Triclinic 11.4386 12.0462 20.3069 90 90 90
lattice-minimize  \
	dirUpdateScheme      L-BFGS \
	linminMethod         DirUpdateRecommended \
	nIterations          0 \
	history              15 \
	knormThreshold       0 \
	energyDiffThreshold  1e-06 \
	nEnergyDiff          2 \
	alphaTstart          1 \
	alphaTmin            1e-10 \
	updateTestStepSize   yes \
	alphaTreduceFactor   0.1 \
	alphaTincreaseFactor 3 \
	nAlphaAdjustMax      3 \
	wolfeEnergy          0.0001 \
	wolfeGradient        0.9 \
	fdTest               no
lcao-params -1 1e-06 0.0073499
pcm-variant CANDLE
spintype no-spin
subspace-rotation-factor 1 yes
symmetries automatic
symmetry-threshold 0.0001



---------- Setting up symmetries ----------

Found 8 point-group symmetries of the bravais lattice
Found 32 space-group symmetries with basis
Applied RMS atom displacement 4.46231e-15 bohrs to make symmetries exact.

---------- Initializing the Grid ----------
R = 
[    21.6158          0          0  ]
[          0     22.764          0  ]
[          0          0    38.3745  ]
unit cell volume = 18882.7
G =
[   0.290675          0          0  ]
[          0   0.276014          0  ]
[          0          0   0.163733  ]
Minimum fftbox size, Smin = [  88  92  156  ]
Chosen fftbox size, S = [  90  96  160  ]

---------- Exchange Correlation functional ----------
Initalized PBE GGA exchange.
Initalized PBE GGA correlation.

---------- Setting up pseudopotentials ----------
Width of ionic core gaussian charges (only for fluid interactions / plotting) set to 0.397384

Reading pseudopotential file '/home/guoxy/vasp/jdftx-1.5.0/build/pseudopotentials/GBRV/mo_pbe.uspp':
  Title: Mo.  Created by USPP 7.3.6 on 14-9-2013
  Reference state energy: -69.261020.  14 valence electrons in orbitals:
    |400>  occupation: 2  eigenvalue: -2.465796
    |410>  occupation: 6  eigenvalue: -1.510132
    |420>  occupation: 4  eigenvalue: -0.207728
    |500>  occupation: 2  eigenvalue: -0.179278
    |510>  occupation: 0  eigenvalue: -0.052696
  lMax: 2  lLocal: 3  QijEcut: 5
  6 projectors sampled on a log grid with 629 points:
    l: 0  eig: -2.465797  rCut: 1.8
    l: 0  eig: -0.179280  rCut: 1.8
    l: 1  eig: -1.510132  rCut: 2
    l: 1  eig: 0.150000  rCut: 2
    l: 2  eig: -0.052696  rCut: 2.2
    l: 2  eig: 0.150000  rCut: 2.2
  Partial core density with radius 1.2
  Transforming core density to a uniform radial grid of dG=0.02 with 1144 points.
  Transforming local potential to a uniform radial grid of dG=0.02 with 1144 points.
  Transforming nonlocal projectors to a uniform radial grid of dG=0.02 with 432 points.
  Transforming density augmentations to a uniform radial grid of dG=0.02 with 1144 points.
  Transforming atomic orbitals to a uniform radial grid of dG=0.02 with 432 points.
  Core radius for overlap checks: 2.20 bohrs.

Reading pseudopotential file '/home/guoxy/vasp/jdftx-1.5.0/build/pseudopotentials/GBRV/b_pbe.uspp':
  Title: B.  Created by USPP 7.3.6 on 8-4-15
  Reference state energy: -2.950027.  3 valence electrons in orbitals:
    |200>  occupation: 2  eigenvalue: -0.346865
    |210>  occupation: 1  eigenvalue: -0.132618
  lMax: 1  lLocal: 2  QijEcut: 6
  4 projectors sampled on a log grid with 559 points:
    l: 0  eig: -0.346865  rCut: 1.25
    l: 0  eig: -0.500000  rCut: 1.25
    l: 1  eig: -0.346865  rCut: 1.25
    l: 1  eig: -1.000000  rCut: 1.25
  Partial core density with radius 0.9
  Transforming core density to a uniform radial grid of dG=0.02 with 1144 points.
  Transforming local potential to a uniform radial grid of dG=0.02 with 1144 points.
  Transforming nonlocal projectors to a uniform radial grid of dG=0.02 with 432 points.
  Transforming density augmentations to a uniform radial grid of dG=0.02 with 1144 points.
  Transforming atomic orbitals to a uniform radial grid of dG=0.02 with 432 points.
  Core radius for overlap checks: 1.25 bohrs.

Reading pseudopotential file '/home/guoxy/vasp/jdftx-1.5.0/build/pseudopotentials/GBRV/o_pbe.uspp':
  Title: O.  Created by USPP 7.3.6 on 3-2-2014
  Reference state energy: -15.894388.  6 valence electrons in orbitals:
    |200>  occupation: 2  eigenvalue: -0.878823
    |210>  occupation: 4  eigenvalue: -0.332131
  lMax: 2  lLocal: 2  QijEcut: 6
  5 projectors sampled on a log grid with 511 points:
    l: 0  eig: -0.878823  rCut: 1.25
    l: 0  eig: 0.000000  rCut: 1.25
    l: 1  eig: -0.332132  rCut: 1.25
    l: 1  eig: 0.000000  rCut: 1.25
    l: 2  eig: 1.000000  rCut: 1.25
  Partial core density with radius 0.7
  Transforming core density to a uniform radial grid of dG=0.02 with 1144 points.
  Transforming local potential to a uniform radial grid of dG=0.02 with 1144 points.
  Transforming nonlocal projectors to a uniform radial grid of dG=0.02 with 432 points.
  Transforming density augmentations to a uniform radial grid of dG=0.02 with 1144 points.
  Transforming atomic orbitals to a uniform radial grid of dG=0.02 with 432 points.
  Core radius for overlap checks: 1.25 bohrs.

Initialized 3 species with 96 total atoms.

Folded 1 k-points by 3x3x1 to 9 k-points.

---------- Setting up k-points, bands, fillings ----------
Adding inversion symmetry to k-mesh for non-inversion-symmetric unit cell.
Reduced to 4 k-points under symmetry. 
Computing the number of bands and number of electrons
Calculating initial fillings.
nElectrons: 737.000000   nBands: 672   nStates: 4

----- Setting up reduced wavefunction bases (one per k-point) -----
average nbasis = 80683.000 , ideal nbasis = 80668.147

---------- Setting up coulomb interaction ----------
Fluid mode embedding: using embedded box, but periodic Coulomb kernel.
(Fluid response is responsible for (approximate) separation between periodic images.)
Setting up double-sized grid for truncated Coulomb potentials:
R = 
[    21.6158          0          0  ]
[          0     22.764          0  ]
[          0          0     76.749  ]
unit cell volume = 37765.3
G =
[   0.290675          0          0  ]
[          0   0.276014          0  ]
[          0          0  0.0818667  ]
Chosen fftbox size, S = [  90  96  320  ]
Integer grid location selected as the embedding center:
   Grid: [  45  48  80  ]
   Lattice: [  0.5  0.5  0.5  ]
   Cartesian: [  10.8079  11.382  19.1872  ]
Constructing Wigner-Seitz cell: 6 faces (6 quadrilaterals, 0 hexagons)
Range-separation parameter for embedded mesh potentials due to point charges: 0.618265 bohrs.

Initializing van der Waals corrections
	NOTE: vdW corrections apply only for interactions with fluid.
	Mo:  C6:  427.91 Eh-a0^6  R0: 3.097 a0
	 B:  C6:   54.29 Eh-a0^6  R0: 2.806 a0
	 O:  C6:   12.14 Eh-a0^6  R0: 2.536 a0

---------- Setting up ewald sum ----------
Optimum gaussian width for ewald sums = 6.255027 bohr.
Real space sum over 405 unit cells with max indices [  4  4  2  ]
Reciprocal space sum over 9225 terms with max indices [  7  7  20  ]

---------- Allocating electronic variables ----------
Initializing wave functions:  linear combination of atomic orbitals
Mo pseudo-atom occupations:   s ( 2 0 )  p ( 6 0 )  d ( 6 )
B pseudo-atom occupations:   s ( 2 )  p ( 1 )
O pseudo-atom occupations:   s ( 2 )  p ( 4 )
	FillingsUpdate:  mu: +3.355503857  nElectrons: 737.000000
LCAOMinimize: Iter:   0  F: -2360.2019739820011637  |grad|_K:  2.904e-02  alpha:  1.000e+00
	FillingsUpdate:  mu: -3.722437536  nElectrons: 737.000000
LCAOMinimize: Iter:   1  F: -2409.0854173209359033  |grad|_K:  3.095e-02  alpha:  4.496e-01  linmin:  4.989e-02  cgtest: -1.208e+00  t[s]:    197.97
	FillingsUpdate:  mu: -4.040087861  nElectrons: 737.000000
LCAOMinimize: Iter:   2  F: -2428.6203351974777433  |grad|_K:  2.704e-02  alpha:  4.925e-02  linmin: -1.608e-02  cgtest:  9.837e-01  t[s]:    255.13
LCAOMinimize: Encountered beta<0, resetting CG.
LCAOMinimize: 	Wrong curvature in test step, increasing alphaT to 1.477566e-01.
	FillingsUpdate:  mu: -3.732573443  nElectrons: 737.000000
LCAOMinimize: Iter:   3  F: -2505.3754054286196151  |grad|_K:  2.572e-02  alpha: -1.399e-01  linmin: -1.054e-01  cgtest:  8.473e-01  t[s]:    310.47
	FillingsUpdate:  mu: +0.482575605  nElectrons: 737.000000
LCAOMinimize: Iter:   4  F: -2757.4993129921272157  |grad|_K:  1.560e-02  alpha:  2.828e-01  linmin:  1.957e-01  cgtest: -7.142e-01  t[s]:    367.27
LCAOMinimize: 	Bad step direction: g.d > 0.
LCAOMinimize: 	Undoing step.
LCAOMinimize: 	Step failed: resetting search direction.
	FillingsUpdate:  mu: +0.482575605  nElectrons: 737.000000
LCAOMinimize: Iter:   5  F: -2757.4993129921272157  |grad|_K:  1.560e-02  alpha:  0.000e+00
	FillingsUpdate:  mu: +0.133538666  nElectrons: 737.000000
LCAOMinimize: Iter:   6  F: -2781.6387461982585592  |grad|_K:  1.071e-02  alpha:  1.184e-01  linmin: -1.196e-02  cgtest:  1.082e-01  t[s]:    462.72
	FillingsUpdate:  mu: -0.085445945  nElectrons: 737.000000
LCAOMinimize: Iter:   7  F: -2790.1019795975130364  |grad|_K:  5.123e-03  alpha:  6.801e-02  linmin: -4.886e-02  cgtest: -1.444e-01  t[s]:    515.77
	FillingsUpdate:  mu: +0.037312727  nElectrons: 737.000000
LCAOMinimize: Iter:   8  F: -2793.9841493273161177  |grad|_K:  2.049e-03  alpha:  1.776e-01  linmin:  1.879e-01  cgtest: -6.717e-01  t[s]:    568.81
LCAOMinimize: 	Bad step direction: g.d > 0.
LCAOMinimize: 	Undoing step.
LCAOMinimize: 	Step failed: resetting search direction.
	FillingsUpdate:  mu: +0.037312727  nElectrons: 737.000000
LCAOMinimize: Iter:   9  F: -2793.9841493273161177  |grad|_K:  2.049e-03  alpha:  0.000e+00
	FillingsUpdate:  mu: -0.032897309  nElectrons: 737.000000
LCAOMinimize: Iter:  10  F: -2794.3072708842719294  |grad|_K:  1.748e-03  alpha:  9.184e-02  linmin:  1.020e-02  cgtest: -5.402e-02  t[s]:    660.24
	FillingsUpdate:  mu: -0.054475646  nElectrons: 737.000000
LCAOMinimize: Iter:  11  F: -2794.4113261385732585  |grad|_K:  8.100e-04  alpha:  4.192e-02  linmin:  2.046e-02  cgtest: -6.100e-02  t[s]:    713.30
LCAOMinimize: 	Predicted alpha/alphaT>3.000000, increasing alphaT to 1.257522e-01.
	FillingsUpdate:  mu: -0.044871987  nElectrons: 737.000000
LCAOMinimize: Iter:  12  F: -2794.5257627924465851  |grad|_K:  2.792e-04  alpha:  2.012e-01  linmin: -1.105e-03  cgtest:  1.590e-01  t[s]:    781.09
	FillingsUpdate:  mu: -0.047210939  nElectrons: 737.000000
LCAOMinimize: Iter:  13  F: -2794.5398375266727271  |grad|_K:  5.034e-04  alpha:  1.992e-01  linmin:  5.988e-04  cgtest: -1.722e-03  t[s]:    834.18
	FillingsUpdate:  mu: -0.051171778  nElectrons: 737.000000
LCAOMinimize: Iter:  14  F: -2794.5514576929658688  |grad|_K:  1.589e-04  alpha:  5.012e-02  linmin: -4.884e-03  cgtest:  8.516e-02  t[s]:    887.37
LCAOMinimize: 	Predicted alpha/alphaT>3.000000, increasing alphaT to 1.503645e-01.
	FillingsUpdate:  mu: -0.056363528  nElectrons: 737.000000
LCAOMinimize: Iter:  15  F: -2794.5550440960514607  |grad|_K:  6.430e-05  alpha:  1.551e-01  linmin: -2.606e-03  cgtest: -2.290e-02  t[s]:    955.20
	FillingsUpdate:  mu: -0.056108196  nElectrons: 737.000000
LCAOMinimize: Iter:  16  F: -2794.5552994928921180  |grad|_K:  7.132e-05  alpha:  6.784e-02  linmin: -8.126e-06  cgtest: -2.485e-03  t[s]:   1008.23
	FillingsUpdate:  mu: -0.055208622  nElectrons: 737.000000
LCAOMinimize: Iter:  17  F: -2794.5557656384225993  |grad|_K:  3.706e-05  alpha:  1.012e-01  linmin:  4.993e-04  cgtest:  1.820e-02  t[s]:   1061.21
	FillingsUpdate:  mu: -0.056951474  nElectrons: 737.000000
LCAOMinimize: Iter:  18  F: -2794.5559815264464305  |grad|_K:  2.102e-05  alpha:  1.739e-01  linmin:  9.023e-05  cgtest:  5.691e-03  t[s]:   1114.27
	FillingsUpdate:  mu: -0.057068304  nElectrons: 737.000000
LCAOMinimize: Iter:  19  F: -2794.5560005086435922  |grad|_K:  1.820e-05  alpha:  4.745e-02  linmin: -4.794e-05  cgtest:  2.394e-04  t[s]:   1167.41
LCAOMinimize: 	Predicted alpha/alphaT>3.000000, increasing alphaT to 1.423366e-01.
	FillingsUpdate:  mu: -0.057196196  nElectrons: 737.000000
LCAOMinimize: Iter:  20  F: -2794.5560698143058289  |grad|_K:  6.142e-06  alpha:  2.312e-01  linmin:  9.273e-04  cgtest: -1.105e-02  t[s]:   1235.12
	FillingsUpdate:  mu: -0.057225784  nElectrons: 737.000000
LCAOMinimize: Iter:  21  F: -2794.5560747753365831  |grad|_K:  8.715e-06  alpha:  1.455e-01  linmin: -1.095e-06  cgtest:  2.008e-03  t[s]:   1288.34
	FillingsUpdate:  mu: -0.057238384  nElectrons: 737.000000
LCAOMinimize: Iter:  22  F: -2794.5560780327227803  |grad|_K:  3.479e-06  alpha:  4.733e-02  linmin: -7.292e-05  cgtest: -3.057e-03  t[s]:   1341.57
LCAOMinimize: 	Predicted alpha/alphaT>3.000000, increasing alphaT to 1.419848e-01.
	FillingsUpdate:  mu: -0.057168218  nElectrons: 737.000000
LCAOMinimize: Iter:  23  F: -2794.5560808948812337  |grad|_K:  1.399e-06  alpha:  2.609e-01  linmin:  5.699e-05  cgtest: -1.321e-03  t[s]:   1409.25
	FillingsUpdate:  mu: -0.057171808  nElectrons: 737.000000
LCAOMinimize: Iter:  24  F: -2794.5560809780808995  |grad|_K:  1.187e-06  alpha:  4.696e-02  linmin: -2.080e-05  cgtest:  3.675e-04  t[s]:   1462.39
LCAOMinimize: 	Predicted alpha/alphaT>3.000000, increasing alphaT to 1.408821e-01.
	FillingsUpdate:  mu: -0.057189793  nElectrons: 737.000000
LCAOMinimize: Iter:  25  F: -2794.5560811833424850  |grad|_K:  6.758e-07  alpha:  1.608e-01  linmin:  3.013e-05  cgtest: -1.483e-03  t[s]:   1530.24
LCAOMinimize: Converged (|Delta F|<1.000000e-06 for 2 iters).
----- createFluidSolver() ----- (Fluid-side solver setup)
   Initializing fluid molecule 'H2O'
     Initializing site 'O'
       Electron density: proportional to exp(-r/0.36935)*erfc((r-0.51523)/0.36823) with norm 6.826
       Charge density: gaussian nuclear width 0.478731 with net site charge 0.826
       Polarizability: cuspless exponential with width 0.32 and norm 3.73
       Hard sphere radius: 2.57003 bohrs
       Positions in reference frame:
         [ +0.000000 +0.000000 +0.000000 ]
     Initializing site 'H'
       Electron density: proportional to exp(-r/0.34641)*erfc((r-0)/0.390882) with norm 0.587
       Charge density: gaussian nuclear width 0.377945 with net site charge -0.413
       Polarizability: cuspless exponential with width 0.39 and norm 3.3
       Positions in reference frame:
         [ +0.000000 -1.441945 +1.122523 ]
         [ +0.000000 +1.441945 +1.122523 ]
     Net charge: 0   dipole magnitude: 0.927204
     Initializing spherical shell mfKernel with radius 2.61727 Bohr
     deltaS corrections:
       site 'O': -7.54299
       site 'H': -6.83917
   Initializing fluid molecule 'Na+'
     Initializing site 'Na'
       Electron density: proportional to exp(-r/0.19682)*erfc((r-0.71491)/0.41314) with norm 8.1383
       Charge density: gaussian nuclear width 0.365347 with net site charge -1
       Hard sphere radius: 1.86327 bohrs
       Positions in reference frame:
         [ +0.000000 +0.000000 +0.000000 ]
     Net charge: -1   dipole magnitude: 0
     Initializing gaussian mfKernel with width: 1.55004 Bohr
     deltaS corrections:
       site 'Na': -22.3555
   Initializing fluid molecule 'F-'
     Initializing site 'F'
       Electron density: proportional to exp(-r/0.38886)*erfc((r-0)/0.438782) with norm 8
       Charge density: gaussian nuclear width 0.374796 with net site charge 1
       Hard sphere radius: 2.39995 bohrs
       Positions in reference frame:
         [ +0.000000 +0.000000 +0.000000 ]
     Net charge: 1   dipole magnitude: 0
     Initializing gaussian mfKernel with width: 1.59012 Bohr
     deltaS corrections:
       site 'F': -9.04335

Correction to mu due to finite nuclear width = -0.0193368
   Cavity determined by nc: 0.00142 and sigma: 0.707107
   Nonlocal vdW cavity from gaussian model electron density with norm = 8 and sigma = 0.993594 bohr
   Charge asymmetry in cavity with sensitivity pCavity = 36.5 e-bohr/Eh
   Electrostatic cavity expanded by eta = 1.46 bohrs
   Weighted density cavitation model constrained by Nbulk: 0.0049383 bohr^-3, Pvap: 3.14029 kPa, Rvdw: 2.61727 bohr and sigmaBulk: 4.62e-05 Eh/bohr^2 at T: 298 K.
   Weighted density dispersion model using vdW pair potentials with single solvent site with sqrtC6eff: 0.77 SI.


---- Citations for features of the code used in this run ----

   Software package:
      R. Sundararaman, K. Letchworth-Weaver, K.A. Schwarz, D. Gunceler, Y. Ozhabes and T.A. Arias, 'JDFTx: software for joint density-functional theory', SoftwareX 6, 278 (2017)

   gga-PBE exchange-correlation functional:
      J.P. Perdew, K. Burke and M. Ernzerhof, Phys. Rev. Lett. 77, 3865 (1996)

   Pseudopotentials:
      KF Garrity, JW Bennett, KM Rabe and D Vanderbilt, Comput. Mater. Sci. 81, 446 (2014)

   Truncated Coulomb potentials:
      R. Sundararaman and T.A. Arias, Phys. Rev. B 87, 165122 (2013)

   Van der Waals correction pair-potentials:
      S. Grimme, J. Comput. Chem. 27, 1787 (2006)

   Charge-asymmetric nonlocally-determined local-electric (CANDLE) solvation model:
      R. Sundararaman and W.A. Goddard III, J. Chem. Phys. 142, 064107 (2015)

   Total energy minimization with Auxiliary Hamiltonian:
      C. Freysoldt, S. Boeck, and J. Neugebauer, Phys. Rev. B 79, 241103(R) (2009)

This list may not be complete. Please suggest additional citations or
report any other bugs at https://github.com/shankar1729/jdftx/issues

Initialization completed successfully at t[s]:   1542.66

Fluid solver invoked on fresh (partially random / LCAO) wavefunctions
Running a vacuum solve first:

-------- Initial electronic minimization -----------
	FillingsUpdate:  mu: -0.057189793  nElectrons: 737.000000
ElecMinimize: Iter:   0  F: -2794.556081183366587  |grad|_K:  1.145e-04  alpha:  1.000e+00
	FillingsUpdate:  mu: +0.014525617  nElectrons: 737.000000
	SubspaceRotationAdjust: set factor to 0.701
ElecMinimize: Iter:   1  F: -2796.367315781558773  |grad|_K:  8.326e-05  alpha:  6.339e-01  linmin:  2.403e-06  t[s]:   1681.94
	FillingsUpdate:  mu: -0.054302657  nElectrons: 737.000000
	SubspaceRotationAdjust: set factor to 0.367
ElecMinimize: Iter:   2  F: -2796.587529373820871  |grad|_K:  5.635e-05  alpha:  2.007e-01  linmin:  4.885e-04  t[s]:   1769.15
	FillingsUpdate:  mu: -0.032952831  nElectrons: 737.000000
	SubspaceRotationAdjust: set factor to 0.619
ElecMinimize: Iter:   3  F: -2796.794484284234841  |grad|_K:  2.615e-05  alpha:  3.757e-01  linmin:  2.724e-05  t[s]:   1856.05
	FillingsUpdate:  mu: -0.022965392  nElectrons: 737.000000
	SubspaceRotationAdjust: set factor to 0.58
ElecMinimize: Iter:   4  F: -2796.850819309523558  |grad|_K:  1.616e-05  alpha:  3.830e-01  linmin:  2.005e-05  t[s]:   1942.99
	FillingsUpdate:  mu: -0.028246756  nElectrons: 737.000000
	SubspaceRotationAdjust: set factor to 0.347
ElecMinimize: Iter:   5  F: -2796.862985909744566  |grad|_K:  2.110e-05  alpha:  2.155e-01  linmin:  4.001e-06  t[s]:   2029.96
	FillingsUpdate:  mu: -0.033610088  nElectrons: 737.000000
	SubspaceRotationAdjust: set factor to 0.251
ElecMinimize: Iter:   6  F: -2796.872965441608812  |grad|_K:  8.892e-06  alpha:  1.033e-01  linmin:  3.369e-06  t[s]:   2116.91
ElecMinimize: 	Predicted alpha/alphaT>3.000000, increasing alphaT to 3.098868e-01.
	FillingsUpdate:  mu: -0.029836686  nElectrons: 737.000000
	SubspaceRotationAdjust: set factor to 0.319
ElecMinimize: Iter:   7  F: -2796.879794476861207  |grad|_K:  5.953e-06  alpha:  3.975e-01  linmin:  8.900e-06  t[s]:   2227.60
	FillingsUpdate:  mu: -0.028438796  nElectrons: 737.000000
	SubspaceRotationAdjust: set factor to 0.24
ElecMinimize: Iter:   8  F: -2796.881674465689230  |grad|_K:  5.541e-06  alpha:  2.439e-01  linmin: -1.042e-06  t[s]:   2314.81
	FillingsUpdate:  mu: -0.027769137  nElectrons: 737.000000
	SubspaceRotationAdjust: set factor to 0.189
ElecMinimize: Iter:   9  F: -2796.883316369813656  |grad|_K:  3.113e-06  alpha:  2.455e-01  linmin:  2.780e-06  t[s]:   2401.96
	FillingsUpdate:  mu: -0.028423255  nElectrons: 737.000000
	SubspaceRotationAdjust: set factor to 0.212
ElecMinimize: Iter:  10  F: -2796.884244998675968  |grad|_K:  1.979e-06  alpha:  4.411e-01  linmin:  2.994e-07  t[s]:   2488.79
	FillingsUpdate:  mu: -0.028549649  nElectrons: 737.000000
	SubspaceRotationAdjust: set factor to 0.241
ElecMinimize: Iter:  11  F: -2796.884641050555274  |grad|_K:  1.252e-06  alpha:  4.645e-01  linmin: -6.794e-07  t[s]:   2575.85
	FillingsUpdate:  mu: -0.028617064  nElectrons: 737.000000
	SubspaceRotationAdjust: set factor to 0.238
ElecMinimize: Iter:  12  F: -2796.884797479439840  |grad|_K:  1.039e-06  alpha:  4.582e-01  linmin: -6.464e-08  t[s]:   2662.79
	FillingsUpdate:  mu: -0.028646686  nElectrons: 737.000000
	SubspaceRotationAdjust: set factor to 0.17
ElecMinimize: Iter:  13  F: -2796.884862731028534  |grad|_K:  8.107e-07  alpha:  2.773e-01  linmin: -5.445e-08  t[s]:   2749.86
	FillingsUpdate:  mu: -0.028620918  nElectrons: 737.000000
	SubspaceRotationAdjust: set factor to 0.15
ElecMinimize: Iter:  14  F: -2796.884906876487094  |grad|_K:  5.399e-07  alpha:  3.084e-01  linmin:  2.339e-08  t[s]:   2836.86
	FillingsUpdate:  mu: -0.028516745  nElectrons: 737.000000
	SubspaceRotationAdjust: set factor to 0.193
ElecMinimize: Iter:  15  F: -2796.884937297718807  |grad|_K:  3.503e-07  alpha:  4.792e-01  linmin: -5.296e-08  t[s]:   2923.69
	FillingsUpdate:  mu: -0.028514905  nElectrons: 737.000000
	SubspaceRotationAdjust: set factor to 0.171
ElecMinimize: Iter:  16  F: -2796.884949194480214  |grad|_K:  3.074e-07  alpha:  4.451e-01  linmin:  3.421e-08  t[s]:   3010.70
	FillingsUpdate:  mu: -0.028537877  nElectrons: 737.000000
	SubspaceRotationAdjust: set factor to 0.13
	SubspaceRotationAdjust: resetting CG because factor has changed by 0.129915
ElecMinimize: 	State modified externally: resetting search direction.
ElecMinimize: Iter:  17  F: -2796.884955926248040  |grad|_K:  1.996e-07  alpha:  3.270e-01
	FillingsUpdate:  mu: -0.028533062  nElectrons: 737.000000
	SubspaceRotationAdjust: set factor to 0.15
ElecMinimize: Iter:  18  F: -2796.884958984004697  |grad|_K:  1.195e-07  alpha:  3.523e-01  linmin:  4.175e-09  t[s]:   3231.07
	FillingsUpdate:  mu: -0.028541425  nElectrons: 737.000000
	SubspaceRotationAdjust: set factor to 0.156
ElecMinimize: Iter:  19  F: -2796.884960898052213  |grad|_K:  9.840e-08  alpha:  6.161e-01  linmin:  2.437e-08  t[s]:   3317.96
	FillingsUpdate:  mu: -0.028552105  nElectrons: 737.000000
	SubspaceRotationAdjust: set factor to 0.171
ElecMinimize: Iter:  20  F: -2796.884962144436486  |grad|_K:  9.398e-08  alpha:  5.912e-01  linmin: -1.312e-10  t[s]:   3405.12
	FillingsUpdate:  mu: -0.028556577  nElectrons: 737.000000
	SubspaceRotationAdjust: set factor to 0.173
ElecMinimize: Iter:  21  F: -2796.884963624060219  |grad|_K:  9.385e-08  alpha:  7.696e-01  linmin:  4.866e-08  t[s]:   3491.93
	FillingsUpdate:  mu: -0.028555634  nElectrons: 737.000000
	SubspaceRotationAdjust: set factor to 0.146
ElecMinimize: Iter:  22  F: -2796.884964764527467  |grad|_K:  8.322e-08  alpha:  5.929e-01  linmin:  6.322e-08  t[s]:   3579.06
	FillingsUpdate:  mu: -0.028549790  nElectrons: 737.000000
	SubspaceRotationAdjust: set factor to 0.0961
ElecMinimize: Iter:  23  F: -2796.884965395311156  |grad|_K:  5.902e-08  alpha:  4.158e-01  linmin:  1.927e-08  t[s]:   3666.00
	FillingsUpdate:  mu: -0.028545279  nElectrons: 737.000000
	SubspaceRotationAdjust: set factor to 0.0834
ElecMinimize: Iter:  24  F: -2796.884965698600354  |grad|_K:  2.957e-08  alpha:  3.999e-01  linmin:  1.276e-07  t[s]:   3753.17
	FillingsUpdate:  mu: -0.028548892  nElectrons: 737.000000
	SubspaceRotationAdjust: set factor to 0.0893
ElecMinimize: Iter:  25  F: -2796.884965787615783  |grad|_K:  2.040e-08  alpha:  4.692e-01  linmin:  3.141e-10  t[s]:   3840.16
	FillingsUpdate:  mu: -0.028553449  nElectrons: 737.000000
	SubspaceRotationAdjust: set factor to 0.095
ElecMinimize: Iter:  26  F: -2796.884965820871457  |grad|_K:  1.152e-08  alpha:  3.669e-01  linmin: -6.758e-09  t[s]:   3927.35
	FillingsUpdate:  mu: -0.028555202  nElectrons: 737.000000
	SubspaceRotationAdjust: set factor to 0.113
ElecMinimize: Iter:  27  F: -2796.884965835236017  |grad|_K:  8.045e-09  alpha:  4.933e-01  linmin: -1.361e-07  t[s]:   4014.31
	FillingsUpdate:  mu: -0.028553657  nElectrons: 737.000000
	SubspaceRotationAdjust: set factor to 0.139
ElecMinimize: Iter:  28  F: -2796.884965843026748  |grad|_K:  6.482e-09  alpha:  5.439e-01  linmin: -6.117e-08  t[s]:   4101.39
	FillingsUpdate:  mu: -0.028552948  nElectrons: 737.000000
	SubspaceRotationAdjust: set factor to 0.176
ElecMinimize: Iter:  29  F: -2796.884965848976663  |grad|_K:  6.680e-09  alpha:  6.480e-01  linmin: -2.674e-08  t[s]:   4188.48
ElecMinimize: Converged (|Delta F|<1.000000e-08 for 2 iters).
Setting wave functions to eigenvectors of Hamiltonian
Vacuum energy after initial minimize, F = -2796.884965848976663

	Linear fluid (dielectric constant: 78.4, screening length: 5.74355 Bohr) occupying 0.746477 of unit cell:	Completed after 20 iterations at t[s]:   4206.47

-------- Electronic minimization -----------
	Linear fluid (dielectric constant: 78.4, screening length: 5.74355 Bohr) occupying 0.746477 of unit cell:	Completed after 0 iterations at t[s]:   4226.91
	FillingsUpdate:  mu: -0.237995728  nElectrons: 737.000000
ElecMinimize: Iter:   0  F: -2797.054267323902877  |grad|_K:  1.737e-06  alpha:  1.000e+00
	Linear fluid (dielectric constant: 78.4, screening length: 5.74355 Bohr) occupying 0.746567 of unit cell:	Completed after 12 iterations at t[s]:   4302.50
	Linear fluid (dielectric constant: 78.4, screening length: 5.74355 Bohr) occupying 0.746523 of unit cell:	Completed after 12 iterations at t[s]:   4334.38
	FillingsUpdate:  mu: -0.241328602  nElectrons: 737.000000
	SubspaceRotationAdjust: set factor to 0.196
ElecMinimize: Iter:   1  F: -2797.054599150142622  |grad|_K:  6.710e-07  alpha:  5.054e-01  linmin:  1.684e-07  t[s]:   4374.32
	Linear fluid (dielectric constant: 78.4, screening length: 5.74355 Bohr) occupying 0.746562 of unit cell:	Completed after 2 iterations at t[s]:   4405.46
	Linear fluid (dielectric constant: 78.4, screening length: 5.74355 Bohr) occupying 0.746569 of unit cell:	Completed after 3 iterations at t[s]:   4434.33
	FillingsUpdate:  mu: -0.241506469  nElectrons: 737.000000
	SubspaceRotationAdjust: set factor to 0.257
ElecMinimize: Iter:   2  F: -2797.054658377644500  |grad|_K:  4.672e-07  alpha:  6.052e-01  linmin:  1.580e-07  t[s]:   4473.16
	Linear fluid (dielectric constant: 78.4, screening length: 5.74355 Bohr) occupying 0.746615 of unit cell:	Completed after 2 iterations at t[s]:   4504.38
	Linear fluid (dielectric constant: 78.4, screening length: 5.74355 Bohr) occupying 0.746624 of unit cell:	Completed after 2 iterations at t[s]:   4533.05
	FillingsUpdate:  mu: -0.241598503  nElectrons: 737.000000
	SubspaceRotationAdjust: set factor to 0.342
ElecMinimize: Iter:   3  F: -2797.054692744574368  |grad|_K:  4.014e-07  alpha:  7.236e-01  linmin: -1.856e-07  t[s]:   4571.37
	Linear fluid (dielectric constant: 78.4, screening length: 5.74355 Bohr) occupying 0.746685 of unit cell:	Completed after 3 iterations at t[s]:   4602.67
	Linear fluid (dielectric constant: 78.4, screening length: 5.74355 Bohr) occupying 0.746683 of unit cell:	Completed after 0 iterations at t[s]:   4631.25
	FillingsUpdate:  mu: -0.241457322  nElectrons: 737.000000
	SubspaceRotationAdjust: set factor to 0.428
ElecMinimize: Iter:   4  F: -2797.054717453136618  |grad|_K:  3.587e-07  alpha:  6.998e-01  linmin: -9.511e-09  t[s]:   4668.97
	Linear fluid (dielectric constant: 78.4, screening length: 5.74355 Bohr) occupying 0.746743 of unit cell:	Completed after 8 iterations at t[s]:   4700.98
	Linear fluid (dielectric constant: 78.4, screening length: 5.74355 Bohr) occupying 0.746728 of unit cell:	Completed after 2 iterations at t[s]:   4730.33
	FillingsUpdate:  mu: -0.241145621  nElectrons: 737.000000
	SubspaceRotationAdjust: set factor to 0.488
ElecMinimize: Iter:   5  F: -2797.054731821880068  |grad|_K:  2.507e-07  alpha:  5.174e-01  linmin: -5.032e-08  t[s]:   4768.86
	Linear fluid (dielectric constant: 78.4, screening length: 5.74355 Bohr) occupying 0.746752 of unit cell:	Completed after 2 iterations at t[s]:   4800.01
	Linear fluid (dielectric constant: 78.4, screening length: 5.74355 Bohr) occupying 0.746749 of unit cell:	Completed after 0 iterations at t[s]:   4828.18
	FillingsUpdate:  mu: -0.241201587  nElectrons: 737.000000
	SubspaceRotationAdjust: set factor to 0.496
ElecMinimize: Iter:   6  F: -2797.054737851246500  |grad|_K:  1.667e-07  alpha:  4.390e-01  linmin:  2.723e-07  t[s]:   4866.37
	Linear fluid (dielectric constant: 78.4, screening length: 5.74355 Bohr) occupying 0.746757 of unit cell:	Completed after 2 iterations at t[s]:   4897.44
	Linear fluid (dielectric constant: 78.4, screening length: 5.74355 Bohr) occupying 0.746758 of unit cell:	Completed after 0 iterations at t[s]:   4925.80
	FillingsUpdate:  mu: -0.241175268  nElectrons: 737.000000
	SubspaceRotationAdjust: set factor to 0.504
ElecMinimize: Iter:   7  F: -2797.054740617979405  |grad|_K:  9.092e-08  alpha:  4.637e-01  linmin: -6.318e-07  t[s]:   4963.63
	Linear fluid (dielectric constant: 78.4, screening length: 5.74355 Bohr) occupying 0.746758 of unit cell:	Completed after 2 iterations at t[s]:   4994.94
	Linear fluid (dielectric constant: 78.4, screening length: 5.74355 Bohr) occupying 0.746758 of unit cell:	Completed after 0 iterations at t[s]:   5023.17
	FillingsUpdate:  mu: -0.241156496  nElectrons: 737.000000
	SubspaceRotationAdjust: set factor to 0.535
ElecMinimize: Iter:   8  F: -2797.054741411193390  |grad|_K:  5.844e-08  alpha:  4.303e-01  linmin: -4.608e-07  t[s]:   5061.37
	Linear fluid (dielectric constant: 78.4, screening length: 5.74355 Bohr) occupying 0.746755 of unit cell:	Completed after 1 iterations at t[s]:   5092.57
	Linear fluid (dielectric constant: 78.4, screening length: 5.74355 Bohr) occupying 0.746755 of unit cell:	Completed after 0 iterations at t[s]:   5120.23
	FillingsUpdate:  mu: -0.241160805  nElectrons: 737.000000
	SubspaceRotationAdjust: set factor to 0.653
ElecMinimize: Iter:   9  F: -2797.054741786393606  |grad|_K:  3.557e-08  alpha:  4.927e-01  linmin: -5.147e-06  t[s]:   5158.35
	Linear fluid (dielectric constant: 78.4, screening length: 5.74355 Bohr) occupying 0.746751 of unit cell:	Completed after 2 iterations at t[s]:   5189.42
	Linear fluid (dielectric constant: 78.4, screening length: 5.74355 Bohr) occupying 0.746752 of unit cell:	Completed after 0 iterations at t[s]:   5217.64
	FillingsUpdate:  mu: -0.241182899  nElectrons: 737.000000
	SubspaceRotationAdjust: set factor to 0.557
ElecMinimize: Iter:  10  F: -2797.054741862300034  |grad|_K:  3.743e-08  alpha:  3.387e-01  linmin: -5.606e-06  t[s]:   5255.74
	Linear fluid (dielectric constant: 78.4, screening length: 5.74355 Bohr) occupying 0.746749 of unit cell:	Completed after 2 iterations at t[s]:   5286.70
	Linear fluid (dielectric constant: 78.4, screening length: 5.74355 Bohr) occupying 0.746750 of unit cell:	Completed after 0 iterations at t[s]:   5314.87
	FillingsUpdate:  mu: -0.241183364  nElectrons: 737.000000
	SubspaceRotationAdjust: set factor to 0.37
ElecMinimize: Iter:  11  F: -2797.054741961633226  |grad|_K:  4.675e-08  alpha:  1.840e-01  linmin:  8.882e-06  t[s]:   5353.29
	Linear fluid (dielectric constant: 78.4, screening length: 5.74355 Bohr) occupying 0.746747 of unit cell:	Completed after 0 iterations at t[s]:   5384.49
	Linear fluid (dielectric constant: 78.4, screening length: 5.74355 Bohr) occupying 0.746749 of unit cell:	Completed after 0 iterations at t[s]:   5412.16
	FillingsUpdate:  mu: -0.241183111  nElectrons: 737.000000
	SubspaceRotationAdjust: set factor to 0.29
ElecMinimize: Iter:  12  F: -2797.054741978610764  |grad|_K:  4.085e-08  alpha:  8.948e-02  linmin: -1.541e-08  t[s]:   5450.30
	Linear fluid (dielectric constant: 78.4, screening length: 5.74355 Bohr) occupying 0.746748 of unit cell:	Completed after 2 iterations at t[s]:   5481.62
	Linear fluid (dielectric constant: 78.4, screening length: 5.74355 Bohr) occupying 0.746748 of unit cell:	Completed after 0 iterations at t[s]:   5509.85
ElecMinimize: 	Step increased F by 1.694843e-08, reducing alpha to 3.282169e-03.
	Linear fluid (dielectric constant: 78.4, screening length: 5.74355 Bohr) occupying 0.746749 of unit cell:	Completed after 0 iterations at t[s]:   5570.62
ElecMinimize: 	Step increased F by 1.707576e-08, reducing alpha to 3.282169e-04.
	Linear fluid (dielectric constant: 78.4, screening length: 5.74355 Bohr) occupying 0.746749 of unit cell:	Completed after 0 iterations at t[s]:   5631.80
ElecMinimize: 	Step increased F by 1.716217e-08, reducing alpha to 3.282169e-05.
ElecMinimize: 	Step failed to reduce F after 3 attempts. Quitting step.
ElecMinimize: 	Undoing step.
	Linear fluid (dielectric constant: 78.4, screening length: 5.74355 Bohr) occupying 0.746749 of unit cell:	Completed after 0 iterations at t[s]:   5693.14
ElecMinimize: 	Step failed: resetting search direction.
	FillingsUpdate:  mu: -0.241183945  nElectrons: 737.000000
	SubspaceRotationAdjust: set factor to 0.213
ElecMinimize: Iter:  13  F: -2797.054741961338095  |grad|_K:  2.397e-08  alpha:  3.282e-05
	Linear fluid (dielectric constant: 78.4, screening length: 5.74355 Bohr) occupying 0.746749 of unit cell:	Completed after 0 iterations at t[s]:   5762.19
ElecMinimize: 	Predicted alpha/alphaT>3.000000, increasing alphaT to 2.684347e-01.
	Linear fluid (dielectric constant: 78.4, screening length: 5.74355 Bohr) occupying 0.746749 of unit cell:	Completed after 0 iterations at t[s]:   5789.91
	Linear fluid (dielectric constant: 78.4, screening length: 5.74355 Bohr) occupying 0.746749 of unit cell:	Completed after 0 iterations at t[s]:   5818.02
	FillingsUpdate:  mu: -0.241184115  nElectrons: 737.000000
	SubspaceRotationAdjust: set factor to 0.278
ElecMinimize: Iter:  14  F: -2797.054742008783705  |grad|_K:  1.538e-08  alpha:  3.788e-01  linmin:  1.535e-08  t[s]:   5856.18
	Linear fluid (dielectric constant: 78.4, screening length: 5.74355 Bohr) occupying 0.746749 of unit cell:	Completed after 2 iterations at t[s]:   5887.07
	Linear fluid (dielectric constant: 78.4, screening length: 5.74355 Bohr) occupying 0.746749 of unit cell:	Completed after 0 iterations at t[s]:   5915.18
ElecMinimize: 	Step increased F by 3.128207e-08, reducing alpha to 7.860839e-03.
	Linear fluid (dielectric constant: 78.4, screening length: 5.74355 Bohr) occupying 0.746749 of unit cell:	Completed after 0 iterations at t[s]:   5976.01
ElecMinimize: 	Step increased F by 2.853312e-08, reducing alpha to 7.860839e-04.
	Linear fluid (dielectric constant: 78.4, screening length: 5.74355 Bohr) occupying 0.746749 of unit cell:	Completed after 0 iterations at t[s]:   6037.43
ElecMinimize: 	Step increased F by 2.818160e-08, reducing alpha to 7.860839e-05.
ElecMinimize: 	Step failed to reduce F after 3 attempts. Quitting step.
ElecMinimize: 	Undoing step.
	Linear fluid (dielectric constant: 78.4, screening length: 5.74355 Bohr) occupying 0.746749 of unit cell:	Completed after 0 iterations at t[s]:   6098.55
ElecMinimize: 	Step failed: resetting search direction.
	FillingsUpdate:  mu: -0.241184609  nElectrons: 737.000000
	SubspaceRotationAdjust: set factor to 0.203
ElecMinimize: Iter:  15  F: -2797.054741980666222  |grad|_K:  3.038e-08  alpha:  7.861e-05
	Linear fluid (dielectric constant: 78.4, screening length: 5.74355 Bohr) occupying 0.746749 of unit cell:	Completed after 3 iterations at t[s]:   6168.18
	Linear fluid (dielectric constant: 78.4, screening length: 5.74355 Bohr) occupying 0.746749 of unit cell:	Completed after 0 iterations at t[s]:   6196.49
	FillingsUpdate:  mu: -0.241180386  nElectrons: 737.000000
	SubspaceRotationAdjust: set factor to 0.0991
ElecMinimize: Iter:  16  F: -2797.054742024844472  |grad|_K:  2.365e-08  alpha:  1.648e-01  linmin:  1.015e-04  t[s]:   6235.57
	Linear fluid (dielectric constant: 78.4, screening length: 5.74355 Bohr) occupying 0.746749 of unit cell:	Completed after 0 iterations at t[s]:   6266.24
	Linear fluid (dielectric constant: 78.4, screening length: 5.74355 Bohr) occupying 0.746749 of unit cell:	Completed after 0 iterations at t[s]:   6294.48
	FillingsUpdate:  mu: -0.241180389  nElectrons: 737.000000
	SubspaceRotationAdjust: set factor to 0.118
ElecMinimize: Iter:  17  F: -2797.054742039804751  |grad|_K:  2.236e-08  alpha:  3.666e-01  linmin:  2.094e-07  t[s]:   6332.17
	Linear fluid (dielectric constant: 78.4, screening length: 5.74355 Bohr) occupying 0.746749 of unit cell:	Completed after 2 iterations at t[s]:   6363.51
	Linear fluid (dielectric constant: 78.4, screening length: 5.74355 Bohr) occupying 0.746749 of unit cell:	Completed after 0 iterations at t[s]:   6392.44
ElecMinimize: 	Step increased F by 3.260175e-08, reducing alpha to 9.478773e-03.
	Linear fluid (dielectric constant: 78.4, screening length: 5.74355 Bohr) occupying 0.746749 of unit cell:	Completed after 0 iterations at t[s]:   6454.81
ElecMinimize: 	Step increased F by 2.332172e-08, reducing alpha to 9.478773e-04.
	Linear fluid (dielectric constant: 78.4, screening length: 5.74355 Bohr) occupying 0.746749 of unit cell:	Completed after 0 iterations at t[s]:   6515.12
ElecMinimize: 	Step increased F by 2.251636e-08, reducing alpha to 9.478773e-05.
ElecMinimize: 	Step failed to reduce F after 3 attempts. Quitting step.
ElecMinimize: 	Undoing step.
	Linear fluid (dielectric constant: 78.4, screening length: 5.74355 Bohr) occupying 0.746749 of unit cell:	Completed after 0 iterations at t[s]:   6576.05
ElecMinimize: 	Step failed: resetting search direction.
	FillingsUpdate:  mu: -0.241179153  nElectrons: 737.000000
	SubspaceRotationAdjust: set factor to 0.0877
ElecMinimize: Iter:  18  F: -2797.054742017203807  |grad|_K:  2.465e-08  alpha:  9.479e-05
	Linear fluid (dielectric constant: 78.4, screening length: 5.74355 Bohr) occupying 0.746749 of unit cell:	Completed after 0 iterations at t[s]:   6644.64
	Linear fluid (dielectric constant: 78.4, screening length: 5.74355 Bohr) occupying 0.746749 of unit cell:	Completed after 1 iterations at t[s]:   6672.75
ElecMinimize: 	Step increased F by 2.660227e-08, reducing alpha to 4.102350e-02.
	Linear fluid (dielectric constant: 78.4, screening length: 5.74355 Bohr) occupying 0.746749 of unit cell:	Completed after 0 iterations at t[s]:   6733.81
ElecMinimize: 	Step increased F by 1.201397e-08, reducing alpha to 4.102350e-03.
	Linear fluid (dielectric constant: 78.4, screening length: 5.74355 Bohr) occupying 0.746749 of unit cell:	Completed after 0 iterations at t[s]:   6795.48
ElecMinimize: 	Step increased F by 1.447734e-08, reducing alpha to 4.102350e-04.
ElecMinimize: 	Step failed to reduce F after 3 attempts. Quitting step.
ElecMinimize: 	Undoing step.
	Linear fluid (dielectric constant: 78.4, screening length: 5.74355 Bohr) occupying 0.746749 of unit cell:	Completed after 0 iterations at t[s]:   6856.47
ElecMinimize: 	Step failed along negative gradient direction.
ElecMinimize: Probably at roundoff error limit. (Stopping)
Setting wave functions to eigenvectors of Hamiltonian
Single-point solvation energy estimate, DeltaF = -0.169776153684779

# Ionic positions in lattice coordinates:
ion Mo   0.000160000625000   0.125486616144824   0.570380142538101 1
ion Mo   0.125160000625000   0.125493810345100   0.429625233768340 1
ion Mo   0.250160000625000   0.125486616144824   0.570380142538101 1
ion Mo   0.375160000625000   0.125493810345100   0.429625233768340 1
ion Mo   0.500160000625000   0.125486616144824   0.570380142538101 1
ion Mo   0.625160000625000   0.125493810345100   0.429625233768340 1
ion Mo   0.750160000625000   0.125486616144824   0.570380142538101 1
ion Mo   0.875160000625000   0.125493810345100   0.429625233768340 1
ion Mo   0.000160000625000   0.375486616144824   0.570380142538101 1
ion Mo   0.125160000625000   0.375493810345100   0.429625233768340 1
ion Mo   0.250160000625000   0.375486616144824   0.570380142538101 1
ion Mo   0.375160000625000   0.375493810345100   0.429625233768340 1
ion Mo   0.500160000625000   0.375486616144824   0.570380142538101 1
ion Mo   0.625160000625000   0.375493810345100   0.429625233768340 1
ion Mo   0.750160000625000   0.375486616144824   0.570380142538101 1
ion Mo   0.875160000625000   0.375493810345100   0.429625233768340 1
ion Mo   0.000160000625000   0.625486616144824   0.570380142538101 1
ion Mo   0.125160000625000   0.625493810345100   0.429625233768340 1
ion Mo   0.250160000625000   0.625486616144824   0.570380142538101 1
ion Mo   0.375160000625000   0.625493810345100   0.429625233768340 1
ion Mo   0.500160000625000   0.625486616144824   0.570380142538101 1
ion Mo   0.625160000625000   0.625493810345100   0.429625233768340 1
ion Mo   0.750160000625000   0.625486616144824   0.570380142538101 1
ion Mo   0.875160000625000   0.625493810345100   0.429625233768340 1
ion Mo   0.000160000625000   0.875486616144824   0.570380142538101 1
ion Mo   0.125160000625000   0.875493810345100   0.429625233768340 1
ion Mo   0.250160000625000   0.875486616144824   0.570380142538101 1
ion Mo   0.375160000625000   0.875493810345100   0.429625233768340 1
ion Mo   0.500160000625000   0.875486616144824   0.570380142538101 1
ion Mo   0.625160000625000   0.875493810345100   0.429625233768340 1
ion Mo   0.750160000625000   0.875486616144824   0.570380142538101 1
ion Mo   0.875160000625000   0.875493810345100   0.429625233768340 1
ion B   0.000160000625000   0.000510623589349   0.478502488694816 1
ion B   0.125160000625000   0.000506145876216   0.521494522801560 1
ion B   0.250160000625000   0.000510623589349   0.478502488694816 1
ion B   0.375160000625000   0.000506145876216   0.521494522801560 1
ion B   0.500160000625000   0.000510623589349   0.478502488694816 1
ion B   0.625160000625000   0.000506145876216   0.521494522801560 1
ion B   0.750160000625000   0.000510623589349   0.478502488694816 1
ion B   0.875160000625000   0.000506145876216   0.521494522801560 1
ion B   0.000160000625000   0.250510623589349   0.478502488694816 1
ion B   0.125160000625000   0.250506145876216   0.521494522801560 1
ion B   0.250160000625000   0.250510623589349   0.478502488694816 1
ion B   0.375160000625000   0.250506145876216   0.521494522801560 1
ion B   0.500160000625000   0.250510623589349   0.478502488694816 1
ion B   0.625160000625000   0.250506145876216   0.521494522801560 1
ion B   0.750160000625000   0.250510623589349   0.478502488694816 1
ion B   0.875160000625000   0.250506145876216   0.521494522801560 1
ion B   0.000160000625000   0.500510623589349   0.478502488694816 1
ion B   0.125160000625000   0.500506145876216   0.521494522801560 1
ion B   0.250160000625000   0.500510623589349   0.478502488694816 1
ion B   0.375160000625000   0.500506145876216   0.521494522801560 1
ion B   0.500160000625000   0.500510623589349   0.478502488694816 1
ion B   0.625160000625000   0.500506145876216   0.521494522801560 1
ion B   0.750160000625000   0.500510623589349   0.478502488694816 1
ion B   0.875160000625000   0.500506145876216   0.521494522801560 1
ion B   0.000160000625000   0.750510623589349   0.478502488694816 1
ion B   0.125160000625000   0.750506145876216   0.521494522801560 1
ion B   0.250160000625000   0.750510623589349   0.478502488694816 1
ion B   0.375160000625000   0.750506145876216   0.521494522801560 1
ion B   0.500160000625000   0.750510623589349   0.478502488694816 1
ion B   0.625160000625000   0.750506145876216   0.521494522801560 1
ion B   0.750160000625000   0.750510623589349   0.478502488694816 1
ion B   0.875160000625000   0.750506145876216   0.521494522801560 1
ion O   0.125160000625000   0.125418060344119   0.635955935936650 1
ion O   0.000160000625000   0.125434732700393   0.364031697260534 1
ion O   0.375160000625000   0.125418060344119   0.635955935936650 1
ion O   0.250160000625000   0.125434732700393   0.364031697260534 1
ion O   0.625160000625000   0.125418060344119   0.635955935936650 1
ion O   0.500160000625000   0.125434732700393   0.364031697260534 1
ion O   0.875160000625000   0.125418060344119   0.635955935936650 1
ion O   0.750160000625000   0.125434732700393   0.364031697260534 1
ion O   0.125160000625000   0.375418060344119   0.635955935936650 1
ion O   0.000160000625000   0.375434732700392   0.364031697260534 1
ion O   0.375160000625000   0.375418060344119   0.635955935936650 1
ion O   0.250160000625000   0.375434732700392   0.364031697260534 1
ion O   0.625160000625000   0.375418060344119   0.635955935936650 1
ion O   0.500160000625000   0.375434732700392   0.364031697260534 1
ion O   0.875160000625000   0.375418060344119   0.635955935936650 1
ion O   0.750160000625000   0.375434732700392   0.364031697260534 1
ion O   0.125160000625000   0.625418060344119   0.635955935936650 1
ion O   0.000160000625000   0.625434732700393   0.364031697260534 1
ion O   0.375160000625000   0.625418060344119   0.635955935936650 1
ion O   0.250160000625000   0.625434732700393   0.364031697260534 1
ion O   0.625160000625000   0.625418060344119   0.635955935936650 1
ion O   0.500160000625000   0.625434732700393   0.364031697260534 1
ion O   0.875160000625000   0.625418060344119   0.635955935936650 1
ion O   0.750160000625000   0.625434732700393   0.364031697260534 1
ion O   0.125160000625000   0.875418060344119   0.635955935936650 1
ion O   0.000160000625000   0.875434732700393   0.364031697260534 1
ion O   0.375160000625000   0.875418060344119   0.635955935936650 1
ion O   0.250160000625000   0.875434732700393   0.364031697260534 1
ion O   0.625160000625000   0.875418060344119   0.635955935936650 1
ion O   0.500160000625000   0.875434732700393   0.364031697260534 1
ion O   0.875160000625000   0.875418060344119   0.635955935936650 1
ion O   0.750160000625000   0.875434732700393   0.364031697260534 1


# Forces in Lattice coordinates:
force Mo  -0.000000000000000  -0.000111580454248  -0.163357628714629 1
force Mo   0.000000000000000  -0.000259227048305   0.156513661146340 1
force Mo  -0.000000000000000  -0.000111580454248  -0.163357628714629 1
force Mo  -0.000000000000000  -0.000259227048305   0.156513661146340 1
force Mo   0.000000000000000  -0.000111580454248  -0.163357628714857 1
force Mo   0.000000000000000  -0.000259227048305   0.156513661146339 1
force Mo  -0.000000000000000  -0.000111580454248  -0.163357628714629 1
force Mo   0.000000000000000  -0.000259227048305   0.156513661146113 1
force Mo  -0.000000000000000  -0.000111580454248  -0.163357628714856 1
force Mo  -0.000000000000000  -0.000259227048305   0.156513661146568 1
force Mo   0.000000000000000  -0.000111580454248  -0.163357628714856 1
force Mo   0.000000000000000  -0.000259227048305   0.156513661146113 1
force Mo   0.000000000000000  -0.000111580454248  -0.163357628714629 1
force Mo   0.000000000000000  -0.000259227048305   0.156513661146113 1
force Mo  -0.000000000000000  -0.000111580454248  -0.163357628714629 1
force Mo   0.000000000000000  -0.000259227048305   0.156513661146340 1
force Mo  -0.000000000000000  -0.000111580454248  -0.163357628714629 1
force Mo  -0.000000000000000  -0.000259227048305   0.156513661146567 1
force Mo   0.000000000000000  -0.000111580454248  -0.163357628714629 1
force Mo   0.000000000000000  -0.000259227048305   0.156513661146113 1
force Mo   0.000000000000000  -0.000111580454248  -0.163357628714402 1
force Mo   0.000000000000000  -0.000259227048305   0.156513661146113 1
force Mo   0.000000000000000  -0.000111580454248  -0.163357628715083 1
force Mo   0.000000000000000  -0.000259227048305   0.156513661146113 1
force Mo  -0.000000000000000  -0.000111580454248  -0.163357628714856 1
force Mo   0.000000000000000  -0.000259227048305   0.156513661146340 1
force Mo   0.000000000000000  -0.000111580454248  -0.163357628714856 1
force Mo   0.000000000000000  -0.000259227048305   0.156513661146567 1
force Mo   0.000000000000000  -0.000111580454248  -0.163357628714629 1
force Mo  -0.000000000000000  -0.000259227048305   0.156513661146568 1
force Mo   0.000000000000000  -0.000111580454248  -0.163357628715084 1
force Mo  -0.000000000000000  -0.000259227048305   0.156513661146340 1
force B  -0.000000000000000  -0.000165168906126   0.000398648265613 1
force B   0.000000000000000  -0.000130418821681   0.000149927931685 1
force B   0.000000000000000  -0.000165168906126   0.000398648265599 1
force B  -0.000000000000000  -0.000130418821681   0.000149927931714 1
force B   0.000000000000000  -0.000165168906126   0.000398648265613 1
force B  -0.000000000000000  -0.000130418821681   0.000149927931685 1
force B   0.000000000000000  -0.000165168906126   0.000398648265627 1
force B   0.000000000000000  -0.000130418821681   0.000149927931700 1
force B  -0.000000000000000  -0.000165168906126   0.000398648265627 1
force B   0.000000000000000  -0.000130418821681   0.000149927931685 1
force B   0.000000000000000  -0.000165168906126   0.000398648265627 1
force B  -0.000000000000000  -0.000130418821681   0.000149927931671 1
force B   0.000000000000000  -0.000165168906126   0.000398648265627 1
force B   0.000000000000000  -0.000130418821681   0.000149927931686 1
force B   0.000000000000000  -0.000165168906126   0.000398648265641 1
force B   0.000000000000000  -0.000130418821681   0.000149927931685 1
force B  -0.000000000000000  -0.000165168906126   0.000398648265627 1
force B  -0.000000000000000  -0.000130418821681   0.000149927931686 1
force B   0.000000000000000  -0.000165168906126   0.000398648265641 1
force B  -0.000000000000000  -0.000130418821681   0.000149927931686 1
force B   0.000000000000000  -0.000165168906126   0.000398648265627 1
force B   0.000000000000000  -0.000130418821681   0.000149927931657 1
force B   0.000000000000000  -0.000165168906126   0.000398648265641 1
force B  -0.000000000000000  -0.000130418821681   0.000149927931671 1
force B  -0.000000000000000  -0.000165168906126   0.000398648265613 1
force B  -0.000000000000000  -0.000130418821681   0.000149927931657 1
force B   0.000000000000000  -0.000165168906126   0.000398648265641 1
force B   0.000000000000000  -0.000130418821681   0.000149927931686 1
force B   0.000000000000000  -0.000165168906126   0.000398648265613 1
force B   0.000000000000000  -0.000130418821681   0.000149927931671 1
force B   0.000000000000000  -0.000165168906126   0.000398648265613 1
force B  -0.000000000000000  -0.000130418821681   0.000149927931671 1
force O  -0.000000000000000   0.000038947272940   0.156292360875611 1
force O  -0.000000000000000  -0.000232786480224  -0.151410405676689 1
force O  -0.000000000000000   0.000038947272940   0.156292360875838 1
force O   0.000000000000000  -0.000232786480224  -0.151410405676689 1
force O   0.000000000000000   0.000038947272940   0.156292360875838 1
force O   0.000000000000000  -0.000232786480224  -0.151410405676689 1
force O  -0.000000000000000   0.000038947272940   0.156292360875835 1
force O  -0.000000000000000  -0.000232786480224  -0.151410405676689 1
force O   0.000000000000000   0.000038947272940   0.156292360875611 1
force O   0.000000000000000  -0.000232786480224  -0.151410405676685 1
force O   0.000000000000000   0.000038947272940   0.156292360876066 1
force O   0.000000000000000  -0.000232786480224  -0.151410405676913 1
force O   0.000000000000000   0.000038947272940   0.156292360875611 1
force O   0.000000000000000  -0.000232786480224  -0.151410405676689 1
force O   0.000000000000000   0.000038947272940   0.156292360875611 1
force O  -0.000000000000000  -0.000232786480224  -0.151410405676685 1
force O   0.000000000000000   0.000038947272940   0.156292360875838 1
force O   0.000000000000000  -0.000232786480224  -0.151410405676685 1
force O   0.000000000000000   0.000038947272940   0.156292360875607 1
force O   0.000000000000000  -0.000232786480224  -0.151410405676454 1
force O   0.000000000000000   0.000038947272940   0.156292360875838 1
force O   0.000000000000000  -0.000232786480224  -0.151410405676458 1
force O   0.000000000000000   0.000038947272940   0.156292360875835 1
force O  -0.000000000000000  -0.000232786480224  -0.151410405676458 1
force O  -0.000000000000000   0.000038947272940   0.156292360876066 1
force O  -0.000000000000000  -0.000232786480224  -0.151410405676685 1
force O   0.000000000000000   0.000038947272940   0.156292360875838 1
force O  -0.000000000000000  -0.000232786480224  -0.151410405676462 1
force O  -0.000000000000000   0.000038947272940   0.156292360875835 1
force O   0.000000000000000  -0.000232786480224  -0.151410405676458 1
force O  -0.000000000000000   0.000038947272940   0.156292360876062 1
force O  -0.000000000000000  -0.000232786480224  -0.151410405676913 1

[...]
	Linear fluid (dielectric constant: 78.4, screening length: 5.74355 Bohr) occupying 0.746374 of unit cell:	Completed after 0 iterations at t[s]:  19856.92
	FillingsUpdate:  mu: -0.243599156  nElectrons: 737.000000
	SubspaceRotationAdjust: set factor to 0.218
ElecMinimize: Iter:   8  F: -2797.055956044192044  |grad|_K:  4.028e-08  alpha:  2.636e-01  linmin: -2.200e-05  t[s]:  19894.97
	Linear fluid (dielectric constant: 78.4, screening length: 5.74355 Bohr) occupying 0.746374 of unit cell:	Completed after 0 iterations at t[s]:  19925.32
	Linear fluid (dielectric constant: 78.4, screening length: 5.74355 Bohr) occupying 0.746374 of unit cell:	Completed after 0 iterations at t[s]:  19952.60
	FillingsUpdate:  mu: -0.243599150  nElectrons: 737.000000
	SubspaceRotationAdjust: set factor to 0.226
ElecMinimize: Iter:   9  F: -2797.055956144221454  |grad|_K:  3.959e-08  alpha:  2.609e-01  linmin:  1.248e-07  t[s]:  19990.67
	Linear fluid (dielectric constant: 78.4, screening length: 5.74355 Bohr) occupying 0.746374 of unit cell:	Completed after 2 iterations at t[s]:  20021.51
	Linear fluid (dielectric constant: 78.4, screening length: 5.74355 Bohr) occupying 0.746374 of unit cell:	Completed after 2 iterations at t[s]:  20049.97
ElecMinimize: 	Step increased F by 6.260507e-08, reducing alpha to 5.084770e-03.
	Linear fluid (dielectric constant: 78.4, screening length: 5.74355 Bohr) occupying 0.746374 of unit cell:	Completed after 0 iterations at t[s]:  20111.00
ElecMinimize: 	Step increased F by 3.956438e-08, reducing alpha to 5.084770e-04.
	Linear fluid (dielectric constant: 78.4, screening length: 5.74355 Bohr) occupying 0.746374 of unit cell:	Completed after 0 iterations at t[s]:  20171.79
ElecMinimize: 	Step increased F by 3.737205e-08, reducing alpha to 5.084770e-05.
ElecMinimize: 	Step failed to reduce F after 3 attempts. Quitting step.
ElecMinimize: 	Undoing step.
	Linear fluid (dielectric constant: 78.4, screening length: 5.74355 Bohr) occupying 0.746374 of unit cell:	Completed after 0 iterations at t[s]:  20232.58
ElecMinimize: 	Step failed: resetting search direction.
	FillingsUpdate:  mu: -0.243608014  nElectrons: 737.000000
	SubspaceRotationAdjust: set factor to 0.174
ElecMinimize: Iter:  10  F: -2797.055956106847589  |grad|_K:  3.847e-08  alpha:  5.085e-05
	Linear fluid (dielectric constant: 78.4, screening length: 5.74355 Bohr) occupying 0.746374 of unit cell:	Completed after 2 iterations at t[s]:  20301.23
	Linear fluid (dielectric constant: 78.4, screening length: 5.74355 Bohr) occupying 0.746374 of unit cell:	Completed after 0 iterations at t[s]:  20329.04
	FillingsUpdate:  mu: -0.243603031  nElectrons: 737.000000
	SubspaceRotationAdjust: set factor to 0.104
ElecMinimize: Iter:  11  F: -2797.055956134703592  |grad|_K:  1.899e-08  alpha:  1.461e-01  linmin:  8.845e-07  t[s]:  20367.20
	Linear fluid (dielectric constant: 78.4, screening length: 5.74355 Bohr) occupying 0.746374 of unit cell:	Completed after 0 iterations at t[s]:  20397.58
	Linear fluid (dielectric constant: 78.4, screening length: 5.74355 Bohr) occupying 0.746374 of unit cell:	Completed after 0 iterations at t[s]:  20424.97
	FillingsUpdate:  mu: -0.243603015  nElectrons: 737.000000
	SubspaceRotationAdjust: set factor to 0.16
ElecMinimize: Iter:  12  F: -2797.055956167228487  |grad|_K:  1.929e-08  alpha:  4.226e-01  linmin:  3.262e-06  t[s]:  20462.75
	Linear fluid (dielectric constant: 78.4, screening length: 5.74355 Bohr) occupying 0.746374 of unit cell:	Completed after 2 iterations at t[s]:  20493.63
	Linear fluid (dielectric constant: 78.4, screening length: 5.74355 Bohr) occupying 0.746374 of unit cell:	Completed after 0 iterations at t[s]:  20521.56
ElecMinimize: 	Step increased F by 4.988578e-09, reducing alpha to 1.076148e-02.
	Linear fluid (dielectric constant: 78.4, screening length: 5.74355 Bohr) occupying 0.746374 of unit cell:	Completed after 0 iterations at t[s]:  20582.39
	FillingsUpdate:  mu: -0.243592925  nElectrons: 737.000000
	SubspaceRotationAdjust: set factor to 0.132
ElecMinimize: Iter:  13  F: -2797.055956175553547  |grad|_K:  2.552e-08  alpha:  1.076e-02  linmin:  7.673e-05  t[s]:  20620.35
	Linear fluid (dielectric constant: 78.4, screening length: 5.74355 Bohr) occupying 0.746374 of unit cell:	Completed after 0 iterations at t[s]:  20650.85
	Linear fluid (dielectric constant: 78.4, screening length: 5.74355 Bohr) occupying 0.746374 of unit cell:	Completed after 0 iterations at t[s]:  20678.22
	FillingsUpdate:  mu: -0.243592926  nElectrons: 737.000000
	SubspaceRotationAdjust: set factor to 0.128
ElecMinimize: Iter:  14  F: -2797.055956176306154  |grad|_K:  2.338e-08  alpha:  1.758e-02  linmin: -1.129e-05  t[s]:  20715.91
ElecMinimize: Converged (|Delta F|<1.000000e-08 for 2 iters).
Setting wave functions to eigenvectors of Hamiltonian

# Ionic positions in lattice coordinates:
ion Mo   0.000160000625000   0.125487813053655   0.570277701834289 1
ion Mo   0.125160000625000   0.125490193395597   0.429703303169001 1
ion Mo   0.250160000625000   0.125487813053655   0.570277701834289 1
ion Mo   0.375160000625000   0.125490193395597   0.429703303169001 1
ion Mo   0.500160000625000   0.125487813053655   0.570277701834289 1
ion Mo   0.625160000625000   0.125490193395597   0.429703303169001 1
ion Mo   0.750160000625000   0.125487813053655   0.570277701834289 1
ion Mo   0.875160000625000   0.125490193395597   0.429703303169001 1
ion Mo   0.000160000625000   0.375487813053655   0.570277701834289 1
ion Mo   0.125160000625000   0.375490193395597   0.429703303169001 1
ion Mo   0.250160000625000   0.375487813053655   0.570277701834289 1
ion Mo   0.375160000625000   0.375490193395597   0.429703303169001 1
ion Mo   0.500160000625000   0.375487813053655   0.570277701834289 1
ion Mo   0.625160000625000   0.375490193395597   0.429703303169001 1
ion Mo   0.750160000625000   0.375487813053655   0.570277701834289 1
ion Mo   0.875160000625000   0.375490193395597   0.429703303169001 1
ion Mo   0.000160000625000   0.625487813053655   0.570277701834289 1
ion Mo   0.125160000625000   0.625490193395597   0.429703303169001 1
ion Mo   0.250160000625000   0.625487813053655   0.570277701834289 1
ion Mo   0.375160000625000   0.625490193395597   0.429703303169001 1
ion Mo   0.500160000625000   0.625487813053655   0.570277701834289 1
ion Mo   0.625160000625000   0.625490193395597   0.429703303169001 1
ion Mo   0.750160000625000   0.625487813053655   0.570277701834289 1
ion Mo   0.875160000625000   0.625490193395597   0.429703303169001 1
ion Mo   0.000160000625000   0.875487813053655   0.570277701834289 1
ion Mo   0.125160000625000   0.875490193395597   0.429703303169001 1
ion Mo   0.250160000625000   0.875487813053655   0.570277701834289 1
ion Mo   0.375160000625000   0.875490193395597   0.429703303169001 1
ion Mo   0.500160000625000   0.875487813053655   0.570277701834289 1
ion Mo   0.625160000625000   0.875490193395597   0.429703303169001 1
ion Mo   0.750160000625000   0.875487813053655   0.570277701834289 1
ion Mo   0.875160000625000   0.875490193395597   0.429703303169001 1
ion B   0.000160000625000   0.000508166700256   0.478477638568672 1
ion B   0.125160000625000   0.000506011421146   0.521523633722209 1
ion B   0.250160000625000   0.000508166700256   0.478477638568672 1
ion B   0.375160000625000   0.000506011421146   0.521523633722209 1
ion B   0.500160000625000   0.000508166700256   0.478477638568672 1
ion B   0.625160000625000   0.000506011421146   0.521523633722209 1
ion B   0.750160000625000   0.000508166700256   0.478477638568672 1
ion B   0.875160000625000   0.000506011421146   0.521523633722209 1
ion B   0.000160000625000   0.250508166700256   0.478477638568672 1
ion B   0.125160000625000   0.250506011421146   0.521523633722209 1
ion B   0.250160000625000   0.250508166700256   0.478477638568672 1
ion B   0.375160000625000   0.250506011421146   0.521523633722209 1
ion B   0.500160000625000   0.250508166700256   0.478477638568672 1
ion B   0.625160000625000   0.250506011421146   0.521523633722209 1
ion B   0.750160000625000   0.250508166700256   0.478477638568672 1
ion B   0.875160000625000   0.250506011421146   0.521523633722209 1
ion B   0.000160000625000   0.500508166700256   0.478477638568672 1
ion B   0.125160000625000   0.500506011421146   0.521523633722209 1
ion B   0.250160000625000   0.500508166700256   0.478477638568672 1
ion B   0.375160000625000   0.500506011421146   0.521523633722209 1
ion B   0.500160000625000   0.500508166700256   0.478477638568672 1
ion B   0.625160000625000   0.500506011421146   0.521523633722209 1
ion B   0.750160000625000   0.500508166700256   0.478477638568672 1
ion B   0.875160000625000   0.500506011421146   0.521523633722209 1
ion B   0.000160000625000   0.750508166700256   0.478477638568672 1
ion B   0.125160000625000   0.750506011421146   0.521523633722209 1
ion B   0.250160000625000   0.750508166700256   0.478477638568672 1
ion B   0.375160000625000   0.750506011421146   0.521523633722209 1
ion B   0.500160000625000   0.750508166700256   0.478477638568672 1
ion B   0.625160000625000   0.750506011421146   0.521523633722209 1
ion B   0.750160000625000   0.750508166700256   0.478477638568672 1
ion B   0.875160000625000   0.750506011421146   0.521523633722209 1
ion O   0.125160000625000   0.125426502780783   0.636376559110511 1
ion O   0.000160000625000   0.125431301648564   0.363631184595318 1
ion O   0.375160000625000   0.125426502780783   0.636376559110511 1
ion O   0.250160000625000   0.125431301648564   0.363631184595318 1
ion O   0.625160000625000   0.125426502780783   0.636376559110511 1
ion O   0.500160000625000   0.125431301648564   0.363631184595318 1
ion O   0.875160000625000   0.125426502780783   0.636376559110511 1
ion O   0.750160000625000   0.125431301648564   0.363631184595318 1
ion O   0.125160000625000   0.375426502780783   0.636376559110511 1
ion O   0.000160000625000   0.375431301648564   0.363631184595318 1
ion O   0.375160000625000   0.375426502780783   0.636376559110511 1
ion O   0.250160000625000   0.375431301648564   0.363631184595318 1
ion O   0.625160000625000   0.375426502780783   0.636376559110511 1
ion O   0.500160000625000   0.375431301648564   0.363631184595318 1
ion O   0.875160000625000   0.375426502780783   0.636376559110511 1
ion O   0.750160000625000   0.375431301648564   0.363631184595318 1
ion O   0.125160000625000   0.625426502780783   0.636376559110511 1
ion O   0.000160000625000   0.625431301648564   0.363631184595318 1
ion O   0.375160000625000   0.625426502780783   0.636376559110511 1
ion O   0.250160000625000   0.625431301648564   0.363631184595318 1
ion O   0.625160000625000   0.625426502780783   0.636376559110511 1
ion O   0.500160000625000   0.625431301648564   0.363631184595318 1
ion O   0.875160000625000   0.625426502780783   0.636376559110511 1
ion O   0.750160000625000   0.625431301648564   0.363631184595318 1
ion O   0.125160000625000   0.875426502780783   0.636376559110511 1
ion O   0.000160000625000   0.875431301648564   0.363631184595318 1
ion O   0.375160000625000   0.875426502780783   0.636376559110511 1
ion O   0.250160000625000   0.875431301648564   0.363631184595318 1
ion O   0.625160000625000   0.875426502780783   0.636376559110511 1
ion O   0.500160000625000   0.875431301648564   0.363631184595318 1
ion O   0.875160000625000   0.875426502780783   0.636376559110511 1
ion O   0.750160000625000   0.875431301648564   0.363631184595318 1


# Forces in Lattice coordinates:
force Mo  -0.000000000000000  -0.000119018265599   0.010919730082567 1
force Mo   0.000000000000000  -0.000178786738544   0.001608622760359 1
force Mo   0.000000000000000  -0.000119018265598   0.010919730082340 1
force Mo  -0.000000000000000  -0.000178786738544   0.001608622760132 1
force Mo   0.000000000000000  -0.000119018265598   0.010919730082340 1
force Mo  -0.000000000000000  -0.000178786738544   0.001608622760359 1
force Mo   0.000000000000000  -0.000119018265598   0.010919730082339 1
force Mo  -0.000000000000000  -0.000178786738544   0.001608622760132 1
force Mo  -0.000000000000000  -0.000119018265598   0.010919730082567 1
force Mo  -0.000000000000000  -0.000178786738544   0.001608622760586 1
force Mo   0.000000000000000  -0.000119018265598   0.010919730082794 1
force Mo  -0.000000000000000  -0.000178786738544   0.001608622760814 1
force Mo  -0.000000000000000  -0.000119018265598   0.010919730082567 1
force Mo  -0.000000000000000  -0.000178786738544   0.001608622760586 1
force Mo   0.000000000000000  -0.000119018265598   0.010919730082567 1
force Mo   0.000000000000000  -0.000178786738544   0.001608622760813 1
force Mo  -0.000000000000000  -0.000119018265598   0.010919730082339 1
force Mo   0.000000000000000  -0.000178786738544   0.001608622761041 1
force Mo   0.000000000000000  -0.000119018265598   0.010919730082339 1
force Mo  -0.000000000000000  -0.000178786738544   0.001608622760586 1
force Mo  -0.000000000000000  -0.000119018265598   0.010919730082340 1
force Mo   0.000000000000000  -0.000178786738544   0.001608622761041 1
force Mo  -0.000000000000000  -0.000119018265598   0.010919730082339 1
force Mo  -0.000000000000000  -0.000178786738544   0.001608622760814 1
force Mo   0.000000000000000  -0.000119018265598   0.010919730082339 1
force Mo   0.000000000000000  -0.000178786738544   0.001608622760359 1
force Mo   0.000000000000000  -0.000119018265598   0.010919730082339 1
force Mo  -0.000000000000000  -0.000178786738544   0.001608622760359 1
force Mo  -0.000000000000000  -0.000119018265598   0.010919730082339 1
force Mo   0.000000000000000  -0.000178786738544   0.001608622760586 1
force Mo   0.000000000000000  -0.000119018265598   0.010919730082339 1
force Mo   0.000000000000000  -0.000178786738544   0.001608622760358 1
force B  -0.000000000000000  -0.000160098491450   0.000233108672801 1
force B   0.000000000000000  -0.000140781765752  -0.001331747186858 1
force B   0.000000000000000  -0.000160098491450   0.000233108672801 1
force B  -0.000000000000000  -0.000140781765752  -0.001331747186844 1
force B  -0.000000000000000  -0.000160098491450   0.000233108672815 1
force B  -0.000000000000000  -0.000140781765752  -0.001331747186844 1
force B   0.000000000000000  -0.000160098491450   0.000233108672815 1
force B   0.000000000000000  -0.000140781765752  -0.001331747186858 1
force B  -0.000000000000000  -0.000160098491450   0.000233108672815 1
force B   0.000000000000000  -0.000140781765752  -0.001331747186858 1
force B  -0.000000000000000  -0.000160098491450   0.000233108672829 1
force B  -0.000000000000000  -0.000140781765752  -0.001331747186858 1
force B  -0.000000000000000  -0.000160098491450   0.000233108672830 1
force B  -0.000000000000000  -0.000140781765752  -0.001331747186858 1
force B  -0.000000000000000  -0.000160098491450   0.000233108672829 1
force B   0.000000000000000  -0.000140781765752  -0.001331747186872 1
force B  -0.000000000000000  -0.000160098491450   0.000233108672829 1
force B  -0.000000000000000  -0.000140781765752  -0.001331747186844 1
force B   0.000000000000000  -0.000160098491450   0.000233108672843 1
force B  -0.000000000000000  -0.000140781765752  -0.001331747186858 1
force B  -0.000000000000000  -0.000160098491450   0.000233108672829 1
force B  -0.000000000000000  -0.000140781765752  -0.001331747186830 1
force B   0.000000000000000  -0.000160098491450   0.000233108672829 1
force B   0.000000000000000  -0.000140781765752  -0.001331747186844 1
force B  -0.000000000000000  -0.000160098491450   0.000233108672829 1
force B  -0.000000000000000  -0.000140781765752  -0.001331747186858 1
force B   0.000000000000000  -0.000160098491450   0.000233108672829 1
force B   0.000000000000000  -0.000140781765752  -0.001331747186844 1
force B  -0.000000000000000  -0.000160098491450   0.000233108672815 1
force B  -0.000000000000000  -0.000140781765752  -0.001331747186844 1
force B   0.000000000000000  -0.000160098491450   0.000233108672815 1
force B  -0.000000000000000  -0.000140781765752  -0.001331747186858 1
force O   0.000000000000000  -0.000036443649094  -0.008356205679370 1
force O  -0.000000000000000  -0.000184484675028  -0.002725296393901 1
force O  -0.000000000000000  -0.000036443649094  -0.008356205679142 1
force O  -0.000000000000000  -0.000184484675028  -0.002725296393901 1
force O  -0.000000000000000  -0.000036443649094  -0.008356205679146 1
force O   0.000000000000000  -0.000184484675028  -0.002725296394129 1
force O  -0.000000000000000  -0.000036443649094  -0.008356205679373 1
force O  -0.000000000000000  -0.000184484675028  -0.002725296393898 1
force O   0.000000000000000  -0.000036443649094  -0.008356205679373 1
force O  -0.000000000000000  -0.000184484675028  -0.002725296393898 1
force O   0.000000000000000  -0.000036443649094  -0.008356205679370 1
force O  -0.000000000000000  -0.000184484675028  -0.002725296393898 1
force O   0.000000000000000  -0.000036443649094  -0.008356205679370 1
force O  -0.000000000000000  -0.000184484675028  -0.002725296393898 1
force O   0.000000000000000  -0.000036443649094  -0.008356205679593 1
force O  -0.000000000000000  -0.000184484675028  -0.002725296394129 1
force O   0.000000000000000  -0.000036443649094  -0.008356205679370 1
force O  -0.000000000000000  -0.000184484675028  -0.002725296394125 1
force O  -0.000000000000000  -0.000036443649094  -0.008356205679139 1
force O   0.000000000000000  -0.000184484675028  -0.002725296393898 1
force O  -0.000000000000000  -0.000036443649094  -0.008356205679373 1
force O  -0.000000000000000  -0.000184484675028  -0.002725296394125 1
force O  -0.000000000000000  -0.000036443649094  -0.008356205679142 1
force O   0.000000000000000  -0.000184484675028  -0.002725296394125 1
force O   0.000000000000000  -0.000036443649094  -0.008356205678918 1
force O  -0.000000000000000  -0.000184484675028  -0.002725296394129 1
force O   0.000000000000000  -0.000036443649094  -0.008356205678687 1
force O  -0.000000000000000  -0.000184484675028  -0.002725296393674 1
force O   0.000000000000000  -0.000036443649094  -0.008356205678687 1
force O   0.000000000000000  -0.000184484675028  -0.002725296393898 1
force O  -0.000000000000000  -0.000036443649094  -0.008356205678691 1
force O   0.000000000000000  -0.000184484675028  -0.002725296393670 1

# Energy components:
   A_diel =       -0.1509335587096509
   Eewald =    29282.5268825740822649
       EH =    31658.7747111438911816
     Eloc =   -64571.2518182075291406
      Enl =      491.0942002248750669
      Exc =     -473.8623187213671599
 Exc_core =       52.0915209139583339
       KE =      763.8531908127642964
  MuShift =       -0.0193367876089648
-------------------------------------
     Etot =    -2796.9439016056448963
       TS =        0.1120545706614083
-------------------------------------
        F =    -2797.0559561763061538

IonicMinimize: Iter:   5  F: -2797.055956176306154  |grad|_K:  8.707e-05  alpha:  3.924e-01  linmin:  3.292e-01  t[s]:  20738.89
IonicMinimize: Converged (|grad|_K<1.000000e-04).

#--- Lowdin population analysis ---
# oxidation-state Mo +0.411 +0.410 +0.411 +0.410 +0.411 +0.410 +0.411 +0.410 +0.411 +0.410 +0.411 +0.410 +0.411 +0.410 +0.411 +0.410 +0.411 +0.410 +0.411 +0.410 +0.411 +0.410 +0.411 +0.410 +0.411 +0.410 +0.411 +0.410 +0.411 +0.410 +0.411 +0.410
# oxidation-state B -0.115 -0.115 -0.115 -0.115 -0.115 -0.115 -0.115 -0.115 -0.115 -0.115 -0.115 -0.115 -0.115 -0.115 -0.115 -0.115 -0.115 -0.115 -0.115 -0.115 -0.115 -0.115 -0.115 -0.115 -0.115 -0.115 -0.115 -0.115 -0.115 -0.115 -0.115 -0.115
# oxidation-state O -0.269 -0.270 -0.269 -0.270 -0.269 -0.270 -0.269 -0.270 -0.269 -0.270 -0.269 -0.270 -0.269 -0.270 -0.269 -0.270 -0.269 -0.270 -0.269 -0.270 -0.269 -0.270 -0.269 -0.270 -0.269 -0.270 -0.269 -0.270 -0.269 -0.270 -0.269 -0.270


Dumping 'NbTe2.fillings' ... done
Dumping 'NbTe2.wfns' ... done
Dumping 'NbTe2.fluidState' ... done
Dumping 'NbTe2.ionpos' ... done
Dumping 'NbTe2.eigenvals' ... done
End date and time: Fri Apr 16 22:07:58 2021  (Duration: 0-5:45:51.34)
Done!
