
*************** JDFTx 1.5.0  ***************

Start date and time: Thu Jul 16 12:44:48 2020
Executable jdftx_gpu with command-line: -i Neutral.in -o Neutral.out
Running on hosts (process indices):  amax (0-5)
Divided in process groups (process indices):  0 (0)  1 (1)  2 (2)  3 (3)  4 (4)  5 (5)
gpuInit: Found compatible cuda device 0 'Tesla K80'
gpuInit: Found compatible cuda device 1 'Tesla K80'
gpuInit: Found compatible cuda device 2 'Tesla K80'
gpuInit: Found compatible cuda device 3 'Tesla K80'
gpuInit: Found compatible cuda device 4 'Tesla K80'
gpuInit: Found compatible cuda device 5 'Tesla K80'
gpuInit: Selected device 0
Resource initialization completed at t[s]:     19.69
Run totals: 6 processes, 24 threads, 6 GPUs


Input parsed successfully to the following command list (including defaults):

basis kpoint-dependent
cache-projectors no
coords-type Lattice
core-overlap-check none
coulomb-interaction Slab 001
coulomb-truncation-embed 0 0 0.5
davidson-band-ratio 1.1
dump End State
dump-name NbTe2.$VAR
elec-cutoff 20 100
elec-eigen-algo Davidson
elec-ex-corr gga-PBE
elec-smearing Gauss 0.0073499
electronic-minimize  \
	dirUpdateScheme      FletcherReeves \
	linminMethod         DirUpdateRecommended \
	nIterations          500 \
	history              15 \
	knormThreshold       0 \
	energyDiffThreshold  1e-08 \
	nEnergyDiff          2 \
	alphaTstart          1 \
	alphaTmin            1e-10 \
	updateTestStepSize   yes \
	alphaTreduceFactor   0.1 \
	alphaTincreaseFactor 3 \
	nAlphaAdjustMax      3 \
	wolfeEnergy          0.0001 \
	wolfeGradient        0.9 \
	fdTest               no
exchange-regularization WignerSeitzTruncated
fluid LinearPCM 298.000000 1.013250
fluid-anion F- 1 MeanFieldLJ \
	epsBulk 1 \
	pMol 0 \
	epsInf 1 \
	Pvap 0 \
	sigmaBulk 0 \
	Rvdw 2.24877 \
	Res 0 \
	tauNuc 343133
fluid-cation Na+ 1 MeanFieldLJ \
	epsBulk 1 \
	pMol 0 \
	epsInf 1 \
	Pvap 0 \
	sigmaBulk 0 \
	Rvdw 2.19208 \
	Res 0 \
	tauNuc 343133
fluid-ex-corr lda-TF lda-PZ
fluid-gummel-loop 10 1.000000e-05
fluid-minimize  \
	dirUpdateScheme      PolakRibiere \
	linminMethod         DirUpdateRecommended \
	nIterations          400 \
	history              15 \
	knormThreshold       1e-11 \
	energyDiffThreshold  0 \
	nEnergyDiff          2 \
	alphaTstart          1 \
	alphaTmin            1e-10 \
	updateTestStepSize   yes \
	alphaTreduceFactor   0.1 \
	alphaTincreaseFactor 3 \
	nAlphaAdjustMax      6 \
	wolfeEnergy          0.0001 \
	wolfeGradient        0.9 \
	fdTest               no
fluid-solvent H2O 55.338 ScalarEOS \
	epsBulk 78.4 \
	pMol 0.92466 \
	epsInf 1.77 \
	Pvap 1.06736e-10 \
	sigmaBulk 4.62e-05 \
	Rvdw 2.61727 \
	Res 1.42 \
	tauNuc 343133 \
	poleEl 15 7 1
forces-output-coords Positions
initial-state NbTe2.$VAR
ion Ta  -0.000000000000000   0.203323878544755   0.478797379915049 0
ion Ta  -0.000000000000000   0.453323859544757   0.521202620084951 0
ion Ta   0.250000000000000   0.203323878544755   0.478797379915049 0
ion Ta   0.250000000000000   0.453323859544757   0.521202620084951 0
ion Ta   0.500000000000000   0.203323878544755   0.478797379915049 0
ion Ta   0.500000000000000   0.453323859544757   0.521202620084951 0
ion Ta   0.749999965999997   0.203323878544755   0.478797379915049 0
ion Ta   0.749999965999997   0.453323859544757   0.521202620084951 0
ion Ta  -0.000000000000000   0.703323896544757   0.478797379915049 0
ion Ta  -0.000000000000000   0.953323896544757   0.521202620084951 0
ion Ta   0.250000000000000   0.703323896544757   0.478797379915049 0
ion Ta   0.250000000000000   0.953323896544757   0.521202620084951 0
ion Ta   0.500000000000000   0.703323896544757   0.478797379915049 0
ion Ta   0.500000000000000   0.953323896544757   0.521202620084951 0
ion Ta   0.749999965999997   0.703323896544757   0.478797379915049 0
ion Ta   0.749999965999997   0.953323896544757   0.521202620084951 0
ion Ni   0.125000000000000   0.105580876668312   0.555878429580333 0
ion Ni   0.125000000000000   0.355570857668311   0.444131563419666 0
ion Ni   0.125000000000000   0.301142573659655   0.555888260031348 0
ion Ni   0.125000000000000   0.051142573659655   0.444121731968655 0
ion Ni   0.374999983000002   0.105580876668312   0.555878429580333 0
ion Ni   0.374999983000002   0.355570857668311   0.444131563419666 0
ion Ni   0.374999983000002   0.301142573659655   0.555888260031348 0
ion Ni   0.374999983000002   0.051142573659655   0.444121731968655 0
ion Ni   0.625000016999998   0.105580876668312   0.555878429580333 0
ion Ni   0.625000016999998   0.355570857668311   0.444131563419666 0
ion Ni   0.625000016999998   0.301142573659655   0.555888260031348 0
ion Ni   0.625000016999998   0.051142573659655   0.444121731968655 0
ion Ni   0.874999983000002   0.105580876668312   0.555878429580333 0
ion Ni   0.874999983000002   0.355570857668311   0.444131563419666 0
ion Ni   0.874999983000002   0.301142573659655   0.555888260031348 0
ion Ni   0.874999983000002   0.051142573659655   0.444121731968655 0
ion Ni   0.125000000000000   0.605580895668310   0.555878429580333 0
ion Ni   0.125000000000000   0.855570931668310   0.444131563419666 0
ion Ni   0.125000000000000   0.801142573659655   0.555888260031348 0
ion Ni   0.125000000000000   0.551142610659655   0.444121731968655 0
ion Ni   0.374999983000002   0.605580895668310   0.555878429580333 0
ion Ni   0.374999983000002   0.855570931668310   0.444131563419666 0
ion Ni   0.374999983000002   0.801142573659655   0.555888260031348 0
ion Ni   0.374999983000002   0.551142610659655   0.444121731968655 0
ion Ni   0.625000016999998   0.605580895668310   0.555878429580333 0
ion Ni   0.625000016999998   0.855570931668310   0.444131563419666 0
ion Ni   0.625000016999998   0.801142573659655   0.555888260031348 0
ion Ni   0.625000016999998   0.551142610659655   0.444121731968655 0
ion Ni   0.874999983000002   0.605580895668310   0.555878429580333 0
ion Ni   0.874999983000002   0.855570931668310   0.444131563419666 0
ion Ni   0.874999983000002   0.801142573659655   0.555888260031348 0
ion Ni   0.874999983000002   0.551142610659655   0.444121731968655 0
ion Te   0.125000000000000   0.453327860417924   0.633567366915353 0
ion Te   0.125000000000000   0.203317860417928   0.366422617084642 0
ion Te   0.000000000000000   0.453264794709362   0.376945767148916 0
ion Te  -0.000000000000000   0.203274795709361   0.623044217851083 0
ion Te   0.374999983000002   0.453327860417924   0.633567366915353 0
ion Te   0.374999983000002   0.203317860417928   0.366422617084642 0
ion Te   0.250000000000000   0.453264794709362   0.376945767148916 0
ion Te   0.250000000000000   0.203274795709361   0.623044217851083 0
ion Te   0.625000016999998   0.453327860417924   0.633567366915353 0
ion Te   0.625000016999998   0.203317860417928   0.366422617084642 0
ion Te   0.500000000000000   0.453264794709362   0.376945767148916 0
ion Te   0.500000000000000   0.203274795709361   0.623044217851083 0
ion Te   0.874999983000002   0.453327860417924   0.633567366915353 0
ion Te   0.874999983000002   0.203317860417928   0.366422617084642 0
ion Te   0.749999965999997   0.453264794709362   0.376945767148916 0
ion Te   0.749999965999997   0.203274795709361   0.623044217851083 0
ion Te   0.125000000000000   0.953327897417924   0.633567366915353 0
ion Te   0.125000000000000   0.703317897417928   0.366422617084642 0
ion Te   0.000000000000000   0.953264831709361   0.376945767148916 0
ion Te   0.000000000000000   0.703274832709361   0.623044217851083 0
ion Te   0.374999983000002   0.953327897417924   0.633567366915353 0
ion Te   0.374999983000002   0.703317897417928   0.366422617084642 0
ion Te   0.250000000000000   0.953264831709361   0.376945767148916 0
ion Te   0.250000000000000   0.703274832709361   0.623044217851083 0
ion Te   0.625000016999998   0.953327897417924   0.633567366915353 0
ion Te   0.625000016999998   0.703317897417928   0.366422617084642 0
ion Te   0.500000000000000   0.953264831709361   0.376945767148916 0
ion Te   0.500000000000000   0.703274832709361   0.623044217851083 0
ion Te   0.874999983000002   0.953327897417924   0.633567366915353 0
ion Te   0.874999983000002   0.703317897417928   0.366422617084642 0
ion Te   0.749999965999997   0.953264831709361   0.376945767148916 0
ion Te   0.749999965999997   0.703274832709361   0.623044217851083 0
ion-species GBRV/$ID_pbe.uspp
ion-width Ecut
ionic-minimize  \
	dirUpdateScheme      L-BFGS \
	linminMethod         DirUpdateRecommended \
	nIterations          0 \
	history              15 \
	knormThreshold       0.0001 \
	energyDiffThreshold  1e-06 \
	nEnergyDiff          2 \
	alphaTstart          1 \
	alphaTmin            1e-10 \
	updateTestStepSize   yes \
	alphaTreduceFactor   0.1 \
	alphaTincreaseFactor 3 \
	nAlphaAdjustMax      3 \
	wolfeEnergy          0.0001 \
	wolfeGradient        0.9 \
	fdTest               no
kpoint   0.000000000000   0.000000000000   0.000000000000  1.00000000000000
kpoint-folding 2 3 1 
latt-move-scale 1 1 1
latt-scale 1 1 1 
lattice Triclinic 26.5157 24.3285 38.7764 90 90 90
lattice-minimize  \
	dirUpdateScheme      L-BFGS \
	linminMethod         DirUpdateRecommended \
	nIterations          0 \
	history              15 \
	knormThreshold       0 \
	energyDiffThreshold  1e-06 \
	nEnergyDiff          2 \
	alphaTstart          1 \
	alphaTmin            1e-10 \
	updateTestStepSize   yes \
	alphaTreduceFactor   0.1 \
	alphaTincreaseFactor 3 \
	nAlphaAdjustMax      3 \
	wolfeEnergy          0.0001 \
	wolfeGradient        0.9 \
	fdTest               no
lcao-params -1 1e-06 0.0073499
pcm-variant CANDLE
spintype no-spin
subspace-rotation-factor 1 yes
symmetries automatic
symmetry-threshold 0.0001



---------- Setting up symmetries ----------

Found 8 point-group symmetries of the bravais lattice
Found 32 space-group symmetries with basis
Applied RMS atom displacement 0.000197409 bohrs to make symmetries exact.

---------- Initializing the Grid ----------
R = 
[    26.5157          0          0  ]
[          0    24.3285          0  ]
[          0          0    38.7764  ]
unit cell volume = 25014.2
G =
[   0.236961          0          0  ]
[          0   0.258264          0  ]
[          0          0   0.162036  ]
Minimum fftbox size, Smin = [  120  112  176  ]
Chosen fftbox size, S = [  120  112  180  ]

---------- Initializing tighter grid for wavefunction operations ----------
R = 
[    26.5157          0          0  ]
[          0    24.3285          0  ]
[          0          0    38.7764  ]
unit cell volume = 25014.2
G =
[   0.236961          0          0  ]
[          0   0.258264          0  ]
[          0          0   0.162036  ]
Minimum fftbox size, Smin = [  108  100  160  ]
Chosen fftbox size, S = [  108  100  160  ]

---------- Exchange Correlation functional ----------
Initalized PBE GGA exchange.
Initalized PBE GGA correlation.

---------- Setting up pseudopotentials ----------
Width of ionic core gaussian charges (only for fluid interactions / plotting) set to 0.397384

Reading pseudopotential file '/home/guoxy/vasp/jdftx-1.5.0/build/pseudopotentials/GBRV/ta_pbe.uspp':
  Title: Ta.  Created by USPP 7.3.6 on 14-9-2013
  Reference state energy: -70.583193.  13 valence electrons in orbitals:
    |500>  occupation: 2  eigenvalue: -2.682396
    |510>  occupation: 6  eigenvalue: -1.447928
    |520>  occupation: 3  eigenvalue: -0.131987
    |600>  occupation: 2  eigenvalue: -0.199982
    |610>  occupation: 0  eigenvalue: -0.051129
  lMax: 3  lLocal: 3  QijEcut: 5
  7 projectors sampled on a log grid with 667 points:
    l: 0  eig: -2.682397  rCut: 1.4
    l: 0  eig: -0.199983  rCut: 1.4
    l: 1  eig: -1.447928  rCut: 1.5
    l: 1  eig: -0.051130  rCut: 1.5
    l: 2  eig: -0.131987  rCut: 1.7
    l: 2  eig: 0.150000  rCut: 1.7
    l: 3  eig: 0.250000  rCut: 2.3
  Partial core density with radius 1.2
  Transforming core density to a uniform radial grid of dG=0.02 with 1254 points.
  Transforming local potential to a uniform radial grid of dG=0.02 with 1254 points.
  Transforming nonlocal projectors to a uniform radial grid of dG=0.02 with 432 points.
  Transforming density augmentations to a uniform radial grid of dG=0.02 with 1254 points.
  Transforming atomic orbitals to a uniform radial grid of dG=0.02 with 432 points.
  Core radius for overlap checks: 2.30 bohrs.

Reading pseudopotential file '/home/guoxy/vasp/jdftx-1.5.0/build/pseudopotentials/GBRV/ni_pbe.uspp':
  Title: Ni.  Created by USPP 7.3.6 on 1-4-15
  Reference state energy: -170.398381.  18 valence electrons in orbitals:
    |300>  occupation: 2  eigenvalue: -4.804705
    |310>  occupation: 6  eigenvalue: -3.347751
    |320>  occupation: 8  eigenvalue: -1.042415
    |400>  occupation: 0  eigenvalue: -0.795539
    |410>  occupation: 0  eigenvalue: -0.551375
  lMax: 2  lLocal: 3  QijEcut: 6.5
  6 projectors sampled on a log grid with 611 points:
    l: 0  eig: -4.804708  rCut: 1.44
    l: 0  eig: -0.795541  rCut: 1.44
    l: 1  eig: -3.347753  rCut: 1.55
    l: 1  eig: 0.500000  rCut: 1.55
    l: 2  eig: -1.042418  rCut: 1.5
    l: 2  eig: -0.450000  rCut: 1.5
  Partial core density with radius 0.65
  Transforming core density to a uniform radial grid of dG=0.02 with 1254 points.
  Transforming local potential to a uniform radial grid of dG=0.02 with 1254 points.
  Transforming nonlocal projectors to a uniform radial grid of dG=0.02 with 432 points.
  Transforming density augmentations to a uniform radial grid of dG=0.02 with 1254 points.
  Transforming atomic orbitals to a uniform radial grid of dG=0.02 with 432 points.
  Core radius for overlap checks: 1.55 bohrs.

Reading pseudopotential file '/home/guoxy/vasp/jdftx-1.5.0/build/pseudopotentials/GBRV/te_pbe.uspp':
  Title: Te.  Created by USPP 7.3.6 on 14-9-2013
  Reference state energy: -13.134220.  6 valence electrons in orbitals:
    |500>  occupation: 2  eigenvalue: -0.555231
    |510>  occupation: 4  eigenvalue: -0.218781
  lMax: 2  lLocal: 2  QijEcut: 5
  5 projectors sampled on a log grid with 723 points:
    l: 0  eig: -0.555229  rCut: 2.1
    l: 0  eig: 1.000000  rCut: 2.1
    l: 1  eig: -0.218780  rCut: 2.1
    l: 1  eig: 1.000000  rCut: 2.1
    l: 2  eig: 1.000000  rCut: 2.6
  Partial core density with radius 1.8
  Transforming core density to a uniform radial grid of dG=0.02 with 1254 points.
  Transforming local potential to a uniform radial grid of dG=0.02 with 1254 points.
  Transforming nonlocal projectors to a uniform radial grid of dG=0.02 with 432 points.
  Transforming density augmentations to a uniform radial grid of dG=0.02 with 1254 points.
  Transforming atomic orbitals to a uniform radial grid of dG=0.02 with 432 points.
  Core radius for overlap checks: 2.60 bohrs.

Initialized 3 species with 80 total atoms.

Folded 1 k-points by 2x3x1 to 6 k-points.

---------- Setting up k-points, bands, fillings ----------
Adding inversion symmetry to k-mesh for non-inversion-symmetric unit cell.
Reduced to 4 k-points under symmetry. 
Computing the number of bands and number of electrons
Calculating initial fillings.
nElectrons: 976.000000   nBands: 752   nStates: 4

----- Setting up reduced wavefunction bases (one per k-point) -----
average nbasis = 106851.833 , ideal nbasis = 106862.509

---------- Setting up coulomb interaction ----------
Fluid mode embedding: using embedded box, but periodic Coulomb kernel.
(Fluid response is responsible for (approximate) separation between periodic images.)
Setting up double-sized grid for truncated Coulomb potentials:
R = 
[    26.5157          0          0  ]
[          0    24.3285          0  ]
[          0          0    77.5528  ]
unit cell volume = 50028.4
G =
[   0.236961          0          0  ]
[          0   0.258264          0  ]
[          0          0  0.0810181  ]
Chosen fftbox size, S = [  120  112  360  ]
Integer grid location selected as the embedding center:
   Grid: [  0  0  90  ]
   Lattice: [  0  0  0.5  ]
   Cartesian: [  0  0  19.3882  ]
Constructing Wigner-Seitz cell: 6 faces (6 quadrilaterals, 0 hexagons)
Range-separation parameter for embedded mesh potentials due to point charges: 0.593022 bohrs.

Initializing van der Waals corrections
	NOTE: vdW corrections apply only for interactions with fluid.
	Ta:  C6:  815.23 Eh-a0^6  R0: 3.326 a0 (WARNING: beyond Grimme's data set)
	Ni:  C6:  187.33 Eh-a0^6  R0: 2.952 a0
	Te:  C6:  550.54 Eh-a0^6  R0: 3.575 a0

---------- Setting up ewald sum ----------
Optimum gaussian width for ewald sums = 7.081640 bohr.
Real space sum over 405 unit cells with max indices [  4  4  2  ]
Reciprocal space sum over 8325 terms with max indices [  7  7  18  ]

---------- Allocating electronic variables ----------
Initializing wave functions:  linear combination of atomic orbitals
Ta pseudo-atom occupations:   s ( 2 2 )  p ( 6 0 )  d ( 3 )
Ni pseudo-atom occupations:   s ( 2 0 )  p ( 6 0 )  d ( 10 )
Te pseudo-atom occupations:   s ( 2 )  p ( 4 )
	FillingsUpdate:  mu: -1.004633456  nElectrons: 976.000000
LCAOMinimize: Iter:   0  F: -5842.5599630208134840  |grad|_K:  2.868e-02  alpha:  1.000e+00
	FillingsUpdate:  mu: +3.397689767  nElectrons: 976.000000
LCAOMinimize: Iter:   1  F: -6242.4087432118467405  |grad|_K:  1.692e-02  alpha:  5.639e-01  linmin:  9.304e-02  cgtest: -1.687e+00  t[s]:    115.95
LCAOMinimize: 	Bad step direction: g.d > 0.
LCAOMinimize: 	Undoing step.
LCAOMinimize: 	Step failed: resetting search direction.
	FillingsUpdate:  mu: +3.397689767  nElectrons: 976.000000
LCAOMinimize: Iter:   2  F: -6242.4087432118467405  |grad|_K:  1.692e-02  alpha:  0.000e+00
	FillingsUpdate:  mu: +0.891130314  nElectrons: 976.000000
LCAOMinimize: Iter:   3  F: -6562.0807421317740591  |grad|_K:  1.131e-02  alpha:  2.333e-01  linmin: -1.349e-01  cgtest:  6.091e-01  t[s]:    157.79
	FillingsUpdate:  mu: +0.012691028  nElectrons: 976.000000
LCAOMinimize: Iter:   4  F: -6629.9662346665309087  |grad|_K:  1.011e-02  alpha:  3.256e-01  linmin: -1.056e-01  cgtest:  2.099e-02  t[s]:    184.64
	FillingsUpdate:  mu: +0.033527504  nElectrons: 976.000000
LCAOMinimize: Iter:   5  F: -6645.2270682817388661  |grad|_K:  1.044e-02  alpha:  2.632e-02  linmin: -1.984e-01  cgtest:  7.830e-01  t[s]:    215.90
LCAOMinimize: 	Wrong curvature in test step, increasing alphaT to 7.896505e-02.
	FillingsUpdate:  mu: +0.057394107  nElectrons: 976.000000
LCAOMinimize: Iter:   6  F: -6657.5794642354003372  |grad|_K:  9.969e-03  alpha: -1.432e-01  linmin: -2.832e-01  cgtest:  8.294e-01  t[s]:    249.97
	FillingsUpdate:  mu: -0.096036956  nElectrons: 976.000000
LCAOMinimize: Iter:   7  F: -6667.7328459918126100  |grad|_K:  1.400e-02  alpha:  1.367e-01  linmin:  3.669e-01  cgtest: -4.227e-01  t[s]:    273.85
LCAOMinimize: 	Bad step direction: g.d > 0.
LCAOMinimize: 	Undoing step.
LCAOMinimize: 	Step failed: resetting search direction.
	FillingsUpdate:  mu: -0.096036956  nElectrons: 976.000000
LCAOMinimize: Iter:   8  F: -6667.7328459918126100  |grad|_K:  1.400e-02  alpha:  0.000e+00
	FillingsUpdate:  mu: +0.023006971  nElectrons: 976.000000
LCAOMinimize: Iter:   9  F: -6680.7628642695863164  |grad|_K:  1.824e-03  alpha:  7.852e-02  linmin:  1.858e-01  cgtest: -6.373e-01  t[s]:    315.35
LCAOMinimize: 	Predicted alpha/alphaT>3.000000, increasing alphaT to 2.355523e-01.
	FillingsUpdate:  mu: -0.055922511  nElectrons: 976.000000
LCAOMinimize: Iter:  10  F: -6681.4169616757726544  |grad|_K:  1.185e-03  alpha:  2.588e-01  linmin: -3.068e-02  cgtest:  5.621e-01  t[s]:    348.44
	FillingsUpdate:  mu: -0.054196934  nElectrons: 976.000000
LCAOMinimize: Iter:  11  F: -6681.5855053838704407  |grad|_K:  3.284e-04  alpha:  1.012e-01  linmin: -4.239e-02  cgtest:  8.023e-02  t[s]:    373.27
	FillingsUpdate:  mu: -0.022979078  nElectrons: 976.000000
LCAOMinimize: Iter:  12  F: -6681.6103196398162254  |grad|_K:  2.503e-04  alpha:  2.004e-01  linmin:  4.798e-03  cgtest: -4.555e-02  t[s]:    398.91
	FillingsUpdate:  mu: -0.032409486  nElectrons: 976.000000
LCAOMinimize: Iter:  13  F: -6681.6281881424247331  |grad|_K:  1.755e-04  alpha:  2.541e-01  linmin: -1.284e-03  cgtest:  7.821e-02  t[s]:    424.15
	FillingsUpdate:  mu: -0.035806390  nElectrons: 976.000000
LCAOMinimize: Iter:  14  F: -6681.6305435058875446  |grad|_K:  6.259e-05  alpha:  6.696e-02  linmin: -1.158e-03  cgtest: -2.143e-02  t[s]:    449.09
LCAOMinimize: 	Predicted alpha/alphaT>3.000000, increasing alphaT to 2.008818e-01.
	FillingsUpdate:  mu: -0.037868429  nElectrons: 976.000000
LCAOMinimize: Iter:  15  F: -6681.6315781457251433  |grad|_K:  4.678e-05  alpha:  2.322e-01  linmin: -1.174e-03  cgtest: -4.782e-03  t[s]:    482.03
	FillingsUpdate:  mu: -0.036904596  nElectrons: 976.000000
LCAOMinimize: Iter:  16  F: -6681.6320166238710954  |grad|_K:  1.818e-05  alpha:  1.759e-01  linmin:  1.575e-04  cgtest: -1.415e-02  t[s]:    507.16
	FillingsUpdate:  mu: -0.036341989  nElectrons: 976.000000
LCAOMinimize: Iter:  17  F: -6681.6320482045221070  |grad|_K:  1.110e-05  alpha:  8.430e-02  linmin:  1.197e-04  cgtest:  7.878e-04  t[s]:    532.62
	FillingsUpdate:  mu: -0.035691389  nElectrons: 976.000000
LCAOMinimize: Iter:  18  F: -6681.6320785748484923  |grad|_K:  1.079e-05  alpha:  2.175e-01  linmin: -7.466e-05  cgtest:  3.646e-04  t[s]:    557.93
	FillingsUpdate:  mu: -0.036363963  nElectrons: 976.000000
LCAOMinimize: Iter:  19  F: -6681.6321024425878932  |grad|_K:  2.420e-06  alpha:  1.805e-01  linmin:  3.203e-05  cgtest: -2.328e-03  t[s]:    584.21
	FillingsUpdate:  mu: -0.036450786  nElectrons: 976.000000
LCAOMinimize: Iter:  20  F: -6681.6321031710158422  |grad|_K:  1.681e-06  alpha:  1.097e-01  linmin: -9.428e-06  cgtest: -3.202e-05  t[s]:    609.13
	FillingsUpdate:  mu: -0.036508229  nElectrons: 976.000000
LCAOMinimize: Iter:  21  F: -6681.6321036109684428  |grad|_K:  1.444e-06  alpha:  1.373e-01  linmin:  7.285e-05  cgtest: -4.894e-04  t[s]:    634.71
LCAOMinimize: Converged (|Delta F|<1.000000e-06 for 2 iters).
----- createFluidSolver() ----- (Fluid-side solver setup)
   Initializing fluid molecule 'H2O'
     Initializing site 'O'
       Electron density: proportional to exp(-r/0.36935)*erfc((r-0.51523)/0.36823) with norm 6.826
       Charge density: gaussian nuclear width 0.478731 with net site charge 0.826
       Polarizability: cuspless exponential with width 0.32 and norm 3.73
       Hard sphere radius: 2.57003 bohrs
       Positions in reference frame:
         [ +0.000000 +0.000000 +0.000000 ]
     Initializing site 'H'
       Electron density: proportional to exp(-r/0.34641)*erfc((r-0)/0.390882) with norm 0.587
       Charge density: gaussian nuclear width 0.377945 with net site charge -0.413
       Polarizability: cuspless exponential with width 0.39 and norm 3.3
       Positions in reference frame:
         [ +0.000000 -1.441945 +1.122523 ]
         [ +0.000000 +1.441945 +1.122523 ]
     Net charge: 0   dipole magnitude: 0.927204
     Initializing spherical shell mfKernel with radius 2.61727 Bohr
     deltaS corrections:
       site 'O': -7.54299
       site 'H': -6.83917
   Initializing fluid molecule 'Na+'
     Initializing site 'Na'
       Electron density: proportional to exp(-r/0.19682)*erfc((r-0.71491)/0.41314) with norm 8.1383
       Charge density: gaussian nuclear width 0.365347 with net site charge -1
       Hard sphere radius: 1.86327 bohrs
       Positions in reference frame:
         [ +0.000000 +0.000000 +0.000000 ]
     Net charge: -1   dipole magnitude: 0
     Initializing gaussian mfKernel with width: 1.55004 Bohr
     deltaS corrections:
       site 'Na': -22.3555
   Initializing fluid molecule 'F-'
     Initializing site 'F'
       Electron density: proportional to exp(-r/0.38886)*erfc((r-0)/0.438782) with norm 8
       Charge density: gaussian nuclear width 0.374796 with net site charge 1
       Hard sphere radius: 2.39995 bohrs
       Positions in reference frame:
         [ +0.000000 +0.000000 +0.000000 ]
     Net charge: 1   dipole magnitude: 0
     Initializing gaussian mfKernel with width: 1.59012 Bohr
     deltaS corrections:
       site 'F': -9.04335

Correction to mu due to finite nuclear width = -0.0193568
   Cavity determined by nc: 0.00142 and sigma: 0.707107
   Nonlocal vdW cavity from gaussian model electron density with norm = 8 and sigma = 0.993594 bohr
   Charge asymmetry in cavity with sensitivity pCavity = 36.5 e-bohr/Eh
   Electrostatic cavity expanded by eta = 1.46 bohrs
   Weighted density cavitation model constrained by Nbulk: 0.0049383 bohr^-3, Pvap: 3.14029 kPa, Rvdw: 2.61727 bohr and sigmaBulk: 4.62e-05 Eh/bohr^2 at T: 298 K.
   Weighted density dispersion model using vdW pair potentials with single solvent site with sqrtC6eff: 0.77 SI.


---- Citations for features of the code used in this run ----

   Software package:
      R. Sundararaman, K. Letchworth-Weaver, K.A. Schwarz, D. Gunceler, Y. Ozhabes and T.A. Arias, 'JDFTx: software for joint density-functional theory', SoftwareX 6, 278 (2017)

   gga-PBE exchange-correlation functional:
      J.P. Perdew, K. Burke and M. Ernzerhof, Phys. Rev. Lett. 77, 3865 (1996)

   Pseudopotentials:
      KF Garrity, JW Bennett, KM Rabe and D Vanderbilt, Comput. Mater. Sci. 81, 446 (2014)

   Truncated Coulomb potentials:
      R. Sundararaman and T.A. Arias, Phys. Rev. B 87, 165122 (2013)

   Van der Waals correction pair-potentials:
      S. Grimme, J. Comput. Chem. 27, 1787 (2006)

   Charge-asymmetric nonlocally-determined local-electric (CANDLE) solvation model:
      R. Sundararaman and W.A. Goddard III, J. Chem. Phys. 142, 064107 (2015)

   Total energy minimization with Auxiliary Hamiltonian:
      C. Freysoldt, S. Boeck, and J. Neugebauer, Phys. Rev. B 79, 241103(R) (2009)

This list may not be complete. Please suggest additional citations or
report any other bugs at https://github.com/shankar1729/jdftx/issues

Initialization completed successfully at t[s]:    644.39

Fluid solver invoked on fresh (partially random / LCAO) wavefunctions
Running a vacuum solve first:

-------- Initial electronic minimization -----------
	FillingsUpdate:  mu: -0.036508229  nElectrons: 976.000000
ElecMinimize: Iter:   0  F: -6681.632103611075763  |grad|_K:  1.200e-04  alpha:  1.000e+00
	FillingsUpdate:  mu: -0.071258569  nElectrons: 976.000000
	SubspaceRotationAdjust: set factor to 0.829
ElecMinimize: Iter:   1  F: -6683.028557653104144  |grad|_K:  1.437e-04  alpha:  2.954e-01  linmin: -3.848e-06  t[s]:    728.51
	FillingsUpdate:  mu: +0.016760327  nElectrons: 976.000000
	SubspaceRotationAdjust: set factor to 0.449
ElecMinimize: Iter:   2  F: -6684.155993670226962  |grad|_K:  7.115e-05  alpha:  1.809e-01  linmin:  5.852e-06  t[s]:    784.53
	FillingsUpdate:  mu: -0.010172734  nElectrons: 976.000000
	SubspaceRotationAdjust: set factor to 0.53
ElecMinimize: Iter:   3  F: -6684.761115624550257  |grad|_K:  3.267e-05  alpha:  3.782e-01  linmin:  6.672e-06  t[s]:    840.46
	FillingsUpdate:  mu: -0.033986363  nElectrons: 976.000000
	SubspaceRotationAdjust: set factor to 0.554
ElecMinimize: Iter:   4  F: -6684.890694015772169  |grad|_K:  3.493e-05  alpha:  3.811e-01  linmin:  4.447e-06  t[s]:    896.49
	FillingsUpdate:  mu: -0.021381192  nElectrons: 976.000000
	SubspaceRotationAdjust: set factor to 0.508
ElecMinimize: Iter:   5  F: -6684.980029279322480  |grad|_K:  2.019e-05  alpha:  2.302e-01  linmin:  1.389e-06  t[s]:    953.13
	FillingsUpdate:  mu: -0.022324787  nElectrons: 976.000000
	SubspaceRotationAdjust: set factor to 0.611
ElecMinimize: Iter:   6  F: -6685.029897589502070  |grad|_K:  1.388e-05  alpha:  3.826e-01  linmin:  3.969e-05  t[s]:   1009.19
	FillingsUpdate:  mu: -0.025767672  nElectrons: 976.000000
	SubspaceRotationAdjust: set factor to 0.586
ElecMinimize: Iter:   7  F: -6685.048600139257360  |grad|_K:  1.424e-05  alpha:  3.046e-01  linmin:  2.925e-06  t[s]:   1065.19
	FillingsUpdate:  mu: -0.027130288  nElectrons: 976.000000
	SubspaceRotationAdjust: set factor to 0.488
ElecMinimize: Iter:   8  F: -6685.061614335886588  |grad|_K:  9.646e-06  alpha:  1.983e-01  linmin: -5.011e-07  t[s]:   1121.43
	FillingsUpdate:  mu: -0.026298765  nElectrons: 976.000000
	SubspaceRotationAdjust: set factor to 0.548
ElecMinimize: Iter:   9  F: -6685.069274763133762  |grad|_K:  5.300e-06  alpha:  2.557e-01  linmin:  5.911e-06  t[s]:   1177.94
	FillingsUpdate:  mu: -0.025713529  nElectrons: 976.000000
	SubspaceRotationAdjust: set factor to 0.59
ElecMinimize: Iter:  10  F: -6685.072678926009758  |grad|_K:  4.273e-06  alpha:  3.800e-01  linmin:  3.225e-06  t[s]:   1234.33
	FillingsUpdate:  mu: -0.025236479  nElectrons: 976.000000
	SubspaceRotationAdjust: set factor to 0.61
ElecMinimize: Iter:  11  F: -6685.074316341738268  |grad|_K:  3.016e-06  alpha:  2.798e-01  linmin:  2.164e-08  t[s]:   1291.50
	FillingsUpdate:  mu: -0.027029933  nElectrons: 976.000000
	SubspaceRotationAdjust: set factor to 0.581
ElecMinimize: Iter:  12  F: -6685.075004280121902  |grad|_K:  2.704e-06  alpha:  2.341e-01  linmin:  9.504e-07  t[s]:   1347.63
	FillingsUpdate:  mu: -0.026688243  nElectrons: 976.000000
	SubspaceRotationAdjust: set factor to 0.622
ElecMinimize: Iter:  13  F: -6685.075633764389750  |grad|_K:  1.926e-06  alpha:  2.679e-01  linmin:  1.861e-06  t[s]:   1403.92
	FillingsUpdate:  mu: -0.025704609  nElectrons: 976.000000
	SubspaceRotationAdjust: set factor to 0.604
ElecMinimize: Iter:  14  F: -6685.075886543085289  |grad|_K:  1.591e-06  alpha:  2.121e-01  linmin:  1.594e-07  t[s]:   1460.13
	FillingsUpdate:  mu: -0.026276263  nElectrons: 976.000000
	SubspaceRotationAdjust: set factor to 0.685
ElecMinimize: Iter:  15  F: -6685.076112918010949  |grad|_K:  1.165e-06  alpha:  2.778e-01  linmin:  2.814e-06  t[s]:   1516.81
	FillingsUpdate:  mu: -0.026376209  nElectrons: 976.000000
	SubspaceRotationAdjust: set factor to 0.829
ElecMinimize: Iter:  16  F: -6685.076250363518739  |grad|_K:  7.908e-07  alpha:  3.168e-01  linmin:  1.806e-06  t[s]:   1573.88
	FillingsUpdate:  mu: -0.026268176  nElectrons: 976.000000
	SubspaceRotationAdjust: set factor to 0.941
ElecMinimize: Iter:  17  F: -6685.076317645650306  |grad|_K:  6.976e-07  alpha:  3.352e-01  linmin:  9.089e-07  t[s]:   1630.33
	FillingsUpdate:  mu: -0.026227507  nElectrons: 976.000000
	SubspaceRotationAdjust: set factor to 0.836
ElecMinimize: Iter:  18  F: -6685.076345333927748  |grad|_K:  6.760e-07  alpha:  1.766e-01  linmin: -2.098e-07  t[s]:   1686.10
	FillingsUpdate:  mu: -0.026245621  nElectrons: 976.000000
	SubspaceRotationAdjust: set factor to 0.798
ElecMinimize: Iter:  19  F: -6685.076371165745513  |grad|_K:  4.201e-07  alpha:  1.750e-01  linmin:  3.283e-07  t[s]:   1742.08
	FillingsUpdate:  mu: -0.026293608  nElectrons: 976.000000
	SubspaceRotationAdjust: set factor to 0.964
ElecMinimize: Iter:  20  F: -6685.076389239746277  |grad|_K:  2.887e-07  alpha:  3.187e-01  linmin:  7.274e-07  t[s]:   1799.13
	FillingsUpdate:  mu: -0.026174595  nElectrons: 976.000000
	SubspaceRotationAdjust: set factor to 1.05
ElecMinimize: Iter:  21  F: -6685.076396910311814  |grad|_K:  2.818e-07  alpha:  2.865e-01  linmin:  1.305e-07  t[s]:   1855.57
	FillingsUpdate:  mu: -0.026293412  nElectrons: 976.000000
	SubspaceRotationAdjust: set factor to 0.941
ElecMinimize: Iter:  22  F: -6685.076401243696637  |grad|_K:  2.442e-07  alpha:  1.692e-01  linmin: -1.144e-08  t[s]:   1912.27
	FillingsUpdate:  mu: -0.026308507  nElectrons: 976.000000
	SubspaceRotationAdjust: set factor to 0.947
ElecMinimize: Iter:  23  F: -6685.076404629011449  |grad|_K:  1.850e-07  alpha:  1.760e-01  linmin:  8.718e-08  t[s]:   1969.10
	FillingsUpdate:  mu: -0.026218363  nElectrons: 976.000000
	SubspaceRotationAdjust: set factor to 0.834
ElecMinimize: Iter:  24  F: -6685.076406531503380  |grad|_K:  1.502e-07  alpha:  1.724e-01  linmin:  6.971e-08  t[s]:   2026.09
	FillingsUpdate:  mu: -0.026249176  nElectrons: 976.000000
	SubspaceRotationAdjust: set factor to 0.933
ElecMinimize: Iter:  25  F: -6685.076408008457292  |grad|_K:  9.643e-08  alpha:  2.032e-01  linmin:  5.204e-08  t[s]:   2082.81
	FillingsUpdate:  mu: -0.026260674  nElectrons: 976.000000
	SubspaceRotationAdjust: set factor to 1.03
ElecMinimize: Iter:  26  F: -6685.076408996733335  |grad|_K:  8.153e-08  alpha:  3.298e-01  linmin:  7.073e-08  t[s]:   2139.50
	FillingsUpdate:  mu: -0.026268387  nElectrons: 976.000000
	SubspaceRotationAdjust: set factor to 0.998
ElecMinimize: Iter:  27  F: -6685.076409463767959  |grad|_K:  7.635e-08  alpha:  2.179e-01  linmin:  6.221e-10  t[s]:   2196.14
	FillingsUpdate:  mu: -0.026256367  nElectrons: 976.000000
	SubspaceRotationAdjust: set factor to 0.909
ElecMinimize: Iter:  28  F: -6685.076409720961237  |grad|_K:  5.851e-08  alpha:  1.368e-01  linmin:  9.877e-11  t[s]:   2252.47
	FillingsUpdate:  mu: -0.026247979  nElectrons: 976.000000
	SubspaceRotationAdjust: set factor to 0.875
ElecMinimize: Iter:  29  F: -6685.076409966783103  |grad|_K:  4.144e-08  alpha:  2.227e-01  linmin:  2.848e-09  t[s]:   2309.92
	FillingsUpdate:  mu: -0.026265303  nElectrons: 976.000000
	SubspaceRotationAdjust: set factor to 0.887
ElecMinimize: Iter:  30  F: -6685.076410087297518  |grad|_K:  3.741e-08  alpha:  2.175e-01  linmin:  1.824e-08  t[s]:   2366.81
	FillingsUpdate:  mu: -0.026246489  nElectrons: 976.000000
	SubspaceRotationAdjust: set factor to 0.882
ElecMinimize: Iter:  31  F: -6685.076410185582972  |grad|_K:  2.549e-08  alpha:  2.179e-01  linmin:  2.292e-08  t[s]:   2424.45
	FillingsUpdate:  mu: -0.026254772  nElectrons: 976.000000
	SubspaceRotationAdjust: set factor to 0.905
ElecMinimize: Iter:  32  F: -6685.076410235733420  |grad|_K:  2.181e-08  alpha:  2.395e-01  linmin:  1.699e-08  t[s]:   2481.71
	FillingsUpdate:  mu: -0.026259403  nElectrons: 976.000000
	SubspaceRotationAdjust: set factor to 0.835
ElecMinimize: Iter:  33  F: -6685.076410262440731  |grad|_K:  2.008e-08  alpha:  1.741e-01  linmin: -1.856e-08  t[s]:   2538.15
	FillingsUpdate:  mu: -0.026255363  nElectrons: 976.000000
	SubspaceRotationAdjust: set factor to 0.89
ElecMinimize: Iter:  34  F: -6685.076410288444094  |grad|_K:  1.295e-08  alpha:  2.001e-01  linmin: -3.112e-10  t[s]:   2595.91
	FillingsUpdate:  mu: -0.026256055  nElectrons: 976.000000
	SubspaceRotationAdjust: set factor to 1.03
ElecMinimize: Iter:  35  F: -6685.076410304818637  |grad|_K:  9.590e-09  alpha:  3.040e-01  linmin:  7.853e-08  t[s]:   2652.71
	FillingsUpdate:  mu: -0.026255119  nElectrons: 976.000000
	SubspaceRotationAdjust: set factor to 1.03
ElecMinimize: Iter:  36  F: -6685.076410312919506  |grad|_K:  9.636e-09  alpha:  2.748e-01  linmin:  3.325e-09  t[s]:   2709.16
	FillingsUpdate:  mu: -0.026256840  nElectrons: 976.000000
	SubspaceRotationAdjust: set factor to 0.919
ElecMinimize: Iter:  37  F: -6685.076410317123191  |grad|_K:  7.504e-09  alpha:  1.383e-01  linmin: -1.867e-08  t[s]:   2765.40
ElecMinimize: Converged (|Delta F|<1.000000e-08 for 2 iters).
Setting wave functions to eigenvectors of Hamiltonian
Vacuum energy after initial minimize, F = -6685.076410317123191

	Linear fluid (dielectric constant: 78.4, screening length: 5.74355 Bohr) occupying 0.718575 of unit cell:	Completed after 16 iterations at t[s]:   2776.10

-------- Electronic minimization -----------
	Linear fluid (dielectric constant: 78.4, screening length: 5.74355 Bohr) occupying 0.718575 of unit cell:	Completed after 0 iterations at t[s]:   2783.84
	FillingsUpdate:  mu: -0.146845040  nElectrons: 976.000000
ElecMinimize: Iter:   0  F: -6685.073049424663623  |grad|_K:  1.141e-06  alpha:  1.000e+00
	Linear fluid (dielectric constant: 78.4, screening length: 5.74355 Bohr) occupying 0.719445 of unit cell:	Completed after 12 iterations at t[s]:   2831.04
	Linear fluid (dielectric constant: 78.4, screening length: 5.74355 Bohr) occupying 0.719117 of unit cell:	Completed after 10 iterations at t[s]:   2848.86
	FillingsUpdate:  mu: -0.143453166  nElectrons: 976.000000
	SubspaceRotationAdjust: set factor to 0.542
ElecMinimize: Iter:   1  F: -6685.073300508076500  |grad|_K:  1.440e-06  alpha:  6.107e-01  linmin:  2.871e-07  t[s]:   2869.83
	Linear fluid (dielectric constant: 78.4, screening length: 5.74355 Bohr) occupying 0.719942 of unit cell:	Completed after 13 iterations at t[s]:   2893.15
	Linear fluid (dielectric constant: 78.4, screening length: 5.74355 Bohr) occupying 0.719321 of unit cell:	Completed after 11 iterations at t[s]:   2912.26
	FillingsUpdate:  mu: -0.144625987  nElectrons: 976.000000
	SubspaceRotationAdjust: set factor to 0.498
ElecMinimize: Iter:   2  F: -6685.073397173278863  |grad|_K:  6.382e-07  alpha:  1.448e-01  linmin:  9.943e-09  t[s]:   2932.73
	Linear fluid (dielectric constant: 78.4, screening length: 5.74355 Bohr) occupying 0.719369 of unit cell:	Completed after 2 iterations at t[s]:   2955.52
	Linear fluid (dielectric constant: 78.4, screening length: 5.74355 Bohr) occupying 0.719376 of unit cell:	Completed after 3 iterations at t[s]:   2972.93
	FillingsUpdate:  mu: -0.144820702  nElectrons: 976.000000
	SubspaceRotationAdjust: set factor to 0.45
ElecMinimize: Iter:   3  F: -6685.073419145249318  |grad|_K:  4.251e-07  alpha:  1.681e-01  linmin:  9.679e-08  t[s]:   2993.71
	Linear fluid (dielectric constant: 78.4, screening length: 5.74355 Bohr) occupying 0.719408 of unit cell:	Completed after 2 iterations at t[s]:   3016.62
	Linear fluid (dielectric constant: 78.4, screening length: 5.74355 Bohr) occupying 0.719454 of unit cell:	Completed after 2 iterations at t[s]:   3033.73
	FillingsUpdate:  mu: -0.144838897  nElectrons: 976.000000
	SubspaceRotationAdjust: set factor to 0.476
ElecMinimize: Iter:   4  F: -6685.073443196242806  |grad|_K:  3.392e-07  alpha:  4.088e-01  linmin: -7.822e-07  t[s]:   3054.39
	Linear fluid (dielectric constant: 78.4, screening length: 5.74355 Bohr) occupying 0.719507 of unit cell:	Completed after 2 iterations at t[s]:   3076.96
	Linear fluid (dielectric constant: 78.4, screening length: 5.74355 Bohr) occupying 0.719476 of unit cell:	Completed after 3 iterations at t[s]:   3094.89
	FillingsUpdate:  mu: -0.144856575  nElectrons: 976.000000
	SubspaceRotationAdjust: set factor to 0.425
ElecMinimize: Iter:   5  F: -6685.073449504590826  |grad|_K:  1.892e-07  alpha:  1.693e-01  linmin:  8.200e-07  t[s]:   3115.43
	Linear fluid (dielectric constant: 78.4, screening length: 5.74355 Bohr) occupying 0.719483 of unit cell:	Completed after 2 iterations at t[s]:   3137.60
	Linear fluid (dielectric constant: 78.4, screening length: 5.74355 Bohr) occupying 0.719496 of unit cell:	Completed after 1 iterations at t[s]:   3154.65
	FillingsUpdate:  mu: -0.144695320  nElectrons: 976.000000
	SubspaceRotationAdjust: set factor to 0.357
ElecMinimize: Iter:   6  F: -6685.073455113022646  |grad|_K:  1.577e-07  alpha:  4.963e-01  linmin:  3.668e-06  t[s]:   3175.05
	Linear fluid (dielectric constant: 78.4, screening length: 5.74355 Bohr) occupying 0.719502 of unit cell:	Completed after 3 iterations at t[s]:   3197.40
	Linear fluid (dielectric constant: 78.4, screening length: 5.74355 Bohr) occupying 0.719500 of unit cell:	Completed after 1 iterations at t[s]:   3214.29
	FillingsUpdate:  mu: -0.144802142  nElectrons: 976.000000
	SubspaceRotationAdjust: set factor to 0.338
ElecMinimize: Iter:   7  F: -6685.073457750357193  |grad|_K:  1.475e-07  alpha:  3.316e-01  linmin:  7.026e-06  t[s]:   3235.10
	Linear fluid (dielectric constant: 78.4, screening length: 5.74355 Bohr) occupying 0.719499 of unit cell:	Completed after 2 iterations at t[s]:   3257.40
	Linear fluid (dielectric constant: 78.4, screening length: 5.74355 Bohr) occupying 0.719499 of unit cell:	Completed after 1 iterations at t[s]:   3274.33
	FillingsUpdate:  mu: -0.144855767  nElectrons: 976.000000
	SubspaceRotationAdjust: set factor to 0.292
ElecMinimize: Iter:   8  F: -6685.073459141764033  |grad|_K:  8.694e-08  alpha:  2.086e-01  linmin:  8.285e-06  t[s]:   3294.89
	Linear fluid (dielectric constant: 78.4, screening length: 5.74355 Bohr) occupying 0.719497 of unit cell:	Completed after 1 iterations at t[s]:   3316.42
	Linear fluid (dielectric constant: 78.4, screening length: 5.74355 Bohr) occupying 0.719496 of unit cell:	Completed after 1 iterations at t[s]:   3333.54
	FillingsUpdate:  mu: -0.144848435  nElectrons: 976.000000
	SubspaceRotationAdjust: set factor to 0.359
ElecMinimize: Iter:   9  F: -6685.073459929590172  |grad|_K:  5.450e-08  alpha:  3.331e-01  linmin: -1.591e-05  t[s]:   3354.65
	Linear fluid (dielectric constant: 78.4, screening length: 5.74355 Bohr) occupying 0.719493 of unit cell:	Completed after 1 iterations at t[s]:   3377.14
	Linear fluid (dielectric constant: 78.4, screening length: 5.74355 Bohr) occupying 0.719491 of unit cell:	Completed after 0 iterations at t[s]:   3394.29
	FillingsUpdate:  mu: -0.144845575  nElectrons: 976.000000
	SubspaceRotationAdjust: set factor to 0.459
ElecMinimize: Iter:  10  F: -6685.073460402521050  |grad|_K:  4.145e-08  alpha:  4.396e-01  linmin: -1.443e-05  t[s]:   3414.83
	Linear fluid (dielectric constant: 78.4, screening length: 5.74355 Bohr) occupying 0.719487 of unit cell:	Completed after 1 iterations at t[s]:   3437.79
	Linear fluid (dielectric constant: 78.4, screening length: 5.74355 Bohr) occupying 0.719489 of unit cell:	Completed after 0 iterations at t[s]:   3454.68
	FillingsUpdate:  mu: -0.144802221  nElectrons: 976.000000
	SubspaceRotationAdjust: set factor to 0.429
ElecMinimize: Iter:  11  F: -6685.073460496472762  |grad|_K:  7.857e-08  alpha:  1.856e-01  linmin:  1.070e-05  t[s]:   3475.34
	Linear fluid (dielectric constant: 78.4, screening length: 5.74355 Bohr) occupying 0.719481 of unit cell:	Completed after 0 iterations at t[s]:   3497.25
	Linear fluid (dielectric constant: 78.4, screening length: 5.74355 Bohr) occupying 0.719487 of unit cell:	Completed after 0 iterations at t[s]:   3514.42
	FillingsUpdate:  mu: -0.144802364  nElectrons: 976.000000
	SubspaceRotationAdjust: set factor to 0.498
ElecMinimize: Iter:  12  F: -6685.073460558327497  |grad|_K:  7.738e-08  alpha:  6.081e-02  linmin: -2.319e-08  t[s]:   3534.91
	Linear fluid (dielectric constant: 78.4, screening length: 5.74355 Bohr) occupying 0.719484 of unit cell:	Completed after 2 iterations at t[s]:   3557.49
	Linear fluid (dielectric constant: 78.4, screening length: 5.74355 Bohr) occupying 0.719485 of unit cell:	Completed after 0 iterations at t[s]:   3574.19
	FillingsUpdate:  mu: -0.144781826  nElectrons: 976.000000
	SubspaceRotationAdjust: set factor to 0.577
ElecMinimize: Iter:  13  F: -6685.073460565536152  |grad|_K:  4.923e-08  alpha:  2.889e-02  linmin:  8.158e-07  t[s]:   3596.14
	Linear fluid (dielectric constant: 78.4, screening length: 5.74355 Bohr) occupying 0.719484 of unit cell:	Completed after 0 iterations at t[s]:   3617.86
ElecMinimize: 	Predicted alpha/alphaT>3.000000, increasing alphaT to 8.666577e-02.
	Linear fluid (dielectric constant: 78.4, screening length: 5.74355 Bohr) occupying 0.719483 of unit cell:	Completed after 0 iterations at t[s]:   3634.62
ElecMinimize: 	Predicted alpha/alphaT>3.000000, increasing alphaT to 2.599973e-01.
	Linear fluid (dielectric constant: 78.4, screening length: 5.74355 Bohr) occupying 0.719478 of unit cell:	Completed after 0 iterations at t[s]:   3650.92
	Linear fluid (dielectric constant: 78.4, screening length: 5.74355 Bohr) occupying 0.719478 of unit cell:	Completed after 0 iterations at t[s]:   3667.68
	FillingsUpdate:  mu: -0.144781581  nElectrons: 976.000000
	SubspaceRotationAdjust: set factor to 0.694
ElecMinimize: Iter:  14  F: -6685.073460764147967  |grad|_K:  4.685e-08  alpha:  2.616e-01  linmin:  6.326e-08  t[s]:   3688.77
	Linear fluid (dielectric constant: 78.4, screening length: 5.74355 Bohr) occupying 0.719471 of unit cell:	Completed after 2 iterations at t[s]:   3711.38
	Linear fluid (dielectric constant: 78.4, screening length: 5.74355 Bohr) occupying 0.719477 of unit cell:	Completed after 2 iterations at t[s]:   3728.65
ElecMinimize: 	Step increased F by 2.008437e-07, reducing alpha to 3.548470e-03.
	Linear fluid (dielectric constant: 78.4, screening length: 5.74355 Bohr) occupying 0.719478 of unit cell:	Completed after 0 iterations at t[s]:   3764.15
ElecMinimize: 	Step increased F by 1.536991e-07, reducing alpha to 3.548470e-04.
	Linear fluid (dielectric constant: 78.4, screening length: 5.74355 Bohr) occupying 0.719478 of unit cell:	Completed after 0 iterations at t[s]:   3800.13
ElecMinimize: 	Step increased F by 1.492508e-07, reducing alpha to 3.548470e-05.
ElecMinimize: 	Step failed to reduce F after 3 attempts. Quitting step.
ElecMinimize: 	Undoing step.
	Linear fluid (dielectric constant: 78.4, screening length: 5.74355 Bohr) occupying 0.719478 of unit cell:	Completed after 0 iterations at t[s]:   3837.02
ElecMinimize: 	Step failed: resetting search direction.
	FillingsUpdate:  mu: -0.144884674  nElectrons: 976.000000
	SubspaceRotationAdjust: set factor to 0.589
ElecMinimize: Iter:  15  F: -6685.073460614918076  |grad|_K:  6.748e-08  alpha:  3.548e-05
	Linear fluid (dielectric constant: 78.4, screening length: 5.74355 Bohr) occupying 0.719479 of unit cell:	Completed after 2 iterations at t[s]:   3879.86
	Linear fluid (dielectric constant: 78.4, screening length: 5.74355 Bohr) occupying 0.719479 of unit cell:	Completed after 1 iterations at t[s]:   3897.41
	FillingsUpdate:  mu: -0.144819487  nElectrons: 976.000000
	SubspaceRotationAdjust: set factor to 0.303
ElecMinimize: Iter:  16  F: -6685.073460727287056  |grad|_K:  3.493e-08  alpha:  9.623e-02  linmin:  4.496e-05  t[s]:   3918.44
	Linear fluid (dielectric constant: 78.4, screening length: 5.74355 Bohr) occupying 0.719479 of unit cell:	Completed after 0 iterations at t[s]:   3940.12
	Linear fluid (dielectric constant: 78.4, screening length: 5.74355 Bohr) occupying 0.719479 of unit cell:	Completed after 0 iterations at t[s]:   3957.44
	FillingsUpdate:  mu: -0.144817714  nElectrons: 976.000000
	SubspaceRotationAdjust: set factor to 0.389
ElecMinimize: Iter:  17  F: -6685.073460780410642  |grad|_K:  2.479e-08  alpha:  1.266e-01  linmin: -5.298e-05  t[s]:   3977.66
	Linear fluid (dielectric constant: 78.4, screening length: 5.74355 Bohr) occupying 0.719479 of unit cell:	Completed after 0 iterations at t[s]:   4000.12
ElecMinimize: 	Predicted alpha/alphaT>3.000000, increasing alphaT to 3.799135e-01.
	Linear fluid (dielectric constant: 78.4, screening length: 5.74355 Bohr) occupying 0.719479 of unit cell:	Completed after 2 iterations at t[s]:   4017.74
	Linear fluid (dielectric constant: 78.4, screening length: 5.74355 Bohr) occupying 0.719479 of unit cell:	Completed after 0 iterations at t[s]:   4034.22
	FillingsUpdate:  mu: -0.144845942  nElectrons: 976.000000
	SubspaceRotationAdjust: set factor to 0.352
ElecMinimize: Iter:  18  F: -6685.073460893525407  |grad|_K:  8.313e-08  alpha:  9.526e-02  linmin:  3.604e-05  t[s]:   4055.13
ElecMinimize: 	Bad step direction: g.d > 0.
ElecMinimize: 	Undoing step.
	Linear fluid (dielectric constant: 78.4, screening length: 5.74355 Bohr) occupying 0.719479 of unit cell:	Completed after 0 iterations at t[s]:   4078.36
ElecMinimize: 	Step failed: resetting search direction.
	FillingsUpdate:  mu: -0.144845942  nElectrons: 976.000000
	SubspaceRotationAdjust: set factor to 0.372
ElecMinimize: Iter:  19  F: -6685.073460893510855  |grad|_K:  8.114e-08  alpha:  0.000e+00
	Linear fluid (dielectric constant: 78.4, screening length: 5.74355 Bohr) occupying 0.719479 of unit cell:	Completed after 1 iterations at t[s]:   4121.86
	Linear fluid (dielectric constant: 78.4, screening length: 5.74355 Bohr) occupying 0.719479 of unit cell:	Completed after 0 iterations at t[s]:   4138.08
ElecMinimize: 	Step increased F by 4.043886e-08, reducing alpha to 3.285509e-03.
	Linear fluid (dielectric constant: 78.4, screening length: 5.74355 Bohr) occupying 0.719479 of unit cell:	Completed after 0 iterations at t[s]:   4173.49
	FillingsUpdate:  mu: -0.144827025  nElectrons: 976.000000
	SubspaceRotationAdjust: set factor to 0.192
ElecMinimize: Iter:  20  F: -6685.073460913275085  |grad|_K:  4.221e-08  alpha:  3.286e-03  linmin:  2.837e-04  t[s]:   4195.01
	Linear fluid (dielectric constant: 78.4, screening length: 5.74355 Bohr) occupying 0.719479 of unit cell:	Completed after 0 iterations at t[s]:   4217.95
ElecMinimize: 	Predicted alpha/alphaT>3.000000, increasing alphaT to 9.856526e-03.
	Linear fluid (dielectric constant: 78.4, screening length: 5.74355 Bohr) occupying 0.719479 of unit cell:	Completed after 0 iterations at t[s]:   4235.13
ElecMinimize: 	Predicted alpha/alphaT>3.000000, increasing alphaT to 2.956958e-02.
	Linear fluid (dielectric constant: 78.4, screening length: 5.74355 Bohr) occupying 0.719479 of unit cell:	Completed after 0 iterations at t[s]:   4251.61
ElecMinimize: 	Predicted alpha/alphaT>3.000000, increasing alphaT to 8.870873e-02.
	Linear fluid (dielectric constant: 78.4, screening length: 5.74355 Bohr) occupying 0.719478 of unit cell:	Completed after 2 iterations at t[s]:   4268.85
ElecMinimize: 	Step increased F by 1.332543e-06, reducing alpha to 9.123815e-02.
	Linear fluid (dielectric constant: 78.4, screening length: 5.74355 Bohr) occupying 0.719479 of unit cell:	Completed after 1 iterations at t[s]:   4304.97
ElecMinimize: 	Step increased F by 1.437302e-07, reducing alpha to 9.123815e-03.
	Linear fluid (dielectric constant: 78.4, screening length: 5.74355 Bohr) occupying 0.719479 of unit cell:	Completed after 0 iterations at t[s]:   4340.41
ElecMinimize: 	Step increased F by 1.087747e-07, reducing alpha to 9.123815e-04.
ElecMinimize: 	Step failed to reduce F after 3 attempts. Quitting step.
ElecMinimize: 	Undoing step.
	Linear fluid (dielectric constant: 78.4, screening length: 5.74355 Bohr) occupying 0.719479 of unit cell:	Completed after 0 iterations at t[s]:   4376.11
ElecMinimize: 	Step failed: resetting search direction.
	FillingsUpdate:  mu: -0.144834586  nElectrons: 976.000000
	SubspaceRotationAdjust: set factor to 0.118
	SubspaceRotationAdjust: resetting CG because factor has changed by 0.127906
	Linear fluid (dielectric constant: 78.4, screening length: 5.74355 Bohr) occupying 0.719479 of unit cell:	Completed after 0 iterations at t[s]:   4403.54
ElecMinimize: 	State modified externally: resetting search direction.
ElecMinimize: Iter:  21  F: -6685.073460804846036  |grad|_K:  3.639e-08  alpha:  9.124e-04
	Linear fluid (dielectric constant: 78.4, screening length: 5.74355 Bohr) occupying 0.719479 of unit cell:	Completed after 0 iterations at t[s]:   4447.20
ElecMinimize: 	Predicted alpha/alphaT>3.000000, increasing alphaT to 9.856526e-03.
	Linear fluid (dielectric constant: 78.4, screening length: 5.74355 Bohr) occupying 0.719479 of unit cell:	Completed after 0 iterations at t[s]:   4464.55
ElecMinimize: 	Predicted alpha/alphaT>3.000000, increasing alphaT to 2.956958e-02.
	Linear fluid (dielectric constant: 78.4, screening length: 5.74355 Bohr) occupying 0.719479 of unit cell:	Completed after 0 iterations at t[s]:   4481.28
ElecMinimize: 	Predicted alpha/alphaT>3.000000, increasing alphaT to 8.870873e-02.
	Linear fluid (dielectric constant: 78.4, screening length: 5.74355 Bohr) occupying 0.719479 of unit cell:	Completed after 2 iterations at t[s]:   4498.35
ElecMinimize: 	Step increased F by 5.023085e-07, reducing alpha to 4.884449e-02.
	Linear fluid (dielectric constant: 78.4, screening length: 5.74355 Bohr) occupying 0.719479 of unit cell:	Completed after 2 iterations at t[s]:   4535.31
ElecMinimize: 	Step increased F by 1.452281e-08, reducing alpha to 4.884449e-03.
	Linear fluid (dielectric constant: 78.4, screening length: 5.74355 Bohr) occupying 0.719479 of unit cell:	Completed after 0 iterations at t[s]:   4570.90
ElecMinimize: 	Step increased F by 2.314482e-08, reducing alpha to 4.884449e-04.
ElecMinimize: 	Step failed to reduce F after 3 attempts. Quitting step.
ElecMinimize: 	Undoing step.
	Linear fluid (dielectric constant: 78.4, screening length: 5.74355 Bohr) occupying 0.719479 of unit cell:	Completed after 0 iterations at t[s]:   4606.46
ElecMinimize: 	Step failed along negative gradient direction.
ElecMinimize: Probably at roundoff error limit. (Stopping)
Setting wave functions to eigenvectors of Hamiltonian
Single-point solvation energy estimate, DeltaF = +0.002949535542029

# Ionic positions in lattice coordinates:
ion Ta  -0.000000005950000   0.203323882794756   0.478797375315049 0
ion Ta  -0.000000005950000   0.453323882794756   0.521202615484950 0
ion Ta   0.249999994050000   0.203323882794756   0.478797375315049 0
ion Ta   0.249999994050000   0.453323882794756   0.521202615484950 0
ion Ta   0.499999994050000   0.203323882794756   0.478797375315049 0
ion Ta   0.499999994050000   0.453323882794756   0.521202615484950 0
ion Ta   0.749999994050000   0.203323882794756   0.478797375315049 0
ion Ta   0.749999994050000   0.453323882794756   0.521202615484950 0
ion Ta  -0.000000005950000   0.703323882794757   0.478797375315049 0
ion Ta  -0.000000005950000   0.953323882794757   0.521202615484950 0
ion Ta   0.249999994050000   0.703323882794757   0.478797375315049 0
ion Ta   0.249999994050000   0.953323882794757   0.521202615484950 0
ion Ta   0.499999994050000   0.703323882794757   0.478797375315049 0
ion Ta   0.499999994050000   0.953323882794757   0.521202615484950 0
ion Ta   0.749999994050000   0.703323882794757   0.478797375315049 0
ion Ta   0.749999994050000   0.953323882794757   0.521202615484950 0
ion Ni   0.124999994050000   0.105575890418311   0.555873428480333 0
ion Ni   0.124999994050000   0.355575890418311   0.444126562319666 0
ion Ni   0.124999994050000   0.301142582909655   0.555883259431346 0
ion Ni   0.124999994050000   0.051142582909655   0.444116731368653 0
ion Ni   0.374999994050000   0.105575890418311   0.555873428480333 0
ion Ni   0.374999994050000   0.355575890418311   0.444126562319666 0
ion Ni   0.374999994050000   0.301142582909655   0.555883259431346 0
ion Ni   0.374999994050000   0.051142582909655   0.444116731368653 0
ion Ni   0.624999994050000   0.105575890418311   0.555873428480333 0
ion Ni   0.624999994050000   0.355575890418311   0.444126562319666 0
ion Ni   0.624999994050000   0.301142582909655   0.555883259431346 0
ion Ni   0.624999994050000   0.051142582909655   0.444116731368653 0
ion Ni   0.874999994050000   0.105575890418311   0.555873428480333 0
ion Ni   0.874999994050000   0.355575890418311   0.444126562319666 0
ion Ni   0.874999994050000   0.301142582909655   0.555883259431346 0
ion Ni   0.874999994050000   0.051142582909655   0.444116731368653 0
ion Ni   0.124999994050000   0.605575890418311   0.555873428480333 0
ion Ni   0.124999994050000   0.855575890418311   0.444126562319666 0
ion Ni   0.124999994050000   0.801142582909655   0.555883259431346 0
ion Ni   0.124999994050000   0.551142582909655   0.444116731368653 0
ion Ni   0.374999994050000   0.605575890418311   0.555873428480333 0
ion Ni   0.374999994050000   0.855575890418311   0.444126562319666 0
ion Ni   0.374999994050000   0.801142582909655   0.555883259431346 0
ion Ni   0.374999994050000   0.551142582909655   0.444116731368653 0
ion Ni   0.624999994050000   0.605575890418311   0.555873428480333 0
ion Ni   0.624999994050000   0.855575890418311   0.444126562319666 0
ion Ni   0.624999994050000   0.801142582909655   0.555883259431346 0
ion Ni   0.624999994050000   0.551142582909655   0.444116731368653 0
ion Ni   0.874999994050000   0.605575890418311   0.555873428480333 0
ion Ni   0.874999994050000   0.855575890418311   0.444126562319666 0
ion Ni   0.874999994050000   0.801142582909655   0.555883259431346 0
ion Ni   0.874999994050000   0.551142582909655   0.444116731368653 0
ion Te   0.124999994050000   0.453322878917926   0.633572370315355 0
ion Te   0.124999994050000   0.203322878917926   0.366427620484644 0
ion Te  -0.000000005950000   0.453269813709361   0.376950770048916 0
ion Te  -0.000000005950000   0.203269813709361   0.623049220751083 0
ion Te   0.374999994050000   0.453322878917926   0.633572370315355 0
ion Te   0.374999994050000   0.203322878917926   0.366427620484644 0
ion Te   0.249999994050000   0.453269813709361   0.376950770048916 0
ion Te   0.249999994050000   0.203269813709361   0.623049220751083 0
ion Te   0.624999994050000   0.453322878917926   0.633572370315355 0
ion Te   0.624999994050000   0.203322878917926   0.366427620484644 0
ion Te   0.499999994050000   0.453269813709361   0.376950770048916 0
ion Te   0.499999994050000   0.203269813709361   0.623049220751083 0
ion Te   0.874999994050000   0.453322878917926   0.633572370315355 0
ion Te   0.874999994050000   0.203322878917926   0.366427620484644 0
ion Te   0.749999994050000   0.453269813709361   0.376950770048916 0
ion Te   0.749999994050000   0.203269813709361   0.623049220751083 0
ion Te   0.124999994050000   0.953322878917926   0.633572370315355 0
ion Te   0.124999994050000   0.703322878917926   0.366427620484644 0
ion Te  -0.000000005950000   0.953269813709361   0.376950770048916 0
ion Te  -0.000000005950000   0.703269813709361   0.623049220751083 0
ion Te   0.374999994050000   0.953322878917926   0.633572370315355 0
ion Te   0.374999994050000   0.703322878917926   0.366427620484644 0
ion Te   0.249999994050000   0.953269813709361   0.376950770048916 0
ion Te   0.249999994050000   0.703269813709361   0.623049220751083 0
ion Te   0.624999994050000   0.953322878917926   0.633572370315355 0
ion Te   0.624999994050000   0.703322878917926   0.366427620484644 0
ion Te   0.499999994050000   0.953269813709361   0.376950770048916 0
ion Te   0.499999994050000   0.703269813709361   0.623049220751083 0
ion Te   0.874999994050000   0.953322878917926   0.633572370315355 0
ion Te   0.874999994050000   0.703322878917926   0.366427620484644 0
ion Te   0.749999994050000   0.953269813709361   0.376950770048916 0
ion Te   0.749999994050000   0.703269813709361   0.623049220751083 0


# Forces in Lattice coordinates:
force Ta  -0.000000000000000   0.003984355643013  -0.104453726222662 0
force Ta  -0.000000000000000   0.003984355643013   0.104453726222320 0
force Ta  -0.000000000000000   0.003984355643013  -0.104453726222548 0
force Ta   0.000000000000000   0.003984355643013   0.104453726222548 0
force Ta  -0.000000000000000   0.003984355643013  -0.104453726222661 0
force Ta   0.000000000000000   0.003984355643013   0.104453726222662 0
force Ta  -0.000000000000000   0.003984355643013  -0.104453726222434 0
force Ta   0.000000000000000   0.003984355643013   0.104453726222661 0
force Ta  -0.000000000000000   0.003984355643013  -0.104453726222661 0
force Ta   0.000000000000000   0.003984355643013   0.104453726222548 0
force Ta  -0.000000000000000   0.003984355643013  -0.104453726222434 0
force Ta   0.000000000000000   0.003984355643013   0.104453726222548 0
force Ta  -0.000000000000000   0.003984355643013  -0.104453726222434 0
force Ta   0.000000000000000   0.003984355643013   0.104453726222548 0
force Ta  -0.000000000000000   0.003984355643013  -0.104453726222661 0
force Ta  -0.000000000000000   0.003984355643013   0.104453726222548 0
force Ni  -0.000000000000000  -0.014524131776173  -0.008737094475429 0
force Ni  -0.000000000000000  -0.014524131776173   0.008737094475429 0
force Ni   0.000000000000000  -0.045669768230552  -0.010511977735287 0
force Ni   0.000000000000000  -0.045669768230538   0.010511977735286 0
force Ni   0.000000000000000  -0.014524131776159  -0.008737094475884 0
force Ni  -0.000000000000000  -0.014524131776173   0.008737094476340 0
force Ni   0.000000000000000  -0.045669768230538  -0.010511977735286 0
force Ni   0.000000000000000  -0.045669768230552   0.010511977735287 0
force Ni  -0.000000000000000  -0.014524131776159  -0.008737094475884 0
force Ni   0.000000000000000  -0.014524131776159   0.008737094475884 0
force Ni  -0.000000000000000  -0.045669768230538  -0.010511977735741 0
force Ni   0.000000000000000  -0.045669768230523   0.010511977734832 0
force Ni   0.000000000000000  -0.014524131776173  -0.008737094475430 0
force Ni  -0.000000000000000  -0.014524131776173   0.008737094475885 0
force Ni   0.000000000000000  -0.045669768230538  -0.010511977735287 0
force Ni  -0.000000000000000  -0.045669768230538   0.010511977734831 0
force Ni   0.000000000000000  -0.014524131776173  -0.008737094474974 0
force Ni   0.000000000000000  -0.014524131776173   0.008737094474065 0
force Ni   0.000000000000000  -0.045669768230566  -0.010511977734831 0
force Ni  -0.000000000000000  -0.045669768230566   0.010511977735287 0
force Ni   0.000000000000000  -0.014524131776173  -0.008737094474975 0
force Ni  -0.000000000000000  -0.014524131776159   0.008737094475429 0
force Ni   0.000000000000000  -0.045669768230538  -0.010511977735287 0
force Ni  -0.000000000000000  -0.045669768230538   0.010511977735741 0
force Ni   0.000000000000000  -0.014524131776159  -0.008737094475885 0
force Ni  -0.000000000000000  -0.014524131776202   0.008737094474975 0
force Ni  -0.000000000000000  -0.045669768230537  -0.010511977734832 0
force Ni  -0.000000000000000  -0.045669768230523   0.010511977735285 0
force Ni   0.000000000000000  -0.014524131776173  -0.008737094475430 0
force Ni   0.000000000000000  -0.014524131776173   0.008737094474976 0
force Ni  -0.000000000000000  -0.045669768230537  -0.010511977734831 0
force Ni   0.000000000000000  -0.045669768230523   0.010511977734831 0
force Te  -0.000000000000000   0.001123322410698   0.260245767162555 0
force Te   0.000000000000000   0.001123322410698  -0.260245767162100 0
force Te   0.000000000000000   0.002711638046660  -0.245431062163449 0
force Te  -0.000000000000000   0.002711638046660   0.245431062163904 0
force Te  -0.000000000000000   0.001123322410698   0.260245767162555 0
force Te   0.000000000000000   0.001123322410698  -0.260245767162100 0
force Te   0.000000000000000   0.002711638046660  -0.245431062163449 0
force Te  -0.000000000000000   0.002711638046660   0.245431062163677 0
force Te   0.000000000000000   0.001123322410698   0.260245767162555 0
force Te   0.000000000000000   0.001123322410698  -0.260245767162328 0
force Te  -0.000000000000000   0.002711638046660  -0.245431062163449 0
force Te   0.000000000000000   0.002711638046660   0.245431062163903 0
force Te   0.000000000000000   0.001123322410698   0.260245767162555 0
force Te  -0.000000000000000   0.001123322410698  -0.260245767162327 0
force Te  -0.000000000000000   0.002711638046660  -0.245431062163222 0
force Te   0.000000000000000   0.002711638046660   0.245431062164131 0
force Te  -0.000000000000000   0.001123322410698   0.260245767162327 0
force Te   0.000000000000000   0.001123322410698  -0.260245767163010 0
force Te  -0.000000000000000   0.002711638046660  -0.245431062163676 0
force Te   0.000000000000000   0.002711638046660   0.245431062163675 0
force Te  -0.000000000000000   0.001123322410698   0.260245767162100 0
force Te   0.000000000000000   0.001123322410698  -0.260245767162782 0
force Te  -0.000000000000000   0.002711638046660  -0.245431062163448 0
force Te   0.000000000000000   0.002711638046660   0.245431062163903 0
force Te  -0.000000000000000   0.001123322410698   0.260245767162327 0
force Te  -0.000000000000000   0.001123322410698  -0.260245767162782 0
force Te   0.000000000000000   0.002711638046660  -0.245431062163675 0
force Te  -0.000000000000000   0.002711638046660   0.245431062163677 0
force Te   0.000000000000000   0.001123322410698   0.260245767162555 0
force Te   0.000000000000000   0.001123322410698  -0.260245767162782 0
force Te   0.000000000000000   0.002711638046660  -0.245431062163449 0
force Te  -0.000000000000000   0.002711638046660   0.245431062163676 0

# Energy components:
   A_diel =        0.0025267716253313
   Eewald =    41761.4431508662091801
       EH =    47634.2570533022008021
     Eloc =   -96887.2232822713122005
      Enl =      432.4857762568663020
      Exc =    -1139.4414965800060600
 Exc_core =      367.4065524177970019
       KE =     1146.1148241169039466
-------------------------------------
     Etot =    -6684.9548951197075439
       TS =        0.1185656618734371
-------------------------------------
        F =    -6685.0734607815811614

IonicMinimize: Iter:   0  F: -6685.073460781581161  |grad|_K:  0.000e+00  t[s]:   4643.15
IonicMinimize: Converged (|grad|_K<1.000000e-04).

#--- Lowdin population analysis ---
# oxidation-state Ta -0.265 -0.265 -0.265 -0.265 -0.265 -0.265 -0.265 -0.265 -0.265 -0.265 -0.265 -0.265 -0.265 -0.265 -0.265 -0.265
# oxidation-state Ni -0.444 -0.444 -0.444 -0.444 -0.444 -0.444 -0.444 -0.444 -0.444 -0.444 -0.444 -0.444 -0.444 -0.444 -0.444 -0.444 -0.444 -0.444 -0.444 -0.444 -0.444 -0.444 -0.444 -0.444 -0.444 -0.444 -0.444 -0.444 -0.444 -0.444 -0.444 -0.444
# oxidation-state Te +0.590 +0.590 +0.800 +0.800 +0.590 +0.590 +0.800 +0.800 +0.590 +0.590 +0.800 +0.800 +0.590 +0.590 +0.800 +0.800 +0.590 +0.590 +0.800 +0.800 +0.590 +0.590 +0.800 +0.800 +0.590 +0.590 +0.800 +0.800 +0.590 +0.590 +0.800 +0.800


Dumping 'NbTe2.fillings' ... done
Dumping 'NbTe2.wfns' ... done
Dumping 'NbTe2.fluidState' ... done
Dumping 'NbTe2.eigenvals' ... done
End date and time: Thu Jul 16 14:02:30 2020  (Duration: 0-1:17:41.30)
Done!
