
*************** JDFTx 1.5.0  ***************

Start date and time: Sun Jul  5 04:19:52 2020
Executable jdftx_gpu with command-line: -i Charged.in -o Charged.out
Running on hosts (process indices):  amax (0)
Divided in process groups (process indices):  0 (0)
gpuInit: Found compatible cuda device 0 'Tesla K80'
gpuInit: Selected device 0
Resource initialization completed at t[s]:     11.74
Run totals: 1 processes, 24 threads, 1 GPUs


Input parsed successfully to the following command list (including defaults):

basis kpoint-dependent
cache-projectors no
coords-type Lattice
core-overlap-check none
coulomb-interaction Slab 001
coulomb-truncation-embed 0 0 0.5
davidson-band-ratio 1.1
dump End State
dump-name NbTe2.$VAR
elec-cutoff 20 100
elec-eigen-algo Davidson
elec-ex-corr gga-PBE
elec-smearing Gauss 0.0073499
electronic-minimize  \
	dirUpdateScheme      L-BFGS \
	linminMethod         DirUpdateRecommended \
	nIterations          500 \
	history              15 \
	knormThreshold       0 \
	energyDiffThreshold  1e-08 \
	nEnergyDiff          2 \
	alphaTstart          1 \
	alphaTmin            1e-10 \
	updateTestStepSize   yes \
	alphaTreduceFactor   0.1 \
	alphaTincreaseFactor 3 \
	nAlphaAdjustMax      3 \
	wolfeEnergy          0.0001 \
	wolfeGradient        0.9 \
	fdTest               no
exchange-regularization WignerSeitzTruncated
fluid LinearPCM 298.000000 1.013250
fluid-anion F- 1 MeanFieldLJ \
	epsBulk 1 \
	pMol 0 \
	epsInf 1 \
	Pvap 0 \
	sigmaBulk 0 \
	Rvdw 2.24877 \
	Res 0 \
	tauNuc 343133
fluid-cation Na+ 1 MeanFieldLJ \
	epsBulk 1 \
	pMol 0 \
	epsInf 1 \
	Pvap 0 \
	sigmaBulk 0 \
	Rvdw 2.19208 \
	Res 0 \
	tauNuc 343133
fluid-ex-corr lda-TF lda-PZ
fluid-gummel-loop 10 1.000000e-05
fluid-minimize  \
	dirUpdateScheme      PolakRibiere \
	linminMethod         DirUpdateRecommended \
	nIterations          400 \
	history              15 \
	knormThreshold       1e-11 \
	energyDiffThreshold  0 \
	nEnergyDiff          2 \
	alphaTstart          1 \
	alphaTmin            1e-10 \
	updateTestStepSize   yes \
	alphaTreduceFactor   0.1 \
	alphaTincreaseFactor 3 \
	nAlphaAdjustMax      6 \
	wolfeEnergy          0.0001 \
	wolfeGradient        0.9 \
	fdTest               no
fluid-solvent H2O 55.338 ScalarEOS \
	epsBulk 78.4 \
	pMol 0.92466 \
	epsInf 1.77 \
	Pvap 1.06736e-10 \
	sigmaBulk 4.62e-05 \
	Rvdw 2.61727 \
	Res 1.42 \
	tauNuc 343133 \
	poleEl 15 7 1
forces-output-coords Positions
initial-state NbTe2.$VAR
ion Te   0.222222225000003   0.222222269000000   0.610490244413559 0
ion Te   0.552650816832745   0.232582192782088   0.607970430496718 0
ion Te   0.881433791385166   0.232582192782088   0.607970430496718 0
ion Te   0.232582143782087   0.552650828832746   0.607970430496718 0
ion Te   0.881433765385164   0.552650828832746   0.607970430496718 0
ion Te   0.232582123782086   0.881433822385165   0.607970430496718 0
ion Te   0.552650851832744   0.881433822385165   0.607970430496718 0
ion Te   0.888888866000002   0.888888983999998   0.611016735912151 0
ion Te   0.222222248999998   0.222222223000003   0.394177071213829 0
ion Te   0.553683182882155   0.218193841358715   0.388653739692933 0
ion Te   0.894789655759136   0.218193841358715   0.388653739692933 0
ion Te   0.218193878358715   0.553683211882153   0.388653739692933 0
ion Te   0.555555593999998   0.555555591000001   0.404769901589142 0
ion Te   0.894789687759131   0.553683211882153   0.388653739692933 0
ion Te   0.218193864358714   0.894789650759132   0.388653739692933 0
ion Te   0.553683200882156   0.894789650759132   0.388653739692933 0
ion Te   0.888888913000002   0.888888889999997   0.393579207279287 0
ion Pt   0.110417317569798   0.110417309569797   0.544249251209666 0
ion Pt   0.445832126860410   0.110417309569797   0.544249251209666 0
ion Pt   0.778516967637306   0.109632657725391   0.542606249986436 0
ion Pt   0.110417314569794   0.445832142860411   0.544249251209666 0
ion Pt   0.446594643114403   0.446594702114405   0.533629171501594 0
ion Pt   0.773477346771199   0.446594702114405   0.533629171501594 0
ion Pt   0.109632666725388   0.778517075637308   0.542606249986436 0
ion Pt   0.446594687114400   0.773477416771198   0.533629171501594 0
ion Pt   0.778516967637306   0.778517075637308   0.542606249986436 0
ion Pt   0.000435430449613   0.000435430449613   0.460943375004954 0
ion Pt   0.332520922213732   0.001624903572532   0.461338569357875 0
ion Pt   0.665795806100775   0.000435430449613   0.460943375004954 0
ion Pt   0.001624893572531   0.332520940213734   0.461338569357875 0
ion Pt   0.332520902213731   0.332520940213734   0.461338569357875 0
ion Pt   0.671986295928349   0.322694174143307   0.456290343757538 0
ion Pt   0.000435416449612   0.665795830100777   0.460943375004954 0
ion Pt   0.322694122143310   0.671986299928349   0.456290343757538 0
ion Pt   0.671986281928348   0.671986299928349   0.456290343757538 0
ion-species GBRV/$ID_pbe.uspp
ion-width Ecut
ionic-minimize  \
	dirUpdateScheme      L-BFGS \
	linminMethod         DirUpdateRecommended \
	nIterations          0 \
	history              15 \
	knormThreshold       0.0001 \
	energyDiffThreshold  1e-06 \
	nEnergyDiff          2 \
	alphaTstart          1 \
	alphaTmin            1e-10 \
	updateTestStepSize   yes \
	alphaTreduceFactor   0.1 \
	alphaTincreaseFactor 3 \
	nAlphaAdjustMax      3 \
	wolfeEnergy          0.0001 \
	wolfeGradient        0.9 \
	fdTest               no
kpoint   0.000000000000   0.000000000000   0.000000000000  1.00000000000000
kpoint-folding 3 3 1 
latt-move-scale 1 1 1
latt-scale 1 1 1 
lattice Triclinic 22.2361 22.2361 35.8109 90 90 60
lattice-minimize  \
	dirUpdateScheme      L-BFGS \
	linminMethod         DirUpdateRecommended \
	nIterations          0 \
	history              15 \
	knormThreshold       0 \
	energyDiffThreshold  1e-06 \
	nEnergyDiff          2 \
	alphaTstart          1 \
	alphaTmin            1e-10 \
	updateTestStepSize   yes \
	alphaTreduceFactor   0.1 \
	alphaTincreaseFactor 3 \
	nAlphaAdjustMax      3 \
	wolfeEnergy          0.0001 \
	wolfeGradient        0.9 \
	fdTest               no
lcao-params -1 1e-06 0.0073499
pcm-variant CANDLE
spintype no-spin
subspace-rotation-factor 1 yes
symmetries automatic
symmetry-threshold 0.0001
target-mu -0.24475 no




---------- Setting up symmetries ----------

Found 24 point-group symmetries of the bravais lattice
Found 6 space-group symmetries with basis
Applied RMS atom displacement 7.41475e-07 bohrs to make symmetries exact.

---------- Initializing the Grid ----------
R = 
[    22.2361     11.118          0  ]
[          0     19.257          0  ]
[          0          0    35.8109  ]
unit cell volume = 15334.2
G =
[   0.282567   -0.16314          0  ]
[          0    0.32628          0  ]
[          0          0   0.175454  ]
Minimum fftbox size, Smin = [  104  104  164  ]
Chosen fftbox size, S = [  108  108  168  ]

---------- Initializing tighter grid for wavefunction operations ----------
R = 
[    22.2361     11.118          0  ]
[          0     19.257          0  ]
[          0          0    35.8109  ]
unit cell volume = 15334.2
G =
[   0.282567   -0.16314          0  ]
[          0    0.32628          0  ]
[          0          0   0.175454  ]
Minimum fftbox size, Smin = [  92  92  148  ]
Chosen fftbox size, S = [  96  96  150  ]

---------- Exchange Correlation functional ----------
Initalized PBE GGA exchange.
Initalized PBE GGA correlation.

---------- Setting up pseudopotentials ----------
Width of ionic core gaussian charges (only for fluid interactions / plotting) set to 0.397384

Reading pseudopotential file '/home/guoxy/vasp/jdftx-1.5.0/build/pseudopotentials/GBRV/te_pbe.uspp':
  Title: Te.  Created by USPP 7.3.6 on 14-9-2013
  Reference state energy: -13.134220.  6 valence electrons in orbitals:
    |500>  occupation: 2  eigenvalue: -0.555231
    |510>  occupation: 4  eigenvalue: -0.218781
  lMax: 2  lLocal: 2  QijEcut: 5
  5 projectors sampled on a log grid with 723 points:
    l: 0  eig: -0.555229  rCut: 2.1
    l: 0  eig: 1.000000  rCut: 2.1
    l: 1  eig: -0.218780  rCut: 2.1
    l: 1  eig: 1.000000  rCut: 2.1
    l: 2  eig: 1.000000  rCut: 2.6
  Partial core density with radius 1.8
  Transforming core density to a uniform radial grid of dG=0.02 with 1700 points.
  Transforming local potential to a uniform radial grid of dG=0.02 with 1700 points.
  Transforming nonlocal projectors to a uniform radial grid of dG=0.02 with 432 points.
  Transforming density augmentations to a uniform radial grid of dG=0.02 with 1700 points.
  Transforming atomic orbitals to a uniform radial grid of dG=0.02 with 432 points.
  Core radius for overlap checks: 2.60 bohrs.

Reading pseudopotential file '/home/guoxy/vasp/jdftx-1.5.0/build/pseudopotentials/GBRV/pt_pbe.uspp':
  Title: Pt.  Created by USPP 7.3.6 on 31-3-15
  Reference state energy: -105.002503.  16 valence electrons in orbitals:
    |510>  occupation: 6  eigenvalue: -2.158104
    |520>  occupation: 9.5  eigenvalue: -0.335376
    |600>  occupation: 0  eigenvalue: -0.319640
    |610>  occupation: 0  eigenvalue: -0.122947
  lMax: 2  lLocal: 3  QijEcut: 5.5
  6 projectors sampled on a log grid with 745 points:
    l: 0  eig: -0.319640  rCut: 2.45
    l: 0  eig: 1.500000  rCut: 2.45
    l: 1  eig: -2.158104  rCut: 1.6
    l: 1  eig: -0.122947  rCut: 1.6
    l: 2  eig: -0.500000  rCut: 1.6
    l: 2  eig: -0.335375  rCut: 1.6
  Partial core density with radius 1.1
  Transforming core density to a uniform radial grid of dG=0.02 with 1700 points.
  Transforming local potential to a uniform radial grid of dG=0.02 with 1700 points.
  Transforming nonlocal projectors to a uniform radial grid of dG=0.02 with 432 points.
  Transforming density augmentations to a uniform radial grid of dG=0.02 with 1700 points.
  Transforming atomic orbitals to a uniform radial grid of dG=0.02 with 432 points.
  Core radius for overlap checks: 2.45 bohrs.

Initialized 2 species with 35 total atoms.

Folded 1 k-points by 3x3x1 to 9 k-points.

---------- Setting up k-points, bands, fillings ----------
Adding inversion symmetry to k-mesh for non-inversion-symmetric unit cell.
Reduced to 3 k-points under symmetry. 
Computing the number of bands and number of electrons
Reading initial fillings from file NbTe2.fillings.
nElectrons: 390.000000   nBands: 284   nStates: 3

----- Setting up reduced wavefunction bases (one per k-point) -----
average nbasis = 65492.778 , ideal nbasis = 65509.045

---------- Setting up coulomb interaction ----------
Fluid mode embedding: using embedded box, but periodic Coulomb kernel.
(Fluid response is responsible for (approximate) separation between periodic images.)
Setting up double-sized grid for truncated Coulomb potentials:
R = 
[    22.2361     11.118          0  ]
[          0     19.257          0  ]
[          0          0    71.6218  ]
unit cell volume = 30668.5
G =
[   0.282567   -0.16314          0  ]
[          0    0.32628          0  ]
[          0          0  0.0877272  ]
Chosen fftbox size, S = [  108  108  336  ]
Integer grid location selected as the embedding center:
   Grid: [  0  0  84  ]
   Lattice: [  0  0  0.5  ]
   Cartesian: [  0  0  17.9055  ]
Constructing Wigner-Seitz cell: 8 faces (6 quadrilaterals, 2 hexagons)
Range-separation parameter for embedded mesh potentials due to point charges: 0.582456 bohrs.

Initializing van der Waals corrections
	NOTE: vdW corrections apply only for interactions with fluid.
	Te:  C6:  550.54 Eh-a0^6  R0: 3.575 a0
	Pt:  C6:  815.23 Eh-a0^6  R0: 3.326 a0 (WARNING: beyond Grimme's data set)

---------- Setting up ewald sum ----------
Optimum gaussian width for ewald sums = 6.904456 bohr.
Real space sum over 605 unit cells with max indices [  5  5  2  ]
Reciprocal space sum over 5915 terms with max indices [  6  6  17  ]

---------- Allocating electronic variables ----------
Initializing wave functions:  reading from 'NbTe2.wfns'
----- createFluidSolver() ----- (Fluid-side solver setup)
   Initializing fluid molecule 'H2O'
     Initializing site 'O'
       Electron density: proportional to exp(-r/0.36935)*erfc((r-0.51523)/0.36823) with norm 6.826
       Charge density: gaussian nuclear width 0.478731 with net site charge 0.826
       Polarizability: cuspless exponential with width 0.32 and norm 3.73
       Hard sphere radius: 2.57003 bohrs
       Positions in reference frame:
         [ +0.000000 +0.000000 +0.000000 ]
     Initializing site 'H'
       Electron density: proportional to exp(-r/0.34641)*erfc((r-0)/0.390882) with norm 0.587
       Charge density: gaussian nuclear width 0.377945 with net site charge -0.413
       Polarizability: cuspless exponential with width 0.39 and norm 3.3
       Positions in reference frame:
         [ +0.000000 -1.441945 +1.122523 ]
         [ +0.000000 +1.441945 +1.122523 ]
     Net charge: 0   dipole magnitude: 0.927204
     Initializing spherical shell mfKernel with radius 2.61727 Bohr
     deltaS corrections:
       site 'O': -7.54299
       site 'H': -6.83917
   Initializing fluid molecule 'Na+'
     Initializing site 'Na'
       Electron density: proportional to exp(-r/0.19682)*erfc((r-0.71491)/0.41314) with norm 8.1383
       Charge density: gaussian nuclear width 0.365347 with net site charge -1
       Hard sphere radius: 1.86327 bohrs
       Positions in reference frame:
         [ +0.000000 +0.000000 +0.000000 ]
     Net charge: -1   dipole magnitude: 0
     Initializing gaussian mfKernel with width: 1.55004 Bohr
     deltaS corrections:
       site 'Na': -22.3555
   Initializing fluid molecule 'F-'
     Initializing site 'F'
       Electron density: proportional to exp(-r/0.38886)*erfc((r-0)/0.438782) with norm 8
       Charge density: gaussian nuclear width 0.374796 with net site charge 1
       Hard sphere radius: 2.39995 bohrs
       Positions in reference frame:
         [ +0.000000 +0.000000 +0.000000 ]
     Net charge: 1   dipole magnitude: 0
     Initializing gaussian mfKernel with width: 1.59012 Bohr
     deltaS corrections:
       site 'F': -9.04335

Correction to mu due to finite nuclear width = -0.0126175
   Cavity determined by nc: 0.00142 and sigma: 0.707107
   Nonlocal vdW cavity from gaussian model electron density with norm = 8 and sigma = 0.993594 bohr
   Charge asymmetry in cavity with sensitivity pCavity = 36.5 e-bohr/Eh
   Electrostatic cavity expanded by eta = 1.46 bohrs
   Weighted density cavitation model constrained by Nbulk: 0.0049383 bohr^-3, Pvap: 3.14029 kPa, Rvdw: 2.61727 bohr and sigmaBulk: 4.62e-05 Eh/bohr^2 at T: 298 K.
   Weighted density dispersion model using vdW pair potentials with single solvent site with sqrtC6eff: 0.77 SI.
Reading fluid state from 'NbTe2.fluidState'


---- Citations for features of the code used in this run ----

   Software package:
      R. Sundararaman, K. Letchworth-Weaver, K.A. Schwarz, D. Gunceler, Y. Ozhabes and T.A. Arias, 'JDFTx: software for joint density-functional theory', SoftwareX 6, 278 (2017)

   gga-PBE exchange-correlation functional:
      J.P. Perdew, K. Burke and M. Ernzerhof, Phys. Rev. Lett. 77, 3865 (1996)

   Pseudopotentials:
      KF Garrity, JW Bennett, KM Rabe and D Vanderbilt, Comput. Mater. Sci. 81, 446 (2014)

   Truncated Coulomb potentials:
      R. Sundararaman and T.A. Arias, Phys. Rev. B 87, 165122 (2013)

   Van der Waals correction pair-potentials:
      S. Grimme, J. Comput. Chem. 27, 1787 (2006)

   Charge-asymmetric nonlocally-determined local-electric (CANDLE) solvation model:
      R. Sundararaman and W.A. Goddard III, J. Chem. Phys. 142, 064107 (2015)

   Total energy minimization with Auxiliary Hamiltonian:
      C. Freysoldt, S. Boeck, and J. Neugebauer, Phys. Rev. B 79, 241103(R) (2009)

   Grand-canonical (fixed-potential) DFT:
      R. Sundararaman, W. A. Goddard III and T. A. Arias, J. Chem. Phys. 146, 114104 (2017)

This list may not be complete. Please suggest additional citations or
report any other bugs at https://github.com/shankar1729/jdftx/issues

Initialization completed successfully at t[s]:     20.00

Shifting auxilliary hamiltonian by -0.087034 to set nElectrons=390.000000
	Linear fluid (dielectric constant: 78.4, screening length: 5.74355 Bohr) occupying 0.732568 of unit cell:	Completed after 0 iterations at t[s]:     24.54

-------- Electronic minimization -----------
	Linear fluid (dielectric constant: 78.4, screening length: 5.74355 Bohr) occupying 0.732568 of unit cell:	Completed after 0 iterations at t[s]:     29.54
	FillingsUpdate:  mu: -0.244750400  nElectrons: 390.000000
ElecMinimize: Iter:   0  G: -1647.027778110140389  |grad|_K:  1.881e-04  t[s]:     37.87
	Linear fluid (dielectric constant: 78.4, screening length: 5.74355 Bohr) occupying 0.748070 of unit cell:	Completed after 32 iterations at t[s]:     48.08
ElecMinimize: 	Wolfe criterion not satisfied: alpha: 1  (E-E0)/|gdotd0|: 61.2526  gdotd/gdotd0: -165.305 (taking cubic step)
	Linear fluid (dielectric constant: 78.4, screening length: 5.74355 Bohr) occupying 0.732933 of unit cell:	Completed after 28 iterations at t[s]:     65.79
	FillingsUpdate:  mu: -0.244750400  nElectrons: 388.950829
	SubspaceRotationAdjust: set factor to 0.515
ElecMinimize: Iter:   1  G: -1647.089331031607344  |grad|_K:  7.538e-05  alpha:  2.285e-02  linmin: -3.115e-02  t[s]:     74.65
	Linear fluid (dielectric constant: 78.4, screening length: 5.74355 Bohr) occupying 0.733942 of unit cell:	Completed after 16 iterations at t[s]:     84.19
	FillingsUpdate:  mu: -0.244750400  nElectrons: 387.375086
	SubspaceRotationAdjust: set factor to 0.283
ElecMinimize: Iter:   2  G: -1647.091597015215939  |grad|_K:  9.385e-05  alpha:  1.000e+00  linmin:  1.471e-02  t[s]:     93.63
	Linear fluid (dielectric constant: 78.4, screening length: 5.74355 Bohr) occupying 0.734055 of unit cell:	Completed after 14 iterations at t[s]:    102.60
	FillingsUpdate:  mu: -0.244750400  nElectrons: 387.767396
	SubspaceRotationAdjust: set factor to 0.187
ElecMinimize: Iter:   3  G: -1647.113856957150801  |grad|_K:  4.292e-05  alpha:  1.000e+00  linmin: -2.014e-02  t[s]:    111.40

Stack trace:
	 0: /home/guoxy/vasp/jdftx-1.5.0/build/libjdftx_gpu.so(_Z10printStackb+0x34) [0x2b728779ded4]
	 1: /home/guoxy/vasp/jdftx-1.5.0/build/libjdftx_gpu.so(_Z14stackTraceExiti+0xd) [0x2b728779e3cd]
	 2: /home/guoxy/vasp/jdftx-1.5.0/build/libjdftx_gpu.so(_Z7Vnl_gpuILi0ELi0EEviii7vector3IdEPKS0_IiE7matrix3IdEPKS1_RK15RadialFunctionGP7complexS8_+0x1e4) [0x2b7287a39d44]
	 3: /home/guoxy/vasp/jdftx-1.5.0/build/libjdftx_gpu.so(_ZNK11SpeciesInfo4getVERK12ColumnBundlePK7vector3IdE+0x355) [0x2b72878c5175]
	 4: /home/guoxy/vasp/jdftx-1.5.0/build/libjdftx_gpu.so(_ZNK11SpeciesInfo14augmentOverlapERK12ColumnBundleRS0_P6matrix+0x127) [0x2b72878b94e7]
	 5: /home/guoxy/vasp/jdftx-1.5.0/build/libjdftx_gpu.so(_ZNK7IonInfo14augmentOverlapERK12ColumnBundleRS0_PSt6vectorI6matrixSaIS5_EE+0xb1) [0x2b728787b471]
	 6: /home/guoxy/vasp/jdftx-1.5.0/build/libjdftx_gpu.so(_Z1ORK12ColumnBundlePSt6vectorI6matrixSaIS3_EE+0xae) [0x2b72877bc1be]
	 7: /home/guoxy/vasp/jdftx-1.5.0/build/libjdftx_gpu.so(_ZN8ElecVars14orthonormalizeEiP6matrix+0xed) [0x2b7287821ebd]
	 8: /home/guoxy/vasp/jdftx-1.5.0/build/libjdftx_gpu.so(_ZN13ElecMinimizer4stepERK12ElecGradientd+0x369) [0x2b72878174a9]
	 9: /home/guoxy/vasp/jdftx-1.5.0/build/libjdftx_gpu.so(_ZN14MinimizeLinmin16linminCubicWolfeI12ElecGradientEEbR11MinimizableIT_ERK14MinimizeParamsRKS3_dRdSB_RS3_SC_+0xc3) [0x2b728780a133]
	10: /home/guoxy/vasp/jdftx-1.5.0/build/libjdftx_gpu.so(_ZN11MinimizableI12ElecGradientE5lBFGSERK14MinimizeParams+0xbcc) [0x2b728780de0c]
	11: /home/guoxy/vasp/jdftx-1.5.0/build/libjdftx_gpu.so(_ZN11MinimizableI12ElecGradientE8minimizeERK14MinimizeParams+0x965) [0x2b72878205a5]
	12: /home/guoxy/vasp/jdftx-1.5.0/build/libjdftx_gpu.so(_Z12elecMinimizeR10Everything+0xb0) [0x2b728781b8e0]
	13: /home/guoxy/vasp/jdftx-1.5.0/build/libjdftx_gpu.so(_Z17elecFluidMinimizeR10Everything+0xe6) [0x2b728781c016]
	14: /home/guoxy/vasp/jdftx-1.5.0/build/libjdftx_gpu.so(+0x3b2009) [0x2b7287881009]
	15: /home/guoxy/vasp/jdftx-1.5.0/build/libjdftx_gpu.so(_ZN11MinimizableI13IonicGradientE5lBFGSERK14MinimizeParams+0x9b) [0x2b72878832ab]
	16: /home/guoxy/vasp/jdftx-1.5.0/build/libjdftx_gpu.so(_ZN11MinimizableI13IonicGradientE8minimizeERK14MinimizeParams+0x8d5) [0x2b7287884b85]
	17: /home/guoxy/vasp/jdftx-1.5.0/build/libjdftx_gpu.so(_ZN14IonicMinimizer8minimizeERK14MinimizeParams+0xd) [0x2b728788140d]
	18: jdftx_gpu(main+0xe39) [0x405cb9]
	19: /lib/x86_64-linux-gnu/libc.so.6(__libc_start_main+0xf0) [0x2b72885b6830]
	20: jdftx_gpu(_start+0x29) [0x406d59]
Writing 'jdftx-stacktrace' (for use with script printStackTrace): done.

*************** JDFTx 1.5.0  ***************

Start date and time: Mon Jul  6 21:56:12 2020
Executable jdftx_gpu with command-line: -i Charged.in -o Charged.out
Running on hosts (process indices):  amax (0)
Divided in process groups (process indices):  0 (0)
gpuInit: Found compatible cuda device 0 'Tesla K80'
gpuInit: Selected device 0
Resource initialization completed at t[s]:      7.46
Run totals: 1 processes, 24 threads, 1 GPUs


Input parsed successfully to the following command list (including defaults):

basis kpoint-dependent
cache-projectors no
coords-type Lattice
core-overlap-check none
coulomb-interaction Slab 001
coulomb-truncation-embed 0 0 0.5
davidson-band-ratio 1.1
dump End State
dump-name NbTe2.$VAR
elec-cutoff 20 100
elec-eigen-algo Davidson
elec-ex-corr gga-PBE
elec-smearing Gauss 0.0073499
electronic-minimize  \
	dirUpdateScheme      FletcherReeves \
	linminMethod         DirUpdateRecommended \
	nIterations          100 \
	history              15 \
	knormThreshold       0 \
	energyDiffThreshold  1e-08 \
	nEnergyDiff          2 \
	alphaTstart          1 \
	alphaTmin            1e-10 \
	updateTestStepSize   yes \
	alphaTreduceFactor   0.1 \
	alphaTincreaseFactor 3 \
	nAlphaAdjustMax      3 \
	wolfeEnergy          0.0001 \
	wolfeGradient        0.9 \
	fdTest               no
electronic-scf  \
	nIterations	500 \
	energyDiffThreshold	1e-08 \
	residualThreshold	1e-07 \
	mixFraction	0.5 \
	qMetric	0.8 \
	history	10 \
	nEigSteps	2 \
	eigDiffThreshold	1e-08 \
	mixedVariable	Density \
	qKerker	0.8 \
	qKappa	-1 \
	verbose	no \
	mixFractionMag	1.5
exchange-regularization WignerSeitzTruncated
fluid LinearPCM 298.000000 1.013250
fluid-anion F- 1 MeanFieldLJ \
	epsBulk 1 \
	pMol 0 \
	epsInf 1 \
	Pvap 0 \
	sigmaBulk 0 \
	Rvdw 2.24877 \
	Res 0 \
	tauNuc 343133
fluid-cation Na+ 1 MeanFieldLJ \
	epsBulk 1 \
	pMol 0 \
	epsInf 1 \
	Pvap 0 \
	sigmaBulk 0 \
	Rvdw 2.19208 \
	Res 0 \
	tauNuc 343133
fluid-ex-corr lda-TF lda-PZ
fluid-gummel-loop 10 1.000000e-05
fluid-minimize  \
	dirUpdateScheme      PolakRibiere \
	linminMethod         DirUpdateRecommended \
	nIterations          400 \
	history              15 \
	knormThreshold       1e-11 \
	energyDiffThreshold  0 \
	nEnergyDiff          2 \
	alphaTstart          1 \
	alphaTmin            1e-10 \
	updateTestStepSize   yes \
	alphaTreduceFactor   0.1 \
	alphaTincreaseFactor 3 \
	nAlphaAdjustMax      6 \
	wolfeEnergy          0.0001 \
	wolfeGradient        0.9 \
	fdTest               no
fluid-solvent H2O 55.338 ScalarEOS \
	epsBulk 78.4 \
	pMol 0.92466 \
	epsInf 1.77 \
	Pvap 1.06736e-10 \
	sigmaBulk 4.62e-05 \
	Rvdw 2.61727 \
	Res 1.42 \
	tauNuc 343133 \
	poleEl 15 7 1
forces-output-coords Positions
initial-state NbTe2.$VAR
ion Te   0.222222225000003   0.222222269000000   0.610490244413559 0
ion Te   0.552650816832745   0.232582192782088   0.607970430496718 0
ion Te   0.881433791385166   0.232582192782088   0.607970430496718 0
ion Te   0.232582143782087   0.552650828832746   0.607970430496718 0
ion Te   0.881433765385164   0.552650828832746   0.607970430496718 0
ion Te   0.232582123782086   0.881433822385165   0.607970430496718 0
ion Te   0.552650851832744   0.881433822385165   0.607970430496718 0
ion Te   0.888888866000002   0.888888983999998   0.611016735912151 0
ion Te   0.222222248999998   0.222222223000003   0.394177071213829 0
ion Te   0.553683182882155   0.218193841358715   0.388653739692933 0
ion Te   0.894789655759136   0.218193841358715   0.388653739692933 0
ion Te   0.218193878358715   0.553683211882153   0.388653739692933 0
ion Te   0.555555593999998   0.555555591000001   0.404769901589142 0
ion Te   0.894789687759131   0.553683211882153   0.388653739692933 0
ion Te   0.218193864358714   0.894789650759132   0.388653739692933 0
ion Te   0.553683200882156   0.894789650759132   0.388653739692933 0
ion Te   0.888888913000002   0.888888889999997   0.393579207279287 0
ion Pt   0.110417317569798   0.110417309569797   0.544249251209666 0
ion Pt   0.445832126860410   0.110417309569797   0.544249251209666 0
ion Pt   0.778516967637306   0.109632657725391   0.542606249986436 0
ion Pt   0.110417314569794   0.445832142860411   0.544249251209666 0
ion Pt   0.446594643114403   0.446594702114405   0.533629171501594 0
ion Pt   0.773477346771199   0.446594702114405   0.533629171501594 0
ion Pt   0.109632666725388   0.778517075637308   0.542606249986436 0
ion Pt   0.446594687114400   0.773477416771198   0.533629171501594 0
ion Pt   0.778516967637306   0.778517075637308   0.542606249986436 0
ion Pt   0.000435430449613   0.000435430449613   0.460943375004954 0
ion Pt   0.332520922213732   0.001624903572532   0.461338569357875 0
ion Pt   0.665795806100775   0.000435430449613   0.460943375004954 0
ion Pt   0.001624893572531   0.332520940213734   0.461338569357875 0
ion Pt   0.332520902213731   0.332520940213734   0.461338569357875 0
ion Pt   0.671986295928349   0.322694174143307   0.456290343757538 0
ion Pt   0.000435416449612   0.665795830100777   0.460943375004954 0
ion Pt   0.322694122143310   0.671986299928349   0.456290343757538 0
ion Pt   0.671986281928348   0.671986299928349   0.456290343757538 0
ion-species GBRV/$ID_pbe.uspp
ion-width Ecut
ionic-minimize  \
	dirUpdateScheme      L-BFGS \
	linminMethod         DirUpdateRecommended \
	nIterations          0 \
	history              15 \
	knormThreshold       0.0001 \
	energyDiffThreshold  1e-06 \
	nEnergyDiff          2 \
	alphaTstart          1 \
	alphaTmin            1e-10 \
	updateTestStepSize   yes \
	alphaTreduceFactor   0.1 \
	alphaTincreaseFactor 3 \
	nAlphaAdjustMax      3 \
	wolfeEnergy          0.0001 \
	wolfeGradient        0.9 \
	fdTest               no
kpoint   0.000000000000   0.000000000000   0.000000000000  1.00000000000000
kpoint-folding 3 3 1 
latt-move-scale 1 1 1
latt-scale 1 1 1 
lattice Triclinic 22.2361 22.2361 35.8109 90 90 60
lattice-minimize  \
	dirUpdateScheme      L-BFGS \
	linminMethod         DirUpdateRecommended \
	nIterations          0 \
	history              15 \
	knormThreshold       0 \
	energyDiffThreshold  1e-06 \
	nEnergyDiff          2 \
	alphaTstart          1 \
	alphaTmin            1e-10 \
	updateTestStepSize   yes \
	alphaTreduceFactor   0.1 \
	alphaTincreaseFactor 3 \
	nAlphaAdjustMax      3 \
	wolfeEnergy          0.0001 \
	wolfeGradient        0.9 \
	fdTest               no
lcao-params -1 1e-06 0.0073499
pcm-variant CANDLE
spintype no-spin
subspace-rotation-factor 1 yes
symmetries automatic
symmetry-threshold 0.0001
target-mu -0.24475 no




---------- Setting up symmetries ----------

Found 24 point-group symmetries of the bravais lattice
Found 6 space-group symmetries with basis
Applied RMS atom displacement 7.41475e-07 bohrs to make symmetries exact.

---------- Initializing the Grid ----------
R = 
[    22.2361     11.118          0  ]
[          0     19.257          0  ]
[          0          0    35.8109  ]
unit cell volume = 15334.2
G =
[   0.282567   -0.16314          0  ]
[          0    0.32628          0  ]
[          0          0   0.175454  ]
Minimum fftbox size, Smin = [  104  104  164  ]
Chosen fftbox size, S = [  108  108  168  ]

---------- Initializing tighter grid for wavefunction operations ----------
R = 
[    22.2361     11.118          0  ]
[          0     19.257          0  ]
[          0          0    35.8109  ]
unit cell volume = 15334.2
G =
[   0.282567   -0.16314          0  ]
[          0    0.32628          0  ]
[          0          0   0.175454  ]
Minimum fftbox size, Smin = [  92  92  148  ]
Chosen fftbox size, S = [  96  96  150  ]

---------- Exchange Correlation functional ----------
Initalized PBE GGA exchange.
Initalized PBE GGA correlation.

---------- Setting up pseudopotentials ----------
Width of ionic core gaussian charges (only for fluid interactions / plotting) set to 0.397384

Reading pseudopotential file '/home/guoxy/vasp/jdftx-1.5.0/build/pseudopotentials/GBRV/te_pbe.uspp':
  Title: Te.  Created by USPP 7.3.6 on 14-9-2013
  Reference state energy: -13.134220.  6 valence electrons in orbitals:
    |500>  occupation: 2  eigenvalue: -0.555231
    |510>  occupation: 4  eigenvalue: -0.218781
  lMax: 2  lLocal: 2  QijEcut: 5
  5 projectors sampled on a log grid with 723 points:
    l: 0  eig: -0.555229  rCut: 2.1
    l: 0  eig: 1.000000  rCut: 2.1
    l: 1  eig: -0.218780  rCut: 2.1
    l: 1  eig: 1.000000  rCut: 2.1
    l: 2  eig: 1.000000  rCut: 2.6
  Partial core density with radius 1.8
  Transforming core density to a uniform radial grid of dG=0.02 with 1700 points.
  Transforming local potential to a uniform radial grid of dG=0.02 with 1700 points.
  Transforming nonlocal projectors to a uniform radial grid of dG=0.02 with 432 points.
  Transforming density augmentations to a uniform radial grid of dG=0.02 with 1700 points.
  Transforming atomic orbitals to a uniform radial grid of dG=0.02 with 432 points.
  Core radius for overlap checks: 2.60 bohrs.

Reading pseudopotential file '/home/guoxy/vasp/jdftx-1.5.0/build/pseudopotentials/GBRV/pt_pbe.uspp':
  Title: Pt.  Created by USPP 7.3.6 on 31-3-15
  Reference state energy: -105.002503.  16 valence electrons in orbitals:
    |510>  occupation: 6  eigenvalue: -2.158104
    |520>  occupation: 9.5  eigenvalue: -0.335376
    |600>  occupation: 0  eigenvalue: -0.319640
    |610>  occupation: 0  eigenvalue: -0.122947
  lMax: 2  lLocal: 3  QijEcut: 5.5
  6 projectors sampled on a log grid with 745 points:
    l: 0  eig: -0.319640  rCut: 2.45
    l: 0  eig: 1.500000  rCut: 2.45
    l: 1  eig: -2.158104  rCut: 1.6
    l: 1  eig: -0.122947  rCut: 1.6
    l: 2  eig: -0.500000  rCut: 1.6
    l: 2  eig: -0.335375  rCut: 1.6
  Partial core density with radius 1.1
  Transforming core density to a uniform radial grid of dG=0.02 with 1700 points.
  Transforming local potential to a uniform radial grid of dG=0.02 with 1700 points.
  Transforming nonlocal projectors to a uniform radial grid of dG=0.02 with 432 points.
  Transforming density augmentations to a uniform radial grid of dG=0.02 with 1700 points.
  Transforming atomic orbitals to a uniform radial grid of dG=0.02 with 432 points.
  Core radius for overlap checks: 2.45 bohrs.

Initialized 2 species with 35 total atoms.

Folded 1 k-points by 3x3x1 to 9 k-points.

---------- Setting up k-points, bands, fillings ----------
Adding inversion symmetry to k-mesh for non-inversion-symmetric unit cell.
Reduced to 3 k-points under symmetry. 
Computing the number of bands and number of electrons
Reading initial fillings from file NbTe2.fillings.
nElectrons: 390.000000   nBands: 284   nStates: 3

----- Setting up reduced wavefunction bases (one per k-point) -----
average nbasis = 65492.778 , ideal nbasis = 65509.045

---------- Setting up coulomb interaction ----------
Fluid mode embedding: using embedded box, but periodic Coulomb kernel.
(Fluid response is responsible for (approximate) separation between periodic images.)
Setting up double-sized grid for truncated Coulomb potentials:
R = 
[    22.2361     11.118          0  ]
[          0     19.257          0  ]
[          0          0    71.6218  ]
unit cell volume = 30668.5
G =
[   0.282567   -0.16314          0  ]
[          0    0.32628          0  ]
[          0          0  0.0877272  ]
Chosen fftbox size, S = [  108  108  336  ]
Integer grid location selected as the embedding center:
   Grid: [  0  0  84  ]
   Lattice: [  0  0  0.5  ]
   Cartesian: [  0  0  17.9055  ]
Constructing Wigner-Seitz cell: 8 faces (6 quadrilaterals, 2 hexagons)
Range-separation parameter for embedded mesh potentials due to point charges: 0.582456 bohrs.

Initializing van der Waals corrections
	NOTE: vdW corrections apply only for interactions with fluid.
	Te:  C6:  550.54 Eh-a0^6  R0: 3.575 a0
	Pt:  C6:  815.23 Eh-a0^6  R0: 3.326 a0 (WARNING: beyond Grimme's data set)

---------- Setting up ewald sum ----------
Optimum gaussian width for ewald sums = 6.904456 bohr.
Real space sum over 605 unit cells with max indices [  5  5  2  ]
Reciprocal space sum over 5915 terms with max indices [  6  6  17  ]

---------- Allocating electronic variables ----------
Initializing wave functions:  reading from 'NbTe2.wfns'
----- createFluidSolver() ----- (Fluid-side solver setup)
   Initializing fluid molecule 'H2O'
     Initializing site 'O'
       Electron density: proportional to exp(-r/0.36935)*erfc((r-0.51523)/0.36823) with norm 6.826
       Charge density: gaussian nuclear width 0.478731 with net site charge 0.826
       Polarizability: cuspless exponential with width 0.32 and norm 3.73
       Hard sphere radius: 2.57003 bohrs
       Positions in reference frame:
         [ +0.000000 +0.000000 +0.000000 ]
     Initializing site 'H'
       Electron density: proportional to exp(-r/0.34641)*erfc((r-0)/0.390882) with norm 0.587
       Charge density: gaussian nuclear width 0.377945 with net site charge -0.413
       Polarizability: cuspless exponential with width 0.39 and norm 3.3
       Positions in reference frame:
         [ +0.000000 -1.441945 +1.122523 ]
         [ +0.000000 +1.441945 +1.122523 ]
     Net charge: 0   dipole magnitude: 0.927204
     Initializing spherical shell mfKernel with radius 2.61727 Bohr
     deltaS corrections:
       site 'O': -7.54299
       site 'H': -6.83917
   Initializing fluid molecule 'Na+'
     Initializing site 'Na'
       Electron density: proportional to exp(-r/0.19682)*erfc((r-0.71491)/0.41314) with norm 8.1383
       Charge density: gaussian nuclear width 0.365347 with net site charge -1
       Hard sphere radius: 1.86327 bohrs
       Positions in reference frame:
         [ +0.000000 +0.000000 +0.000000 ]
     Net charge: -1   dipole magnitude: 0
     Initializing gaussian mfKernel with width: 1.55004 Bohr
     deltaS corrections:
       site 'Na': -22.3555
   Initializing fluid molecule 'F-'
     Initializing site 'F'
       Electron density: proportional to exp(-r/0.38886)*erfc((r-0)/0.438782) with norm 8
       Charge density: gaussian nuclear width 0.374796 with net site charge 1
       Hard sphere radius: 2.39995 bohrs
       Positions in reference frame:
         [ +0.000000 +0.000000 +0.000000 ]
     Net charge: 1   dipole magnitude: 0
     Initializing gaussian mfKernel with width: 1.59012 Bohr
     deltaS corrections:
       site 'F': -9.04335

Correction to mu due to finite nuclear width = -0.0126175
   Cavity determined by nc: 0.00142 and sigma: 0.707107
   Nonlocal vdW cavity from gaussian model electron density with norm = 8 and sigma = 0.993594 bohr
   Charge asymmetry in cavity with sensitivity pCavity = 36.5 e-bohr/Eh
   Electrostatic cavity expanded by eta = 1.46 bohrs
   Weighted density cavitation model constrained by Nbulk: 0.0049383 bohr^-3, Pvap: 3.14029 kPa, Rvdw: 2.61727 bohr and sigmaBulk: 4.62e-05 Eh/bohr^2 at T: 298 K.
   Weighted density dispersion model using vdW pair potentials with single solvent site with sqrtC6eff: 0.77 SI.
Reading fluid state from 'NbTe2.fluidState'


---- Citations for features of the code used in this run ----

   Software package:
      R. Sundararaman, K. Letchworth-Weaver, K.A. Schwarz, D. Gunceler, Y. Ozhabes and T.A. Arias, 'JDFTx: software for joint density-functional theory', SoftwareX 6, 278 (2017)

   gga-PBE exchange-correlation functional:
      J.P. Perdew, K. Burke and M. Ernzerhof, Phys. Rev. Lett. 77, 3865 (1996)

   Pseudopotentials:
      KF Garrity, JW Bennett, KM Rabe and D Vanderbilt, Comput. Mater. Sci. 81, 446 (2014)

   Truncated Coulomb potentials:
      R. Sundararaman and T.A. Arias, Phys. Rev. B 87, 165122 (2013)

   Van der Waals correction pair-potentials:
      S. Grimme, J. Comput. Chem. 27, 1787 (2006)

   Charge-asymmetric nonlocally-determined local-electric (CANDLE) solvation model:
      R. Sundararaman and W.A. Goddard III, J. Chem. Phys. 142, 064107 (2015)

   Grand-canonical (fixed-potential) DFT:
      R. Sundararaman, W. A. Goddard III and T. A. Arias, J. Chem. Phys. 146, 114104 (2017)

This list may not be complete. Please suggest additional citations or
report any other bugs at https://github.com/shankar1729/jdftx/issues

Initialization completed successfully at t[s]:     29.15

Shifting auxilliary hamiltonian by -0.087034 to set nElectrons=390.000000
	Linear fluid (dielectric constant: 78.4, screening length: 5.74355 Bohr) occupying 0.732568 of unit cell:	Completed after 0 iterations at t[s]:     34.20

-------- Electronic minimization -----------
Will mix electronic density at each iteration.
	FillingsUpdate:  mu: -0.244750400  nElectrons: 390.000000
	Linear fluid (dielectric constant: 78.4, screening length: 5.74355 Bohr) occupying 0.732568 of unit cell:	Completed after 0 iterations at t[s]:     40.05
	FillingsUpdate:  mu: -0.244750400  nElectrons: 299.168560
	Linear fluid (dielectric constant: 78.4, screening length: 5.74355 Bohr) occupying 0.748070 of unit cell:	Completed after 32 iterations at t[s]:     81.06
SCF: Cycle:  0   G: -1404.496277123725577   dG: +2.425e+02   |Residual|: 2.519e+00   |deigs|: 2.299e-06  t[s]:     82.13
	Linear fluid (dielectric constant: 78.4, screening length: 5.74355 Bohr) occupying 0.708046 of unit cell:	Completed after 18 iterations at t[s]:     84.26
	FillingsUpdate:  mu: -0.244750400  nElectrons: 464.844119
	Linear fluid (dielectric constant: 78.4, screening length: 5.74355 Bohr) occupying 0.796269 of unit cell:	Completed after 28 iterations at t[s]:    126.21
SCF: Cycle:  1   G: -1506.131207405682289   dG: -1.016e+02   |Residual|: 3.036e+00   |deigs|: 4.112e-01  t[s]:    127.20
	Linear fluid (dielectric constant: 78.4, screening length: 5.74355 Bohr) occupying 0.708792 of unit cell:	Completed after 21 iterations at t[s]:    129.74
	FillingsUpdate:  mu: -0.244750400  nElectrons: 417.167006
	Linear fluid (dielectric constant: 78.4, screening length: 5.74355 Bohr) occupying 0.797524 of unit cell:	Completed after 25 iterations at t[s]:    171.72
SCF: Cycle:  2   G: -1622.050108106248217   dG: -1.159e+02   |Residual|: 1.389e+00   |deigs|: 2.268e-01  t[s]:    172.76
	Linear fluid (dielectric constant: 78.4, screening length: 5.74355 Bohr) occupying 0.706951 of unit cell:	Completed after 19 iterations at t[s]:    175.12
	FillingsUpdate:  mu: -0.244750400  nElectrons: 394.687191
	Linear fluid (dielectric constant: 78.4, screening length: 5.74355 Bohr) occupying 0.788303 of unit cell:	Completed after 36 iterations at t[s]:    218.11
SCF: Cycle:  3   G: -1644.657866246242293   dG: -2.261e+01   |Residual|: 4.438e-01   |deigs|: 8.289e-02  t[s]:    219.23
	Linear fluid (dielectric constant: 78.4, screening length: 5.74355 Bohr) occupying 0.703809 of unit cell:	Completed after 19 iterations at t[s]:    221.58
	FillingsUpdate:  mu: -0.244750400  nElectrons: 397.042481
	Linear fluid (dielectric constant: 78.4, screening length: 5.74355 Bohr) occupying 0.795153 of unit cell:	Completed after 35 iterations at t[s]:    263.93
SCF: Cycle:  4   G: -1643.766636099350308   dG: +8.912e-01   |Residual|: 4.744e-01   |deigs|: 7.389e-03  t[s]:    265.12
	Linear fluid (dielectric constant: 78.4, screening length: 5.74355 Bohr) occupying 0.698757 of unit cell:	Completed after 18 iterations at t[s]:    267.49
	FillingsUpdate:  mu: -0.244750400  nElectrons: 389.513696
	Linear fluid (dielectric constant: 78.4, screening length: 5.74355 Bohr) occupying 0.741016 of unit cell:	Completed after 21 iterations at t[s]:    307.89
SCF: Cycle:  5   G: -1646.784251493618740   dG: -3.018e+00   |Residual|: 1.880e-01   |deigs|: 2.290e-02  t[s]:    309.07
	Linear fluid (dielectric constant: 78.4, screening length: 5.74355 Bohr) occupying 0.692486 of unit cell:	Completed after 14 iterations at t[s]:    311.04
	FillingsUpdate:  mu: -0.244750400  nElectrons: 384.248940
	Linear fluid (dielectric constant: 78.4, screening length: 5.74355 Bohr) occupying 0.741461 of unit cell:	Completed after 23 iterations at t[s]:    353.18
SCF: Cycle:  6   G: -1646.984194255505599   dG: -1.999e-01   |Residual|: 8.574e-02   |deigs|: 1.457e-02  t[s]:    354.34
	Linear fluid (dielectric constant: 78.4, screening length: 5.74355 Bohr) occupying 0.686745 of unit cell:	Completed after 15 iterations at t[s]:    356.45
	FillingsUpdate:  mu: -0.244750400  nElectrons: 383.234707
	Linear fluid (dielectric constant: 78.4, screening length: 5.74355 Bohr) occupying 0.741813 of unit cell:	Completed after 21 iterations at t[s]:    397.44
SCF: Cycle:  7   G: -1646.789252767527842   dG: +1.949e-01   |Residual|: 1.166e-01   |deigs|: 3.872e-03  t[s]:    398.52
	Linear fluid (dielectric constant: 78.4, screening length: 5.74355 Bohr) occupying 0.682390 of unit cell:	Completed after 13 iterations at t[s]:    400.54
	FillingsUpdate:  mu: -0.244750400  nElectrons: 380.658779
	Linear fluid (dielectric constant: 78.4, screening length: 5.74355 Bohr) occupying 0.742302 of unit cell:	Completed after 23 iterations at t[s]:    441.79
SCF: Cycle:  8   G: -1645.916348381607349   dG: +8.729e-01   |Residual|: 2.097e-01   |deigs|: 5.473e-03  t[s]:    443.01
	Linear fluid (dielectric constant: 78.4, screening length: 5.74355 Bohr) occupying 0.677467 of unit cell:	Completed after 15 iterations at t[s]:    445.14
	FillingsUpdate:  mu: -0.244750400  nElectrons: 380.868785
	Linear fluid (dielectric constant: 78.4, screening length: 5.74355 Bohr) occupying 0.742717 of unit cell:	Completed after 23 iterations at t[s]:    486.28
SCF: Cycle:  9   G: -1646.045501324282668   dG: -1.292e-01   |Residual|: 1.997e-01   |deigs|: 1.611e-03  t[s]:    487.31
	Linear fluid (dielectric constant: 78.4, screening length: 5.74355 Bohr) occupying 0.671624 of unit cell:	Completed after 13 iterations at t[s]:    489.11
	FillingsUpdate:  mu: -0.244750400  nElectrons: 380.598232
	Linear fluid (dielectric constant: 78.4, screening length: 5.74355 Bohr) occupying 0.743327 of unit cell:	Completed after 23 iterations at t[s]:    530.87
SCF: Cycle: 10   G: -1645.976544623489190   dG: +6.896e-02   |Residual|: 2.056e-01   |deigs|: 1.041e-03  t[s]:    532.15
	Linear fluid (dielectric constant: 78.4, screening length: 5.74355 Bohr) occupying 0.668283 of unit cell:	Completed after 15 iterations at t[s]:    534.22
	FillingsUpdate:  mu: -0.244750400  nElectrons: 386.900782
	Linear fluid (dielectric constant: 78.4, screening length: 5.74355 Bohr) occupying 0.744068 of unit cell:	Completed after 19 iterations at t[s]:    575.08
SCF: Cycle: 11   G: -1647.185408432275153   dG: -1.209e+00   |Residual|: 5.201e-02   |deigs|: 1.515e-02  t[s]:    576.25
	Linear fluid (dielectric constant: 78.4, screening length: 5.74355 Bohr) occupying 0.667194 of unit cell:	Completed after 13 iterations at t[s]:    578.19
	FillingsUpdate:  mu: -0.244750400  nElectrons: 383.040502
	Linear fluid (dielectric constant: 78.4, screening length: 5.74355 Bohr) occupying 0.745160 of unit cell:	Completed after 23 iterations at t[s]:    619.27
SCF: Cycle: 12   G: -1646.908184662720714   dG: +2.772e-01   |Residual|: 9.425e-02   |deigs|: 8.674e-03  t[s]:    620.43
	Linear fluid (dielectric constant: 78.4, screening length: 5.74355 Bohr) occupying 0.689171 of unit cell:	Completed after 21 iterations at t[s]:    623.14
	FillingsUpdate:  mu: -0.244750400  nElectrons: 379.854979
	Linear fluid (dielectric constant: 78.4, screening length: 5.74355 Bohr) occupying 0.747937 of unit cell:	Completed after 24 iterations at t[s]:    664.95
SCF: Cycle: 13   G: -1646.334548960469874   dG: +5.736e-01   |Residual|: 1.262e-01   |deigs|: 5.568e-03  t[s]:    666.02
	Linear fluid (dielectric constant: 78.4, screening length: 5.74355 Bohr) occupying 0.678212 of unit cell:	Completed after 17 iterations at t[s]:    668.27
	FillingsUpdate:  mu: -0.244750400  nElectrons: 380.504164
	Linear fluid (dielectric constant: 78.4, screening length: 5.74355 Bohr) occupying 0.746933 of unit cell:	Completed after 24 iterations at t[s]:    709.92
SCF: Cycle: 14   G: -1646.443959745673510   dG: -1.094e-01   |Residual|: 1.195e-01   |deigs|: 3.942e-03  t[s]:    710.99
	Linear fluid (dielectric constant: 78.4, screening length: 5.74355 Bohr) occupying 0.673700 of unit cell:	Completed after 15 iterations at t[s]:    713.07
	FillingsUpdate:  mu: -0.244750400  nElectrons: 375.674570
	Linear fluid (dielectric constant: 78.4, screening length: 5.74355 Bohr) occupying 0.745661 of unit cell:	Completed after 25 iterations at t[s]:    755.01
SCF: Cycle: 15   G: -1644.250860615109787   dG: +2.193e+00   |Residual|: 2.281e-01   |deigs|: 1.166e-02  t[s]:    756.00
	Linear fluid (dielectric constant: 78.4, screening length: 5.74355 Bohr) occupying 0.672031 of unit cell:	Completed after 15 iterations at t[s]:    758.04
	FillingsUpdate:  mu: -0.244750400  nElectrons: 379.336155
	Linear fluid (dielectric constant: 78.4, screening length: 5.74355 Bohr) occupying 0.745835 of unit cell:	Completed after 23 iterations at t[s]:    800.44
SCF: Cycle: 16   G: -1646.016886898101120   dG: -1.766e+00   |Residual|: 1.458e-01   |deigs|: 5.895e-03  t[s]:    801.53
	Linear fluid (dielectric constant: 78.4, screening length: 5.74355 Bohr) occupying 0.689261 of unit cell:	Completed after 19 iterations at t[s]:    803.96
	FillingsUpdate:  mu: -0.244750400  nElectrons: 385.415022
	Linear fluid (dielectric constant: 78.4, screening length: 5.74355 Bohr) occupying 0.746521 of unit cell:	Completed after 20 iterations at t[s]:    845.10
SCF: Cycle: 17   G: -1647.208928466597399   dG: -1.192e+00   |Residual|: 2.430e-02   |deigs|: 1.585e-02  t[s]:    846.27
	Linear fluid (dielectric constant: 78.4, screening length: 5.74355 Bohr) occupying 0.693167 of unit cell:	Completed after 15 iterations at t[s]:    848.38
	FillingsUpdate:  mu: -0.244750400  nElectrons: 383.353853
	Linear fluid (dielectric constant: 78.4, screening length: 5.74355 Bohr) occupying 0.746755 of unit cell:	Completed after 20 iterations at t[s]:    889.49
SCF: Cycle: 18   G: -1647.054064123367425   dG: +1.549e-01   |Residual|: 5.881e-02   |deigs|: 5.421e-03  t[s]:    890.60
	Linear fluid (dielectric constant: 78.4, screening length: 5.74355 Bohr) occupying 0.721951 of unit cell:	Completed after 19 iterations at t[s]:    893.19
	FillingsUpdate:  mu: -0.244750400  nElectrons: 384.449009
	Linear fluid (dielectric constant: 78.4, screening length: 5.74355 Bohr) occupying 0.746858 of unit cell:	Completed after 20 iterations at t[s]:    934.62
SCF: Cycle: 19   G: -1647.175366252025242   dG: -1.213e-01   |Residual|: 3.310e-02   |deigs|: 1.000e-02  t[s]:    935.70
	Linear fluid (dielectric constant: 78.4, screening length: 5.74355 Bohr) occupying 0.737786 of unit cell:	Completed after 18 iterations at t[s]:    938.05
	FillingsUpdate:  mu: -0.244750400  nElectrons: 386.233979
	Linear fluid (dielectric constant: 78.4, screening length: 5.74355 Bohr) occupying 0.746959 of unit cell:	Completed after 16 iterations at t[s]:    979.04
SCF: Cycle: 20   G: -1647.204304795326379   dG: -2.894e-02   |Residual|: 1.677e-02   |deigs|: 5.041e-03  t[s]:    980.26
	Linear fluid (dielectric constant: 78.4, screening length: 5.74355 Bohr) occupying 0.742572 of unit cell:	Completed after 16 iterations at t[s]:    982.49
	FillingsUpdate:  mu: -0.244750400  nElectrons: 385.850702
	Linear fluid (dielectric constant: 78.4, screening length: 5.74355 Bohr) occupying 0.747174 of unit cell:	Completed after 16 iterations at t[s]:   1022.88
SCF: Cycle: 21   G: -1647.212975422041609   dG: -8.671e-03   |Residual|: 1.356e-02   |deigs|: 1.557e-03  t[s]:   1023.91
	Linear fluid (dielectric constant: 78.4, screening length: 5.74355 Bohr) occupying 0.743820 of unit cell:	Completed after 16 iterations at t[s]:   1026.00
	FillingsUpdate:  mu: -0.244750400  nElectrons: 385.297569
	Linear fluid (dielectric constant: 78.4, screening length: 5.74355 Bohr) occupying 0.746807 of unit cell:	Completed after 16 iterations at t[s]:   1066.52
SCF: Cycle: 22   G: -1647.214584176555491   dG: -1.609e-03   |Residual|: 1.133e-02   |deigs|: 1.536e-03  t[s]:   1067.70
	Linear fluid (dielectric constant: 78.4, screening length: 5.74355 Bohr) occupying 0.745056 of unit cell:	Completed after 16 iterations at t[s]:   1069.97
	FillingsUpdate:  mu: -0.244750400  nElectrons: 385.365498
	Linear fluid (dielectric constant: 78.4, screening length: 5.74355 Bohr) occupying 0.746854 of unit cell:	Completed after 16 iterations at t[s]:   1110.26
SCF: Cycle: 23   G: -1647.215705475761524   dG: -1.121e-03   |Residual|: 8.474e-03   |deigs|: 5.191e-04  t[s]:   1111.51
	Linear fluid (dielectric constant: 78.4, screening length: 5.74355 Bohr) occupying 0.745674 of unit cell:	Completed after 15 iterations at t[s]:   1113.64
	FillingsUpdate:  mu: -0.244750400  nElectrons: 385.142496
	Linear fluid (dielectric constant: 78.4, screening length: 5.74355 Bohr) occupying 0.746910 of unit cell:	Completed after 16 iterations at t[s]:   1154.88
SCF: Cycle: 24   G: -1647.212086796554331   dG: +3.619e-03   |Residual|: 1.066e-02   |deigs|: 7.301e-04  t[s]:   1156.01
	Linear fluid (dielectric constant: 78.4, screening length: 5.74355 Bohr) occupying 0.747066 of unit cell:	Completed after 14 iterations at t[s]:   1158.01
	FillingsUpdate:  mu: -0.244750400  nElectrons: 384.885227
	Linear fluid (dielectric constant: 78.4, screening length: 5.74355 Bohr) occupying 0.747234 of unit cell:	Completed after 16 iterations at t[s]:   1199.00
SCF: Cycle: 25   G: -1647.207229511685000   dG: +4.857e-03   |Residual|: 1.315e-02   |deigs|: 1.104e-03  t[s]:   1200.04
	Linear fluid (dielectric constant: 78.4, screening length: 5.74355 Bohr) occupying 0.748273 of unit cell:	Completed after 16 iterations at t[s]:   1202.17
	FillingsUpdate:  mu: -0.244750400  nElectrons: 385.374539
	Linear fluid (dielectric constant: 78.4, screening length: 5.74355 Bohr) occupying 0.747454 of unit cell:	Completed after 12 iterations at t[s]:   1242.58
SCF: Cycle: 26   G: -1647.217059629784671   dG: -9.830e-03   |Residual|: 2.575e-03   |deigs|: 1.020e-03  t[s]:   1243.67
	Linear fluid (dielectric constant: 78.4, screening length: 5.74355 Bohr) occupying 0.748410 of unit cell:	Completed after 12 iterations at t[s]:   1245.47
	FillingsUpdate:  mu: -0.244750400  nElectrons: 385.425049
	Linear fluid (dielectric constant: 78.4, screening length: 5.74355 Bohr) occupying 0.747560 of unit cell:	Completed after 12 iterations at t[s]:   1286.06
SCF: Cycle: 27   G: -1647.217106494392283   dG: -4.686e-05   |Residual|: 1.813e-03   |deigs|: 4.046e-04  t[s]:   1287.20
	Linear fluid (dielectric constant: 78.4, screening length: 5.74355 Bohr) occupying 0.748040 of unit cell:	Completed after 12 iterations at t[s]:   1289.03
	FillingsUpdate:  mu: -0.244750400  nElectrons: 385.466431
	Linear fluid (dielectric constant: 78.4, screening length: 5.74355 Bohr) occupying 0.747533 of unit cell:	Completed after 13 iterations at t[s]:   1329.60
SCF: Cycle: 28   G: -1647.217020087049832   dG: +8.641e-05   |Residual|: 1.926e-03   |deigs|: 4.665e-04  t[s]:   1330.84
	Linear fluid (dielectric constant: 78.4, screening length: 5.74355 Bohr) occupying 0.747560 of unit cell:	Completed after 12 iterations at t[s]:   1332.67
	FillingsUpdate:  mu: -0.244750400  nElectrons: 385.453873
	Linear fluid (dielectric constant: 78.4, screening length: 5.74355 Bohr) occupying 0.747459 of unit cell:	Completed after 12 iterations at t[s]:   1373.61
SCF: Cycle: 29   G: -1647.217118346141888   dG: -9.826e-05   |Residual|: 9.081e-04   |deigs|: 5.696e-04  t[s]:   1374.77
	Linear fluid (dielectric constant: 78.4, screening length: 5.74355 Bohr) occupying 0.747359 of unit cell:	Completed after 10 iterations at t[s]:   1376.45
	FillingsUpdate:  mu: -0.244750400  nElectrons: 385.405297
	Linear fluid (dielectric constant: 78.4, screening length: 5.74355 Bohr) occupying 0.747439 of unit cell:	Completed after 10 iterations at t[s]:   1415.84
SCF: Cycle: 30   G: -1647.217135716434996   dG: -1.737e-05   |Residual|: 5.203e-04   |deigs|: 7.796e-04  t[s]:   1417.01
	Linear fluid (dielectric constant: 78.4, screening length: 5.74355 Bohr) occupying 0.747431 of unit cell:	Completed after 10 iterations at t[s]:   1418.64
	FillingsUpdate:  mu: -0.244750400  nElectrons: 385.433984
	Linear fluid (dielectric constant: 78.4, screening length: 5.74355 Bohr) occupying 0.747446 of unit cell:	Completed after 10 iterations at t[s]:   1456.14
SCF: Cycle: 31   G: -1647.217146929577893   dG: -1.121e-05   |Residual|: 3.443e-04   |deigs|: 3.120e-04  t[s]:   1457.10
	Linear fluid (dielectric constant: 78.4, screening length: 5.74355 Bohr) occupying 0.747454 of unit cell:	Completed after 8 iterations at t[s]:   1458.42
	FillingsUpdate:  mu: -0.244750400  nElectrons: 385.409511
	Linear fluid (dielectric constant: 78.4, screening length: 5.74355 Bohr) occupying 0.747452 of unit cell:	Completed after 10 iterations at t[s]:   1511.11
SCF: Cycle: 32   G: -1647.217141118315567   dG: +5.811e-06   |Residual|: 4.441e-04   |deigs|: 3.553e-04  t[s]:   1512.16
	Linear fluid (dielectric constant: 78.4, screening length: 5.74355 Bohr) occupying 0.747449 of unit cell:	Completed after 10 iterations at t[s]:   1513.70
	FillingsUpdate:  mu: -0.244750400  nElectrons: 385.418644
	Linear fluid (dielectric constant: 78.4, screening length: 5.74355 Bohr) occupying 0.747452 of unit cell:	Completed after 8 iterations at t[s]:   1552.06
SCF: Cycle: 33   G: -1647.217146025294596   dG: -4.907e-06   |Residual|: 4.001e-04   |deigs|: 3.314e-04  t[s]:   1553.05
	Linear fluid (dielectric constant: 78.4, screening length: 5.74355 Bohr) occupying 0.747452 of unit cell:	Completed after 8 iterations at t[s]:   1554.44
	FillingsUpdate:  mu: -0.244750400  nElectrons: 385.432983
	Linear fluid (dielectric constant: 78.4, screening length: 5.74355 Bohr) occupying 0.747452 of unit cell:	Completed after 9 iterations at t[s]:   1591.92
SCF: Cycle: 34   G: -1647.217144570655819   dG: +1.455e-06   |Residual|: 5.154e-04   |deigs|: 1.061e-04  t[s]:   1592.88
	Linear fluid (dielectric constant: 78.4, screening length: 5.74355 Bohr) occupying 0.747420 of unit cell:	Completed after 9 iterations at t[s]:   1594.29
	FillingsUpdate:  mu: -0.244750400  nElectrons: 385.400106
	Linear fluid (dielectric constant: 78.4, screening length: 5.74355 Bohr) occupying 0.747447 of unit cell:	Completed after 10 iterations at t[s]:   1633.29
SCF: Cycle: 35   G: -1647.217127825115767   dG: +1.675e-05   |Residual|: 6.599e-04   |deigs|: 1.413e-04  t[s]:   1634.34
	Linear fluid (dielectric constant: 78.4, screening length: 5.74355 Bohr) occupying 0.747421 of unit cell:	Completed after 10 iterations at t[s]:   1635.92
	FillingsUpdate:  mu: -0.244750400  nElectrons: 385.415605
	Linear fluid (dielectric constant: 78.4, screening length: 5.74355 Bohr) occupying 0.747445 of unit cell:	Completed after 10 iterations at t[s]:   1674.53
SCF: Cycle: 36   G: -1647.217142393700669   dG: -1.457e-05   |Residual|: 4.849e-04   |deigs|: 8.046e-05  t[s]:   1675.56
	Linear fluid (dielectric constant: 78.4, screening length: 5.74355 Bohr) occupying 0.747417 of unit cell:	Completed after 10 iterations at t[s]:   1677.09
	FillingsUpdate:  mu: -0.244750400  nElectrons: 385.414160
	Linear fluid (dielectric constant: 78.4, screening length: 5.74355 Bohr) occupying 0.747445 of unit cell:	Completed after 10 iterations at t[s]:   1715.32
SCF: Cycle: 37   G: -1647.217143052596612   dG: -6.589e-07   |Residual|: 4.199e-04   |deigs|: 2.803e-05  t[s]:   1716.31
	Linear fluid (dielectric constant: 78.4, screening length: 5.74355 Bohr) occupying 0.747422 of unit cell:	Completed after 10 iterations at t[s]:   1717.89
	FillingsUpdate:  mu: -0.244750400  nElectrons: 385.405145
	Linear fluid (dielectric constant: 78.4, screening length: 5.74355 Bohr) occupying 0.747447 of unit cell:	Completed after 10 iterations at t[s]:   1757.46
SCF: Cycle: 38   G: -1647.217136232199209   dG: +6.820e-06   |Residual|: 5.958e-04   |deigs|: 3.546e-05  t[s]:   1758.46
	Linear fluid (dielectric constant: 78.4, screening length: 5.74355 Bohr) occupying 0.747410 of unit cell:	Completed after 11 iterations at t[s]:   1760.07
	FillingsUpdate:  mu: -0.244750400  nElectrons: 385.383646
	Linear fluid (dielectric constant: 78.4, screening length: 5.74355 Bohr) occupying 0.747445 of unit cell:	Completed after 11 iterations at t[s]:   1799.97
SCF: Cycle: 39   G: -1647.217105330169716   dG: +3.090e-05   |Residual|: 1.039e-03   |deigs|: 2.980e-04  t[s]:   1800.97
	Linear fluid (dielectric constant: 78.4, screening length: 5.74355 Bohr) occupying 0.747392 of unit cell:	Completed after 12 iterations at t[s]:   1802.66
	FillingsUpdate:  mu: -0.244750400  nElectrons: 385.374817
	Linear fluid (dielectric constant: 78.4, screening length: 5.74355 Bohr) occupying 0.747442 of unit cell:	Completed after 12 iterations at t[s]:   1840.87
SCF: Cycle: 40   G: -1647.217084505401544   dG: +2.082e-05   |Residual|: 1.236e-03   |deigs|: 5.107e-05  t[s]:   1841.84
	Linear fluid (dielectric constant: 78.4, screening length: 5.74355 Bohr) occupying 0.747402 of unit cell:	Completed after 12 iterations at t[s]:   1843.56
	FillingsUpdate:  mu: -0.244750400  nElectrons: 385.379583
	Linear fluid (dielectric constant: 78.4, screening length: 5.74355 Bohr) occupying 0.747443 of unit cell:	Completed after 12 iterations at t[s]:   1881.92
SCF: Cycle: 41   G: -1647.217095758147252   dG: -1.125e-05   |Residual|: 1.133e-03   |deigs|: 1.857e-05  t[s]:   1882.97
	Linear fluid (dielectric constant: 78.4, screening length: 5.74355 Bohr) occupying 0.747404 of unit cell:	Completed after 12 iterations at t[s]:   1884.74
	FillingsUpdate:  mu: -0.244750400  nElectrons: 385.377644
	Linear fluid (dielectric constant: 78.4, screening length: 5.74355 Bohr) occupying 0.747444 of unit cell:	Completed after 12 iterations at t[s]:   1919.67
SCF: Cycle: 42   G: -1647.217092317136348   dG: +3.441e-06   |Residual|: 1.178e-03   |deigs|: 1.585e-05  t[s]:   1920.76
	Linear fluid (dielectric constant: 78.4, screening length: 5.74355 Bohr) occupying 0.747411 of unit cell:	Completed after 13 iterations at t[s]:   1922.67
	FillingsUpdate:  mu: -0.244750400  nElectrons: 385.377394
	Linear fluid (dielectric constant: 78.4, screening length: 5.74355 Bohr) occupying 0.747446 of unit cell:	Completed after 12 iterations at t[s]:   1962.41
SCF: Cycle: 43   G: -1647.217092628904766   dG: -3.118e-07   |Residual|: 1.174e-03   |deigs|: 1.618e-04  t[s]:   1963.46
	Linear fluid (dielectric constant: 78.4, screening length: 5.74355 Bohr) occupying 0.747359 of unit cell:	Completed after 12 iterations at t[s]:   1965.18
	FillingsUpdate:  mu: -0.244750400  nElectrons: 385.349465
	Linear fluid (dielectric constant: 78.4, screening length: 5.74355 Bohr) occupying 0.747436 of unit cell:	Completed after 12 iterations at t[s]:   2005.30
SCF: Cycle: 44   G: -1647.217001322781698   dG: +9.131e-05   |Residual|: 1.810e-03   |deigs|: 2.089e-04  t[s]:   2006.52
	Linear fluid (dielectric constant: 78.4, screening length: 5.74355 Bohr) occupying 0.747362 of unit cell:	Completed after 12 iterations at t[s]:   2008.36
	FillingsUpdate:  mu: -0.244750400  nElectrons: 385.346617
	Linear fluid (dielectric constant: 78.4, screening length: 5.74355 Bohr) occupying 0.747435 of unit cell:	Completed after 12 iterations at t[s]:   2048.01
SCF: Cycle: 45   G: -1647.216988278313920   dG: +1.304e-05   |Residual|: 1.826e-03   |deigs|: 3.595e-04  t[s]:   2048.99
	Linear fluid (dielectric constant: 78.4, screening length: 5.74355 Bohr) occupying 0.747482 of unit cell:	Completed after 13 iterations at t[s]:   2050.78
	FillingsUpdate:  mu: -0.244750400  nElectrons: 385.410064
	Linear fluid (dielectric constant: 78.4, screening length: 5.74355 Bohr) occupying 0.747454 of unit cell:	Completed after 10 iterations at t[s]:   2090.94
SCF: Cycle: 46   G: -1647.217141143671370   dG: -1.529e-04   |Residual|: 4.761e-04   |deigs|: 4.180e-04  t[s]:   2091.96
	Linear fluid (dielectric constant: 78.4, screening length: 5.74355 Bohr) occupying 0.747496 of unit cell:	Completed after 10 iterations at t[s]:   2093.54
	FillingsUpdate:  mu: -0.244750400  nElectrons: 385.418120
	Linear fluid (dielectric constant: 78.4, screening length: 5.74355 Bohr) occupying 0.747458 of unit cell:	Completed after 8 iterations at t[s]:   2131.71
SCF: Cycle: 47   G: -1647.217145841085539   dG: -4.697e-06   |Residual|: 3.850e-04   |deigs|: 2.862e-05  t[s]:   2132.81
	Linear fluid (dielectric constant: 78.4, screening length: 5.74355 Bohr) occupying 0.747484 of unit cell:	Completed after 8 iterations at t[s]:   2134.23
	FillingsUpdate:  mu: -0.244750400  nElectrons: 385.433327
	Linear fluid (dielectric constant: 78.4, screening length: 5.74355 Bohr) occupying 0.747455 of unit cell:	Completed after 10 iterations at t[s]:   2174.01
SCF: Cycle: 48   G: -1647.217143765424225   dG: +2.076e-06   |Residual|: 4.765e-04   |deigs|: 3.926e-05  t[s]:   2175.00
	Linear fluid (dielectric constant: 78.4, screening length: 5.74355 Bohr) occupying 0.747481 of unit cell:	Completed after 10 iterations at t[s]:   2176.51
	FillingsUpdate:  mu: -0.244750400  nElectrons: 385.400413
	Linear fluid (dielectric constant: 78.4, screening length: 5.74355 Bohr) occupying 0.747454 of unit cell:	Completed after 10 iterations at t[s]:   2216.53
SCF: Cycle: 49   G: -1647.217130092907382   dG: +1.367e-05   |Residual|: 6.624e-04   |deigs|: 1.344e-04  t[s]:   2217.59
	Linear fluid (dielectric constant: 78.4, screening length: 5.74355 Bohr) occupying 0.747478 of unit cell:	Completed after 10 iterations at t[s]:   2219.18
	FillingsUpdate:  mu: -0.244750400  nElectrons: 385.416162
	Linear fluid (dielectric constant: 78.4, screening length: 5.74355 Bohr) occupying 0.747451 of unit cell:	Completed after 9 iterations at t[s]:   2256.43
SCF: Cycle: 50   G: -1647.217144073475538   dG: -1.398e-05   |Residual|: 4.457e-04   |deigs|: 7.589e-05  t[s]:   2257.50
	Linear fluid (dielectric constant: 78.4, screening length: 5.74355 Bohr) occupying 0.747455 of unit cell:	Completed after 8 iterations at t[s]:   2258.85
	FillingsUpdate:  mu: -0.244750400  nElectrons: 385.428837
	Linear fluid (dielectric constant: 78.4, screening length: 5.74355 Bohr) occupying 0.747445 of unit cell:	Completed after 4 iterations at t[s]:   2297.96
SCF: Cycle: 51   G: -1647.217148045403974   dG: -3.972e-06   |Residual|: 2.542e-04   |deigs|: 7.739e-05  t[s]:   2299.12
	Linear fluid (dielectric constant: 78.4, screening length: 5.74355 Bohr) occupying 0.747463 of unit cell:	Completed after 5 iterations at t[s]:   2300.30
	FillingsUpdate:  mu: -0.244750400  nElectrons: 385.403946
	Linear fluid (dielectric constant: 78.4, screening length: 5.74355 Bohr) occupying 0.747448 of unit cell:	Completed after 10 iterations at t[s]:   2339.47
SCF: Cycle: 52   G: -1647.217135200359053   dG: +1.285e-05   |Residual|: 5.594e-04   |deigs|: 6.949e-05  t[s]:   2340.63
	Linear fluid (dielectric constant: 78.4, screening length: 5.74355 Bohr) occupying 0.747481 of unit cell:	Completed after 10 iterations at t[s]:   2342.32
	FillingsUpdate:  mu: -0.244750400  nElectrons: 385.424358
	Linear fluid (dielectric constant: 78.4, screening length: 5.74355 Bohr) occupying 0.747451 of unit cell:	Completed after 4 iterations at t[s]:   2380.81
SCF: Cycle: 53   G: -1647.217148009103539   dG: -1.281e-05   |Residual|: 2.590e-04   |deigs|: 4.061e-05  t[s]:   2381.95
	Linear fluid (dielectric constant: 78.4, screening length: 5.74355 Bohr) occupying 0.747471 of unit cell:	Completed after 4 iterations at t[s]:   2383.02
	FillingsUpdate:  mu: -0.244750400  nElectrons: 385.423746
	Linear fluid (dielectric constant: 78.4, screening length: 5.74355 Bohr) occupying 0.747452 of unit cell:	Completed after 6 iterations at t[s]:   2421.87
SCF: Cycle: 54   G: -1647.217145541819264   dG: +2.467e-06   |Residual|: 5.411e-04   |deigs|: 2.658e-04  t[s]:   2422.87
	Linear fluid (dielectric constant: 78.4, screening length: 5.74355 Bohr) occupying 0.747490 of unit cell:	Completed after 5 iterations at t[s]:   2423.96
	FillingsUpdate:  mu: -0.244750400  nElectrons: 385.427361
	Linear fluid (dielectric constant: 78.4, screening length: 5.74355 Bohr) occupying 0.747457 of unit cell:	Completed after 7 iterations at t[s]:   2463.09
SCF: Cycle: 55   G: -1647.217146723061205   dG: -1.181e-06   |Residual|: 4.311e-04   |deigs|: 1.999e-04  t[s]:   2464.28
	Linear fluid (dielectric constant: 78.4, screening length: 5.74355 Bohr) occupying 0.747511 of unit cell:	Completed after 7 iterations at t[s]:   2465.61
	FillingsUpdate:  mu: -0.244750400  nElectrons: 385.427213
	Linear fluid (dielectric constant: 78.4, screening length: 5.74355 Bohr) occupying 0.747461 of unit cell:	Completed after 7 iterations at t[s]:   2505.46
SCF: Cycle: 56   G: -1647.217144581227785   dG: +2.142e-06   |Residual|: 5.286e-04   |deigs|: 2.540e-05  t[s]:   2506.57
	Linear fluid (dielectric constant: 78.4, screening length: 5.74355 Bohr) occupying 0.747521 of unit cell:	Completed after 8 iterations at t[s]:   2507.99
	FillingsUpdate:  mu: -0.244750400  nElectrons: 385.447801
	Linear fluid (dielectric constant: 78.4, screening length: 5.74355 Bohr) occupying 0.747462 of unit cell:	Completed after 11 iterations at t[s]:   2547.73
SCF: Cycle: 57   G: -1647.217124724839096   dG: +1.986e-05   |Residual|: 7.994e-04   |deigs|: 6.649e-05  t[s]:   2548.78
	Linear fluid (dielectric constant: 78.4, screening length: 5.74355 Bohr) occupying 0.747515 of unit cell:	Completed after 11 iterations at t[s]:   2550.47
	FillingsUpdate:  mu: -0.244750400  nElectrons: 385.457211
	Linear fluid (dielectric constant: 78.4, screening length: 5.74355 Bohr) occupying 0.747460 of unit cell:	Completed after 11 iterations at t[s]:   2587.73
SCF: Cycle: 58   G: -1647.217107886457370   dG: +1.684e-05   |Residual|: 9.637e-04   |deigs|: 2.287e-05  t[s]:   2588.78
	Linear fluid (dielectric constant: 78.4, screening length: 5.74355 Bohr) occupying 0.747496 of unit cell:	Completed after 12 iterations at t[s]:   2590.53
	FillingsUpdate:  mu: -0.244750400  nElectrons: 385.430324
	Linear fluid (dielectric constant: 78.4, screening length: 5.74355 Bohr) occupying 0.747459 of unit cell:	Completed after 9 iterations at t[s]:   2630.37
SCF: Cycle: 59   G: -1647.217143140916505   dG: -3.525e-05   |Residual|: 5.620e-04   |deigs|: 6.987e-05  t[s]:   2631.47
	Linear fluid (dielectric constant: 78.4, screening length: 5.74355 Bohr) occupying 0.747495 of unit cell:	Completed after 9 iterations at t[s]:   2632.91
	FillingsUpdate:  mu: -0.244750400  nElectrons: 385.409677
	Linear fluid (dielectric constant: 78.4, screening length: 5.74355 Bohr) occupying 0.747460 of unit cell:	Completed after 9 iterations at t[s]:   2671.06
SCF: Cycle: 60   G: -1647.217139314413998   dG: +3.827e-06   |Residual|: 6.275e-04   |deigs|: 5.658e-05  t[s]:   2672.08
	Linear fluid (dielectric constant: 78.4, screening length: 5.74355 Bohr) occupying 0.747492 of unit cell:	Completed after 9 iterations at t[s]:   2673.52
	FillingsUpdate:  mu: -0.244750400  nElectrons: 385.454486
	Linear fluid (dielectric constant: 78.4, screening length: 5.74355 Bohr) occupying 0.747457 of unit cell:	Completed after 12 iterations at t[s]:   2712.69
SCF: Cycle: 61   G: -1647.217114623469115   dG: +2.469e-05   |Residual|: 9.258e-04   |deigs|: 9.782e-05  t[s]:   2713.68
	Linear fluid (dielectric constant: 78.4, screening length: 5.74355 Bohr) occupying 0.747491 of unit cell:	Completed after 12 iterations at t[s]:   2715.38
	FillingsUpdate:  mu: -0.244750400  nElectrons: 385.432564
	Linear fluid (dielectric constant: 78.4, screening length: 5.74355 Bohr) occupying 0.747457 of unit cell:	Completed after 10 iterations at t[s]:   2753.19
SCF: Cycle: 62   G: -1647.217143053441987   dG: -2.843e-05   |Residual|: 5.195e-04   |deigs|: 8.667e-05  t[s]:   2754.20
	Linear fluid (dielectric constant: 78.4, screening length: 5.74355 Bohr) occupying 0.747486 of unit cell:	Completed after 9 iterations at t[s]:   2755.62
	FillingsUpdate:  mu: -0.244750400  nElectrons: 385.430896
	Linear fluid (dielectric constant: 78.4, screening length: 5.74355 Bohr) occupying 0.747457 of unit cell:	Completed after 9 iterations at t[s]:   2794.68
SCF: Cycle: 63   G: -1647.217143013746863   dG: +3.970e-08   |Residual|: 5.443e-04   |deigs|: 3.758e-05  t[s]:   2795.55
	Linear fluid (dielectric constant: 78.4, screening length: 5.74355 Bohr) occupying 0.747483 of unit cell:	Completed after 9 iterations at t[s]:   2797.02
	FillingsUpdate:  mu: -0.244750400  nElectrons: 385.430551
	Linear fluid (dielectric constant: 78.4, screening length: 5.74355 Bohr) occupying 0.747456 of unit cell:	Completed after 9 iterations at t[s]:   2836.67
SCF: Cycle: 64   G: -1647.217144032256329   dG: -1.019e-06   |Residual|: 4.982e-04   |deigs|: 6.770e-06  t[s]:   2837.67
	Linear fluid (dielectric constant: 78.4, screening length: 5.74355 Bohr) occupying 0.747448 of unit cell:	Completed after 9 iterations at t[s]:   2839.08
	FillingsUpdate:  mu: -0.244750400  nElectrons: 385.410838
	Linear fluid (dielectric constant: 78.4, screening length: 5.74355 Bohr) occupying 0.747451 of unit cell:	Completed after 9 iterations at t[s]:   2877.70
SCF: Cycle: 65   G: -1647.217142168712144   dG: +1.864e-06   |Residual|: 4.624e-04   |deigs|: 4.696e-05  t[s]:   2878.68
	Linear fluid (dielectric constant: 78.4, screening length: 5.74355 Bohr) occupying 0.747429 of unit cell:	Completed after 9 iterations at t[s]:   2880.14
	FillingsUpdate:  mu: -0.244750400  nElectrons: 385.438201
	Linear fluid (dielectric constant: 78.4, screening length: 5.74355 Bohr) occupying 0.747447 of unit cell:	Completed after 10 iterations at t[s]:   2920.48
SCF: Cycle: 66   G: -1647.217140844531741   dG: +1.324e-06   |Residual|: 5.704e-04   |deigs|: 6.951e-05  t[s]:   2921.43
	Linear fluid (dielectric constant: 78.4, screening length: 5.74355 Bohr) occupying 0.747416 of unit cell:	Completed after 10 iterations at t[s]:   2922.96
	FillingsUpdate:  mu: -0.244750400  nElectrons: 385.409266
	Linear fluid (dielectric constant: 78.4, screening length: 5.74355 Bohr) occupying 0.747446 of unit cell:	Completed after 10 iterations at t[s]:   2963.09
SCF: Cycle: 67   G: -1647.217141643631976   dG: -7.991e-07   |Residual|: 4.018e-04   |deigs|: 1.071e-04  t[s]:   2964.24
	Linear fluid (dielectric constant: 78.4, screening length: 5.74355 Bohr) occupying 0.747408 of unit cell:	Completed after 10 iterations at t[s]:   2965.85
	FillingsUpdate:  mu: -0.244750400  nElectrons: 385.420413
	Linear fluid (dielectric constant: 78.4, screening length: 5.74355 Bohr) occupying 0.747444 of unit cell:	Completed after 7 iterations at t[s]:   3005.43
SCF: Cycle: 68   G: -1647.217146687010427   dG: -5.043e-06   |Residual|: 3.629e-04   |deigs|: 7.377e-05  t[s]:   3006.47
	Linear fluid (dielectric constant: 78.4, screening length: 5.74355 Bohr) occupying 0.747406 of unit cell:	Completed after 4 iterations at t[s]:   3007.47
	FillingsUpdate:  mu: -0.244750400  nElectrons: 385.443258
	Linear fluid (dielectric constant: 78.4, screening length: 5.74355 Bohr) occupying 0.747445 of unit cell:	Completed after 9 iterations at t[s]:   3046.16
SCF: Cycle: 69   G: -1647.217139625035315   dG: +7.062e-06   |Residual|: 4.612e-04   |deigs|: 5.427e-05  t[s]:   3047.17
	Linear fluid (dielectric constant: 78.4, screening length: 5.74355 Bohr) occupying 0.747404 of unit cell:	Completed after 9 iterations at t[s]:   3048.62
	FillingsUpdate:  mu: -0.244750400  nElectrons: 385.395462
	Linear fluid (dielectric constant: 78.4, screening length: 5.74355 Bohr) occupying 0.747445 of unit cell:	Completed after 9 iterations at t[s]:   3088.35
SCF: Cycle: 70   G: -1647.217124696870087   dG: +1.493e-05   |Residual|: 6.552e-04   |deigs|: 1.018e-04  t[s]:   3089.43
	Linear fluid (dielectric constant: 78.4, screening length: 5.74355 Bohr) occupying 0.747406 of unit cell:	Completed after 10 iterations at t[s]:   3091.05
	FillingsUpdate:  mu: -0.244750400  nElectrons: 385.395023
	Linear fluid (dielectric constant: 78.4, screening length: 5.74355 Bohr) occupying 0.747445 of unit cell:	Completed after 11 iterations at t[s]:   3129.32
SCF: Cycle: 71   G: -1647.217121187546354   dG: +3.509e-06   |Residual|: 6.871e-04   |deigs|: 4.819e-05  t[s]:   3130.46
	Linear fluid (dielectric constant: 78.4, screening length: 5.74355 Bohr) occupying 0.747409 of unit cell:	Completed after 11 iterations at t[s]:   3132.16
	FillingsUpdate:  mu: -0.244750400  nElectrons: 385.394121
	Linear fluid (dielectric constant: 78.4, screening length: 5.74355 Bohr) occupying 0.747445 of unit cell:	Completed after 11 iterations at t[s]:   3170.14
SCF: Cycle: 72   G: -1647.217120680921653   dG: +5.066e-07   |Residual|: 6.960e-04   |deigs|: 1.590e-05  t[s]:   3171.19
	Linear fluid (dielectric constant: 78.4, screening length: 5.74355 Bohr) occupying 0.747410 of unit cell:	Completed after 11 iterations at t[s]:   3172.94
	FillingsUpdate:  mu: -0.244750400  nElectrons: 385.367701
	Linear fluid (dielectric constant: 78.4, screening length: 5.74355 Bohr) occupying 0.747447 of unit cell:	Completed after 12 iterations at t[s]:   3212.90
SCF: Cycle: 73   G: -1647.217051788344406   dG: +6.889e-05   |Residual|: 1.292e-03   |deigs|: 9.579e-05  t[s]:   3213.82
	Linear fluid (dielectric constant: 78.4, screening length: 5.74355 Bohr) occupying 0.747417 of unit cell:	Completed after 12 iterations at t[s]:   3215.57
	FillingsUpdate:  mu: -0.244750400  nElectrons: 385.356316
	Linear fluid (dielectric constant: 78.4, screening length: 5.74355 Bohr) occupying 0.747449 of unit cell:	Completed after 13 iterations at t[s]:   3252.86
SCF: Cycle: 74   G: -1647.217014581233116   dG: +3.721e-05   |Residual|: 1.511e-03   |deigs|: 9.194e-05  t[s]:   3253.91
	Linear fluid (dielectric constant: 78.4, screening length: 5.74355 Bohr) occupying 0.747416 of unit cell:	Completed after 12 iterations at t[s]:   3255.67
	FillingsUpdate:  mu: -0.244750400  nElectrons: 385.355409
	Linear fluid (dielectric constant: 78.4, screening length: 5.74355 Bohr) occupying 0.747449 of unit cell:	Completed after 12 iterations at t[s]:   3283.79
SCF: Cycle: 75   G: -1647.217010801446122   dG: +3.780e-06   |Residual|: 1.533e-03   |deigs|: 2.408e-06  t[s]:   3284.82
	Linear fluid (dielectric constant: 78.4, screening length: 5.74355 Bohr) occupying 0.747436 of unit cell:	Completed after 12 iterations at t[s]:   3286.56
	FillingsUpdate:  mu: -0.244750400  nElectrons: 385.363245
	Linear fluid (dielectric constant: 78.4, screening length: 5.74355 Bohr) occupying 0.747452 of unit cell:	Completed after 12 iterations at t[s]:   3325.75
SCF: Cycle: 76   G: -1647.217042954117915   dG: -3.215e-05   |Residual|: 1.345e-03   |deigs|: 5.160e-05  t[s]:   3326.77
	Linear fluid (dielectric constant: 78.4, screening length: 5.74355 Bohr) occupying 0.747443 of unit cell:	Completed after 12 iterations at t[s]:   3328.50
	FillingsUpdate:  mu: -0.244750400  nElectrons: 385.370076
	Linear fluid (dielectric constant: 78.4, screening length: 5.74355 Bohr) occupying 0.747453 of unit cell:	Completed after 13 iterations at t[s]:   3365.34
SCF: Cycle: 77   G: -1647.217066042783017   dG: -2.309e-05   |Residual|: 1.189e-03   |deigs|: 4.953e-05  t[s]:   3366.36
	Linear fluid (dielectric constant: 78.4, screening length: 5.74355 Bohr) occupying 0.747447 of unit cell:	Completed after 11 iterations at t[s]:   3368.00
	FillingsUpdate:  mu: -0.244750400  nElectrons: 385.379998
	Linear fluid (dielectric constant: 78.4, screening length: 5.74355 Bohr) occupying 0.747453 of unit cell:	Completed after 12 iterations at t[s]:   3406.41
SCF: Cycle: 78   G: -1647.217094070058010   dG: -2.803e-05   |Residual|: 9.682e-04   |deigs|: 3.096e-05  t[s]:   3407.44
	Linear fluid (dielectric constant: 78.4, screening length: 5.74355 Bohr) occupying 0.747453 of unit cell:	Completed after 12 iterations at t[s]:   3409.20
	FillingsUpdate:  mu: -0.244750400  nElectrons: 385.393443
	Linear fluid (dielectric constant: 78.4, screening length: 5.74355 Bohr) occupying 0.747453 of unit cell:	Completed after 11 iterations at t[s]:   3447.72
SCF: Cycle: 79   G: -1647.217122950897419   dG: -2.888e-05   |Residual|: 6.785e-04   |deigs|: 6.149e-05  t[s]:   3448.82
	Linear fluid (dielectric constant: 78.4, screening length: 5.74355 Bohr) occupying 0.747453 of unit cell:	Completed after 10 iterations at t[s]:   3450.34
	FillingsUpdate:  mu: -0.244750400  nElectrons: 385.425372
	Linear fluid (dielectric constant: 78.4, screening length: 5.74355 Bohr) occupying 0.747451 of unit cell:	Completed after 3 iterations at t[s]:   3488.95
SCF: Cycle: 80   G: -1647.217148977777242   dG: -2.603e-05   |Residual|: 1.747e-04   |deigs|: 1.962e-04  t[s]:   3489.96
	Linear fluid (dielectric constant: 78.4, screening length: 5.74355 Bohr) occupying 0.747453 of unit cell:	Completed after 2 iterations at t[s]:   3490.75
	FillingsUpdate:  mu: -0.244750400  nElectrons: 385.423240
	Linear fluid (dielectric constant: 78.4, screening length: 5.74355 Bohr) occupying 0.747451 of unit cell:	Completed after 4 iterations at t[s]:   3527.76
SCF: Cycle: 81   G: -1647.217149239928631   dG: -2.622e-07   |Residual|: 1.255e-04   |deigs|: 1.412e-05  t[s]:   3528.79
	Linear fluid (dielectric constant: 78.4, screening length: 5.74355 Bohr) occupying 0.747456 of unit cell:	Completed after 2 iterations at t[s]:   3529.60
	FillingsUpdate:  mu: -0.244750400  nElectrons: 385.427832
	Linear fluid (dielectric constant: 78.4, screening length: 5.74355 Bohr) occupying 0.747452 of unit cell:	Completed after 5 iterations at t[s]:   3568.83
SCF: Cycle: 82   G: -1647.217147563879053   dG: +1.676e-06   |Residual|: 3.442e-04   |deigs|: 2.158e-05  t[s]:   3569.98
	Linear fluid (dielectric constant: 78.4, screening length: 5.74355 Bohr) occupying 0.747451 of unit cell:	Completed after 3 iterations at t[s]:   3570.92
	FillingsUpdate:  mu: -0.244750400  nElectrons: 385.406205
	Linear fluid (dielectric constant: 78.4, screening length: 5.74355 Bohr) occupying 0.747451 of unit cell:	Completed after 9 iterations at t[s]:   3609.74
SCF: Cycle: 83   G: -1647.217140030593100   dG: +7.533e-06   |Residual|: 3.910e-04   |deigs|: 5.910e-05  t[s]:   3610.88
	Linear fluid (dielectric constant: 78.4, screening length: 5.74355 Bohr) occupying 0.747446 of unit cell:	Completed after 9 iterations at t[s]:   3612.39
	FillingsUpdate:  mu: -0.244750400  nElectrons: 385.407511
	Linear fluid (dielectric constant: 78.4, screening length: 5.74355 Bohr) occupying 0.747450 of unit cell:	Completed after 9 iterations at t[s]:   3650.05
SCF: Cycle: 84   G: -1647.217139862472095   dG: +1.681e-07   |Residual|: 4.357e-04   |deigs|: 2.807e-05  t[s]:   3651.14
	Linear fluid (dielectric constant: 78.4, screening length: 5.74355 Bohr) occupying 0.747442 of unit cell:	Completed after 9 iterations at t[s]:   3652.72
	FillingsUpdate:  mu: -0.244750400  nElectrons: 385.417572
	Linear fluid (dielectric constant: 78.4, screening length: 5.74355 Bohr) occupying 0.747449 of unit cell:	Completed after 8 iterations at t[s]:   3692.52
SCF: Cycle: 85   G: -1647.217146948526306   dG: -7.086e-06   |Residual|: 2.588e-04   |deigs|: 8.369e-05  t[s]:   3693.57
	Linear fluid (dielectric constant: 78.4, screening length: 5.74355 Bohr) occupying 0.747443 of unit cell:	Completed after 7 iterations at t[s]:   3694.86
	FillingsUpdate:  mu: -0.244750400  nElectrons: 385.426784
	Linear fluid (dielectric constant: 78.4, screening length: 5.74355 Bohr) occupying 0.747449 of unit cell:	Completed after 3 iterations at t[s]:   3734.80
SCF: Cycle: 86   G: -1647.217148935581008   dG: -1.987e-06   |Residual|: 1.812e-04   |deigs|: 1.921e-05  t[s]:   3735.92
	Linear fluid (dielectric constant: 78.4, screening length: 5.74355 Bohr) occupying 0.747446 of unit cell:	Completed after 3 iterations at t[s]:   3736.88
[...]
	FillingsUpdate:  mu: -0.244750400  nElectrons: 385.462824
	Linear fluid (dielectric constant: 78.4, screening length: 5.74355 Bohr) occupying 0.747450 of unit cell:	Completed after 11 iterations at t[s]:   5795.01
SCF: Cycle: 142   G: -1647.217109675576921   dG: +3.894e-05   |Residual|: 7.748e-04   |deigs|: 7.971e-05  t[s]:   5795.96
	Linear fluid (dielectric constant: 78.4, screening length: 5.74355 Bohr) occupying 0.747454 of unit cell:	Completed after 12 iterations at t[s]:   5797.73
	FillingsUpdate:  mu: -0.244750400  nElectrons: 385.428392
	Linear fluid (dielectric constant: 78.4, screening length: 5.74355 Bohr) occupying 0.747450 of unit cell:	Completed after 3 iterations at t[s]:   5823.66
SCF: Cycle: 143   G: -1647.217148819028807   dG: -3.914e-05   |Residual|: 1.590e-04   |deigs|: 6.404e-05  t[s]:   5824.74
	Linear fluid (dielectric constant: 78.4, screening length: 5.74355 Bohr) occupying 0.747454 of unit cell:	Completed after 3 iterations at t[s]:   5825.62
	FillingsUpdate:  mu: -0.244750400  nElectrons: 385.409937
	Linear fluid (dielectric constant: 78.4, screening length: 5.74355 Bohr) occupying 0.747450 of unit cell:	Completed after 8 iterations at t[s]:   5852.64
SCF: Cycle: 144   G: -1647.217142654836152   dG: +6.164e-06   |Residual|: 3.285e-04   |deigs|: 3.632e-05  t[s]:   5853.72
	Linear fluid (dielectric constant: 78.4, screening length: 5.74355 Bohr) occupying 0.747454 of unit cell:	Completed after 9 iterations at t[s]:   5855.21
	FillingsUpdate:  mu: -0.244750400  nElectrons: 385.433766
	Linear fluid (dielectric constant: 78.4, screening length: 5.74355 Bohr) occupying 0.747449 of unit cell:	Completed after 8 iterations at t[s]:   5881.91
SCF: Cycle: 145   G: -1647.217147560354078   dG: -4.906e-06   |Residual|: 2.163e-04   |deigs|: 4.456e-05  t[s]:   5883.00
	Linear fluid (dielectric constant: 78.4, screening length: 5.74355 Bohr) occupying 0.747454 of unit cell:	Completed after 7 iterations at t[s]:   5884.30
	FillingsUpdate:  mu: -0.244750400  nElectrons: 385.420864
	Linear fluid (dielectric constant: 78.4, screening length: 5.74355 Bohr) occupying 0.747451 of unit cell:	Completed after 4 iterations at t[s]:   5910.30
SCF: Cycle: 146   G: -1647.217147614593841   dG: -5.424e-08   |Residual|: 3.036e-04   |deigs|: 2.299e-05  t[s]:   5911.28
	Linear fluid (dielectric constant: 78.4, screening length: 5.74355 Bohr) occupying 0.747454 of unit cell:	Completed after 4 iterations at t[s]:   5912.27
	FillingsUpdate:  mu: -0.244750400  nElectrons: 385.439708
	Linear fluid (dielectric constant: 78.4, screening length: 5.74355 Bohr) occupying 0.747450 of unit cell:	Completed after 9 iterations at t[s]:   5952.23
SCF: Cycle: 147   G: -1647.217143252086316   dG: +4.363e-06   |Residual|: 3.174e-04   |deigs|: 3.626e-05  t[s]:   5953.36
	Linear fluid (dielectric constant: 78.4, screening length: 5.74355 Bohr) occupying 0.747454 of unit cell:	Completed after 8 iterations at t[s]:   5954.78
	FillingsUpdate:  mu: -0.244750400  nElectrons: 385.426115
	Linear fluid (dielectric constant: 78.4, screening length: 5.74355 Bohr) occupying 0.747451 of unit cell:	Completed after 3 iterations at t[s]:   5981.09
SCF: Cycle: 148   G: -1647.217148788669419   dG: -5.537e-06   |Residual|: 1.759e-04   |deigs|: 2.365e-05  t[s]:   5982.14
	Linear fluid (dielectric constant: 78.4, screening length: 5.74355 Bohr) occupying 0.747454 of unit cell:	Completed after 3 iterations at t[s]:   5983.05
	FillingsUpdate:  mu: -0.244750400  nElectrons: 385.417381
	Linear fluid (dielectric constant: 78.4, screening length: 5.74355 Bohr) occupying 0.747450 of unit cell:	Completed after 8 iterations at t[s]:   6009.91
SCF: Cycle: 149   G: -1647.217147597849362   dG: +1.191e-06   |Residual|: 1.867e-04   |deigs|: 2.051e-05  t[s]:   6010.89
	Linear fluid (dielectric constant: 78.4, screening length: 5.74355 Bohr) occupying 0.747453 of unit cell:	Completed after 7 iterations at t[s]:   6012.15
	FillingsUpdate:  mu: -0.244750400  nElectrons: 385.439894
	Linear fluid (dielectric constant: 78.4, screening length: 5.74355 Bohr) occupying 0.747449 of unit cell:	Completed after 9 iterations at t[s]:   6042.23
SCF: Cycle: 150   G: -1647.217143459306953   dG: +4.139e-06   |Residual|: 3.398e-04   |deigs|: 4.058e-05  t[s]:   6043.28
	Linear fluid (dielectric constant: 78.4, screening length: 5.74355 Bohr) occupying 0.747453 of unit cell:	Completed after 8 iterations at t[s]:   6044.66
	FillingsUpdate:  mu: -0.244750400  nElectrons: 385.423267
	Linear fluid (dielectric constant: 78.4, screening length: 5.74355 Bohr) occupying 0.747451 of unit cell:	Completed after 3 iterations at t[s]:   6070.22
SCF: Cycle: 151   G: -1647.217148075161049   dG: -4.616e-06   |Residual|: 2.655e-04   |deigs|: 2.814e-05  t[s]:   6071.31
	Linear fluid (dielectric constant: 78.4, screening length: 5.74355 Bohr) occupying 0.747454 of unit cell:	Completed after 3 iterations at t[s]:   6072.30
	FillingsUpdate:  mu: -0.244750400  nElectrons: 385.426832
	Linear fluid (dielectric constant: 78.4, screening length: 5.74355 Bohr) occupying 0.747450 of unit cell:	Completed after 3 iterations at t[s]:   6098.74
SCF: Cycle: 152   G: -1647.217149321586703   dG: -1.246e-06   |Residual|: 8.276e-05   |deigs|: 1.013e-05  t[s]:   6099.87
	Linear fluid (dielectric constant: 78.4, screening length: 5.74355 Bohr) occupying 0.747454 of unit cell:	Completed after 2 iterations at t[s]:   6100.71
	FillingsUpdate:  mu: -0.244750400  nElectrons: 385.418374
	Linear fluid (dielectric constant: 78.4, screening length: 5.74355 Bohr) occupying 0.747451 of unit cell:	Completed after 7 iterations at t[s]:   6127.34
SCF: Cycle: 153   G: -1647.217148007011019   dG: +1.315e-06   |Residual|: 1.658e-04   |deigs|: 1.790e-05  t[s]:   6128.58
	Linear fluid (dielectric constant: 78.4, screening length: 5.74355 Bohr) occupying 0.747454 of unit cell:	Completed after 7 iterations at t[s]:   6129.93
	FillingsUpdate:  mu: -0.244750400  nElectrons: 385.438767
	Linear fluid (dielectric constant: 78.4, screening length: 5.74355 Bohr) occupying 0.747449 of unit cell:	Completed after 8 iterations at t[s]:   6156.31
SCF: Cycle: 154   G: -1647.217144327233655   dG: +3.680e-06   |Residual|: 3.161e-04   |deigs|: 3.765e-05  t[s]:   6157.33
	Linear fluid (dielectric constant: 78.4, screening length: 5.74355 Bohr) occupying 0.747453 of unit cell:	Completed after 9 iterations at t[s]:   6158.80
	FillingsUpdate:  mu: -0.244750400  nElectrons: 385.423863
	Linear fluid (dielectric constant: 78.4, screening length: 5.74355 Bohr) occupying 0.747451 of unit cell:	Completed after 3 iterations at t[s]:   6185.39
SCF: Cycle: 155   G: -1647.217148279863977   dG: -3.953e-06   |Residual|: 2.407e-04   |deigs|: 2.566e-05  t[s]:   6186.45
	Linear fluid (dielectric constant: 78.4, screening length: 5.74355 Bohr) occupying 0.747453 of unit cell:	Completed after 3 iterations at t[s]:   6187.40
	FillingsUpdate:  mu: -0.244750400  nElectrons: 385.427489
	Linear fluid (dielectric constant: 78.4, screening length: 5.74355 Bohr) occupying 0.747450 of unit cell:	Completed after 2 iterations at t[s]:   6213.21
SCF: Cycle: 156   G: -1647.217149251937826   dG: -9.721e-07   |Residual|: 1.057e-04   |deigs|: 9.006e-06  t[s]:   6214.32
	Linear fluid (dielectric constant: 78.4, screening length: 5.74355 Bohr) occupying 0.747454 of unit cell:	Completed after 3 iterations at t[s]:   6215.28
	FillingsUpdate:  mu: -0.244750400  nElectrons: 385.416988
	Linear fluid (dielectric constant: 78.4, screening length: 5.74355 Bohr) occupying 0.747450 of unit cell:	Completed after 7 iterations at t[s]:   6250.33
SCF: Cycle: 157   G: -1647.217147476427272   dG: +1.776e-06   |Residual|: 1.835e-04   |deigs|: 2.091e-05  t[s]:   6251.41
	Linear fluid (dielectric constant: 78.4, screening length: 5.74355 Bohr) occupying 0.747454 of unit cell:	Completed after 7 iterations at t[s]:   6252.80
	FillingsUpdate:  mu: -0.244750400  nElectrons: 385.438258
	Linear fluid (dielectric constant: 78.4, screening length: 5.74355 Bohr) occupying 0.747449 of unit cell:	Completed after 9 iterations at t[s]:   6279.44
SCF: Cycle: 158   G: -1647.217144838211198   dG: +2.638e-06   |Residual|: 3.030e-04   |deigs|: 3.875e-05  t[s]:   6280.46
	Linear fluid (dielectric constant: 78.4, screening length: 5.74355 Bohr) occupying 0.747453 of unit cell:	Completed after 9 iterations at t[s]:   6281.93
	FillingsUpdate:  mu: -0.244750400  nElectrons: 385.425156
	Linear fluid (dielectric constant: 78.4, screening length: 5.74355 Bohr) occupying 0.747451 of unit cell:	Completed after 3 iterations at t[s]:   6311.95
SCF: Cycle: 159   G: -1647.217148468439291   dG: -3.630e-06   |Residual|: 2.198e-04   |deigs|: 2.502e-05  t[s]:   6312.91
	Linear fluid (dielectric constant: 78.4, screening length: 5.74355 Bohr) occupying 0.747453 of unit cell:	Completed after 3 iterations at t[s]:   6313.80
	FillingsUpdate:  mu: -0.244750400  nElectrons: 385.424636
	Linear fluid (dielectric constant: 78.4, screening length: 5.74355 Bohr) occupying 0.747450 of unit cell:	Completed after 2 iterations at t[s]:   6339.40
SCF: Cycle: 160   G: -1647.217149326127128   dG: -8.577e-07   |Residual|: 9.675e-05   |deigs|: 8.859e-06  t[s]:   6340.67
	Linear fluid (dielectric constant: 78.4, screening length: 5.74355 Bohr) occupying 0.747453 of unit cell:	Completed after 2 iterations at t[s]:   6341.55
	FillingsUpdate:  mu: -0.244750400  nElectrons: 385.430648
	Linear fluid (dielectric constant: 78.4, screening length: 5.74355 Bohr) occupying 0.747450 of unit cell:	Completed after 7 iterations at t[s]:   6376.90
SCF: Cycle: 161   G: -1647.217148350063553   dG: +9.761e-07   |Residual|: 1.684e-04   |deigs|: 1.531e-05  t[s]:   6377.98
	Linear fluid (dielectric constant: 78.4, screening length: 5.74355 Bohr) occupying 0.747454 of unit cell:	Completed after 6 iterations at t[s]:   6379.19
	FillingsUpdate:  mu: -0.244750400  nElectrons: 385.422528
	Linear fluid (dielectric constant: 78.4, screening length: 5.74355 Bohr) occupying 0.747451 of unit cell:	Completed after 4 iterations at t[s]:   6425.80
SCF: Cycle: 162   G: -1647.217148983028210   dG: -6.330e-07   |Residual|: 1.455e-04   |deigs|: 2.996e-05  t[s]:   6426.93
	Linear fluid (dielectric constant: 78.4, screening length: 5.74355 Bohr) occupying 0.747454 of unit cell:	Completed after 3 iterations at t[s]:   6427.89
	FillingsUpdate:  mu: -0.244750400  nElectrons: 385.434502
	Linear fluid (dielectric constant: 78.4, screening length: 5.74355 Bohr) occupying 0.747450 of unit cell:	Completed after 7 iterations at t[s]:   6462.50
SCF: Cycle: 163   G: -1647.217146888885509   dG: +2.094e-06   |Residual|: 2.132e-04   |deigs|: 2.176e-05  t[s]:   6463.73
	Linear fluid (dielectric constant: 78.4, screening length: 5.74355 Bohr) occupying 0.747454 of unit cell:	Completed after 7 iterations at t[s]:   6465.09
	FillingsUpdate:  mu: -0.244750400  nElectrons: 385.422050
	Linear fluid (dielectric constant: 78.4, screening length: 5.74355 Bohr) occupying 0.747451 of unit cell:	Completed after 4 iterations at t[s]:   6494.66
SCF: Cycle: 164   G: -1647.217148330521240   dG: -1.442e-06   |Residual|: 2.542e-04   |deigs|: 2.214e-05  t[s]:   6495.76
	Linear fluid (dielectric constant: 78.4, screening length: 5.74355 Bohr) occupying 0.747454 of unit cell:	Completed after 3 iterations at t[s]:   6496.71
	FillingsUpdate:  mu: -0.244750400  nElectrons: 385.433537
	Linear fluid (dielectric constant: 78.4, screening length: 5.74355 Bohr) occupying 0.747450 of unit cell:	Completed after 7 iterations at t[s]:   6527.88
SCF: Cycle: 165   G: -1647.217147411814494   dG: +9.187e-07   |Residual|: 1.914e-04   |deigs|: 2.049e-05  t[s]:   6529.01
	Linear fluid (dielectric constant: 78.4, screening length: 5.74355 Bohr) occupying 0.747454 of unit cell:	Completed after 7 iterations at t[s]:   6530.35
	FillingsUpdate:  mu: -0.244750400  nElectrons: 385.423469
	Linear fluid (dielectric constant: 78.4, screening length: 5.74355 Bohr) occupying 0.747451 of unit cell:	Completed after 3 iterations at t[s]:   6560.62
SCF: Cycle: 166   G: -1647.217148854574589   dG: -1.443e-06   |Residual|: 1.928e-04   |deigs|: 1.825e-05  t[s]:   6561.77
	Linear fluid (dielectric constant: 78.4, screening length: 5.74355 Bohr) occupying 0.747455 of unit cell:	Completed after 3 iterations at t[s]:   6562.75
	FillingsUpdate:  mu: -0.244750400  nElectrons: 385.424676
	Linear fluid (dielectric constant: 78.4, screening length: 5.74355 Bohr) occupying 0.747450 of unit cell:	Completed after 0 iterations at t[s]:   6592.58
SCF: Cycle: 167   G: -1647.217149445563109   dG: -5.910e-07   |Residual|: 7.987e-05   |deigs|: 6.583e-06  t[s]:   6593.67
	Linear fluid (dielectric constant: 78.4, screening length: 5.74355 Bohr) occupying 0.747454 of unit cell:	Completed after 0 iterations at t[s]:   6594.22
	FillingsUpdate:  mu: -0.244750400  nElectrons: 385.424713
	Linear fluid (dielectric constant: 78.4, screening length: 5.74355 Bohr) occupying 0.747450 of unit cell:	Completed after 0 iterations at t[s]:   6631.08
SCF: Cycle: 168   G: -1647.217149446651774   dG: -1.089e-09   |Residual|: 7.998e-05   |deigs|: 5.377e-06  t[s]:   6632.25
	Linear fluid (dielectric constant: 78.4, screening length: 5.74355 Bohr) occupying 0.747453 of unit cell:	Completed after 0 iterations at t[s]:   6632.81
	FillingsUpdate:  mu: -0.244750400  nElectrons: 385.424750
	Linear fluid (dielectric constant: 78.4, screening length: 5.74355 Bohr) occupying 0.747450 of unit cell:	Completed after 0 iterations at t[s]:   6669.36
SCF: Cycle: 169   G: -1647.217149448002829   dG: -1.351e-09   |Residual|: 8.026e-05   |deigs|: 5.214e-06  t[s]:   6670.39
SCF: Converged (|Delta E|<1.000000e-08 for 2 iters).


# Ionic positions in lattice coordinates:
ion Te   0.222222235780953   0.222222257923810   0.610490244413559 0
ion Te   0.552650801780365   0.232582155372566   0.607970430496718 0
ion Te   0.881433772332785   0.232582155372566   0.607970430496718 0
ion Te   0.232582133229708   0.552650823923223   0.607970430496718 0
ion Te   0.881433772332785   0.552650823923223   0.607970430496718 0
ion Te   0.232582133229708   0.881433794475643   0.607970430496718 0
ion Te   0.552650801780365   0.881433794475643   0.607970430496718 0
ion Te   0.888888902447619   0.888888924590477   0.611016735912151 0
ion Te   0.222222235780953   0.222222257923810   0.394177071213829 0
ion Te   0.553683201663106   0.218193870282525   0.388653739692933 0
ion Te   0.894789657540085   0.218193870282525   0.388653739692933 0
ion Te   0.218193848139667   0.553683223805964   0.388653739692933 0
ion Te   0.555555569114286   0.555555591257143   0.404769901589142 0
ion Te   0.894789657540085   0.553683223805964   0.388653739692933 0
ion Te   0.218193848139667   0.894789679682942   0.388653739692933 0
ion Te   0.553683201663106   0.894789679682942   0.388653739692933 0
ion Te   0.888888902447619   0.888888924590477   0.393579207279287 0
ion Pt   0.110417295350748   0.110417317493606   0.544249251209666 0
ion Pt   0.445832116641361   0.110417317493606   0.544249251209666 0
ion Pt   0.778517022251592   0.109632684982532   0.542606249986436 0
ion Pt   0.110417295350748   0.445832138784219   0.544249251209666 0
ion Pt   0.446594666062021   0.446594688204879   0.533629171501594 0
ion Pt   0.773477375218815   0.446594688204879   0.533629171501594 0
ion Pt   0.109632662839674   0.778517044394449   0.542606249986436 0
ion Pt   0.446594666062021   0.773477397361673   0.533629171501594 0
ion Pt   0.778517022251592   0.778517044394449   0.542606249986436 0
ion Pt   0.000435439897232   0.000435462040089   0.460943375004954 0
ion Pt   0.332520909994686   0.001624909496343   0.461338569357875 0
ion Pt   0.665795827548395   0.000435462040089   0.460943375004954 0
ion Pt   0.001624887353485   0.332520932137544   0.461338569357875 0
ion Pt   0.332520909994686   0.332520932137544   0.461338569357875 0
ion Pt   0.671986283375966   0.322694162733784   0.456290343757538 0
ion Pt   0.000435439897232   0.665795849691252   0.460943375004954 0
ion Pt   0.322694140590926   0.671986305518823   0.456290343757538 0
ion Pt   0.671986283375966   0.671986305518823   0.456290343757538 0


# Forces in Lattice coordinates:
force Te   0.000000000000000   0.000000000000000   0.160818967740521 0
force Te  -0.003026822898176  -0.014902609422523   0.104633844604163 0
force Te   0.003026822898176  -0.011875786524346   0.104633844603822 0
force Te  -0.014902609422519  -0.003026822898176   0.104633844603935 0
force Te   0.014902609422519   0.011875786524346   0.104633844603936 0
force Te  -0.011875786524344   0.003026822898176   0.104633844603935 0
force Te   0.011875786524344   0.014902609422521   0.104633844604050 0
force Te   0.000000000000000   0.000000000000000   0.211511207176251 0
force Te   0.000000000000000   0.000000000000000  -0.403871314701882 0
force Te  -0.011510935046760   0.010270244574736  -0.103709717756009 0
force Te   0.011510935046761   0.021781179621496  -0.103709717756009 0
force Te   0.010270244574736  -0.011510935046760  -0.103709717756009 0
force Te   0.000000000000000   0.000000000000000  -0.195067679999780 0
force Te  -0.010270244574735  -0.021781179621496  -0.103709717755896 0
force Te   0.021781179621496   0.011510935046761  -0.103709717755895 0
force Te  -0.021781179621494  -0.010270244574735  -0.103709717756123 0
force Te   0.000000000000000   0.000000000000000  -0.137718250911540 0
force Pt  -0.037500562357943  -0.037500562357942  -0.118607706639210 0
force Pt   0.037500562357942   0.000000000000000  -0.118607706639438 0
force Pt  -0.000000000000000   0.023193658695089  -0.097556607156398 0
force Pt  -0.000000000000000   0.037500562357942  -0.118607706639210 0
force Pt   0.038263333980294   0.038263333980280  -0.103924002574007 0
force Pt  -0.038263333980266   0.000000000000000  -0.103924002573893 0
force Pt   0.023193658695091   0.000000000000000  -0.097556607155943 0
force Pt   0.000000000000000  -0.038263333980280  -0.103924002573893 0
force Pt  -0.023193658695089  -0.023193658695095  -0.097556607156171 0
force Pt   0.015975040524147   0.015975040524147   0.094732985209115 0
force Pt   0.000000000000000  -0.062582075184733   0.184866013484603 0
force Pt  -0.015975040524146   0.000000000000000   0.094732985209115 0
force Pt  -0.062582075184733   0.000000000000000   0.184866013484603 0
force Pt   0.062582075184733   0.062582075184733   0.184866013484603 0
force Pt   0.000000000000000  -0.111398251509855   0.162165055499247 0
force Pt   0.000000000000000  -0.015975040524147   0.094732985209228 0
force Pt  -0.111398251509851   0.000000000000000   0.162165055499019 0
force Pt   0.111398251509851   0.111398251509858   0.162165055499247 0

# Energy components:
   A_diel =       -0.4620086418014158
   Eewald =     9058.8434573837330390
       EH =    10404.5005129888686497
     Eloc =   -21429.1903206473034516
      Enl =      -73.4311118819110931
      Exc =     -633.7369041460059407
 Exc_core =      379.2808853717754687
       KE =      552.6460015928912526
  MuShift =        0.0577280367393916
-------------------------------------
     Etot =    -1741.4917599430141308
       TS =        0.0582511643955274
-------------------------------------
        F =    -1741.5500111074095457
      muN =      -94.3328616594066887
-------------------------------------
        G =    -1647.2171494480028286

IonicMinimize: Iter:   0  G: -1647.217149448002829  |grad|_K:  0.000e+00  t[s]:   6675.93
IonicMinimize: Converged (|grad|_K<1.000000e-04).

#--- Lowdin population analysis ---
# oxidation-state Te +1.213 +1.200 +1.200 +1.200 +1.200 +1.200 +1.200 +1.227 +1.166 +1.172 +1.172 +1.172 +1.309 +1.172 +1.172 +1.172 +1.190
# oxidation-state Pt -0.851 -0.851 -0.842 -0.851 -0.610 -0.610 -0.842 -0.610 -0.842 -0.854 -0.830 -0.854 -0.830 -0.830 -0.877 -0.854 -0.877 -0.877


Dumping 'NbTe2.fillings' ... done
Dumping 'NbTe2.wfns' ... done
Dumping 'NbTe2.fluidState' ... done
Dumping 'NbTe2.eigenvals' ... done
End date and time: Mon Jul  6 23:47:37 2020  (Duration: 0-1:51:25.31)
Done!
