
*************** JDFTx 1.5.0  ***************

Start date and time: Tue Jul 14 10:43:06 2020
Executable jdftx_gpu with command-line: -i Charged.in -o Charged.out
Running on hosts (process indices):  amax (0-3)
Divided in process groups (process indices):  0 (0)  1 (1)  2 (2)  3 (3)
gpuInit: Found compatible cuda device 0 'Tesla K80'
gpuInit: Found compatible cuda device 1 'Tesla K80'
gpuInit: Found compatible cuda device 2 'Tesla K80'
gpuInit: Found compatible cuda device 3 'Tesla K80'
gpuInit: Selected device 0
Resource initialization completed at t[s]:     15.07
Run totals: 4 processes, 24 threads, 4 GPUs


Input parsed successfully to the following command list (including defaults):

basis kpoint-dependent
cache-projectors no
coords-type Lattice
core-overlap-check none
coulomb-interaction Slab 001
coulomb-truncation-embed 0 0 0.5
davidson-band-ratio 1.1
dump End State
dump-name NbTe2.$VAR
elec-cutoff 20 100
elec-eigen-algo Davidson
elec-ex-corr gga-PBE
elec-smearing Gauss 0.0073499
electronic-minimize  \
	dirUpdateScheme      FletcherReeves \
	linminMethod         DirUpdateRecommended \
	nIterations          500 \
	history              15 \
	knormThreshold       0 \
	energyDiffThreshold  1e-08 \
	nEnergyDiff          2 \
	alphaTstart          1 \
	alphaTmin            1e-10 \
	updateTestStepSize   yes \
	alphaTreduceFactor   0.1 \
	alphaTincreaseFactor 3 \
	nAlphaAdjustMax      3 \
	wolfeEnergy          0.0001 \
	wolfeGradient        0.9 \
	fdTest               no
exchange-regularization WignerSeitzTruncated
fluid LinearPCM 298.000000 1.013250
fluid-anion F- 1 MeanFieldLJ \
	epsBulk 1 \
	pMol 0 \
	epsInf 1 \
	Pvap 0 \
	sigmaBulk 0 \
	Rvdw 2.24877 \
	Res 0 \
	tauNuc 343133
fluid-cation Na+ 1 MeanFieldLJ \
	epsBulk 1 \
	pMol 0 \
	epsInf 1 \
	Pvap 0 \
	sigmaBulk 0 \
	Rvdw 2.19208 \
	Res 0 \
	tauNuc 343133
fluid-ex-corr lda-TF lda-PZ
fluid-gummel-loop 10 1.000000e-05
fluid-minimize  \
	dirUpdateScheme      PolakRibiere \
	linminMethod         DirUpdateRecommended \
	nIterations          400 \
	history              15 \
	knormThreshold       1e-11 \
	energyDiffThreshold  0 \
	nEnergyDiff          2 \
	alphaTstart          1 \
	alphaTmin            1e-10 \
	updateTestStepSize   yes \
	alphaTreduceFactor   0.1 \
	alphaTincreaseFactor 3 \
	nAlphaAdjustMax      6 \
	wolfeEnergy          0.0001 \
	wolfeGradient        0.9 \
	fdTest               no
fluid-solvent H2O 55.338 ScalarEOS \
	epsBulk 78.4 \
	pMol 0.92466 \
	epsInf 1.77 \
	Pvap 1.06736e-10 \
	sigmaBulk 4.62e-05 \
	Rvdw 2.61727 \
	Res 1.42 \
	tauNuc 343133 \
	poleEl 15 7 1
forces-output-coords Positions
initial-state NbTe2.$VAR
ion Bi   0.333347507135699   0.166695028208743   0.525049303559665 0
ion Bi   0.833347507135699   0.166695028208743   0.525049303559665 0
ion Bi   0.333347507135699   0.666695028208743   0.525049303559665 0
ion Bi   0.833347507135699   0.666695028208743   0.525049303559665 0
ion Bi   0.166651226765559   0.333302426198919   0.474901216381536 0
ion Bi   0.666651226765559   0.333302426198919   0.474901216381536 0
ion Bi   0.166651226765559   0.833302426198919   0.474901216381536 0
ion Bi   0.666651226765559   0.833302426198919   0.474901216381536 0
ion Bi   0.333329352933440   0.166658679108444   0.359011163343079 0
ion Bi   0.833329352933440   0.166658679108444   0.359011163343079 0
ion Bi   0.333329352933440   0.666658679108444   0.359011163343079 0
ion Bi   0.833329352933440   0.666658679108444   0.359011163343079 0
ion Bi   0.166669634239952   0.333339277069698   0.640969298984328 0
ion Bi   0.666669634239952   0.333339277069698   0.640969298984328 0
ion Bi   0.166669634239952   0.833339277069697   0.640969298984328 0
ion Bi   0.666669634239952   0.833339277069697   0.640969298984328 0
ion Bi   0.000003126079115   0.000006198598548   0.253285293065889 0
ion Bi   0.500003126079115   0.000006198598548   0.253285293065889 0
ion Bi   0.000003126079115   0.500006198598548   0.253285293065889 0
ion Bi   0.500003126079115   0.500006198598548   0.253285293065889 0
ion Bi   0.999995053005136   0.999990185835841   0.746749162446836 0
ion Bi   0.499995053005137   0.999990185835841   0.746749162446836 0
ion Bi   0.999995053005136   0.499990185835841   0.746749162446836 0
ion Bi   0.499995053005137   0.499990185835841   0.746749162446836 0
ion Se   0.000016017827384   0.000031988902151   0.402541410442493 0
ion Se   0.500016017827384   0.000031988902151   0.402541410442493 0
ion Se   0.000016017827384   0.500031988902151   0.402541410442493 0
ion Se   0.500016017827384   0.500031988902151   0.402541410442493 0
ion Se   0.999975893136359   0.999951822711715   0.597435105480047 0
ion Se   0.499975893136359   0.999951822711715   0.597435105480047 0
ion Se   0.999975893136359   0.499951822711715   0.597435105480047 0
ion Se   0.499975893136359   0.499951822711715   0.597435105480047 0
ion Se   0.333349679676743   0.166699384788735   0.692934093505612 0
ion Se   0.833349679676743   0.166699384788735   0.692934093505612 0
ion Se   0.333349679676743   0.666699384788735   0.692934093505612 0
ion Se   0.833349679676743   0.666699384788735   0.692934093505612 0
ion Se   0.166658621548599   0.333317222239359   0.307080690783032 0
ion Se   0.666658621548599   0.333317222239359   0.307080690783032 0
ion Se   0.166658621548599   0.833317222239359   0.307080690783032 0
ion Se   0.666658621548599   0.833317222239359   0.307080690783032 0
ion Se   0.333325217464036   0.166650438254550   0.211065782437280 0
ion Se   0.833325217464036   0.166650438254550   0.211065782437280 0
ion Se   0.333325217464036   0.666650438254550   0.211065782437280 0
ion Se   0.833325217464036   0.666650438254550   0.211065782437280 0
ion Se   0.166678670187963   0.333357348083290   0.788977479570193 0
ion Se   0.666678670187963   0.333357348083290   0.788977479570193 0
ion Se   0.166678670187963   0.833357348083290   0.788977479570193 0
ion Se   0.666678670187963   0.833357348083290   0.788977479570193 0
ion-species GBRV/$ID_pbe.uspp
ion-width Ecut
ionic-minimize  \
	dirUpdateScheme      L-BFGS \
	linminMethod         DirUpdateRecommended \
	nIterations          0 \
	history              15 \
	knormThreshold       0.0001 \
	energyDiffThreshold  1e-06 \
	nEnergyDiff          2 \
	alphaTstart          1 \
	alphaTmin            1e-10 \
	updateTestStepSize   yes \
	alphaTreduceFactor   0.1 \
	alphaTincreaseFactor 3 \
	nAlphaAdjustMax      3 \
	wolfeEnergy          0.0001 \
	wolfeGradient        0.9 \
	fdTest               no
kpoint   0.000000000000   0.000000000000   0.000000000000  1.00000000000000
kpoint-folding 5 5 1 
latt-move-scale 1 1 1
latt-scale 1 1 1 
lattice Triclinic 15.9479 15.9488 68.004 90 90 119.998
lattice-minimize  \
	dirUpdateScheme      L-BFGS \
	linminMethod         DirUpdateRecommended \
	nIterations          0 \
	history              15 \
	knormThreshold       0 \
	energyDiffThreshold  1e-06 \
	nEnergyDiff          2 \
	alphaTstart          1 \
	alphaTmin            1e-10 \
	updateTestStepSize   yes \
	alphaTreduceFactor   0.1 \
	alphaTincreaseFactor 3 \
	nAlphaAdjustMax      3 \
	wolfeEnergy          0.0001 \
	wolfeGradient        0.9 \
	fdTest               no
lcao-params -1 1e-06 0.0073499
pcm-variant CANDLE
spintype no-spin
subspace-rotation-factor 1 yes
symmetries automatic
symmetry-threshold 0.0001
target-mu -0.171252 no




---------- Setting up symmetries ----------

Found 24 point-group symmetries of the bravais lattice
Found 8 space-group symmetries with basis
Applied RMS atom displacement 2.87855e-07 bohrs to make symmetries exact.

---------- Initializing the Grid ----------
R = 
[    15.9479   -7.97396          0  ]
[          0    13.8123          0  ]
[          0          0     68.004  ]
unit cell volume = 14979.8
G =
[   0.393981   0.227449         -0  ]
[          0   0.454897          0  ]
[          0         -0  0.0923943  ]
Minimum fftbox size, Smin = [  72  72  308  ]
Chosen fftbox size, S = [  72  72  320  ]

---------- Initializing tighter grid for wavefunction operations ----------
R = 
[    15.9479   -7.97396          0  ]
[          0    13.8123          0  ]
[          0          0     68.004  ]
unit cell volume = 14979.8
G =
[   0.393981   0.227449         -0  ]
[          0   0.454897          0  ]
[          0         -0  0.0923943  ]
Minimum fftbox size, Smin = [  68  68  276  ]
Chosen fftbox size, S = [  70  70  280  ]

---------- Exchange Correlation functional ----------
Initalized PBE GGA exchange.
Initalized PBE GGA correlation.

---------- Setting up pseudopotentials ----------
Width of ionic core gaussian charges (only for fluid interactions / plotting) set to 0.397384

Reading pseudopotential file '/home/guoxy/vasp/jdftx-1.5.0/build/pseudopotentials/GBRV/bi_pbe.uspp':
  Title: Bi.  Created by USPP 7.3.6 on 14-9-2013
  Reference state energy: -92.204004.  15 valence electrons in orbitals:
    |520>  occupation: 10  eigenvalue: -1.293263
    |600>  occupation: 2  eigenvalue: -0.812524
    |610>  occupation: 2  eigenvalue: -0.420386
  lMax: 2  lLocal: 3  QijEcut: 5
  6 projectors sampled on a log grid with 747 points:
    l: 0  eig: -0.812524  rCut: 2.5
    l: 0  eig: 0.500000  rCut: 2.5
    l: 1  eig: -0.420386  rCut: 2.5
    l: 1  eig: 1.000000  rCut: 2.5
    l: 2  eig: -1.293263  rCut: 2.3
    l: 2  eig: -0.500000  rCut: 2.3
  Partial core density with radius 1
  Transforming core density to a uniform radial grid of dG=0.02 with 1605 points.
  Transforming local potential to a uniform radial grid of dG=0.02 with 1605 points.
  Transforming nonlocal projectors to a uniform radial grid of dG=0.02 with 432 points.
  Transforming density augmentations to a uniform radial grid of dG=0.02 with 1605 points.
  Transforming atomic orbitals to a uniform radial grid of dG=0.02 with 432 points.
  Core radius for overlap checks: 2.50 bohrs.

Reading pseudopotential file '/home/guoxy/vasp/jdftx-1.5.0/build/pseudopotentials/GBRV/se_pbe.uspp':
  Title: Se.  Created by USPP 7.3.6 on 14-9-2013
  Reference state energy: -21.672887.  6 valence electrons in orbitals:
    |400>  occupation: 2  eigenvalue: -0.635284
    |410>  occupation: 4  eigenvalue: -0.239295
  lMax: 2  lLocal: 3  QijEcut: 5
  6 projectors sampled on a log grid with 625 points:
    l: 0  eig: -0.635278  rCut: 1.5
    l: 0  eig: 0.500000  rCut: 1.5
    l: 1  eig: -0.239295  rCut: 1.5
    l: 1  eig: 0.500000  rCut: 1.5
    l: 2  eig: 0.000000  rCut: 1.8
    l: 2  eig: 1.000000  rCut: 1.8
  Partial core density with radius 1.2
  Transforming core density to a uniform radial grid of dG=0.02 with 1605 points.
  Transforming local potential to a uniform radial grid of dG=0.02 with 1605 points.
  Transforming nonlocal projectors to a uniform radial grid of dG=0.02 with 432 points.
  Transforming density augmentations to a uniform radial grid of dG=0.02 with 1605 points.
  Transforming atomic orbitals to a uniform radial grid of dG=0.02 with 432 points.
  Core radius for overlap checks: 1.80 bohrs.

Initialized 2 species with 48 total atoms.

Folded 1 k-points by 5x5x1 to 25 k-points.

---------- Setting up k-points, bands, fillings ----------
Adding inversion symmetry to k-mesh for non-inversion-symmetric unit cell.
Reduced to 9 k-points under symmetry. 
Computing the number of bands and number of electrons
Reading initial fillings from file NbTe2.fillings.
nElectrons: 504.000000   nBands: 312   nStates: 9

----- Setting up reduced wavefunction bases (one per k-point) -----
average nbasis = 64007.320 , ideal nbasis = 63994.731

---------- Setting up coulomb interaction ----------
Fluid mode embedding: using embedded box, but periodic Coulomb kernel.
(Fluid response is responsible for (approximate) separation between periodic images.)
Setting up double-sized grid for truncated Coulomb potentials:
R = 
[    15.9479   -7.97396          0  ]
[          0    13.8123          0  ]
[          0          0    136.008  ]
unit cell volume = 29959.5
G =
[   0.393981   0.227449         -0  ]
[          0   0.454897          0  ]
[          0         -0  0.0461972  ]
Chosen fftbox size, S = [  72  72  640  ]
Integer grid location selected as the embedding center:
   Grid: [  0  0  160  ]
   Lattice: [  0  0  0.5  ]
   Cartesian: [  0  0  34.002  ]
Constructing Wigner-Seitz cell: 8 faces (6 quadrilaterals, 2 hexagons)
Range-separation parameter for embedded mesh potentials due to point charges: 0.593756 bohrs.

Initializing van der Waals corrections
	NOTE: vdW corrections apply only for interactions with fluid.
	Bi:  C6:  893.28 Eh-a0^6  R0: 3.555 a0 (WARNING: beyond Grimme's data set)
	Se:  C6:  219.24 Eh-a0^6  R0: 3.347 a0

---------- Setting up ewald sum ----------
Optimum gaussian width for ewald sums = 6.499525 bohr.
Real space sum over 845 unit cells with max indices [  6  6  2  ]
Reciprocal space sum over 8107 terms with max indices [  5  5  33  ]

---------- Allocating electronic variables ----------
Initializing wave functions:  reading from 'NbTe2.wfns'
----- createFluidSolver() ----- (Fluid-side solver setup)
   Initializing fluid molecule 'H2O'
     Initializing site 'O'
       Electron density: proportional to exp(-r/0.36935)*erfc((r-0.51523)/0.36823) with norm 6.826
       Charge density: gaussian nuclear width 0.478731 with net site charge 0.826
       Polarizability: cuspless exponential with width 0.32 and norm 3.73
       Hard sphere radius: 2.57003 bohrs
       Positions in reference frame:
         [ +0.000000 +0.000000 +0.000000 ]
     Initializing site 'H'
       Electron density: proportional to exp(-r/0.34641)*erfc((r-0)/0.390882) with norm 0.587
       Charge density: gaussian nuclear width 0.377945 with net site charge -0.413
       Polarizability: cuspless exponential with width 0.39 and norm 3.3
       Positions in reference frame:
         [ +0.000000 -1.441945 +1.122523 ]
         [ +0.000000 +1.441945 +1.122523 ]
     Net charge: 0   dipole magnitude: 0.927204
     Initializing spherical shell mfKernel with radius 2.61727 Bohr
     deltaS corrections:
       site 'O': -7.54299
       site 'H': -6.83917
   Initializing fluid molecule 'Na+'
     Initializing site 'Na'
       Electron density: proportional to exp(-r/0.19682)*erfc((r-0.71491)/0.41314) with norm 8.1383
       Charge density: gaussian nuclear width 0.365347 with net site charge -1
       Hard sphere radius: 1.86327 bohrs
       Positions in reference frame:
         [ +0.000000 +0.000000 +0.000000 ]
     Net charge: -1   dipole magnitude: 0
     Initializing gaussian mfKernel with width: 1.55004 Bohr
     deltaS corrections:
       site 'Na': -22.3555
   Initializing fluid molecule 'F-'
     Initializing site 'F'
       Electron density: proportional to exp(-r/0.38886)*erfc((r-0)/0.438782) with norm 8
       Charge density: gaussian nuclear width 0.374796 with net site charge 1
       Hard sphere radius: 2.39995 bohrs
       Positions in reference frame:
         [ +0.000000 +0.000000 +0.000000 ]
     Net charge: 1   dipole magnitude: 0
     Initializing gaussian mfKernel with width: 1.59012 Bohr
     deltaS corrections:
       site 'F': -9.04335

Correction to mu due to finite nuclear width = -0.0166915
   Cavity determined by nc: 0.00142 and sigma: 0.707107
   Nonlocal vdW cavity from gaussian model electron density with norm = 8 and sigma = 0.993594 bohr
   Charge asymmetry in cavity with sensitivity pCavity = 36.5 e-bohr/Eh
   Electrostatic cavity expanded by eta = 1.46 bohrs
   Weighted density cavitation model constrained by Nbulk: 0.0049383 bohr^-3, Pvap: 3.14029 kPa, Rvdw: 2.61727 bohr and sigmaBulk: 4.62e-05 Eh/bohr^2 at T: 298 K.
   Weighted density dispersion model using vdW pair potentials with single solvent site with sqrtC6eff: 0.77 SI.
Reading fluid state from 'NbTe2.fluidState'


---- Citations for features of the code used in this run ----

   Software package:
      R. Sundararaman, K. Letchworth-Weaver, K.A. Schwarz, D. Gunceler, Y. Ozhabes and T.A. Arias, 'JDFTx: software for joint density-functional theory', SoftwareX 6, 278 (2017)

   gga-PBE exchange-correlation functional:
      J.P. Perdew, K. Burke and M. Ernzerhof, Phys. Rev. Lett. 77, 3865 (1996)

   Pseudopotentials:
      KF Garrity, JW Bennett, KM Rabe and D Vanderbilt, Comput. Mater. Sci. 81, 446 (2014)

   Truncated Coulomb potentials:
      R. Sundararaman and T.A. Arias, Phys. Rev. B 87, 165122 (2013)

   Van der Waals correction pair-potentials:
      S. Grimme, J. Comput. Chem. 27, 1787 (2006)

   Charge-asymmetric nonlocally-determined local-electric (CANDLE) solvation model:
      R. Sundararaman and W.A. Goddard III, J. Chem. Phys. 142, 064107 (2015)

   Total energy minimization with Auxiliary Hamiltonian:
      C. Freysoldt, S. Boeck, and J. Neugebauer, Phys. Rev. B 79, 241103(R) (2009)

   Grand-canonical (fixed-potential) DFT:
      R. Sundararaman, W. A. Goddard III and T. A. Arias, J. Chem. Phys. 146, 114104 (2017)

This list may not be complete. Please suggest additional citations or
report any other bugs at https://github.com/shankar1729/jdftx/issues

Initialization completed successfully at t[s]:     23.26

Shifting auxilliary hamiltonian by -0.001641 to set nElectrons=504.000000
	Linear fluid (dielectric constant: 78.4, screening length: 5.74355 Bohr) occupying 0.633792 of unit cell:	Completed after 2 iterations at t[s]:     27.82

-------- Electronic minimization -----------
	Linear fluid (dielectric constant: 78.4, screening length: 5.74355 Bohr) occupying 0.633792 of unit cell:	Completed after 0 iterations at t[s]:     32.57
	FillingsUpdate:  mu: -0.171251800  nElectrons: 504.000000
ElecMinimize: Iter:   0  G: -1868.711877733004485  |grad|_K:  1.077e-06  alpha:  1.000e+00
	Linear fluid (dielectric constant: 78.4, screening length: 5.74355 Bohr) occupying 0.633805 of unit cell:	Completed after 20 iterations at t[s]:     52.43
	Linear fluid (dielectric constant: 78.4, screening length: 5.74355 Bohr) occupying 0.633792 of unit cell:	Completed after 19 iterations at t[s]:     61.28
	FillingsUpdate:  mu: -0.171251800  nElectrons: 503.994491
	SubspaceRotationAdjust: set factor to 0.515
ElecMinimize: Iter:   1  G: -1868.711881762101939  |grad|_K:  7.314e-07  alpha:  2.153e-02  linmin:  1.219e-03  t[s]:     70.46
	Linear fluid (dielectric constant: 78.4, screening length: 5.74355 Bohr) occupying 0.633794 of unit cell:	Completed after 3 iterations at t[s]:     78.75
ElecMinimize: 	Predicted alpha/alphaT>3.000000, increasing alphaT to 6.457870e-02.
	Linear fluid (dielectric constant: 78.4, screening length: 5.74355 Bohr) occupying 0.633796 of unit cell:	Completed after 7 iterations at t[s]:     86.60
	Linear fluid (dielectric constant: 78.4, screening length: 5.74355 Bohr) occupying 0.633798 of unit cell:	Completed after 6 iterations at t[s]:     94.58
	FillingsUpdate:  mu: -0.171251800  nElectrons: 503.985326
	SubspaceRotationAdjust: set factor to 0.356
ElecMinimize: Iter:   2  G: -1868.711890936577674  |grad|_K:  2.738e-07  alpha:  9.979e-02  linmin: -1.602e-04  t[s]:    103.84
	Linear fluid (dielectric constant: 78.4, screening length: 5.74355 Bohr) occupying 0.633801 of unit cell:	Completed after 3 iterations at t[s]:    112.21
ElecMinimize: 	Predicted alpha/alphaT>3.000000, increasing alphaT to 2.993552e-01.
	Linear fluid (dielectric constant: 78.4, screening length: 5.74355 Bohr) occupying 0.633809 of unit cell:	Completed after 8 iterations at t[s]:    120.16
	Linear fluid (dielectric constant: 78.4, screening length: 5.74355 Bohr) occupying 0.633809 of unit cell:	Completed after 0 iterations at t[s]:    127.51
	FillingsUpdate:  mu: -0.171251800  nElectrons: 503.980480
	SubspaceRotationAdjust: set factor to 0.304
ElecMinimize: Iter:   3  G: -1868.711895300111337  |grad|_K:  1.820e-07  alpha:  3.182e-01  linmin: -1.377e-03  t[s]:    136.87
	Linear fluid (dielectric constant: 78.4, screening length: 5.74355 Bohr) occupying 0.633821 of unit cell:	Completed after 13 iterations at t[s]:    146.07
	Linear fluid (dielectric constant: 78.4, screening length: 5.74355 Bohr) occupying 0.633815 of unit cell:	Completed after 12 iterations at t[s]:    154.64
	FillingsUpdate:  mu: -0.171251800  nElectrons: 503.977353
	SubspaceRotationAdjust: set factor to 0.218
ElecMinimize: Iter:   4  G: -1868.711896514840419  |grad|_K:  2.221e-07  alpha:  1.614e-01  linmin:  2.920e-04  t[s]:    163.86
	Linear fluid (dielectric constant: 78.4, screening length: 5.74355 Bohr) occupying 0.633827 of unit cell:	Completed after 7 iterations at t[s]:    172.63
	Linear fluid (dielectric constant: 78.4, screening length: 5.74355 Bohr) occupying 0.633836 of unit cell:	Completed after 6 iterations at t[s]:    180.62
	FillingsUpdate:  mu: -0.171251800  nElectrons: 503.974635
	SubspaceRotationAdjust: set factor to 0.148
ElecMinimize: Iter:   5  G: -1868.711898879473438  |grad|_K:  1.650e-07  alpha:  2.745e-01  linmin: -1.652e-05  t[s]:    189.85
	Linear fluid (dielectric constant: 78.4, screening length: 5.74355 Bohr) occupying 0.633851 of unit cell:	Completed after 13 iterations at t[s]:    199.04
	Linear fluid (dielectric constant: 78.4, screening length: 5.74355 Bohr) occupying 0.633842 of unit cell:	Completed after 8 iterations at t[s]:    207.26
	FillingsUpdate:  mu: -0.171251800  nElectrons: 503.974727
	SubspaceRotationAdjust: set factor to 0.0862
	SubspaceRotationAdjust: resetting CG because factor has changed by 0.0861916
	Linear fluid (dielectric constant: 78.4, screening length: 5.74355 Bohr) occupying 0.633842 of unit cell:	Completed after 0 iterations at t[s]:    220.56
ElecMinimize: 	State modified externally: resetting search direction.
ElecMinimize: Iter:   6  G: -1868.711899353083936  |grad|_K:  1.534e-07  alpha:  1.170e-01
	Linear fluid (dielectric constant: 78.4, screening length: 5.74355 Bohr) occupying 0.633843 of unit cell:	Completed after 8 iterations at t[s]:    238.67
	Linear fluid (dielectric constant: 78.4, screening length: 5.74355 Bohr) occupying 0.633844 of unit cell:	Completed after 0 iterations at t[s]:    246.14
	FillingsUpdate:  mu: -0.171251800  nElectrons: 503.973712
	SubspaceRotationAdjust: set factor to 0.09
ElecMinimize: Iter:   7  G: -1868.711899979805594  |grad|_K:  7.315e-08  alpha:  1.353e-01  linmin: -1.688e-02  t[s]:    255.71
	Linear fluid (dielectric constant: 78.4, screening length: 5.74355 Bohr) occupying 0.633845 of unit cell:	Completed after 7 iterations at t[s]:    264.72
	Linear fluid (dielectric constant: 78.4, screening length: 5.74355 Bohr) occupying 0.633845 of unit cell:	Completed after 0 iterations at t[s]:    272.30
	FillingsUpdate:  mu: -0.171251800  nElectrons: 503.973238
	SubspaceRotationAdjust: set factor to 0.0851
ElecMinimize: Iter:   8  G: -1868.711900139920772  |grad|_K:  7.140e-08  alpha:  1.256e-01  linmin: -9.276e-03  t[s]:    281.93
	Linear fluid (dielectric constant: 78.4, screening length: 5.74355 Bohr) occupying 0.633848 of unit cell:	Completed after 0 iterations at t[s]:    290.48
ElecMinimize: 	Predicted alpha/alphaT>3.000000, increasing alphaT to 3.767400e-01.
	Linear fluid (dielectric constant: 78.4, screening length: 5.74355 Bohr) occupying 0.633855 of unit cell:	Completed after 3 iterations at t[s]:    298.28
	Linear fluid (dielectric constant: 78.4, screening length: 5.74355 Bohr) occupying 0.633855 of unit cell:	Completed after 0 iterations at t[s]:    305.96
	FillingsUpdate:  mu: -0.171251800  nElectrons: 503.972552
	SubspaceRotationAdjust: set factor to 0.0931
ElecMinimize: Iter:   9  G: -1868.711900690638458  |grad|_K:  5.919e-08  alpha:  3.998e-01  linmin: -2.697e-04  t[s]:    315.65
	Linear fluid (dielectric constant: 78.4, screening length: 5.74355 Bohr) occupying 0.633865 of unit cell:	Completed after 3 iterations at t[s]:    324.36
	Linear fluid (dielectric constant: 78.4, screening length: 5.74355 Bohr) occupying 0.633863 of unit cell:	Completed after 2 iterations at t[s]:    332.25
	FillingsUpdate:  mu: -0.171251800  nElectrons: 503.972890
	SubspaceRotationAdjust: set factor to 0.107
ElecMinimize: Iter:  10  G: -1868.711900843426520  |grad|_K:  6.625e-08  alpha:  3.028e-01  linmin: -2.052e-05  t[s]:    341.89
	Linear fluid (dielectric constant: 78.4, screening length: 5.74355 Bohr) occupying 0.633874 of unit cell:	Completed after 8 iterations at t[s]:    351.00
	Linear fluid (dielectric constant: 78.4, screening length: 5.74355 Bohr) occupying 0.633867 of unit cell:	Completed after 4 iterations at t[s]:    358.95
	FillingsUpdate:  mu: -0.171251800  nElectrons: 503.973181
	SubspaceRotationAdjust: set factor to 0.0654
ElecMinimize: Iter:  11  G: -1868.711900959498962  |grad|_K:  1.060e-07  alpha:  1.057e-01  linmin:  5.946e-03  t[s]:    368.53
	Linear fluid (dielectric constant: 78.4, screening length: 5.74355 Bohr) occupying 0.633877 of unit cell:	Completed after 2 iterations at t[s]:    377.22
	Linear fluid (dielectric constant: 78.4, screening length: 5.74355 Bohr) occupying 0.633871 of unit cell:	Completed after 0 iterations at t[s]:    384.82
	FillingsUpdate:  mu: -0.171251800  nElectrons: 503.973249
	SubspaceRotationAdjust: set factor to 0.043
ElecMinimize: Iter:  12  G: -1868.711900987235822  |grad|_K:  8.465e-08  alpha:  4.503e-02  linmin:  1.031e-03  t[s]:    394.50
	Linear fluid (dielectric constant: 78.4, screening length: 5.74355 Bohr) occupying 0.633874 of unit cell:	Completed after 0 iterations at t[s]:    403.27
ElecMinimize: 	Predicted alpha/alphaT>3.000000, increasing alphaT to 1.350932e-01.
	Linear fluid (dielectric constant: 78.4, screening length: 5.74355 Bohr) occupying 0.633879 of unit cell:	Completed after 0 iterations at t[s]:    410.73
	Linear fluid (dielectric constant: 78.4, screening length: 5.74355 Bohr) occupying 0.633888 of unit cell:	Completed after 4 iterations at t[s]:    418.72
	FillingsUpdate:  mu: -0.171251800  nElectrons: 503.972560
	SubspaceRotationAdjust: set factor to 0.0531
ElecMinimize: Iter:  13  G: -1868.711901076874710  |grad|_K:  6.648e-08  alpha:  2.758e-01  linmin:  4.399e-03  t[s]:    428.46
	Linear fluid (dielectric constant: 78.4, screening length: 5.74355 Bohr) occupying 0.633896 of unit cell:	Completed after 4 iterations at t[s]:    437.59
	Linear fluid (dielectric constant: 78.4, screening length: 5.74355 Bohr) occupying 0.633889 of unit cell:	Completed after 3 iterations at t[s]:    445.58
ElecMinimize: 	Step increased G by 3.844934e-08, reducing alpha to 4.925096e-03.
	Linear fluid (dielectric constant: 78.4, screening length: 5.74355 Bohr) occupying 0.633888 of unit cell:	Completed after 0 iterations at t[s]:    461.47
ElecMinimize: 	Step increased G by 1.754415e-08, reducing alpha to 4.925096e-04.
	Linear fluid (dielectric constant: 78.4, screening length: 5.74355 Bohr) occupying 0.633888 of unit cell:	Completed after 0 iterations at t[s]:    477.35
ElecMinimize: 	Step increased G by 1.558283e-08, reducing alpha to 4.925096e-05.
ElecMinimize: 	Step failed to reduce G after 3 attempts. Quitting step.
ElecMinimize: 	Undoing step.
	Linear fluid (dielectric constant: 78.4, screening length: 5.74355 Bohr) occupying 0.633888 of unit cell:	Completed after 0 iterations at t[s]:    493.35
ElecMinimize: 	Step failed: resetting search direction.
	FillingsUpdate:  mu: -0.171251800  nElectrons: 503.972559
	SubspaceRotationAdjust: set factor to 0.0641
ElecMinimize: Iter:  14  G: -1868.711901061265053  |grad|_K:  5.392e-08  alpha:  4.925e-05
	Linear fluid (dielectric constant: 78.4, screening length: 5.74355 Bohr) occupying 0.633886 of unit cell:	Completed after 0 iterations at t[s]:    511.54
ElecMinimize: 	Predicted alpha/alphaT>3.000000, increasing alphaT to 8.273978e-01.
	Linear fluid (dielectric constant: 78.4, screening length: 5.74355 Bohr) occupying 0.633883 of unit cell:	Completed after 3 iterations at t[s]:    519.29
	Linear fluid (dielectric constant: 78.4, screening length: 5.74355 Bohr) occupying 0.633885 of unit cell:	Completed after 0 iterations at t[s]:    526.83
	FillingsUpdate:  mu: -0.171251800  nElectrons: 503.972086
	SubspaceRotationAdjust: set factor to 0.0686
ElecMinimize: Iter:  15  G: -1868.711901368406188  |grad|_K:  3.774e-08  alpha:  5.832e-01  linmin:  2.375e-03  t[s]:    536.66
	Linear fluid (dielectric constant: 78.4, screening length: 5.74355 Bohr) occupying 0.633881 of unit cell:	Completed after 3 iterations at t[s]:    545.47
	Linear fluid (dielectric constant: 78.4, screening length: 5.74355 Bohr) occupying 0.633883 of unit cell:	Completed after 0 iterations at t[s]:    553.24
	FillingsUpdate:  mu: -0.171251800  nElectrons: 503.971750
	SubspaceRotationAdjust: set factor to 0.0822
ElecMinimize: Iter:  16  G: -1868.711901413004853  |grad|_K:  2.401e-08  alpha:  3.286e-01  linmin: -1.627e-04  t[s]:    563.10
	Linear fluid (dielectric constant: 78.4, screening length: 5.74355 Bohr) occupying 0.633881 of unit cell:	Completed after 0 iterations at t[s]:    571.73
ElecMinimize: 	Predicted alpha/alphaT>3.000000, increasing alphaT to 9.859397e-01.
	Linear fluid (dielectric constant: 78.4, screening length: 5.74355 Bohr) occupying 0.633879 of unit cell:	Completed after 2 iterations at t[s]:    579.66
	Linear fluid (dielectric constant: 78.4, screening length: 5.74355 Bohr) occupying 0.633881 of unit cell:	Completed after 0 iterations at t[s]:    587.53
	FillingsUpdate:  mu: -0.171251800  nElectrons: 503.971489
	SubspaceRotationAdjust: set factor to 0.0908
ElecMinimize: Iter:  17  G: -1868.711901445048852  |grad|_K:  2.172e-08  alpha:  4.944e-01  linmin:  8.317e-04  t[s]:    597.24
	Linear fluid (dielectric constant: 78.4, screening length: 5.74355 Bohr) occupying 0.633879 of unit cell:	Completed after 0 iterations at t[s]:    605.75
	Linear fluid (dielectric constant: 78.4, screening length: 5.74355 Bohr) occupying 0.633878 of unit cell:	Completed after 1 iterations at t[s]:    613.66
ElecMinimize: 	Step increased G by 1.467743e-08, reducing alpha to 7.976433e-02.
	Linear fluid (dielectric constant: 78.4, screening length: 5.74355 Bohr) occupying 0.633880 of unit cell:	Completed after 0 iterations at t[s]:    631.58
	FillingsUpdate:  mu: -0.171251800  nElectrons: 503.971494
	SubspaceRotationAdjust: set factor to 0.0672
ElecMinimize: Iter:  18  G: -1868.711901455537827  |grad|_K:  1.348e-08  alpha:  7.976e-02  linmin: -1.393e-03  t[s]:    642.13
	Linear fluid (dielectric constant: 78.4, screening length: 5.74355 Bohr) occupying 0.633880 of unit cell:	Completed after 0 iterations at t[s]:    651.38
ElecMinimize: 	Predicted alpha/alphaT>3.000000, increasing alphaT to 2.392930e-01.
	Linear fluid (dielectric constant: 78.4, screening length: 5.74355 Bohr) occupying 0.633880 of unit cell:	Completed after 0 iterations at t[s]:    658.93
ElecMinimize: 	Predicted alpha/alphaT>3.000000, increasing alphaT to 7.178790e-01.
	Linear fluid (dielectric constant: 78.4, screening length: 5.74355 Bohr) occupying 0.633879 of unit cell:	Completed after 0 iterations at t[s]:    666.38
ElecMinimize: 	Predicted alpha/alphaT>3.000000, increasing alphaT to 2.153637e+00.
	Linear fluid (dielectric constant: 78.4, screening length: 5.74355 Bohr) occupying 0.633878 of unit cell:	Completed after 7 iterations at t[s]:    674.44
ElecMinimize: 	Step increased G by 4.286728e-07, reducing alpha to 2.192838e-01.
	Linear fluid (dielectric constant: 78.4, screening length: 5.74355 Bohr) occupying 0.633880 of unit cell:	Completed after 9 iterations at t[s]:    691.50
	FillingsUpdate:  mu: -0.171251800  nElectrons: 503.971619
	SubspaceRotationAdjust: set factor to 0.0458
ElecMinimize: Iter:  19  G: -1868.711901485677799  |grad|_K:  1.011e-08  alpha:  2.193e-01  linmin: -5.924e-03  t[s]:    701.21
	Linear fluid (dielectric constant: 78.4, screening length: 5.74355 Bohr) occupying 0.633880 of unit cell:	Completed after 0 iterations at t[s]:    709.60
ElecMinimize: 	Predicted alpha/alphaT>3.000000, increasing alphaT to 6.578513e-01.
	Linear fluid (dielectric constant: 78.4, screening length: 5.74355 Bohr) occupying 0.633879 of unit cell:	Completed after 0 iterations at t[s]:    716.93
ElecMinimize: 	Predicted alpha/alphaT>3.000000, increasing alphaT to 1.973554e+00.
	Linear fluid (dielectric constant: 78.4, screening length: 5.74355 Bohr) occupying 0.633878 of unit cell:	Completed after 5 iterations at t[s]:    724.65
	Linear fluid (dielectric constant: 78.4, screening length: 5.74355 Bohr) occupying 0.633880 of unit cell:	Completed after 4 iterations at t[s]:    732.49
	FillingsUpdate:  mu: -0.171251800  nElectrons: 503.971750
	SubspaceRotationAdjust: set factor to 0.0306
ElecMinimize: Iter:  20  G: -1868.711901538966231  |grad|_K:  2.945e-08  alpha:  2.513e-01  linmin:  4.109e-03  t[s]:    741.94
ElecMinimize: 	Bad step direction: g.d > 0.
ElecMinimize: 	Undoing step.
	Linear fluid (dielectric constant: 78.4, screening length: 5.74355 Bohr) occupying 0.633880 of unit cell:	Completed after 0 iterations at t[s]:    750.47
ElecMinimize: 	Step failed: resetting search direction.
	FillingsUpdate:  mu: -0.171251800  nElectrons: 503.971750
	SubspaceRotationAdjust: set factor to 0.023
ElecMinimize: Iter:  21  G: -1868.711901538966003  |grad|_K:  2.554e-08  alpha:  0.000e+00
	Linear fluid (dielectric constant: 78.4, screening length: 5.74355 Bohr) occupying 0.633880 of unit cell:	Completed after 0 iterations at t[s]:    772.06
	Linear fluid (dielectric constant: 78.4, screening length: 5.74355 Bohr) occupying 0.633879 of unit cell:	Completed after 6 iterations at t[s]:    780.00
ElecMinimize: 	Step increased G by 1.652579e-07, reducing alpha to 6.133790e-02.
	Linear fluid (dielectric constant: 78.4, screening length: 5.74355 Bohr) occupying 0.633880 of unit cell:	Completed after 1 iterations at t[s]:    795.94
ElecMinimize: 	Step increased G by 2.612296e-08, reducing alpha to 6.133790e-03.
	Linear fluid (dielectric constant: 78.4, screening length: 5.74355 Bohr) occupying 0.633880 of unit cell:	Completed after 0 iterations at t[s]:    812.11
ElecMinimize: 	Step increased G by 1.207741e-08, reducing alpha to 6.133790e-04.
ElecMinimize: 	Step failed to reduce G after 3 attempts. Quitting step.
ElecMinimize: 	Undoing step.
	Linear fluid (dielectric constant: 78.4, screening length: 5.74355 Bohr) occupying 0.633880 of unit cell:	Completed after 0 iterations at t[s]:    828.51
ElecMinimize: 	Step failed along negative gradient direction.
ElecMinimize: Probably at roundoff error limit. (Stopping)
Setting wave functions to eigenvectors of Hamiltonian

# Ionic positions in lattice coordinates:
ion Bi   0.333347514104370   0.166695028208743   0.525049303559665 0
ion Bi   0.833347514104370   0.166695028208743   0.525049303559665 0
ion Bi   0.333347514104370   0.666695028208743   0.525049303559665 0
ion Bi   0.833347514104370   0.666695028208743   0.525049303559665 0
ion Bi   0.166651213099459   0.333302426198919   0.474901216381536 0
ion Bi   0.666651213099459   0.333302426198919   0.474901216381536 0
ion Bi   0.166651213099459   0.833302426198919   0.474901216381536 0
ion Bi   0.666651213099459   0.833302426198919   0.474901216381536 0
ion Bi   0.333329339554221   0.166658679108444   0.359011163343079 0
ion Bi   0.833329339554221   0.166658679108444   0.359011163343079 0
ion Bi   0.333329339554221   0.666658679108444   0.359011163343079 0
ion Bi   0.833329339554221   0.666658679108444   0.359011163343079 0
ion Bi   0.166669638534848   0.333339277069697   0.640969298984328 0
ion Bi   0.666669638534848   0.333339277069697   0.640969298984328 0
ion Bi   0.166669638534848   0.833339277069697   0.640969298984328 0
ion Bi   0.666669638534848   0.833339277069697   0.640969298984328 0
ion Bi   0.000003099299273   0.000006198598548   0.253285293065889 0
ion Bi   0.500003099299273   0.000006198598548   0.253285293065889 0
ion Bi   0.000003099299273   0.500006198598548   0.253285293065889 0
ion Bi   0.500003099299273   0.500006198598548   0.253285293065889 0
ion Bi   0.999995092917920   0.999990185835841   0.746749162446836 0
ion Bi   0.499995092917920   0.999990185835841   0.746749162446836 0
ion Bi   0.999995092917920   0.499990185835841   0.746749162446836 0
ion Bi   0.499995092917920   0.499990185835841   0.746749162446836 0
ion Se   0.000015994451075   0.000031988902151   0.402541410442493 0
ion Se   0.500015994451075   0.000031988902151   0.402541410442493 0
ion Se   0.000015994451075   0.500031988902151   0.402541410442493 0
ion Se   0.500015994451075   0.500031988902151   0.402541410442493 0
ion Se   0.999975911355857   0.999951822711715   0.597435105480047 0
ion Se   0.499975911355857   0.999951822711715   0.597435105480047 0
ion Se   0.999975911355857   0.499951822711715   0.597435105480047 0
ion Se   0.499975911355857   0.499951822711715   0.597435105480047 0
ion Se   0.333349692394367   0.166699384788735   0.692934093505612 0
ion Se   0.833349692394367   0.166699384788735   0.692934093505612 0
ion Se   0.333349692394367   0.666699384788735   0.692934093505612 0
ion Se   0.833349692394367   0.666699384788735   0.692934093505612 0
ion Se   0.166658611119678   0.333317222239359   0.307080690783032 0
ion Se   0.666658611119678   0.333317222239359   0.307080690783032 0
ion Se   0.166658611119678   0.833317222239359   0.307080690783032 0
ion Se   0.666658611119678   0.833317222239359   0.307080690783032 0
ion Se   0.333325219127274   0.166650438254550   0.211065782437280 0
ion Se   0.833325219127274   0.166650438254550   0.211065782437280 0
ion Se   0.333325219127274   0.666650438254550   0.211065782437280 0
ion Se   0.833325219127274   0.666650438254550   0.211065782437280 0
ion Se   0.166678674041644   0.333357348083290   0.788977479570193 0
ion Se   0.666678674041644   0.333357348083290   0.788977479570193 0
ion Se   0.166678674041644   0.833357348083290   0.788977479570193 0
ion Se   0.666678674041644   0.833357348083290   0.788977479570193 0


# Forces in Lattice coordinates:
force Bi  -0.000000000000000  -0.000526725703026   0.086198143068099 0
force Bi  -0.000000000000000  -0.000526725703026   0.086198143068097 0
force Bi   0.000000000000000  -0.000526725703026   0.086198143068097 0
force Bi   0.000000000000000  -0.000526725703026   0.086198143068097 0
force Bi  -0.000000000000000   0.000505905351284  -0.087955903181003 0
force Bi  -0.000000000000000   0.000505905351284  -0.087955903181232 0
force Bi  -0.000000000000000   0.000505905351284  -0.087955903181003 0
force Bi   0.000000000000000   0.000505905351284  -0.087955903181001 0
force Bi   0.000000000000000   0.000071149192411  -0.080984383834259 0
force Bi   0.000000000000000   0.000071149192411  -0.080984383834259 0
force Bi  -0.000000000000000   0.000071149192411  -0.080984383834259 0
force Bi  -0.000000000000000   0.000071149192411  -0.080984383834259 0
force Bi  -0.000000000000000  -0.000132216169820   0.090337119977121 0
force Bi  -0.000000000000000  -0.000132216169820   0.090337119977123 0
force Bi  -0.000000000000000  -0.000132216169820   0.090337119978033 0
force Bi   0.000000000000000  -0.000132216169820   0.090337119976214 0
force Bi   0.000000000000000  -0.000098148284246  -0.101070633306174 0
force Bi  -0.000000000000000  -0.000098148284246  -0.101070633307082 0
force Bi   0.000000000000000  -0.000098148284246  -0.101070633306174 0
force Bi  -0.000000000000000  -0.000098148284246  -0.101070633305263 0
force Bi   0.000000000000000   0.000172827620711   0.097847353151510 0
force Bi   0.000000000000000   0.000172827620711   0.097847353150601 0
force Bi  -0.000000000000000   0.000172827620711   0.097847353150600 0
force Bi   0.000000000000000   0.000172827620711   0.097847353149692 0
force Se  -0.000000000000000  -0.000374922666352   0.101429982761182 0
force Se  -0.000000000000000  -0.000374922666352   0.101429982761180 0
force Se  -0.000000000000000  -0.000374922666352   0.101429982760727 0
force Se   0.000000000000000  -0.000374922666352   0.101429982761180 0
force Se   0.000000000000000   0.000519352542179  -0.097924561925444 0
force Se   0.000000000000000   0.000519352542179  -0.097924561925671 0
force Se   0.000000000000000   0.000519352542179  -0.097924561925671 0
force Se  -0.000000000000000   0.000519352542179  -0.097924561925671 0
force Se   0.000000000000000  -0.000241401374091  -0.019605462672040 0
force Se   0.000000000000000  -0.000241401374091  -0.019605462672040 0
force Se   0.000000000000000  -0.000241401374091  -0.019605462672040 0
force Se  -0.000000000000000  -0.000241401374091  -0.019605462672495 0
force Se   0.000000000000000   0.000128130633166   0.017411086796878 0
force Se   0.000000000000000   0.000128130633166   0.017411086797333 0
force Se   0.000000000000000   0.000128130633166   0.017411086797333 0
force Se   0.000000000000000   0.000128130633166   0.017411086796878 0
force Se  -0.000000000000000   0.000200679074141  -0.058574150967642 0
force Se   0.000000000000000   0.000200679074141  -0.058574150967642 0
force Se   0.000000000000000   0.000200679074141  -0.058574150967640 0
force Se   0.000000000000000   0.000200679074141  -0.058574150967642 0
force Se   0.000000000000000  -0.000238979626923   0.055013175624138 0
force Se   0.000000000000000  -0.000238979626923   0.055013175623682 0
force Se  -0.000000000000000  -0.000238979626923   0.055013175623682 0
force Se   0.000000000000000  -0.000238979626923   0.055013175623682 0

# Energy components:
   A_diel =        0.0085033533695845
   Eewald =    37823.8257308794563869
       EH =    39550.0775662948872196
     Eloc =   -79840.2597332160657970
      Enl =      606.8099137028401628
      Exc =    -1131.5680583103094250
 Exc_core =      792.0389680676209991
       KE =      244.0656955665220380
  MuShift =        0.0004715995393940
-------------------------------------
     Etot =    -1955.0009420621404388
       TS =        0.0170281330685377
-------------------------------------
        F =    -1955.0179701952090454
      muN =      -86.3060686681241407
-------------------------------------
        G =    -1868.7119015270848195

IonicMinimize: Iter:   0  G: -1868.711901527084819  |grad|_K:  0.000e+00  t[s]:    844.33
IonicMinimize: Converged (|grad|_K<1.000000e-04).

#--- Lowdin population analysis ---
# oxidation-state Bi +0.116 +0.116 +0.116 +0.116 +0.116 +0.116 +0.116 +0.116 +0.683 +0.683 +0.683 +0.683 +0.683 +0.683 +0.683 +0.683 +0.713 +0.713 +0.713 +0.713 +0.713 +0.713 +0.713 +0.713
# oxidation-state Se -0.408 -0.408 -0.408 -0.408 -0.408 -0.408 -0.408 -0.408 -0.558 -0.558 -0.558 -0.558 -0.558 -0.558 -0.558 -0.558 -0.356 -0.356 -0.356 -0.356 -0.356 -0.356 -0.356 -0.356


Dumping 'NbTe2.fillings' ... done
Dumping 'NbTe2.wfns' ... done
Dumping 'NbTe2.fluidState' ... done
Dumping 'NbTe2.eigenvals' ... done
End date and time: Tue Jul 14 10:57:15 2020  (Duration: 0-0:14:08.85)
Done!

*************** JDFTx 1.5.0  ***************

Start date and time: Tue Jul 14 11:23:56 2020
Executable jdftx_gpu with command-line: -i Charged.in -o Charged.out
Running on hosts (process indices):  amax (0-3)
Divided in process groups (process indices):  0 (0)  1 (1)  2 (2)  3 (3)
gpuInit: Found compatible cuda device 0 'Tesla K80'
gpuInit: Found compatible cuda device 1 'Tesla K80'
gpuInit: Found compatible cuda device 2 'Tesla K80'
gpuInit: Found compatible cuda device 3 'Tesla K80'
gpuInit: Selected device 0
Resource initialization completed at t[s]:     15.47
Run totals: 4 processes, 24 threads, 4 GPUs


Input parsed successfully to the following command list (including defaults):

basis kpoint-dependent
cache-projectors no
coords-type Lattice
core-overlap-check none
coulomb-interaction Slab 001
coulomb-truncation-embed 0 0 0.5
davidson-band-ratio 1.1
dump End State
dump-name NbTe2.$VAR
elec-cutoff 20 100
elec-eigen-algo Davidson
elec-ex-corr gga-PBE
elec-smearing Gauss 0.0073499
electronic-minimize  \
	dirUpdateScheme      FletcherReeves \
	linminMethod         DirUpdateRecommended \
	nIterations          500 \
	history              15 \
	knormThreshold       0 \
	energyDiffThreshold  1e-08 \
	nEnergyDiff          2 \
	alphaTstart          1 \
	alphaTmin            1e-10 \
	updateTestStepSize   yes \
	alphaTreduceFactor   0.1 \
	alphaTincreaseFactor 3 \
	nAlphaAdjustMax      3 \
	wolfeEnergy          0.0001 \
	wolfeGradient        0.9 \
	fdTest               no
exchange-regularization WignerSeitzTruncated
fluid LinearPCM 298.000000 1.013250
fluid-anion F- 1 MeanFieldLJ \
	epsBulk 1 \
	pMol 0 \
	epsInf 1 \
	Pvap 0 \
	sigmaBulk 0 \
	Rvdw 2.24877 \
	Res 0 \
	tauNuc 343133
fluid-cation Na+ 1 MeanFieldLJ \
	epsBulk 1 \
	pMol 0 \
	epsInf 1 \
	Pvap 0 \
	sigmaBulk 0 \
	Rvdw 2.19208 \
	Res 0 \
	tauNuc 343133
fluid-ex-corr lda-TF lda-PZ
fluid-gummel-loop 10 1.000000e-05
fluid-minimize  \
	dirUpdateScheme      PolakRibiere \
	linminMethod         DirUpdateRecommended \
	nIterations          400 \
	history              15 \
	knormThreshold       1e-11 \
	energyDiffThreshold  0 \
	nEnergyDiff          2 \
	alphaTstart          1 \
	alphaTmin            1e-10 \
	updateTestStepSize   yes \
	alphaTreduceFactor   0.1 \
	alphaTincreaseFactor 3 \
	nAlphaAdjustMax      6 \
	wolfeEnergy          0.0001 \
	wolfeGradient        0.9 \
	fdTest               no
fluid-solvent H2O 55.338 ScalarEOS \
	epsBulk 78.4 \
	pMol 0.92466 \
	epsInf 1.77 \
	Pvap 1.06736e-10 \
	sigmaBulk 4.62e-05 \
	Rvdw 2.61727 \
	Res 1.42 \
	tauNuc 343133 \
	poleEl 15 7 1
forces-output-coords Positions
initial-state NbTe2.$VAR
ion Bi   0.333347507135699   0.166695028208743   0.525049303559665 0
ion Bi   0.833347507135699   0.166695028208743   0.525049303559665 0
ion Bi   0.333347507135699   0.666695028208743   0.525049303559665 0
ion Bi   0.833347507135699   0.666695028208743   0.525049303559665 0
ion Bi   0.166651226765559   0.333302426198919   0.474901216381536 0
ion Bi   0.666651226765559   0.333302426198919   0.474901216381536 0
ion Bi   0.166651226765559   0.833302426198919   0.474901216381536 0
ion Bi   0.666651226765559   0.833302426198919   0.474901216381536 0
ion Bi   0.333329352933440   0.166658679108444   0.359011163343079 0
ion Bi   0.833329352933440   0.166658679108444   0.359011163343079 0
ion Bi   0.333329352933440   0.666658679108444   0.359011163343079 0
ion Bi   0.833329352933440   0.666658679108444   0.359011163343079 0
ion Bi   0.166669634239952   0.333339277069698   0.640969298984328 0
ion Bi   0.666669634239952   0.333339277069698   0.640969298984328 0
ion Bi   0.166669634239952   0.833339277069697   0.640969298984328 0
ion Bi   0.666669634239952   0.833339277069697   0.640969298984328 0
ion Bi   0.000003126079115   0.000006198598548   0.253285293065889 0
ion Bi   0.500003126079115   0.000006198598548   0.253285293065889 0
ion Bi   0.000003126079115   0.500006198598548   0.253285293065889 0
ion Bi   0.500003126079115   0.500006198598548   0.253285293065889 0
ion Bi   0.999995053005136   0.999990185835841   0.746749162446836 0
ion Bi   0.499995053005137   0.999990185835841   0.746749162446836 0
ion Bi   0.999995053005136   0.499990185835841   0.746749162446836 0
ion Bi   0.499995053005137   0.499990185835841   0.746749162446836 0
ion Se   0.000016017827384   0.000031988902151   0.402541410442493 0
ion Se   0.500016017827384   0.000031988902151   0.402541410442493 0
ion Se   0.000016017827384   0.500031988902151   0.402541410442493 0
ion Se   0.500016017827384   0.500031988902151   0.402541410442493 0
ion Se   0.999975893136359   0.999951822711715   0.597435105480047 0
ion Se   0.499975893136359   0.999951822711715   0.597435105480047 0
ion Se   0.999975893136359   0.499951822711715   0.597435105480047 0
ion Se   0.499975893136359   0.499951822711715   0.597435105480047 0
ion Se   0.333349679676743   0.166699384788735   0.692934093505612 0
ion Se   0.833349679676743   0.166699384788735   0.692934093505612 0
ion Se   0.333349679676743   0.666699384788735   0.692934093505612 0
ion Se   0.833349679676743   0.666699384788735   0.692934093505612 0
ion Se   0.166658621548599   0.333317222239359   0.307080690783032 0
ion Se   0.666658621548599   0.333317222239359   0.307080690783032 0
ion Se   0.166658621548599   0.833317222239359   0.307080690783032 0
ion Se   0.666658621548599   0.833317222239359   0.307080690783032 0
ion Se   0.333325217464036   0.166650438254550   0.211065782437280 0
ion Se   0.833325217464036   0.166650438254550   0.211065782437280 0
ion Se   0.333325217464036   0.666650438254550   0.211065782437280 0
ion Se   0.833325217464036   0.666650438254550   0.211065782437280 0
ion Se   0.166678670187963   0.333357348083290   0.788977479570193 0
ion Se   0.666678670187963   0.333357348083290   0.788977479570193 0
ion Se   0.166678670187963   0.833357348083290   0.788977479570193 0
ion Se   0.666678670187963   0.833357348083290   0.788977479570193 0
ion-species GBRV/$ID_pbe.uspp
ion-width Ecut
ionic-minimize  \
	dirUpdateScheme      L-BFGS \
	linminMethod         DirUpdateRecommended \
	nIterations          0 \
	history              15 \
	knormThreshold       0.0001 \
	energyDiffThreshold  1e-06 \
	nEnergyDiff          2 \
	alphaTstart          1 \
	alphaTmin            1e-10 \
	updateTestStepSize   yes \
	alphaTreduceFactor   0.1 \
	alphaTincreaseFactor 3 \
	nAlphaAdjustMax      3 \
	wolfeEnergy          0.0001 \
	wolfeGradient        0.9 \
	fdTest               no
kpoint   0.000000000000   0.000000000000   0.000000000000  1.00000000000000
kpoint-folding 5 5 1 
latt-move-scale 1 1 1
latt-scale 1 1 1 
lattice Triclinic 15.9479 15.9488 68.004 90 90 119.998
lattice-minimize  \
	dirUpdateScheme      L-BFGS \
	linminMethod         DirUpdateRecommended \
	nIterations          0 \
	history              15 \
	knormThreshold       0 \
	energyDiffThreshold  1e-06 \
	nEnergyDiff          2 \
	alphaTstart          1 \
	alphaTmin            1e-10 \
	updateTestStepSize   yes \
	alphaTreduceFactor   0.1 \
	alphaTincreaseFactor 3 \
	nAlphaAdjustMax      3 \
	wolfeEnergy          0.0001 \
	wolfeGradient        0.9 \
	fdTest               no
lcao-params -1 1e-06 0.0073499
pcm-variant CANDLE
spintype no-spin
subspace-rotation-factor 1 yes
symmetries automatic
symmetry-threshold 0.0001
target-mu -0.24475 no




---------- Setting up symmetries ----------

Found 24 point-group symmetries of the bravais lattice
Found 8 space-group symmetries with basis
Applied RMS atom displacement 2.87855e-07 bohrs to make symmetries exact.

---------- Initializing the Grid ----------
R = 
[    15.9479   -7.97396          0  ]
[          0    13.8123          0  ]
[          0          0     68.004  ]
unit cell volume = 14979.8
G =
[   0.393981   0.227449         -0  ]
[          0   0.454897          0  ]
[          0         -0  0.0923943  ]
Minimum fftbox size, Smin = [  72  72  308  ]
Chosen fftbox size, S = [  72  72  320  ]

---------- Initializing tighter grid for wavefunction operations ----------
R = 
[    15.9479   -7.97396          0  ]
[          0    13.8123          0  ]
[          0          0     68.004  ]
unit cell volume = 14979.8
G =
[   0.393981   0.227449         -0  ]
[          0   0.454897          0  ]
[          0         -0  0.0923943  ]
Minimum fftbox size, Smin = [  68  68  276  ]
Chosen fftbox size, S = [  70  70  280  ]

---------- Exchange Correlation functional ----------
Initalized PBE GGA exchange.
Initalized PBE GGA correlation.

---------- Setting up pseudopotentials ----------
Width of ionic core gaussian charges (only for fluid interactions / plotting) set to 0.397384

Reading pseudopotential file '/home/guoxy/vasp/jdftx-1.5.0/build/pseudopotentials/GBRV/bi_pbe.uspp':
  Title: Bi.  Created by USPP 7.3.6 on 14-9-2013
  Reference state energy: -92.204004.  15 valence electrons in orbitals:
    |520>  occupation: 10  eigenvalue: -1.293263
    |600>  occupation: 2  eigenvalue: -0.812524
    |610>  occupation: 2  eigenvalue: -0.420386
  lMax: 2  lLocal: 3  QijEcut: 5
  6 projectors sampled on a log grid with 747 points:
    l: 0  eig: -0.812524  rCut: 2.5
    l: 0  eig: 0.500000  rCut: 2.5
    l: 1  eig: -0.420386  rCut: 2.5
    l: 1  eig: 1.000000  rCut: 2.5
    l: 2  eig: -1.293263  rCut: 2.3
    l: 2  eig: -0.500000  rCut: 2.3
  Partial core density with radius 1
  Transforming core density to a uniform radial grid of dG=0.02 with 1605 points.
  Transforming local potential to a uniform radial grid of dG=0.02 with 1605 points.
  Transforming nonlocal projectors to a uniform radial grid of dG=0.02 with 432 points.
  Transforming density augmentations to a uniform radial grid of dG=0.02 with 1605 points.
  Transforming atomic orbitals to a uniform radial grid of dG=0.02 with 432 points.
  Core radius for overlap checks: 2.50 bohrs.

Reading pseudopotential file '/home/guoxy/vasp/jdftx-1.5.0/build/pseudopotentials/GBRV/se_pbe.uspp':
  Title: Se.  Created by USPP 7.3.6 on 14-9-2013
  Reference state energy: -21.672887.  6 valence electrons in orbitals:
    |400>  occupation: 2  eigenvalue: -0.635284
    |410>  occupation: 4  eigenvalue: -0.239295
  lMax: 2  lLocal: 3  QijEcut: 5
  6 projectors sampled on a log grid with 625 points:
    l: 0  eig: -0.635278  rCut: 1.5
    l: 0  eig: 0.500000  rCut: 1.5
    l: 1  eig: -0.239295  rCut: 1.5
    l: 1  eig: 0.500000  rCut: 1.5
    l: 2  eig: 0.000000  rCut: 1.8
    l: 2  eig: 1.000000  rCut: 1.8
  Partial core density with radius 1.2
  Transforming core density to a uniform radial grid of dG=0.02 with 1605 points.
  Transforming local potential to a uniform radial grid of dG=0.02 with 1605 points.
  Transforming nonlocal projectors to a uniform radial grid of dG=0.02 with 432 points.
  Transforming density augmentations to a uniform radial grid of dG=0.02 with 1605 points.
  Transforming atomic orbitals to a uniform radial grid of dG=0.02 with 432 points.
  Core radius for overlap checks: 1.80 bohrs.

Initialized 2 species with 48 total atoms.

Folded 1 k-points by 5x5x1 to 25 k-points.

---------- Setting up k-points, bands, fillings ----------
Adding inversion symmetry to k-mesh for non-inversion-symmetric unit cell.
Reduced to 9 k-points under symmetry. 
Computing the number of bands and number of electrons
Reading initial fillings from file NbTe2.fillings.
nElectrons: 503.971746   nBands: 312   nStates: 9

----- Setting up reduced wavefunction bases (one per k-point) -----
average nbasis = 64007.320 , ideal nbasis = 63994.731

---------- Setting up coulomb interaction ----------
Fluid mode embedding: using embedded box, but periodic Coulomb kernel.
(Fluid response is responsible for (approximate) separation between periodic images.)
Setting up double-sized grid for truncated Coulomb potentials:
R = 
[    15.9479   -7.97396          0  ]
[          0    13.8123          0  ]
[          0          0    136.008  ]
unit cell volume = 29959.5
G =
[   0.393981   0.227449         -0  ]
[          0   0.454897          0  ]
[          0         -0  0.0461972  ]
Chosen fftbox size, S = [  72  72  640  ]
Integer grid location selected as the embedding center:
   Grid: [  0  0  160  ]
   Lattice: [  0  0  0.5  ]
   Cartesian: [  0  0  34.002  ]
Constructing Wigner-Seitz cell: 8 faces (6 quadrilaterals, 2 hexagons)
Range-separation parameter for embedded mesh potentials due to point charges: 0.593756 bohrs.

Initializing van der Waals corrections
	NOTE: vdW corrections apply only for interactions with fluid.
	Bi:  C6:  893.28 Eh-a0^6  R0: 3.555 a0 (WARNING: beyond Grimme's data set)
	Se:  C6:  219.24 Eh-a0^6  R0: 3.347 a0

---------- Setting up ewald sum ----------
Optimum gaussian width for ewald sums = 6.499525 bohr.
Real space sum over 845 unit cells with max indices [  6  6  2  ]
Reciprocal space sum over 8107 terms with max indices [  5  5  33  ]

---------- Allocating electronic variables ----------
Initializing wave functions:  reading from 'NbTe2.wfns'
----- createFluidSolver() ----- (Fluid-side solver setup)
   Initializing fluid molecule 'H2O'
     Initializing site 'O'
       Electron density: proportional to exp(-r/0.36935)*erfc((r-0.51523)/0.36823) with norm 6.826
       Charge density: gaussian nuclear width 0.478731 with net site charge 0.826
       Polarizability: cuspless exponential with width 0.32 and norm 3.73
       Hard sphere radius: 2.57003 bohrs
       Positions in reference frame:
         [ +0.000000 +0.000000 +0.000000 ]
     Initializing site 'H'
       Electron density: proportional to exp(-r/0.34641)*erfc((r-0)/0.390882) with norm 0.587
       Charge density: gaussian nuclear width 0.377945 with net site charge -0.413
       Polarizability: cuspless exponential with width 0.39 and norm 3.3
       Positions in reference frame:
         [ +0.000000 -1.441945 +1.122523 ]
         [ +0.000000 +1.441945 +1.122523 ]
     Net charge: 0   dipole magnitude: 0.927204
     Initializing spherical shell mfKernel with radius 2.61727 Bohr
     deltaS corrections:
       site 'O': -7.54299
       site 'H': -6.83917
   Initializing fluid molecule 'Na+'
     Initializing site 'Na'
       Electron density: proportional to exp(-r/0.19682)*erfc((r-0.71491)/0.41314) with norm 8.1383
       Charge density: gaussian nuclear width 0.365347 with net site charge -1
       Hard sphere radius: 1.86327 bohrs
       Positions in reference frame:
         [ +0.000000 +0.000000 +0.000000 ]
     Net charge: -1   dipole magnitude: 0
     Initializing gaussian mfKernel with width: 1.55004 Bohr
     deltaS corrections:
       site 'Na': -22.3555
   Initializing fluid molecule 'F-'
     Initializing site 'F'
       Electron density: proportional to exp(-r/0.38886)*erfc((r-0)/0.438782) with norm 8
       Charge density: gaussian nuclear width 0.374796 with net site charge 1
       Hard sphere radius: 2.39995 bohrs
       Positions in reference frame:
         [ +0.000000 +0.000000 +0.000000 ]
     Net charge: 1   dipole magnitude: 0
     Initializing gaussian mfKernel with width: 1.59012 Bohr
     deltaS corrections:
       site 'F': -9.04335

Correction to mu due to finite nuclear width = -0.0166915
   Cavity determined by nc: 0.00142 and sigma: 0.707107
   Nonlocal vdW cavity from gaussian model electron density with norm = 8 and sigma = 0.993594 bohr
   Charge asymmetry in cavity with sensitivity pCavity = 36.5 e-bohr/Eh
   Electrostatic cavity expanded by eta = 1.46 bohrs
   Weighted density cavitation model constrained by Nbulk: 0.0049383 bohr^-3, Pvap: 3.14029 kPa, Rvdw: 2.61727 bohr and sigmaBulk: 4.62e-05 Eh/bohr^2 at T: 298 K.
   Weighted density dispersion model using vdW pair potentials with single solvent site with sqrtC6eff: 0.77 SI.
Reading fluid state from 'NbTe2.fluidState'


---- Citations for features of the code used in this run ----

   Software package:
      R. Sundararaman, K. Letchworth-Weaver, K.A. Schwarz, D. Gunceler, Y. Ozhabes and T.A. Arias, 'JDFTx: software for joint density-functional theory', SoftwareX 6, 278 (2017)

   gga-PBE exchange-correlation functional:
      J.P. Perdew, K. Burke and M. Ernzerhof, Phys. Rev. Lett. 77, 3865 (1996)

   Pseudopotentials:
      KF Garrity, JW Bennett, KM Rabe and D Vanderbilt, Comput. Mater. Sci. 81, 446 (2014)

   Truncated Coulomb potentials:
      R. Sundararaman and T.A. Arias, Phys. Rev. B 87, 165122 (2013)

   Van der Waals correction pair-potentials:
      S. Grimme, J. Comput. Chem. 27, 1787 (2006)

   Charge-asymmetric nonlocally-determined local-electric (CANDLE) solvation model:
      R. Sundararaman and W.A. Goddard III, J. Chem. Phys. 142, 064107 (2015)

   Total energy minimization with Auxiliary Hamiltonian:
      C. Freysoldt, S. Boeck, and J. Neugebauer, Phys. Rev. B 79, 241103(R) (2009)

   Grand-canonical (fixed-potential) DFT:
      R. Sundararaman, W. A. Goddard III and T. A. Arias, J. Chem. Phys. 146, 114104 (2017)

This list may not be complete. Please suggest additional citations or
report any other bugs at https://github.com/shankar1729/jdftx/issues

Initialization completed successfully at t[s]:     23.56

Shifting auxilliary hamiltonian by -0.073305 to set nElectrons=503.971746
	Linear fluid (dielectric constant: 78.4, screening length: 5.74355 Bohr) occupying 0.633887 of unit cell:	Completed after 16 iterations at t[s]:     29.06

-------- Electronic minimization -----------
	Linear fluid (dielectric constant: 78.4, screening length: 5.74355 Bohr) occupying 0.633887 of unit cell:	Completed after 0 iterations at t[s]:     33.96
	FillingsUpdate:  mu: -0.244750400  nElectrons: 503.971746
ElecMinimize: Iter:   0  G: -1831.670656272912083  |grad|_K:  5.084e-05  alpha:  1.000e+00
	Linear fluid (dielectric constant: 78.4, screening length: 5.74355 Bohr) occupying 0.638721 of unit cell:	Completed after 400 iterations at t[s]:     79.62
	Linear fluid (dielectric constant: 78.4, screening length: 5.74355 Bohr) occupying 0.633889 of unit cell:	Completed after 32 iterations at t[s]:     90.28
	FillingsUpdate:  mu: -0.244750400  nElectrons: 503.928951
	SubspaceRotationAdjust: set factor to 0.5
ElecMinimize: Iter:   1  G: -1831.673694771211331  |grad|_K:  4.169e-05  alpha:  3.546e-03  linmin: -9.046e-02  t[s]:     99.55
	Linear fluid (dielectric constant: 78.4, screening length: 5.74355 Bohr) occupying 0.633894 of unit cell:	Completed after 18 iterations at t[s]:    108.96
ElecMinimize: 	Predicted alpha/alphaT>3.000000, increasing alphaT to 1.063757e-02.
	Linear fluid (dielectric constant: 78.4, screening length: 5.74355 Bohr) occupying 0.633902 of unit cell:	Completed after 20 iterations at t[s]:    117.60
	Linear fluid (dielectric constant: 78.4, screening length: 5.74355 Bohr) occupying 0.633903 of unit cell:	Completed after 14 iterations at t[s]:    126.02
	FillingsUpdate:  mu: -0.244750400  nElectrons: 503.731557
	SubspaceRotationAdjust: set factor to 0.266
ElecMinimize: Iter:   2  G: -1831.679965231798633  |grad|_K:  1.900e-05  alpha:  1.105e-02  linmin:  1.490e-04  t[s]:    135.28
	Linear fluid (dielectric constant: 78.4, screening length: 5.74355 Bohr) occupying 0.633918 of unit cell:	Completed after 18 iterations at t[s]:    144.81
ElecMinimize: 	Predicted alpha/alphaT>3.000000, increasing alphaT to 3.313900e-02.
	Linear fluid (dielectric constant: 78.4, screening length: 5.74355 Bohr) occupying 0.633948 of unit cell:	Completed after 19 iterations at t[s]:    153.60
	Linear fluid (dielectric constant: 78.4, screening length: 5.74355 Bohr) occupying 0.634014 of unit cell:	Completed after 21 iterations at t[s]:    162.50
	FillingsUpdate:  mu: -0.244750400  nElectrons: 503.449902
	SubspaceRotationAdjust: set factor to 0.144
ElecMinimize: Iter:   3  G: -1831.685613185618649  |grad|_K:  2.548e-05  alpha:  8.283e-02  linmin: -8.159e-04  t[s]:    171.82
	Linear fluid (dielectric constant: 78.4, screening length: 5.74355 Bohr) occupying 0.634307 of unit cell:	Completed after 23 iterations at t[s]:    181.65
	Linear fluid (dielectric constant: 78.4, screening length: 5.74355 Bohr) occupying 0.634400 of unit cell:	Completed after 20 iterations at t[s]:    190.45
	FillingsUpdate:  mu: -0.244750400  nElectrons: 503.084334
	SubspaceRotationAdjust: set factor to 0.184
ElecMinimize: Iter:   4  G: -1831.699780812749395  |grad|_K:  9.095e-06  alpha:  1.096e-01  linmin: -8.157e-05  t[s]:    199.82
	Linear fluid (dielectric constant: 78.4, screening length: 5.74355 Bohr) occupying 0.634580 of unit cell:	Completed after 20 iterations at t[s]:    209.50
	Linear fluid (dielectric constant: 78.4, screening length: 5.74355 Bohr) occupying 0.634743 of unit cell:	Completed after 21 iterations at t[s]:    218.50
	FillingsUpdate:  mu: -0.244750400  nElectrons: 503.068975
	SubspaceRotationAdjust: set factor to 0.121
	SubspaceRotationAdjust: resetting CG because factor has changed by 0.120923
	Linear fluid (dielectric constant: 78.4, screening length: 5.74355 Bohr) occupying 0.634743 of unit cell:	Completed after 0 iterations at t[s]:    231.77
ElecMinimize: 	State modified externally: resetting search direction.
ElecMinimize: Iter:   5  G: -1831.702898335984628  |grad|_K:  1.061e-05  alpha:  2.079e-01
	Linear fluid (dielectric constant: 78.4, screening length: 5.74355 Bohr) occupying 0.634941 of unit cell:	Completed after 22 iterations at t[s]:    250.88
	Linear fluid (dielectric constant: 78.4, screening length: 5.74355 Bohr) occupying 0.634907 of unit cell:	Completed after 18 iterations at t[s]:    259.72
	FillingsUpdate:  mu: -0.244750400  nElectrons: 502.984910
	SubspaceRotationAdjust: set factor to 0.126
ElecMinimize: Iter:   6  G: -1831.706394148015306  |grad|_K:  7.439e-06  alpha:  1.716e-01  linmin:  2.560e-04  t[s]:    269.44
	Linear fluid (dielectric constant: 78.4, screening length: 5.74355 Bohr) occupying 0.635172 of unit cell:	Completed after 21 iterations at t[s]:    279.78
ElecMinimize: 	Predicted alpha/alphaT>3.000000, increasing alphaT to 5.149090e-01.
	Linear fluid (dielectric constant: 78.4, screening length: 5.74355 Bohr) occupying 0.635704 of unit cell:	Completed after 23 iterations at t[s]:    289.15
	Linear fluid (dielectric constant: 78.4, screening length: 5.74355 Bohr) occupying 0.635788 of unit cell:	Completed after 20 iterations at t[s]:    298.33
	FillingsUpdate:  mu: -0.244750400  nElectrons: 503.042845
	SubspaceRotationAdjust: set factor to 0.0909
ElecMinimize: Iter:   7  G: -1831.712034898997217  |grad|_K:  3.252e-06  alpha:  5.692e-01  linmin: -1.932e-04  t[s]:    308.29
	Linear fluid (dielectric constant: 78.4, screening length: 5.74355 Bohr) occupying 0.636224 of unit cell:	Completed after 21 iterations at t[s]:    318.83
	Linear fluid (dielectric constant: 78.4, screening length: 5.74355 Bohr) occupying 0.636763 of unit cell:	Completed after 21 iterations at t[s]:    328.15
	FillingsUpdate:  mu: -0.244750400  nElectrons: 502.953005
	SubspaceRotationAdjust: set factor to 0.0784
ElecMinimize: Iter:   8  G: -1831.714511550106408  |grad|_K:  3.192e-06  alpha:  1.288e+00  linmin: -1.566e-04  t[s]:    338.18
	Linear fluid (dielectric constant: 78.4, screening length: 5.74355 Bohr) occupying 0.637743 of unit cell:	Completed after 22 iterations at t[s]:    348.32
	Linear fluid (dielectric constant: 78.4, screening length: 5.74355 Bohr) occupying 0.637024 of unit cell:	Completed after 21 iterations at t[s]:    357.56
	FillingsUpdate:  mu: -0.244750400  nElectrons: 502.878064
	SubspaceRotationAdjust: set factor to 0.0599
ElecMinimize: Iter:   9  G: -1831.715174912365910  |grad|_K:  3.019e-06  alpha:  3.327e-01  linmin: -6.836e-04  t[s]:    367.37
	Linear fluid (dielectric constant: 78.4, screening length: 5.74355 Bohr) occupying 0.637273 of unit cell:	Completed after 21 iterations at t[s]:    377.38
	Linear fluid (dielectric constant: 78.4, screening length: 5.74355 Bohr) occupying 0.637512 of unit cell:	Completed after 20 iterations at t[s]:    386.61
	FillingsUpdate:  mu: -0.244750400  nElectrons: 502.801753
	SubspaceRotationAdjust: set factor to 0.0918
ElecMinimize: Iter:  10  G: -1831.716333525916752  |grad|_K:  1.637e-06  alpha:  6.613e-01  linmin: -2.029e-05  t[s]:    396.51
	Linear fluid (dielectric constant: 78.4, screening length: 5.74355 Bohr) occupying 0.637603 of unit cell:	Completed after 18 iterations at t[s]:    406.39
	Linear fluid (dielectric constant: 78.4, screening length: 5.74355 Bohr) occupying 0.637605 of unit cell:	Completed after 3 iterations at t[s]:    414.57
	FillingsUpdate:  mu: -0.244750400  nElectrons: 502.777324
	SubspaceRotationAdjust: set factor to 0.0937
ElecMinimize: Iter:  11  G: -1831.716661446851276  |grad|_K:  1.599e-06  alpha:  6.777e-01  linmin: -6.979e-06  t[s]:    424.79
	Linear fluid (dielectric constant: 78.4, screening length: 5.74355 Bohr) occupying 0.637647 of unit cell:	Completed after 19 iterations at t[s]:    435.29
	Linear fluid (dielectric constant: 78.4, screening length: 5.74355 Bohr) occupying 0.637626 of unit cell:	Completed after 18 iterations at t[s]:    444.69
	FillingsUpdate:  mu: -0.244750400  nElectrons: 502.743155
	SubspaceRotationAdjust: set factor to 0.0657
ElecMinimize: Iter:  12  G: -1831.716813902384274  |grad|_K:  1.359e-06  alpha:  3.255e-01  linmin: -6.503e-05  t[s]:    455.11
	Linear fluid (dielectric constant: 78.4, screening length: 5.74355 Bohr) occupying 0.637638 of unit cell:	Completed after 18 iterations at t[s]:    465.29
	Linear fluid (dielectric constant: 78.4, screening length: 5.74355 Bohr) occupying 0.637640 of unit cell:	Completed after 40 iterations at t[s]:    476.08
	FillingsUpdate:  mu: -0.244750400  nElectrons: 502.734542
	SubspaceRotationAdjust: set factor to 0.068
ElecMinimize: Iter:  13  G: -1831.716902635604129  |grad|_K:  7.941e-07  alpha:  3.821e-01  linmin: -5.368e-05  t[s]:    486.83
	Linear fluid (dielectric constant: 78.4, screening length: 5.74355 Bohr) occupying 0.637645 of unit cell:	Completed after 3 iterations at t[s]:    496.49
	Linear fluid (dielectric constant: 78.4, screening length: 5.74355 Bohr) occupying 0.637655 of unit cell:	Completed after 6 iterations at t[s]:    505.03
	FillingsUpdate:  mu: -0.244750400  nElectrons: 502.718479
	SubspaceRotationAdjust: set factor to 0.0825
ElecMinimize: Iter:  14  G: -1831.717026397957170  |grad|_K:  5.378e-07  alpha:  1.083e+00  linmin: -1.694e-05  t[s]:    515.73
	Linear fluid (dielectric constant: 78.4, screening length: 5.74355 Bohr) occupying 0.637681 of unit cell:	Completed after 15 iterations at t[s]:    527.32
	Linear fluid (dielectric constant: 78.4, screening length: 5.74355 Bohr) occupying 0.637674 of unit cell:	Completed after 14 iterations at t[s]:    536.53
	FillingsUpdate:  mu: -0.244750400  nElectrons: 502.706621
	SubspaceRotationAdjust: set factor to 0.0534
ElecMinimize: Iter:  15  G: -1831.717067669621429  |grad|_K:  7.044e-07  alpha:  7.851e-01  linmin:  1.151e-04  t[s]:    546.74
	Linear fluid (dielectric constant: 78.4, screening length: 5.74355 Bohr) occupying 0.637726 of unit cell:	Completed after 18 iterations at t[s]:    556.62
	Linear fluid (dielectric constant: 78.4, screening length: 5.74355 Bohr) occupying 0.637695 of unit cell:	Completed after 17 iterations at t[s]:    565.62
	FillingsUpdate:  mu: -0.244750400  nElectrons: 502.709593
	SubspaceRotationAdjust: set factor to 0.035
ElecMinimize: Iter:  16  G: -1831.717095597078014  |grad|_K:  3.859e-07  alpha:  3.150e-01  linmin:  2.162e-05  t[s]:    575.41
	Linear fluid (dielectric constant: 78.4, screening length: 5.74355 Bohr) occupying 0.637703 of unit cell:	Completed after 3 iterations at t[s]:    584.28
	Linear fluid (dielectric constant: 78.4, screening length: 5.74355 Bohr) occupying 0.637714 of unit cell:	Completed after 2 iterations at t[s]:    592.19
	FillingsUpdate:  mu: -0.244750400  nElectrons: 502.707237
	SubspaceRotationAdjust: set factor to 0.0486
ElecMinimize: Iter:  17  G: -1831.717116566294862  |grad|_K:  3.049e-07  alpha:  7.721e-01  linmin: -3.297e-04  t[s]:    602.45
	Linear fluid (dielectric constant: 78.4, screening length: 5.74355 Bohr) occupying 0.637724 of unit cell:	Completed after 13 iterations at t[s]:    612.18
	Linear fluid (dielectric constant: 78.4, screening length: 5.74355 Bohr) occupying 0.637722 of unit cell:	Completed after 3 iterations at t[s]:    620.41
	FillingsUpdate:  mu: -0.244750400  nElectrons: 502.703764
	SubspaceRotationAdjust: set factor to 0.0457
ElecMinimize: Iter:  18  G: -1831.717127554856688  |grad|_K:  2.701e-07  alpha:  6.437e-01  linmin:  3.485e-04  t[s]:    631.14
	Linear fluid (dielectric constant: 78.4, screening length: 5.74355 Bohr) occupying 0.637729 of unit cell:	Completed after 13 iterations at t[s]:    642.52
	Linear fluid (dielectric constant: 78.4, screening length: 5.74355 Bohr) occupying 0.637729 of unit cell:	Completed after 0 iterations at t[s]:    650.79
	FillingsUpdate:  mu: -0.244750400  nElectrons: 502.705388
	SubspaceRotationAdjust: set factor to 0.0385
ElecMinimize: Iter:  19  G: -1831.717135592803970  |grad|_K:  2.437e-07  alpha:  6.252e-01  linmin: -5.124e-04  t[s]:    661.32
	Linear fluid (dielectric constant: 78.4, screening length: 5.74355 Bohr) occupying 0.637733 of unit cell:	Completed after 13 iterations at t[s]:    672.39
	Linear fluid (dielectric constant: 78.4, screening length: 5.74355 Bohr) occupying 0.637733 of unit cell:	Completed after 0 iterations at t[s]:    680.37
	FillingsUpdate:  mu: -0.244750400  nElectrons: 502.703455
	SubspaceRotationAdjust: set factor to 0.0442
ElecMinimize: Iter:  20  G: -1831.717142269553960  |grad|_K:  2.011e-07  alpha:  6.050e-01  linmin: -1.039e-04  t[s]:    690.56
	Linear fluid (dielectric constant: 78.4, screening length: 5.74355 Bohr) occupying 0.637734 of unit cell:	Completed after 4 iterations at t[s]:    699.86
	Linear fluid (dielectric constant: 78.4, screening length: 5.74355 Bohr) occupying 0.637736 of unit cell:	Completed after 9 iterations at t[s]:    709.02
	FillingsUpdate:  mu: -0.244750400  nElectrons: 502.701509
	SubspaceRotationAdjust: set factor to 0.0477
ElecMinimize: Iter:  21  G: -1831.717149625066895  |grad|_K:  1.899e-07  alpha:  1.048e+00  linmin:  5.452e-04  t[s]:    719.42
	Linear fluid (dielectric constant: 78.4, screening length: 5.74355 Bohr) occupying 0.637740 of unit cell:	Completed after 14 iterations at t[s]:    730.47
	Linear fluid (dielectric constant: 78.4, screening length: 5.74355 Bohr) occupying 0.637739 of unit cell:	Completed after 9 iterations at t[s]:    739.49
	FillingsUpdate:  mu: -0.244750400  nElectrons: 502.703524
	SubspaceRotationAdjust: set factor to 0.0363
ElecMinimize: Iter:  22  G: -1831.717153730671043  |grad|_K:  1.854e-07  alpha:  6.460e-01  linmin:  2.911e-04  t[s]:    750.12
	Linear fluid (dielectric constant: 78.4, screening length: 5.74355 Bohr) occupying 0.637739 of unit cell:	Completed after 9 iterations at t[s]:    760.05
	Linear fluid (dielectric constant: 78.4, screening length: 5.74355 Bohr) occupying 0.637739 of unit cell:	Completed after 0 iterations at t[s]:    768.15
	FillingsUpdate:  mu: -0.244750400  nElectrons: 502.702096
	SubspaceRotationAdjust: set factor to 0.0382
ElecMinimize: Iter:  23  G: -1831.717157640044434  |grad|_K:  1.030e-07  alpha:  6.468e-01  linmin: -2.156e-04  t[s]:    778.75
	Linear fluid (dielectric constant: 78.4, screening length: 5.74355 Bohr) occupying 0.637739 of unit cell:	Completed after 3 iterations at t[s]:    789.17
	Linear fluid (dielectric constant: 78.4, screening length: 5.74355 Bohr) occupying 0.637739 of unit cell:	Completed after 8 iterations at t[s]:    798.50
	FillingsUpdate:  mu: -0.244750400  nElectrons: 502.701791
	SubspaceRotationAdjust: set factor to 0.0374
ElecMinimize: Iter:  24  G: -1831.717159721427379  |grad|_K:  9.973e-08  alpha:  1.135e+00  linmin:  4.697e-04  t[s]:    808.90
	Linear fluid (dielectric constant: 78.4, screening length: 5.74355 Bohr) occupying 0.637740 of unit cell:	Completed after 12 iterations at t[s]:    819.12
	Linear fluid (dielectric constant: 78.4, screening length: 5.74355 Bohr) occupying 0.637739 of unit cell:	Completed after 8 iterations at t[s]:    827.79
	FillingsUpdate:  mu: -0.244750400  nElectrons: 502.703274
	SubspaceRotationAdjust: set factor to 0.0265
ElecMinimize: Iter:  25  G: -1831.717160748982224  |grad|_K:  6.979e-08  alpha:  5.623e-01  linmin:  5.335e-04  t[s]:    838.02
	Linear fluid (dielectric constant: 78.4, screening length: 5.74355 Bohr) occupying 0.637738 of unit cell:	Completed after 2 iterations at t[s]:    846.88
	Linear fluid (dielectric constant: 78.4, screening length: 5.74355 Bohr) occupying 0.637738 of unit cell:	Completed after 0 iterations at t[s]:    854.74
	FillingsUpdate:  mu: -0.244750400  nElectrons: 502.703305
	SubspaceRotationAdjust: set factor to 0.0397
ElecMinimize: Iter:  26  G: -1831.717161470652627  |grad|_K:  5.230e-08  alpha:  8.072e-01  linmin: -1.564e-03  t[s]:    865.56
	Linear fluid (dielectric constant: 78.4, screening length: 5.74355 Bohr) occupying 0.637737 of unit cell:	Completed after 9 iterations at t[s]:    876.73
	Linear fluid (dielectric constant: 78.4, screening length: 5.74355 Bohr) occupying 0.637738 of unit cell:	Completed after 0 iterations at t[s]:    885.15
	FillingsUpdate:  mu: -0.244750400  nElectrons: 502.703037
	SubspaceRotationAdjust: set factor to 0.0337
ElecMinimize: Iter:  27  G: -1831.717161677106560  |grad|_K:  9.916e-08  alpha:  3.580e-01  linmin:  1.844e-03  t[s]:    895.72
	Linear fluid (dielectric constant: 78.4, screening length: 5.74355 Bohr) occupying 0.637736 of unit cell:	Completed after 2 iterations at t[s]:    904.94
	Linear fluid (dielectric constant: 78.4, screening length: 5.74355 Bohr) occupying 0.637737 of unit cell:	Completed after 3 iterations at t[s]:    913.19
ElecMinimize: 	Step increased G by 9.410314e-09, reducing alpha to 9.975060e-03.
	Linear fluid (dielectric constant: 78.4, screening length: 5.74355 Bohr) occupying 0.637738 of unit cell:	Completed after 0 iterations at t[s]:    931.88
ElecMinimize: 	Step increased G by 6.755022e-08, reducing alpha to 9.975060e-04.
	Linear fluid (dielectric constant: 78.4, screening length: 5.74355 Bohr) occupying 0.637738 of unit cell:	Completed after 0 iterations at t[s]:    949.60
ElecMinimize: 	Step increased G by 7.927542e-08, reducing alpha to 9.975060e-05.
ElecMinimize: 	Step failed to reduce G after 3 attempts. Quitting step.
ElecMinimize: 	Undoing step.
	Linear fluid (dielectric constant: 78.4, screening length: 5.74355 Bohr) occupying 0.637738 of unit cell:	Completed after 0 iterations at t[s]:    968.41
ElecMinimize: 	Step failed: resetting search direction.
	FillingsUpdate:  mu: -0.244750400  nElectrons: 502.703038
	SubspaceRotationAdjust: set factor to 0.0277
ElecMinimize: Iter:  28  G: -1831.717161597651284  |grad|_K:  7.979e-08  alpha:  9.975e-05
	Linear fluid (dielectric constant: 78.4, screening length: 5.74355 Bohr) occupying 0.637738 of unit cell:	Completed after 8 iterations at t[s]:    989.79
	Linear fluid (dielectric constant: 78.4, screening length: 5.74355 Bohr) occupying 0.637738 of unit cell:	Completed after 0 iterations at t[s]:    997.80
	FillingsUpdate:  mu: -0.244750400  nElectrons: 502.703519
	SubspaceRotationAdjust: set factor to 0.0143
	SubspaceRotationAdjust: resetting CG because factor has changed by 0.11819
	Linear fluid (dielectric constant: 78.4, screening length: 5.74355 Bohr) occupying 0.637738 of unit cell:	Completed after 0 iterations at t[s]:   1012.24
ElecMinimize: 	State modified externally: resetting search direction.
ElecMinimize: Iter:  29  G: -1831.717161768933693  |grad|_K:  3.539e-08  alpha:  2.014e-01
	Linear fluid (dielectric constant: 78.4, screening length: 5.74355 Bohr) occupying 0.637738 of unit cell:	Completed after 0 iterations at t[s]:   1031.14
ElecMinimize: 	Predicted alpha/alphaT>3.000000, increasing alphaT to 6.042542e-01.
	Linear fluid (dielectric constant: 78.4, screening length: 5.74355 Bohr) occupying 0.637739 of unit cell:	Completed after 3 iterations at t[s]:   1039.08
	Linear fluid (dielectric constant: 78.4, screening length: 5.74355 Bohr) occupying 0.637738 of unit cell:	Completed after 0 iterations at t[s]:   1046.86
	FillingsUpdate:  mu: -0.244750400  nElectrons: 502.703396
	SubspaceRotationAdjust: set factor to 0.025
ElecMinimize: Iter:  30  G: -1831.717161779177559  |grad|_K:  2.114e-08  alpha:  3.311e-01  linmin: -4.865e-03  t[s]:   1057.16
	Linear fluid (dielectric constant: 78.4, screening length: 5.74355 Bohr) occupying 0.637738 of unit cell:	Completed after 0 iterations at t[s]:   1067.16
ElecMinimize: 	Predicted alpha/alphaT>3.000000, increasing alphaT to 9.932987e-01.
	Linear fluid (dielectric constant: 78.4, screening length: 5.74355 Bohr) occupying 0.637738 of unit cell:	Completed after 2 iterations at t[s]:   1075.12
	Linear fluid (dielectric constant: 78.4, screening length: 5.74355 Bohr) occupying 0.637738 of unit cell:	Completed after 0 iterations at t[s]:   1082.98
	FillingsUpdate:  mu: -0.244750400  nElectrons: 502.703330
	SubspaceRotationAdjust: set factor to 0.0299
ElecMinimize: Iter:  31  G: -1831.717161830191799  |grad|_K:  2.109e-08  alpha:  6.988e-01  linmin: -1.779e-03  t[s]:   1093.46
	Linear fluid (dielectric constant: 78.4, screening length: 5.74355 Bohr) occupying 0.637738 of unit cell:	Completed after 0 iterations at t[s]:   1102.38
	Linear fluid (dielectric constant: 78.4, screening length: 5.74355 Bohr) occupying 0.637738 of unit cell:	Completed after 0 iterations at t[s]:   1110.72
	FillingsUpdate:  mu: -0.244750400  nElectrons: 502.703338
	SubspaceRotationAdjust: set factor to 0.0391
ElecMinimize: Iter:  32  G: -1831.717161874483281  |grad|_K:  2.159e-08  alpha:  5.139e-01  linmin: -2.957e-04  t[s]:   1121.09
	Linear fluid (dielectric constant: 78.4, screening length: 5.74355 Bohr) occupying 0.637738 of unit cell:	Completed after 0 iterations at t[s]:   1130.13
	Linear fluid (dielectric constant: 78.4, screening length: 5.74355 Bohr) occupying 0.637737 of unit cell:	Completed after 2 iterations at t[s]:   1138.19
	FillingsUpdate:  mu: -0.244750400  nElectrons: 502.703472
	SubspaceRotationAdjust: set factor to 0.0473
ElecMinimize: Iter:  33  G: -1831.717161907491345  |grad|_K:  2.654e-08  alpha:  8.434e-01  linmin:  3.154e-04  t[s]:   1148.58
	Linear fluid (dielectric constant: 78.4, screening length: 5.74355 Bohr) occupying 0.637737 of unit cell:	Completed after 0 iterations at t[s]:   1157.68
	Linear fluid (dielectric constant: 78.4, screening length: 5.74355 Bohr) occupying 0.637737 of unit cell:	Completed after 0 iterations at t[s]:   1165.89
	FillingsUpdate:  mu: -0.244750400  nElectrons: 502.703768
	SubspaceRotationAdjust: set factor to 0.0547
ElecMinimize: Iter:  34  G: -1831.717161970904499  |grad|_K:  3.067e-08  alpha:  6.223e-01  linmin:  5.456e-05  t[s]:   1176.28
	Linear fluid (dielectric constant: 78.4, screening length: 5.74355 Bohr) occupying 0.637736 of unit cell:	Completed after 2 iterations at t[s]:   1185.41
	Linear fluid (dielectric constant: 78.4, screening length: 5.74355 Bohr) occupying 0.637736 of unit cell:	Completed after 0 iterations at t[s]:   1193.61
	FillingsUpdate:  mu: -0.244750400  nElectrons: 502.704069
	SubspaceRotationAdjust: set factor to 0.0594
ElecMinimize: Iter:  35  G: -1831.717162021254808  |grad|_K:  3.466e-08  alpha:  3.393e-01  linmin:  8.778e-05  t[s]:   1204.10
	Linear fluid (dielectric constant: 78.4, screening length: 5.74355 Bohr) occupying 0.637736 of unit cell:	Completed after 0 iterations at t[s]:   1213.14
	Linear fluid (dielectric constant: 78.4, screening length: 5.74355 Bohr) occupying 0.637736 of unit cell:	Completed after 0 iterations at t[s]:   1221.67
	FillingsUpdate:  mu: -0.244750400  nElectrons: 502.704677
	SubspaceRotationAdjust: set factor to 0.0639
ElecMinimize: Iter:  36  G: -1831.717162117708540  |grad|_K:  3.486e-08  alpha:  4.841e-01  linmin: -4.756e-05  t[s]:   1232.09
	Linear fluid (dielectric constant: 78.4, screening length: 5.74355 Bohr) occupying 0.637737 of unit cell:	Completed after 3 iterations at t[s]:   1241.39
	Linear fluid (dielectric constant: 78.4, screening length: 5.74355 Bohr) occupying 0.637736 of unit cell:	Completed after 0 iterations at t[s]:   1249.98
	FillingsUpdate:  mu: -0.244750400  nElectrons: 502.704938
	SubspaceRotationAdjust: set factor to 0.0664
ElecMinimize: Iter:  37  G: -1831.717162142182588  |grad|_K:  3.447e-08  alpha:  1.931e-01  linmin:  1.709e-04  t[s]:   1260.39
	Linear fluid (dielectric constant: 78.4, screening length: 5.74355 Bohr) occupying 0.637737 of unit cell:	Completed after 0 iterations at t[s]:   1269.18
	Linear fluid (dielectric constant: 78.4, screening length: 5.74355 Bohr) occupying 0.637737 of unit cell:	Completed after 0 iterations at t[s]:   1277.07
	FillingsUpdate:  mu: -0.244750400  nElectrons: 502.705076
	SubspaceRotationAdjust: set factor to 0.0852
ElecMinimize: Iter:  38  G: -1831.717162181634876  |grad|_K:  3.205e-08  alpha:  2.261e-01  linmin: -1.655e-04  t[s]:   1286.93
	Linear fluid (dielectric constant: 78.4, screening length: 5.74355 Bohr) occupying 0.637737 of unit cell:	Completed after 0 iterations at t[s]:   1299.88
	Linear fluid (dielectric constant: 78.4, screening length: 5.74355 Bohr) occupying 0.637737 of unit cell:	Completed after 0 iterations at t[s]:   1307.37
	FillingsUpdate:  mu: -0.244750400  nElectrons: 502.704994
	SubspaceRotationAdjust: set factor to 0.113
	SubspaceRotationAdjust: resetting CG because factor has changed by 7.88194
	Linear fluid (dielectric constant: 78.4, screening length: 5.74355 Bohr) occupying 0.637737 of unit cell:	Completed after 0 iterations at t[s]:   1330.90
ElecMinimize: 	State modified externally: resetting search direction.
ElecMinimize: Iter:  39  G: -1831.717162265610341  |grad|_K:  3.199e-08  alpha:  3.542e-01
	Linear fluid (dielectric constant: 78.4, screening length: 5.74355 Bohr) occupying 0.637737 of unit cell:	Completed after 2 iterations at t[s]:   1356.84
	Linear fluid (dielectric constant: 78.4, screening length: 5.74355 Bohr) occupying 0.637737 of unit cell:	Completed after 0 iterations at t[s]:   1365.06
ElecMinimize: 	Step increased G by 5.597713e-09, reducing alpha to 2.040333e-02.
	Linear fluid (dielectric constant: 78.4, screening length: 5.74355 Bohr) occupying 0.637737 of unit cell:	Completed after 0 iterations at t[s]:   1381.72
ElecMinimize: 	Step increased G by 4.107392e-08, reducing alpha to 2.040333e-03.
	Linear fluid (dielectric constant: 78.4, screening length: 5.74355 Bohr) occupying 0.637737 of unit cell:	Completed after 0 iterations at t[s]:   1398.40
ElecMinimize: 	Step increased G by 4.501840e-08, reducing alpha to 2.040333e-04.
ElecMinimize: 	Step failed to reduce G after 3 attempts. Quitting step.
ElecMinimize: 	Undoing step.
	Linear fluid (dielectric constant: 78.4, screening length: 5.74355 Bohr) occupying 0.637737 of unit cell:	Completed after 0 iterations at t[s]:   1415.62
ElecMinimize: 	Step failed along negative gradient direction.
ElecMinimize: Probably at roundoff error limit. (Stopping)
Setting wave functions to eigenvectors of Hamiltonian

# Ionic positions in lattice coordinates:
ion Bi   0.333347514104370   0.166695028208743   0.525049303559665 0
ion Bi   0.833347514104370   0.166695028208743   0.525049303559665 0
ion Bi   0.333347514104370   0.666695028208743   0.525049303559665 0
ion Bi   0.833347514104370   0.666695028208743   0.525049303559665 0
ion Bi   0.166651213099459   0.333302426198919   0.474901216381536 0
ion Bi   0.666651213099459   0.333302426198919   0.474901216381536 0
ion Bi   0.166651213099459   0.833302426198919   0.474901216381536 0
ion Bi   0.666651213099459   0.833302426198919   0.474901216381536 0
ion Bi   0.333329339554221   0.166658679108444   0.359011163343079 0
ion Bi   0.833329339554221   0.166658679108444   0.359011163343079 0
ion Bi   0.333329339554221   0.666658679108444   0.359011163343079 0
ion Bi   0.833329339554221   0.666658679108444   0.359011163343079 0
ion Bi   0.166669638534848   0.333339277069697   0.640969298984328 0
ion Bi   0.666669638534848   0.333339277069697   0.640969298984328 0
ion Bi   0.166669638534848   0.833339277069697   0.640969298984328 0
ion Bi   0.666669638534848   0.833339277069697   0.640969298984328 0
ion Bi   0.000003099299273   0.000006198598548   0.253285293065889 0
ion Bi   0.500003099299273   0.000006198598548   0.253285293065889 0
ion Bi   0.000003099299273   0.500006198598548   0.253285293065889 0
ion Bi   0.500003099299273   0.500006198598548   0.253285293065889 0
ion Bi   0.999995092917920   0.999990185835841   0.746749162446836 0
ion Bi   0.499995092917920   0.999990185835841   0.746749162446836 0
ion Bi   0.999995092917920   0.499990185835841   0.746749162446836 0
ion Bi   0.499995092917920   0.499990185835841   0.746749162446836 0
ion Se   0.000015994451075   0.000031988902151   0.402541410442493 0
ion Se   0.500015994451075   0.000031988902151   0.402541410442493 0
ion Se   0.000015994451075   0.500031988902151   0.402541410442493 0
ion Se   0.500015994451075   0.500031988902151   0.402541410442493 0
ion Se   0.999975911355857   0.999951822711715   0.597435105480047 0
ion Se   0.499975911355857   0.999951822711715   0.597435105480047 0
ion Se   0.999975911355857   0.499951822711715   0.597435105480047 0
ion Se   0.499975911355857   0.499951822711715   0.597435105480047 0
ion Se   0.333349692394367   0.166699384788735   0.692934093505612 0
ion Se   0.833349692394367   0.166699384788735   0.692934093505612 0
ion Se   0.333349692394367   0.666699384788735   0.692934093505612 0
ion Se   0.833349692394367   0.666699384788735   0.692934093505612 0
ion Se   0.166658611119678   0.333317222239359   0.307080690783032 0
ion Se   0.666658611119678   0.333317222239359   0.307080690783032 0
ion Se   0.166658611119678   0.833317222239359   0.307080690783032 0
ion Se   0.666658611119678   0.833317222239359   0.307080690783032 0
ion Se   0.333325219127274   0.166650438254550   0.211065782437280 0
ion Se   0.833325219127274   0.166650438254550   0.211065782437280 0
ion Se   0.333325219127274   0.666650438254550   0.211065782437280 0
ion Se   0.833325219127274   0.666650438254550   0.211065782437280 0
ion Se   0.166678674041644   0.333357348083290   0.788977479570193 0
ion Se   0.666678674041644   0.333357348083290   0.788977479570193 0
ion Se   0.166678674041644   0.833357348083290   0.788977479570193 0
ion Se   0.666678674041644   0.833357348083290   0.788977479570193 0


# Forces in Lattice coordinates:
force Bi   0.000000000000000  -0.008766330228616   0.244339494467418 0
force Bi   0.000000000000000  -0.008766330228616   0.244339494467418 0
force Bi   0.000000000000000  -0.008766330228616   0.244339494467418 0
force Bi   0.000000000000000  -0.008766330228616   0.244339494467418 0
force Bi   0.000000000000000   0.008919053728508  -0.242300177131320 0
force Bi   0.000000000000000   0.008919053728508  -0.242300177131318 0
force Bi  -0.000000000000000   0.008919053728508  -0.242300177131092 0
force Bi   0.000000000000000   0.008919053728508  -0.242300177131090 0
force Bi   0.000000000000000   0.005176627658895  -0.356884345014594 0
force Bi   0.000000000000000   0.005176627658895  -0.356884345014595 0
force Bi  -0.000000000000000   0.005176627658895  -0.356884345014594 0
force Bi   0.000000000000000   0.005176627658895  -0.356884345014594 0
force Bi   0.000000000000000  -0.005477863971959   0.362042940385524 0
force Bi   0.000000000000000  -0.005477863971959   0.362042940385524 0
force Bi   0.000000000000000  -0.005477863971959   0.362042940385524 0
force Bi   0.000000000000000  -0.005477863971959   0.362042940385525 0
force Bi   0.000000000000000  -0.004726209478423  -0.501852028364063 0
force Bi   0.000000000000000  -0.004726209478423  -0.501852028364970 0
force Bi   0.000000000000000  -0.004726209478423  -0.501852028364059 0
force Bi  -0.000000000000000  -0.004726209478423  -0.501852028364972 0
force Bi  -0.000000000000000   0.004820006112075   0.499043077434120 0
force Bi   0.000000000000000   0.004820006112075   0.499043077435029 0
force Bi   0.000000000000000   0.004820006112075   0.499043077434118 0
force Bi  -0.000000000000000   0.004820006112075   0.499043077433210 0
force Se   0.000000000000000   0.000466065708082   0.246818965563519 0
force Se  -0.000000000000000   0.000466065708082   0.246818965563746 0
force Se  -0.000000000000000   0.000466065708082   0.246818965563293 0
force Se   0.000000000000000   0.000466065708082   0.246818965563519 0
force Se   0.000000000000000  -0.000306709901624  -0.245073047546574 0
force Se   0.000000000000000  -0.000306709901624  -0.245073047546575 0
force Se  -0.000000000000000  -0.000306709901624  -0.245073047546575 0
force Se  -0.000000000000000  -0.000306709901624  -0.245073047546574 0
force Se   0.000000000000000  -0.000276998949028  -0.448851314358529 0
force Se  -0.000000000000000  -0.000276998949028  -0.448851314358529 0
force Se  -0.000000000000000  -0.000276998949028  -0.448851314358529 0
force Se  -0.000000000000000  -0.000276998949028  -0.448851314358529 0
force Se  -0.000000000000000   0.000157308629341   0.446698855973600 0
force Se   0.000000000000000   0.000157308629341   0.446698855974054 0
force Se   0.000000000000000   0.000157308629341   0.446698855974509 0
force Se   0.000000000000000   0.000157308629341   0.446698855974509 0
force Se  -0.000000000000000   0.000207257046823   0.084600854613509 0
force Se  -0.000000000000000   0.000207257046823   0.084600854613509 0
force Se  -0.000000000000000   0.000207257046823   0.084600854613054 0
force Se  -0.000000000000000   0.000207257046823   0.084600854613509 0
force Se  -0.000000000000000  -0.000242897650828  -0.087231518378893 0
force Se   0.000000000000000  -0.000242897650828  -0.087231518378436 0
force Se   0.000000000000000  -0.000242897650828  -0.087231518378889 0
force Se  -0.000000000000000  -0.000242897650828  -0.087231518378436 0

# Energy components:
   A_diel =        0.0266072978707915
   Eewald =    37823.8257308794563869
       EH =    39442.9043675038556103
     Eloc =   -79732.8594613566674525
      Enl =      606.7517098735615946
      Exc =    -1131.2190755315400565
 Exc_core =      792.0389680676209991
       KE =      243.7719549980035652
  MuShift =        0.0216156120638878
-------------------------------------
     Etot =    -1954.7375826557749861
       TS =        0.0168273107165743
-------------------------------------
        F =    -1954.7544099664914938
      muN =     -123.0372477459917633
-------------------------------------
        G =    -1831.7171622204996311

IonicMinimize: Iter:   0  G: -1831.717162220499631  |grad|_K:  0.000e+00  t[s]:   1432.47
IonicMinimize: Converged (|grad|_K<1.000000e-04).

#--- Lowdin population analysis ---
# oxidation-state Bi +0.135 +0.135 +0.135 +0.135 +0.135 +0.135 +0.135 +0.135 +0.706 +0.706 +0.706 +0.706 +0.706 +0.706 +0.706 +0.706 +0.705 +0.705 +0.705 +0.705 +0.705 +0.705 +0.705 +0.705
# oxidation-state Se -0.433 -0.433 -0.433 -0.433 -0.433 -0.433 -0.433 -0.433 -0.557 -0.557 -0.557 -0.557 -0.557 -0.557 -0.557 -0.557 -0.200 -0.200 -0.200 -0.200 -0.200 -0.200 -0.200 -0.200


Dumping 'NbTe2.fillings' ... done
Dumping 'NbTe2.wfns' ... done
Dumping 'NbTe2.fluidState' ... done
Dumping 'NbTe2.eigenvals' ... done
End date and time: Tue Jul 14 11:47:53 2020  (Duration: 0-0:23:56.95)
Done!
