
*************** JDFTx 1.5.0  ***************

Start date and time: Tue Jul 14 09:46:42 2020
Executable jdftx_gpu with command-line: -i Neutral.in -o Neutral.out
Running on hosts (process indices):  amax (0-3)
Divided in process groups (process indices):  0 (0)  1 (1)  2 (2)  3 (3)
gpuInit: Found compatible cuda device 0 'Tesla K80'
gpuInit: Found compatible cuda device 1 'Tesla K80'
gpuInit: Found compatible cuda device 2 'Tesla K80'
gpuInit: Found compatible cuda device 3 'Tesla K80'
gpuInit: Selected device 0
Resource initialization completed at t[s]:     15.28
Run totals: 4 processes, 24 threads, 4 GPUs


Input parsed successfully to the following command list (including defaults):

basis kpoint-dependent
cache-projectors no
coords-type Lattice
core-overlap-check none
coulomb-interaction Slab 001
coulomb-truncation-embed 0 0 0.5
davidson-band-ratio 1.1
dump End State
dump-name NbTe2.$VAR
elec-cutoff 20 100
elec-eigen-algo Davidson
elec-ex-corr gga-PBE
elec-smearing Gauss 0.0073499
electronic-minimize  \
	dirUpdateScheme      FletcherReeves \
	linminMethod         DirUpdateRecommended \
	nIterations          500 \
	history              15 \
	knormThreshold       0 \
	energyDiffThreshold  1e-08 \
	nEnergyDiff          2 \
	alphaTstart          1 \
	alphaTmin            1e-10 \
	updateTestStepSize   yes \
	alphaTreduceFactor   0.1 \
	alphaTincreaseFactor 3 \
	nAlphaAdjustMax      3 \
	wolfeEnergy          0.0001 \
	wolfeGradient        0.9 \
	fdTest               no
exchange-regularization WignerSeitzTruncated
fluid LinearPCM 298.000000 1.013250
fluid-anion F- 1 MeanFieldLJ \
	epsBulk 1 \
	pMol 0 \
	epsInf 1 \
	Pvap 0 \
	sigmaBulk 0 \
	Rvdw 2.24877 \
	Res 0 \
	tauNuc 343133
fluid-cation Na+ 1 MeanFieldLJ \
	epsBulk 1 \
	pMol 0 \
	epsInf 1 \
	Pvap 0 \
	sigmaBulk 0 \
	Rvdw 2.19208 \
	Res 0 \
	tauNuc 343133
fluid-ex-corr lda-TF lda-PZ
fluid-gummel-loop 10 1.000000e-05
fluid-minimize  \
	dirUpdateScheme      PolakRibiere \
	linminMethod         DirUpdateRecommended \
	nIterations          400 \
	history              15 \
	knormThreshold       1e-11 \
	energyDiffThreshold  0 \
	nEnergyDiff          2 \
	alphaTstart          1 \
	alphaTmin            1e-10 \
	updateTestStepSize   yes \
	alphaTreduceFactor   0.1 \
	alphaTincreaseFactor 3 \
	nAlphaAdjustMax      6 \
	wolfeEnergy          0.0001 \
	wolfeGradient        0.9 \
	fdTest               no
fluid-solvent H2O 55.338 ScalarEOS \
	epsBulk 78.4 \
	pMol 0.92466 \
	epsInf 1.77 \
	Pvap 1.06736e-10 \
	sigmaBulk 4.62e-05 \
	Rvdw 2.61727 \
	Res 1.42 \
	tauNuc 343133 \
	poleEl 15 7 1
forces-output-coords Positions
initial-state NbTe2.$VAR
ion Bi   0.333347507135699   0.166695028208743   0.525049303559665 0
ion Bi   0.833347507135699   0.166695028208743   0.525049303559665 0
ion Bi   0.333347507135699   0.666695028208743   0.525049303559665 0
ion Bi   0.833347507135699   0.666695028208743   0.525049303559665 0
ion Bi   0.166651226765559   0.333302426198919   0.474901216381536 0
ion Bi   0.666651226765559   0.333302426198919   0.474901216381536 0
ion Bi   0.166651226765559   0.833302426198919   0.474901216381536 0
ion Bi   0.666651226765559   0.833302426198919   0.474901216381536 0
ion Bi   0.333329352933440   0.166658679108444   0.359011163343079 0
ion Bi   0.833329352933440   0.166658679108444   0.359011163343079 0
ion Bi   0.333329352933440   0.666658679108444   0.359011163343079 0
ion Bi   0.833329352933440   0.666658679108444   0.359011163343079 0
ion Bi   0.166669634239952   0.333339277069698   0.640969298984328 0
ion Bi   0.666669634239952   0.333339277069698   0.640969298984328 0
ion Bi   0.166669634239952   0.833339277069697   0.640969298984328 0
ion Bi   0.666669634239952   0.833339277069697   0.640969298984328 0
ion Bi   0.000003126079115   0.000006198598548   0.253285293065889 0
ion Bi   0.500003126079115   0.000006198598548   0.253285293065889 0
ion Bi   0.000003126079115   0.500006198598548   0.253285293065889 0
ion Bi   0.500003126079115   0.500006198598548   0.253285293065889 0
ion Bi   0.999995053005136   0.999990185835841   0.746749162446836 0
ion Bi   0.499995053005137   0.999990185835841   0.746749162446836 0
ion Bi   0.999995053005136   0.499990185835841   0.746749162446836 0
ion Bi   0.499995053005137   0.499990185835841   0.746749162446836 0
ion Se   0.000016017827384   0.000031988902151   0.402541410442493 0
ion Se   0.500016017827384   0.000031988902151   0.402541410442493 0
ion Se   0.000016017827384   0.500031988902151   0.402541410442493 0
ion Se   0.500016017827384   0.500031988902151   0.402541410442493 0
ion Se   0.999975893136359   0.999951822711715   0.597435105480047 0
ion Se   0.499975893136359   0.999951822711715   0.597435105480047 0
ion Se   0.999975893136359   0.499951822711715   0.597435105480047 0
ion Se   0.499975893136359   0.499951822711715   0.597435105480047 0
ion Se   0.333349679676743   0.166699384788735   0.692934093505612 0
ion Se   0.833349679676743   0.166699384788735   0.692934093505612 0
ion Se   0.333349679676743   0.666699384788735   0.692934093505612 0
ion Se   0.833349679676743   0.666699384788735   0.692934093505612 0
ion Se   0.166658621548599   0.333317222239359   0.307080690783032 0
ion Se   0.666658621548599   0.333317222239359   0.307080690783032 0
ion Se   0.166658621548599   0.833317222239359   0.307080690783032 0
ion Se   0.666658621548599   0.833317222239359   0.307080690783032 0
ion Se   0.333325217464036   0.166650438254550   0.211065782437280 0
ion Se   0.833325217464036   0.166650438254550   0.211065782437280 0
ion Se   0.333325217464036   0.666650438254550   0.211065782437280 0
ion Se   0.833325217464036   0.666650438254550   0.211065782437280 0
ion Se   0.166678670187963   0.333357348083290   0.788977479570193 0
ion Se   0.666678670187963   0.333357348083290   0.788977479570193 0
ion Se   0.166678670187963   0.833357348083290   0.788977479570193 0
ion Se   0.666678670187963   0.833357348083290   0.788977479570193 0
ion-species GBRV/$ID_pbe.uspp
ion-width Ecut
ionic-minimize  \
	dirUpdateScheme      L-BFGS \
	linminMethod         DirUpdateRecommended \
	nIterations          0 \
	history              15 \
	knormThreshold       0.0001 \
	energyDiffThreshold  1e-06 \
	nEnergyDiff          2 \
	alphaTstart          1 \
	alphaTmin            1e-10 \
	updateTestStepSize   yes \
	alphaTreduceFactor   0.1 \
	alphaTincreaseFactor 3 \
	nAlphaAdjustMax      3 \
	wolfeEnergy          0.0001 \
	wolfeGradient        0.9 \
	fdTest               no
kpoint   0.000000000000   0.000000000000   0.000000000000  1.00000000000000
kpoint-folding 5 5 1 
latt-move-scale 1 1 1
latt-scale 1 1 1 
lattice Triclinic 15.9479 15.9488 68.004 90 90 119.998
lattice-minimize  \
	dirUpdateScheme      L-BFGS \
	linminMethod         DirUpdateRecommended \
	nIterations          0 \
	history              15 \
	knormThreshold       0 \
	energyDiffThreshold  1e-06 \
	nEnergyDiff          2 \
	alphaTstart          1 \
	alphaTmin            1e-10 \
	updateTestStepSize   yes \
	alphaTreduceFactor   0.1 \
	alphaTincreaseFactor 3 \
	nAlphaAdjustMax      3 \
	wolfeEnergy          0.0001 \
	wolfeGradient        0.9 \
	fdTest               no
lcao-params -1 1e-06 0.0073499
pcm-variant CANDLE
spintype no-spin
subspace-rotation-factor 1 yes
symmetries automatic
symmetry-threshold 0.0001



---------- Setting up symmetries ----------

Found 24 point-group symmetries of the bravais lattice
Found 8 space-group symmetries with basis
Applied RMS atom displacement 2.87855e-07 bohrs to make symmetries exact.

---------- Initializing the Grid ----------
R = 
[    15.9479   -7.97396          0  ]
[          0    13.8123          0  ]
[          0          0     68.004  ]
unit cell volume = 14979.8
G =
[   0.393981   0.227449         -0  ]
[          0   0.454897          0  ]
[          0         -0  0.0923943  ]
Minimum fftbox size, Smin = [  72  72  308  ]
Chosen fftbox size, S = [  72  72  320  ]

---------- Initializing tighter grid for wavefunction operations ----------
R = 
[    15.9479   -7.97396          0  ]
[          0    13.8123          0  ]
[          0          0     68.004  ]
unit cell volume = 14979.8
G =
[   0.393981   0.227449         -0  ]
[          0   0.454897          0  ]
[          0         -0  0.0923943  ]
Minimum fftbox size, Smin = [  68  68  276  ]
Chosen fftbox size, S = [  70  70  280  ]

---------- Exchange Correlation functional ----------
Initalized PBE GGA exchange.
Initalized PBE GGA correlation.

---------- Setting up pseudopotentials ----------
Width of ionic core gaussian charges (only for fluid interactions / plotting) set to 0.397384

Reading pseudopotential file '/home/guoxy/vasp/jdftx-1.5.0/build/pseudopotentials/GBRV/bi_pbe.uspp':
  Title: Bi.  Created by USPP 7.3.6 on 14-9-2013
  Reference state energy: -92.204004.  15 valence electrons in orbitals:
    |520>  occupation: 10  eigenvalue: -1.293263
    |600>  occupation: 2  eigenvalue: -0.812524
    |610>  occupation: 2  eigenvalue: -0.420386
  lMax: 2  lLocal: 3  QijEcut: 5
  6 projectors sampled on a log grid with 747 points:
    l: 0  eig: -0.812524  rCut: 2.5
    l: 0  eig: 0.500000  rCut: 2.5
    l: 1  eig: -0.420386  rCut: 2.5
    l: 1  eig: 1.000000  rCut: 2.5
    l: 2  eig: -1.293263  rCut: 2.3
    l: 2  eig: -0.500000  rCut: 2.3
  Partial core density with radius 1
  Transforming core density to a uniform radial grid of dG=0.02 with 1605 points.
  Transforming local potential to a uniform radial grid of dG=0.02 with 1605 points.
  Transforming nonlocal projectors to a uniform radial grid of dG=0.02 with 432 points.
  Transforming density augmentations to a uniform radial grid of dG=0.02 with 1605 points.
  Transforming atomic orbitals to a uniform radial grid of dG=0.02 with 432 points.
  Core radius for overlap checks: 2.50 bohrs.

Reading pseudopotential file '/home/guoxy/vasp/jdftx-1.5.0/build/pseudopotentials/GBRV/se_pbe.uspp':
  Title: Se.  Created by USPP 7.3.6 on 14-9-2013
  Reference state energy: -21.672887.  6 valence electrons in orbitals:
    |400>  occupation: 2  eigenvalue: -0.635284
    |410>  occupation: 4  eigenvalue: -0.239295
  lMax: 2  lLocal: 3  QijEcut: 5
  6 projectors sampled on a log grid with 625 points:
    l: 0  eig: -0.635278  rCut: 1.5
    l: 0  eig: 0.500000  rCut: 1.5
    l: 1  eig: -0.239295  rCut: 1.5
    l: 1  eig: 0.500000  rCut: 1.5
    l: 2  eig: 0.000000  rCut: 1.8
    l: 2  eig: 1.000000  rCut: 1.8
  Partial core density with radius 1.2
  Transforming core density to a uniform radial grid of dG=0.02 with 1605 points.
  Transforming local potential to a uniform radial grid of dG=0.02 with 1605 points.
  Transforming nonlocal projectors to a uniform radial grid of dG=0.02 with 432 points.
  Transforming density augmentations to a uniform radial grid of dG=0.02 with 1605 points.
  Transforming atomic orbitals to a uniform radial grid of dG=0.02 with 432 points.
  Core radius for overlap checks: 1.80 bohrs.

Initialized 2 species with 48 total atoms.

Folded 1 k-points by 5x5x1 to 25 k-points.

---------- Setting up k-points, bands, fillings ----------
Adding inversion symmetry to k-mesh for non-inversion-symmetric unit cell.
Reduced to 9 k-points under symmetry. 
Computing the number of bands and number of electrons
Calculating initial fillings.
nElectrons: 504.000000   nBands: 312   nStates: 9

----- Setting up reduced wavefunction bases (one per k-point) -----
average nbasis = 64007.320 , ideal nbasis = 63994.731

---------- Setting up coulomb interaction ----------
Fluid mode embedding: using embedded box, but periodic Coulomb kernel.
(Fluid response is responsible for (approximate) separation between periodic images.)
Setting up double-sized grid for truncated Coulomb potentials:
R = 
[    15.9479   -7.97396          0  ]
[          0    13.8123          0  ]
[          0          0    136.008  ]
unit cell volume = 29959.5
G =
[   0.393981   0.227449         -0  ]
[          0   0.454897          0  ]
[          0         -0  0.0461972  ]
Chosen fftbox size, S = [  72  72  640  ]
Integer grid location selected as the embedding center:
   Grid: [  0  0  160  ]
   Lattice: [  0  0  0.5  ]
   Cartesian: [  0  0  34.002  ]
Constructing Wigner-Seitz cell: 8 faces (6 quadrilaterals, 2 hexagons)
Range-separation parameter for embedded mesh potentials due to point charges: 0.593756 bohrs.

Initializing van der Waals corrections
	NOTE: vdW corrections apply only for interactions with fluid.
	Bi:  C6:  893.28 Eh-a0^6  R0: 3.555 a0 (WARNING: beyond Grimme's data set)
	Se:  C6:  219.24 Eh-a0^6  R0: 3.347 a0

---------- Setting up ewald sum ----------
Optimum gaussian width for ewald sums = 6.499525 bohr.
Real space sum over 845 unit cells with max indices [  6  6  2  ]
Reciprocal space sum over 8107 terms with max indices [  5  5  33  ]

---------- Allocating electronic variables ----------
Initializing wave functions:  linear combination of atomic orbitals
Bi pseudo-atom occupations:   s ( 2 )  p ( 3 )  d ( 10 )
Se pseudo-atom occupations:   s ( 2 )  p ( 4 )
	FillingsUpdate:  mu: -0.150202344  nElectrons: 504.000000
LCAOMinimize: Iter:   0  F: -1951.8596783463055999  |grad|_K:  4.223e-03  alpha:  1.000e+00
	FillingsUpdate:  mu: -0.197132054  nElectrons: 504.000000
LCAOMinimize: Iter:   1  F: -1952.9998201791122483  |grad|_K:  2.850e-03  alpha:  9.355e-02  linmin: -1.740e-01  cgtest:  5.539e-01  t[s]:     63.11
	FillingsUpdate:  mu: +0.133728811  nElectrons: 504.000000
LCAOMinimize: Iter:   2  F: -1953.5485520046079273  |grad|_K:  2.753e-03  alpha:  1.595e-01  linmin:  6.918e-02  cgtest: -3.089e-01  t[s]:     77.32
	FillingsUpdate:  mu: +0.164575698  nElectrons: 504.000000
LCAOMinimize: Iter:   3  F: -1953.6632487801998650  |grad|_K:  2.842e-03  alpha:  5.068e-02  linmin: -8.204e-03  cgtest:  8.396e-01  t[s]:     91.59
	FillingsUpdate:  mu: -0.062149276  nElectrons: 504.000000
LCAOMinimize: Iter:   4  F: -1953.8927255576354582  |grad|_K:  1.756e-03  alpha:  6.836e-02  linmin:  5.474e-02  cgtest: -2.215e-01  t[s]:    105.72
	FillingsUpdate:  mu: -0.101960971  nElectrons: 504.000000
LCAOMinimize: Iter:   5  F: -1953.9677612506297919  |grad|_K:  1.548e-03  alpha:  7.750e-02  linmin:  6.597e-03  cgtest:  7.513e-01  t[s]:    119.98
	FillingsUpdate:  mu: -0.037341906  nElectrons: 504.000000
LCAOMinimize: Iter:   6  F: -1954.0144658224371597  |grad|_K:  3.094e-04  alpha:  4.598e-02  linmin:  9.324e-03  cgtest: -1.132e-01  t[s]:    134.36
LCAOMinimize: 	Predicted alpha/alphaT>3.000000, increasing alphaT to 1.379265e-01.
	FillingsUpdate:  mu: -0.021637236  nElectrons: 504.000000
LCAOMinimize: Iter:   7  F: -1954.0233810658280618  |grad|_K:  2.282e-04  alpha:  2.160e-01  linmin:  9.221e-03  cgtest:  1.089e-01  t[s]:    152.69
	FillingsUpdate:  mu: -0.038980661  nElectrons: 504.000000
LCAOMinimize: Iter:   8  F: -1954.0252931229088063  |grad|_K:  1.658e-04  alpha:  8.196e-02  linmin: -6.933e-03  cgtest:  6.439e-02  t[s]:    166.96
	FillingsUpdate:  mu: -0.034562547  nElectrons: 504.000000
LCAOMinimize: Iter:   9  F: -1954.0263904419882692  |grad|_K:  4.101e-05  alpha:  8.836e-02  linmin: -1.807e-03  cgtest: -1.379e-01  t[s]:    181.32
	FillingsUpdate:  mu: -0.033736105  nElectrons: 504.000000
LCAOMinimize: Iter:  10  F: -1954.0264321131073757  |grad|_K:  3.186e-05  alpha:  5.608e-02  linmin:  4.986e-05  cgtest: -4.554e-03  t[s]:    195.57
	FillingsUpdate:  mu: -0.033292732  nElectrons: 504.000000
LCAOMinimize: Iter:  11  F: -1954.0265052145898608  |grad|_K:  1.294e-05  alpha:  1.638e-01  linmin:  2.138e-03  cgtest:  1.547e-02  t[s]:    209.87
	FillingsUpdate:  mu: -0.032646474  nElectrons: 504.000000
LCAOMinimize: Iter:  12  F: -1954.0265132080028252  |grad|_K:  1.538e-05  alpha:  1.089e-01  linmin:  9.111e-07  cgtest:  2.809e-03  t[s]:    224.18
	FillingsUpdate:  mu: -0.032919647  nElectrons: 504.000000
LCAOMinimize: Iter:  13  F: -1954.0265240454987179  |grad|_K:  1.143e-05  alpha:  1.039e-01  linmin: -2.707e-05  cgtest: -6.432e-03  t[s]:    238.44
	FillingsUpdate:  mu: -0.033629634  nElectrons: 504.000000
LCAOMinimize: Iter:  14  F: -1954.0265287818538127  |grad|_K:  8.872e-06  alpha:  8.225e-02  linmin:  4.162e-05  cgtest: -1.200e-03  t[s]:    252.71
	FillingsUpdate:  mu: -0.033020035  nElectrons: 504.000000
LCAOMinimize: Iter:  15  F: -1954.0265325280458910  |grad|_K:  2.479e-06  alpha:  1.080e-01  linmin:  7.781e-05  cgtest:  4.835e-03  t[s]:    267.03
	FillingsUpdate:  mu: -0.033031357  nElectrons: 504.000000
LCAOMinimize: Iter:  16  F: -1954.0265326950334384  |grad|_K:  2.177e-06  alpha:  6.166e-02  linmin: -8.939e-06  cgtest:  2.833e-04  t[s]:    281.49
	FillingsUpdate:  mu: -0.033115434  nElectrons: 504.000000
LCAOMinimize: Iter:  17  F: -1954.0265330004272073  |grad|_K:  9.856e-07  alpha:  1.460e-01  linmin: -3.574e-04  cgtest:  1.429e-03  t[s]:    311.20
LCAOMinimize: Converged (|Delta F|<1.000000e-06 for 2 iters).
----- createFluidSolver() ----- (Fluid-side solver setup)
   Initializing fluid molecule 'H2O'
     Initializing site 'O'
       Electron density: proportional to exp(-r/0.36935)*erfc((r-0.51523)/0.36823) with norm 6.826
       Charge density: gaussian nuclear width 0.478731 with net site charge 0.826
       Polarizability: cuspless exponential with width 0.32 and norm 3.73
       Hard sphere radius: 2.57003 bohrs
       Positions in reference frame:
         [ +0.000000 +0.000000 +0.000000 ]
     Initializing site 'H'
       Electron density: proportional to exp(-r/0.34641)*erfc((r-0)/0.390882) with norm 0.587
       Charge density: gaussian nuclear width 0.377945 with net site charge -0.413
       Polarizability: cuspless exponential with width 0.39 and norm 3.3
       Positions in reference frame:
         [ +0.000000 -1.441945 +1.122523 ]
         [ +0.000000 +1.441945 +1.122523 ]
     Net charge: 0   dipole magnitude: 0.927204
     Initializing spherical shell mfKernel with radius 2.61727 Bohr
     deltaS corrections:
       site 'O': -7.54299
       site 'H': -6.83917
   Initializing fluid molecule 'Na+'
     Initializing site 'Na'
       Electron density: proportional to exp(-r/0.19682)*erfc((r-0.71491)/0.41314) with norm 8.1383
       Charge density: gaussian nuclear width 0.365347 with net site charge -1
       Hard sphere radius: 1.86327 bohrs
       Positions in reference frame:
         [ +0.000000 +0.000000 +0.000000 ]
     Net charge: -1   dipole magnitude: 0
     Initializing gaussian mfKernel with width: 1.55004 Bohr
     deltaS corrections:
       site 'Na': -22.3555
   Initializing fluid molecule 'F-'
     Initializing site 'F'
       Electron density: proportional to exp(-r/0.38886)*erfc((r-0)/0.438782) with norm 8
       Charge density: gaussian nuclear width 0.374796 with net site charge 1
       Hard sphere radius: 2.39995 bohrs
       Positions in reference frame:
         [ +0.000000 +0.000000 +0.000000 ]
     Net charge: 1   dipole magnitude: 0
     Initializing gaussian mfKernel with width: 1.59012 Bohr
     deltaS corrections:
       site 'F': -9.04335

Correction to mu due to finite nuclear width = -0.0166915
   Cavity determined by nc: 0.00142 and sigma: 0.707107
   Nonlocal vdW cavity from gaussian model electron density with norm = 8 and sigma = 0.993594 bohr
   Charge asymmetry in cavity with sensitivity pCavity = 36.5 e-bohr/Eh
   Electrostatic cavity expanded by eta = 1.46 bohrs
   Weighted density cavitation model constrained by Nbulk: 0.0049383 bohr^-3, Pvap: 3.14029 kPa, Rvdw: 2.61727 bohr and sigmaBulk: 4.62e-05 Eh/bohr^2 at T: 298 K.
   Weighted density dispersion model using vdW pair potentials with single solvent site with sqrtC6eff: 0.77 SI.


---- Citations for features of the code used in this run ----

   Software package:
      R. Sundararaman, K. Letchworth-Weaver, K.A. Schwarz, D. Gunceler, Y. Ozhabes and T.A. Arias, 'JDFTx: software for joint density-functional theory', SoftwareX 6, 278 (2017)

   gga-PBE exchange-correlation functional:
      J.P. Perdew, K. Burke and M. Ernzerhof, Phys. Rev. Lett. 77, 3865 (1996)

   Pseudopotentials:
      KF Garrity, JW Bennett, KM Rabe and D Vanderbilt, Comput. Mater. Sci. 81, 446 (2014)

   Truncated Coulomb potentials:
      R. Sundararaman and T.A. Arias, Phys. Rev. B 87, 165122 (2013)

   Van der Waals correction pair-potentials:
      S. Grimme, J. Comput. Chem. 27, 1787 (2006)

   Charge-asymmetric nonlocally-determined local-electric (CANDLE) solvation model:
      R. Sundararaman and W.A. Goddard III, J. Chem. Phys. 142, 064107 (2015)

   Total energy minimization with Auxiliary Hamiltonian:
      C. Freysoldt, S. Boeck, and J. Neugebauer, Phys. Rev. B 79, 241103(R) (2009)

This list may not be complete. Please suggest additional citations or
report any other bugs at https://github.com/shankar1729/jdftx/issues

Initialization completed successfully at t[s]:    315.26

Fluid solver invoked on fresh (partially random / LCAO) wavefunctions
Running a vacuum solve first:

-------- Initial electronic minimization -----------
	FillingsUpdate:  mu: -0.033115434  nElectrons: 504.000000
ElecMinimize: Iter:   0  F: -1954.026533000429481  |grad|_K:  6.421e-05  alpha:  1.000e+00
	FillingsUpdate:  mu: -0.008661766  nElectrons: 504.000000
	SubspaceRotationAdjust: set factor to 1
ElecMinimize: Iter:   1  F: -1954.669025547320871  |grad|_K:  5.390e-05  alpha:  8.644e-01  linmin:  4.842e-06  t[s]:    353.23
	FillingsUpdate:  mu: -0.015799541  nElectrons: 504.000000
	SubspaceRotationAdjust: set factor to 0.702
ElecMinimize: Iter:   2  F: -1954.899736634606825  |grad|_K:  4.071e-05  alpha:  4.504e-01  linmin:  7.366e-05  t[s]:    376.94
	FillingsUpdate:  mu: -0.041341365  nElectrons: 504.000000
	SubspaceRotationAdjust: set factor to 0.575
ElecMinimize: Iter:   3  F: -1954.940979050081523  |grad|_K:  2.689e-05  alpha:  1.218e-01  linmin: -1.089e-03  t[s]:    401.06
	FillingsUpdate:  mu: +0.012174937  nElectrons: 504.000000
	SubspaceRotationAdjust: set factor to 0.382
ElecMinimize: Iter:   4  F: -1954.964547958124058  |grad|_K:  2.237e-05  alpha:  1.610e-01  linmin: -1.393e-04  t[s]:    424.82
	FillingsUpdate:  mu: -0.010775752  nElectrons: 504.000000
	SubspaceRotationAdjust: set factor to 0.266
ElecMinimize: Iter:   5  F: -1954.994869883164029  |grad|_K:  1.805e-05  alpha:  3.324e-01  linmin:  5.060e-05  t[s]:    448.56
	FillingsUpdate:  mu: -0.025382273  nElectrons: 504.000000
	SubspaceRotationAdjust: set factor to 0.214
ElecMinimize: Iter:   6  F: -1955.004449367473171  |grad|_K:  1.226e-05  alpha:  1.635e-01  linmin: -1.301e-05  t[s]:    472.28
	FillingsUpdate:  mu: -0.030409631  nElectrons: 504.000000
	SubspaceRotationAdjust: set factor to 0.245
ElecMinimize: Iter:   7  F: -1955.013995630115460  |grad|_K:  8.350e-06  alpha:  3.506e-01  linmin: -8.255e-06  t[s]:    496.06
	FillingsUpdate:  mu: -0.026777320  nElectrons: 504.000000
	SubspaceRotationAdjust: set factor to 0.183
ElecMinimize: Iter:   8  F: -1955.019175298077016  |grad|_K:  8.939e-06  alpha:  4.115e-01  linmin:  1.759e-06  t[s]:    519.90
	FillingsUpdate:  mu: -0.018425226  nElectrons: 504.000000
	SubspaceRotationAdjust: set factor to 0.199
ElecMinimize: Iter:   9  F: -1955.022685318851472  |grad|_K:  4.834e-06  alpha:  2.416e-01  linmin: -2.576e-05  t[s]:    543.67
	FillingsUpdate:  mu: -0.021150842  nElectrons: 504.000000
	SubspaceRotationAdjust: set factor to 0.204
ElecMinimize: Iter:  10  F: -1955.024373443733111  |grad|_K:  4.318e-06  alpha:  4.006e-01  linmin:  6.070e-05  t[s]:    567.67
	FillingsUpdate:  mu: -0.018650635  nElectrons: 504.000000
	SubspaceRotationAdjust: set factor to 0.188
ElecMinimize: Iter:  11  F: -1955.025435693712780  |grad|_K:  3.765e-06  alpha:  3.174e-01  linmin:  9.284e-06  t[s]:    591.64
	FillingsUpdate:  mu: -0.016160014  nElectrons: 504.000000
	SubspaceRotationAdjust: set factor to 0.245
ElecMinimize: Iter:  12  F: -1955.026357459548308  |grad|_K:  2.474e-06  alpha:  3.612e-01  linmin:  1.005e-06  t[s]:    622.55
	FillingsUpdate:  mu: -0.020239101  nElectrons: 504.000000
	SubspaceRotationAdjust: set factor to 0.213
ElecMinimize: Iter:  13  F: -1955.026720313845999  |grad|_K:  2.304e-06  alpha:  3.288e-01  linmin:  1.187e-05  t[s]:    646.37
	FillingsUpdate:  mu: -0.022465557  nElectrons: 504.000000
	SubspaceRotationAdjust: set factor to 0.191
ElecMinimize: Iter:  14  F: -1955.027035811267069  |grad|_K:  1.905e-06  alpha:  3.304e-01  linmin:  7.842e-06  t[s]:    670.31
	FillingsUpdate:  mu: -0.019088426  nElectrons: 504.000000
	SubspaceRotationAdjust: set factor to 0.242
ElecMinimize: Iter:  15  F: -1955.027257026983989  |grad|_K:  1.173e-06  alpha:  3.387e-01  linmin:  2.133e-06  t[s]:    694.22
	FillingsUpdate:  mu: -0.018578493  nElectrons: 504.000000
	SubspaceRotationAdjust: set factor to 0.214
ElecMinimize: Iter:  16  F: -1955.027347925214144  |grad|_K:  1.161e-06  alpha:  3.670e-01  linmin:  3.513e-06  t[s]:    718.08
	FillingsUpdate:  mu: -0.019384453  nElectrons: 504.000000
	SubspaceRotationAdjust: set factor to 0.172
ElecMinimize: Iter:  17  F: -1955.027419969474749  |grad|_K:  8.367e-07  alpha:  2.967e-01  linmin:  2.163e-06  t[s]:    741.86
	FillingsUpdate:  mu: -0.019248267  nElectrons: 504.000000
	SubspaceRotationAdjust: set factor to 0.216
ElecMinimize: Iter:  18  F: -1955.027479644567848  |grad|_K:  6.724e-07  alpha:  4.734e-01  linmin:  1.758e-07  t[s]:    765.58
	FillingsUpdate:  mu: -0.019096389  nElectrons: 504.000000
	SubspaceRotationAdjust: set factor to 0.178
ElecMinimize: Iter:  19  F: -1955.027513875752902  |grad|_K:  6.571e-07  alpha:  4.203e-01  linmin: -8.863e-07  t[s]:    789.44
	FillingsUpdate:  mu: -0.019502837  nElectrons: 504.000000
	SubspaceRotationAdjust: set factor to 0.164
ElecMinimize: Iter:  20  F: -1955.027540928876988  |grad|_K:  4.510e-07  alpha:  3.476e-01  linmin:  8.870e-09  t[s]:    813.53
	FillingsUpdate:  mu: -0.019548448  nElectrons: 504.000000
	SubspaceRotationAdjust: set factor to 0.175
ElecMinimize: Iter:  21  F: -1955.027563878758883  |grad|_K:  4.208e-07  alpha:  6.264e-01  linmin:  1.344e-07  t[s]:    837.66
	FillingsUpdate:  mu: -0.018823920  nElectrons: 504.000000
	SubspaceRotationAdjust: set factor to 0.159
ElecMinimize: Iter:  22  F: -1955.027580784155134  |grad|_K:  4.048e-07  alpha:  5.299e-01  linmin: -1.450e-07  t[s]:    862.02
	FillingsUpdate:  mu: -0.018861160  nElectrons: 504.000000
	SubspaceRotationAdjust: set factor to 0.148
ElecMinimize: Iter:  23  F: -1955.027595171357461  |grad|_K:  3.731e-07  alpha:  4.874e-01  linmin:  4.931e-08  t[s]:    897.21
	FillingsUpdate:  mu: -0.019520108  nElectrons: 504.000000
	SubspaceRotationAdjust: set factor to 0.143
ElecMinimize: Iter:  24  F: -1955.027607831744263  |grad|_K:  3.004e-07  alpha:  5.047e-01  linmin:  2.798e-07  t[s]:    928.62
	FillingsUpdate:  mu: -0.019412103  nElectrons: 504.000000
	SubspaceRotationAdjust: set factor to 0.147
ElecMinimize: Iter:  25  F: -1955.027618801551625  |grad|_K:  3.133e-07  alpha:  6.745e-01  linmin: -3.231e-07  t[s]:    954.87
	FillingsUpdate:  mu: -0.019188602  nElectrons: 504.000000
	SubspaceRotationAdjust: set factor to 0.135
	SubspaceRotationAdjust: resetting CG because factor has changed by 0.135268
ElecMinimize: 	State modified externally: resetting search direction.
ElecMinimize: Iter:  26  F: -1955.027627097507548  |grad|_K:  2.478e-07  alpha:  4.691e-01
	FillingsUpdate:  mu: -0.019404120  nElectrons: 504.000000
	SubspaceRotationAdjust: set factor to 0.122
ElecMinimize: Iter:  27  F: -1955.027632790388225  |grad|_K:  1.892e-07  alpha:  5.145e-01  linmin:  3.064e-06  t[s]:   1019.78
	FillingsUpdate:  mu: -0.019241676  nElectrons: 504.000000
	SubspaceRotationAdjust: set factor to 0.0887
ElecMinimize: Iter:  28  F: -1955.027636033454883  |grad|_K:  1.412e-07  alpha:  5.029e-01  linmin: -5.337e-07  t[s]:   1043.65
	FillingsUpdate:  mu: -0.019043178  nElectrons: 504.000000
	SubspaceRotationAdjust: set factor to 0.0829
ElecMinimize: Iter:  29  F: -1955.027639509061601  |grad|_K:  1.374e-07  alpha:  9.673e-01  linmin: -4.512e-07  t[s]:   1067.60
	FillingsUpdate:  mu: -0.019268780  nElectrons: 504.000000
	SubspaceRotationAdjust: set factor to 0.0894
ElecMinimize: Iter:  30  F: -1955.027641669066497  |grad|_K:  9.021e-08  alpha:  6.345e-01  linmin: -4.957e-08  t[s]:   1091.41
	FillingsUpdate:  mu: -0.019349394  nElectrons: 504.000000
	SubspaceRotationAdjust: set factor to 0.0801
ElecMinimize: Iter:  31  F: -1955.027643138495932  |grad|_K:  8.837e-08  alpha:  1.002e+00  linmin:  1.542e-07  t[s]:   1115.52
	FillingsUpdate:  mu: -0.019204749  nElectrons: 504.000000
	SubspaceRotationAdjust: set factor to 0.0592
ElecMinimize: Iter:  32  F: -1955.027644264487890  |grad|_K:  7.815e-08  alpha:  8.003e-01  linmin: -7.010e-08  t[s]:   1139.58
	FillingsUpdate:  mu: -0.019216567  nElectrons: 504.000000
	SubspaceRotationAdjust: set factor to 0.0642
ElecMinimize: Iter:  33  F: -1955.027645340813478  |grad|_K:  7.268e-08  alpha:  9.783e-01  linmin:  1.626e-07  t[s]:   1169.36
	FillingsUpdate:  mu: -0.019290323  nElectrons: 504.000000
	SubspaceRotationAdjust: set factor to 0.0614
ElecMinimize: Iter:  34  F: -1955.027646111541799  |grad|_K:  5.797e-08  alpha:  8.099e-01  linmin: -6.719e-08  t[s]:   1196.97
	FillingsUpdate:  mu: -0.019271652  nElectrons: 504.000000
	SubspaceRotationAdjust: set factor to 0.0578
ElecMinimize: Iter:  35  F: -1955.027646650767792  |grad|_K:  4.358e-08  alpha:  8.907e-01  linmin:  2.827e-07  t[s]:   1225.03
	FillingsUpdate:  mu: -0.019219642  nElectrons: 504.000000
	SubspaceRotationAdjust: set factor to 0.0622
ElecMinimize: Iter:  36  F: -1955.027647016699120  |grad|_K:  3.334e-08  alpha:  1.070e+00  linmin:  1.965e-06  t[s]:   1253.22
	FillingsUpdate:  mu: -0.019264236  nElectrons: 504.000000
	SubspaceRotationAdjust: set factor to 0.0662
ElecMinimize: Iter:  37  F: -1955.027647184700072  |grad|_K:  2.582e-08  alpha:  8.392e-01  linmin:  5.809e-07  t[s]:   1281.54
	FillingsUpdate:  mu: -0.019279416  nElectrons: 504.000000
	SubspaceRotationAdjust: set factor to 0.0756
ElecMinimize: Iter:  38  F: -1955.027647274006085  |grad|_K:  2.111e-08  alpha:  7.438e-01  linmin:  4.547e-08  t[s]:   1305.44
	FillingsUpdate:  mu: -0.019248052  nElectrons: 504.000000
	SubspaceRotationAdjust: set factor to 0.089
ElecMinimize: Iter:  39  F: -1955.027647347515995  |grad|_K:  1.481e-08  alpha:  9.160e-01  linmin:  2.798e-07  t[s]:   1329.26
	FillingsUpdate:  mu: -0.019263701  nElectrons: 504.000000
	SubspaceRotationAdjust: set factor to 0.0832
ElecMinimize: Iter:  40  F: -1955.027647387471916  |grad|_K:  1.512e-08  alpha:  1.013e+00  linmin:  5.981e-06  t[s]:   1353.35
	FillingsUpdate:  mu: -0.019265372  nElectrons: 504.000000
	SubspaceRotationAdjust: set factor to 0.0785
ElecMinimize: Iter:  41  F: -1955.027647417916114  |grad|_K:  1.092e-08  alpha:  7.403e-01  linmin: -4.343e-07  t[s]:   1377.80
	FillingsUpdate:  mu: -0.019238576  nElectrons: 504.000000
	SubspaceRotationAdjust: set factor to 0.0844
ElecMinimize: Iter:  42  F: -1955.027647442453826  |grad|_K:  9.649e-09  alpha:  1.138e+00  linmin: -3.784e-06  t[s]:   1402.39
	FillingsUpdate:  mu: -0.019256597  nElectrons: 504.000000
	SubspaceRotationAdjust: set factor to 0.087
ElecMinimize: Iter:  43  F: -1955.027647453914142  |grad|_K:  6.334e-09  alpha:  6.779e-01  linmin:  1.219e-06  t[s]:   1426.37
	FillingsUpdate:  mu: -0.019265471  nElectrons: 504.000000
	SubspaceRotationAdjust: set factor to 0.0797
ElecMinimize: Iter:  44  F: -1955.027647459709897  |grad|_K:  5.090e-09  alpha:  7.831e-01  linmin: -1.977e-05  t[s]:   1450.39
	FillingsUpdate:  mu: -0.019253522  nElectrons: 504.000000
	SubspaceRotationAdjust: set factor to 0.079
ElecMinimize: Iter:  45  F: -1955.027647463759877  |grad|_K:  3.280e-09  alpha:  8.337e-01  linmin: -4.971e-06  t[s]:   1474.51
ElecMinimize: Converged (|Delta F|<1.000000e-08 for 2 iters).
Setting wave functions to eigenvectors of Hamiltonian
Vacuum energy after initial minimize, F = -1955.027647463759877

	Linear fluid (dielectric constant: 78.4, screening length: 5.74355 Bohr) occupying 0.633475 of unit cell:	Completed after 25 iterations at t[s]:   1481.10

-------- Electronic minimization -----------
	Linear fluid (dielectric constant: 78.4, screening length: 5.74355 Bohr) occupying 0.633475 of unit cell:	Completed after 0 iterations at t[s]:   1486.09
	FillingsUpdate:  mu: -0.170964285  nElectrons: 504.000000
ElecMinimize: Iter:   0  F: -1955.022726027325689  |grad|_K:  3.845e-07  alpha:  1.000e+00
	Linear fluid (dielectric constant: 78.4, screening length: 5.74355 Bohr) occupying 0.633612 of unit cell:	Completed after 13 iterations at t[s]:   1506.07
	Linear fluid (dielectric constant: 78.4, screening length: 5.74355 Bohr) occupying 0.633723 of unit cell:	Completed after 11 iterations at t[s]:   1514.29
	FillingsUpdate:  mu: -0.169253347  nElectrons: 504.000000
	SubspaceRotationAdjust: set factor to 0.0739
ElecMinimize: Iter:   1  F: -1955.022774303863571  |grad|_K:  1.970e-07  alpha:  1.813e+00  linmin: -1.825e-07  t[s]:   1523.90
	Linear fluid (dielectric constant: 78.4, screening length: 5.74355 Bohr) occupying 0.633800 of unit cell:	Completed after 18 iterations at t[s]:   1533.61
	Linear fluid (dielectric constant: 78.4, screening length: 5.74355 Bohr) occupying 0.633758 of unit cell:	Completed after 13 iterations at t[s]:   1542.11
	FillingsUpdate:  mu: -0.170240266  nElectrons: 504.000000
	SubspaceRotationAdjust: set factor to 0.0519
ElecMinimize: Iter:   2  F: -1955.022780190624871  |grad|_K:  1.440e-07  alpha:  8.156e-01  linmin:  5.470e-07  t[s]:   1551.67
	Linear fluid (dielectric constant: 78.4, screening length: 5.74355 Bohr) occupying 0.633777 of unit cell:	Completed after 11 iterations at t[s]:   1560.83
	Linear fluid (dielectric constant: 78.4, screening length: 5.74355 Bohr) occupying 0.633778 of unit cell:	Completed after 0 iterations at t[s]:   1568.38
	FillingsUpdate:  mu: -0.169689732  nElectrons: 504.000000
	SubspaceRotationAdjust: set factor to 0.0601
ElecMinimize: Iter:   3  F: -1955.022783387880736  |grad|_K:  6.524e-08  alpha:  8.565e-01  linmin: -4.136e-06  t[s]:   1577.95
	Linear fluid (dielectric constant: 78.4, screening length: 5.74355 Bohr) occupying 0.633782 of unit cell:	Completed after 2 iterations at t[s]:   1586.62
	Linear fluid (dielectric constant: 78.4, screening length: 5.74355 Bohr) occupying 0.633783 of unit cell:	Completed after 0 iterations at t[s]:   1594.22
	FillingsUpdate:  mu: -0.169668460  nElectrons: 504.000000
	SubspaceRotationAdjust: set factor to 0.064
ElecMinimize: Iter:   4  F: -1955.022784181667021  |grad|_K:  5.807e-08  alpha:  9.747e-01  linmin: -9.721e-07  t[s]:   1603.77
	Linear fluid (dielectric constant: 78.4, screening length: 5.74355 Bohr) occupying 0.633787 of unit cell:	Completed after 3 iterations at t[s]:   1612.37
	Linear fluid (dielectric constant: 78.4, screening length: 5.74355 Bohr) occupying 0.633786 of unit cell:	Completed after 0 iterations at t[s]:   1619.84
	FillingsUpdate:  mu: -0.169613394  nElectrons: 504.000000
	SubspaceRotationAdjust: set factor to 0.0718
ElecMinimize: Iter:   5  F: -1955.022784625248960  |grad|_K:  4.054e-08  alpha:  6.806e-01  linmin:  1.812e-06  t[s]:   1629.35
	Linear fluid (dielectric constant: 78.4, screening length: 5.74355 Bohr) occupying 0.633787 of unit cell:	Completed after 2 iterations at t[s]:   1637.80
	Linear fluid (dielectric constant: 78.4, screening length: 5.74355 Bohr) occupying 0.633787 of unit cell:	Completed after 0 iterations at t[s]:   1645.33
	FillingsUpdate:  mu: -0.169594075  nElectrons: 504.000000
	SubspaceRotationAdjust: set factor to 0.0957
ElecMinimize: Iter:   6  F: -1955.022784756899910  |grad|_K:  2.809e-08  alpha:  5.576e-01  linmin: -4.349e-06  t[s]:   1654.79
	Linear fluid (dielectric constant: 78.4, screening length: 5.74355 Bohr) occupying 0.633788 of unit cell:	Completed after 0 iterations at t[s]:   1663.19
	Linear fluid (dielectric constant: 78.4, screening length: 5.74355 Bohr) occupying 0.633789 of unit cell:	Completed after 2 iterations at t[s]:   1670.98
	FillingsUpdate:  mu: -0.169611838  nElectrons: 504.000000
	SubspaceRotationAdjust: set factor to 0.104
ElecMinimize: Iter:   7  F: -1955.022784903147340  |grad|_K:  3.877e-08  alpha:  1.419e+00  linmin:  2.270e-06  t[s]:   1680.45
	Linear fluid (dielectric constant: 78.4, screening length: 5.74355 Bohr) occupying 0.633791 of unit cell:	Completed after 7 iterations at t[s]:   1689.39
	Linear fluid (dielectric constant: 78.4, screening length: 5.74355 Bohr) occupying 0.633789 of unit cell:	Completed after 3 iterations at t[s]:   1702.84
	FillingsUpdate:  mu: -0.169879365  nElectrons: 504.000000
	SubspaceRotationAdjust: set factor to 0.0915
ElecMinimize: Iter:   8  F: -1955.022784939028497  |grad|_K:  6.621e-08  alpha:  2.432e-01  linmin:  1.542e-06  t[s]:   1713.22
	Linear fluid (dielectric constant: 78.4, screening length: 5.74355 Bohr) occupying 0.633791 of unit cell:	Completed after 2 iterations at t[s]:   1723.76
	Linear fluid (dielectric constant: 78.4, screening length: 5.74355 Bohr) occupying 0.633790 of unit cell:	Completed after 0 iterations at t[s]:   1733.28
	FillingsUpdate:  mu: -0.169857817  nElectrons: 504.000000
	SubspaceRotationAdjust: set factor to 0.0848
ElecMinimize: Iter:   9  F: -1955.022784967270127  |grad|_K:  5.700e-08  alpha:  9.063e-02  linmin:  7.086e-07  t[s]:   1743.96
	Linear fluid (dielectric constant: 78.4, screening length: 5.74355 Bohr) occupying 0.633790 of unit cell:	Completed after 0 iterations at t[s]:   1754.30
ElecMinimize: 	Predicted alpha/alphaT>3.000000, increasing alphaT to 2.718906e-01.
	Linear fluid (dielectric constant: 78.4, screening length: 5.74355 Bohr) occupying 0.633791 of unit cell:	Completed after 5 iterations at t[s]:   1764.67
	Linear fluid (dielectric constant: 78.4, screening length: 5.74355 Bohr) occupying 0.633790 of unit cell:	Completed after 0 iterations at t[s]:   1775.17
	FillingsUpdate:  mu: -0.169716465  nElectrons: 504.000000
	SubspaceRotationAdjust: set factor to 0.105
ElecMinimize: Iter:  10  F: -1955.022785027341342  |grad|_K:  3.619e-08  alpha:  1.432e-01  linmin:  5.716e-07  t[s]:   1786.02
	Linear fluid (dielectric constant: 78.4, screening length: 5.74355 Bohr) occupying 0.633791 of unit cell:	Completed after 0 iterations at t[s]:   1795.84
ElecMinimize: 	Predicted alpha/alphaT>3.000000, increasing alphaT to 4.296696e-01.
	Linear fluid (dielectric constant: 78.4, screening length: 5.74355 Bohr) occupying 0.633791 of unit cell:	Completed after 0 iterations at t[s]:   1805.58
	Linear fluid (dielectric constant: 78.4, screening length: 5.74355 Bohr) occupying 0.633792 of unit cell:	Completed after 3 iterations at t[s]:   1816.17
	FillingsUpdate:  mu: -0.169620412  nElectrons: 504.000000
	SubspaceRotationAdjust: set factor to 0.103
ElecMinimize: Iter:  11  F: -1955.022785058998124  |grad|_K:  3.181e-08  alpha:  7.081e-01  linmin:  2.248e-06  t[s]:   1826.85
	Linear fluid (dielectric constant: 78.4, screening length: 5.74355 Bohr) occupying 0.633793 of unit cell:	Completed after 8 iterations at t[s]:   1837.57
	Linear fluid (dielectric constant: 78.4, screening length: 5.74355 Bohr) occupying 0.633792 of unit cell:	Completed after 0 iterations at t[s]:   1847.79
ElecMinimize: 	Step increased F by 8.207030e-08, reducing alpha to 1.170752e-02.
	Linear fluid (dielectric constant: 78.4, screening length: 5.74355 Bohr) occupying 0.633792 of unit cell:	Completed after 0 iterations at t[s]:   1867.05
ElecMinimize: 	Step increased F by 6.444520e-08, reducing alpha to 1.170752e-03.
	Linear fluid (dielectric constant: 78.4, screening length: 5.74355 Bohr) occupying 0.633792 of unit cell:	Completed after 0 iterations at t[s]:   1885.93
ElecMinimize: 	Step increased F by 6.299297e-08, reducing alpha to 1.170752e-04.
ElecMinimize: 	Step failed to reduce F after 3 attempts. Quitting step.
ElecMinimize: 	Undoing step.
	Linear fluid (dielectric constant: 78.4, screening length: 5.74355 Bohr) occupying 0.633792 of unit cell:	Completed after 0 iterations at t[s]:   1904.76
ElecMinimize: 	Step failed: resetting search direction.
	FillingsUpdate:  mu: -0.169255707  nElectrons: 504.000000
	SubspaceRotationAdjust: set factor to 0.0757
ElecMinimize: Iter:  12  F: -1955.022784996072232  |grad|_K:  7.053e-08  alpha:  1.171e-04
	Linear fluid (dielectric constant: 78.4, screening length: 5.74355 Bohr) occupying 0.633791 of unit cell:	Completed after 13 iterations at t[s]:   1927.26
	Linear fluid (dielectric constant: 78.4, screening length: 5.74355 Bohr) occupying 0.633792 of unit cell:	Completed after 8 iterations at t[s]:   1938.17
	FillingsUpdate:  mu: -0.169760154  nElectrons: 504.000000
	SubspaceRotationAdjust: set factor to 0.0346
ElecMinimize: Iter:  13  F: -1955.022785143872625  |grad|_K:  2.840e-08  alpha:  2.699e-01  linmin:  8.659e-05  t[s]:   1949.10
	Linear fluid (dielectric constant: 78.4, screening length: 5.74355 Bohr) occupying 0.633792 of unit cell:	Completed after 0 iterations at t[s]:   1958.95
ElecMinimize: 	Predicted alpha/alphaT>3.000000, increasing alphaT to 8.098402e-01.
	Linear fluid (dielectric constant: 78.4, screening length: 5.74355 Bohr) occupying 0.633792 of unit cell:	Completed after 0 iterations at t[s]:   1967.79
	Linear fluid (dielectric constant: 78.4, screening length: 5.74355 Bohr) occupying 0.633792 of unit cell:	Completed after 3 iterations at t[s]:   1977.73
	FillingsUpdate:  mu: -0.169713649  nElectrons: 504.000000
	SubspaceRotationAdjust: set factor to 0.0386
ElecMinimize: Iter:  14  F: -1955.022785224542986  |grad|_K:  3.556e-08  alpha:  1.361e+00  linmin:  1.033e-05  t[s]:   1988.16
	Linear fluid (dielectric constant: 78.4, screening length: 5.74355 Bohr) occupying 0.633793 of unit cell:	Completed after 9 iterations at t[s]:   1999.07
	Linear fluid (dielectric constant: 78.4, screening length: 5.74355 Bohr) occupying 0.633792 of unit cell:	Completed after 3 iterations at t[s]:   2008.49
ElecMinimize: 	Step increased F by 1.666467e-08, reducing alpha to 2.855292e-02.
	Linear fluid (dielectric constant: 78.4, screening length: 5.74355 Bohr) occupying 0.633792 of unit cell:	Completed after 0 iterations at t[s]:   2026.39
	FillingsUpdate:  mu: -0.169277448  nElectrons: 504.000000
	SubspaceRotationAdjust: set factor to 0.0361
ElecMinimize: Iter:  15  F: -1955.022785239665382  |grad|_K:  4.895e-08  alpha:  2.855e-02  linmin:  4.530e-06  t[s]:   2037.05
	Linear fluid (dielectric constant: 78.4, screening length: 5.74355 Bohr) occupying 0.633792 of unit cell:	Completed after 0 iterations at t[s]:   2046.91
ElecMinimize: 	Predicted alpha/alphaT>3.000000, increasing alphaT to 8.565877e-02.
	Linear fluid (dielectric constant: 78.4, screening length: 5.74355 Bohr) occupying 0.633792 of unit cell:	Completed after 0 iterations at t[s]:   2056.64
	Linear fluid (dielectric constant: 78.4, screening length: 5.74355 Bohr) occupying 0.633792 of unit cell:	Completed after 2 iterations at t[s]:   2066.33
	FillingsUpdate:  mu: -0.169316345  nElectrons: 504.000000
	SubspaceRotationAdjust: set factor to 0.0533
ElecMinimize: Iter:  16  F: -1955.022785245492742  |grad|_K:  3.987e-08  alpha:  2.190e-01  linmin:  1.666e-05  t[s]:   2076.91
	Linear fluid (dielectric constant: 78.4, screening length: 5.74355 Bohr) occupying 0.633792 of unit cell:	Completed after 0 iterations at t[s]:   2086.66
	Linear fluid (dielectric constant: 78.4, screening length: 5.74355 Bohr) occupying 0.633792 of unit cell:	Completed after 0 iterations at t[s]:   2096.34
	FillingsUpdate:  mu: -0.169319367  nElectrons: 504.000000
	SubspaceRotationAdjust: set factor to 0.0667
ElecMinimize: Iter:  17  F: -1955.022785288196474  |grad|_K:  4.636e-08  alpha:  2.691e-01  linmin: -2.976e-06  t[s]:   2106.66
	Linear fluid (dielectric constant: 78.4, screening length: 5.74355 Bohr) occupying 0.633790 of unit cell:	Completed after 7 iterations at t[s]:   2116.80
	Linear fluid (dielectric constant: 78.4, screening length: 5.74355 Bohr) occupying 0.633791 of unit cell:	Completed after 0 iterations at t[s]:   2126.89
ElecMinimize: 	Step increased F by 4.870958e-08, reducing alpha to 7.324165e-03.
	Linear fluid (dielectric constant: 78.4, screening length: 5.74355 Bohr) occupying 0.633792 of unit cell:	Completed after 0 iterations at t[s]:   2145.75
ElecMinimize: 	Step increased F by 1.070953e-08, reducing alpha to 7.324165e-04.
	Linear fluid (dielectric constant: 78.4, screening length: 5.74355 Bohr) occupying 0.633792 of unit cell:	Completed after 0 iterations at t[s]:   2164.52
ElecMinimize: 	Step increased F by 7.242306e-09, reducing alpha to 7.324165e-05.
ElecMinimize: 	Step failed to reduce F after 3 attempts. Quitting step.
ElecMinimize: 	Undoing step.
	Linear fluid (dielectric constant: 78.4, screening length: 5.74355 Bohr) occupying 0.633792 of unit cell:	Completed after 0 iterations at t[s]:   2183.52
ElecMinimize: 	Step failed: resetting search direction.
	FillingsUpdate:  mu: -0.169689542  nElectrons: 504.000000
	SubspaceRotationAdjust: set factor to 0.0525
ElecMinimize: Iter:  18  F: -1955.022785280985772  |grad|_K:  4.625e-08  alpha:  7.324e-05
	Linear fluid (dielectric constant: 78.4, screening length: 5.74355 Bohr) occupying 0.633791 of unit cell:	Completed after 3 iterations at t[s]:   2204.97
	Linear fluid (dielectric constant: 78.4, screening length: 5.74355 Bohr) occupying 0.633791 of unit cell:	Completed after 0 iterations at t[s]:   2214.02
ElecMinimize: 	Step increased F by 2.092702e-08, reducing alpha to 1.263825e-02.
	Linear fluid (dielectric constant: 78.4, screening length: 5.74355 Bohr) occupying 0.633792 of unit cell:	Completed after 0 iterations at t[s]:   2232.12
ElecMinimize: 	Step increased F by 3.901732e-08, reducing alpha to 1.263825e-03.
	Linear fluid (dielectric constant: 78.4, screening length: 5.74355 Bohr) occupying 0.633792 of unit cell:	Completed after 0 iterations at t[s]:   2250.34
ElecMinimize: 	Step increased F by 4.144204e-08, reducing alpha to 1.263825e-04.
ElecMinimize: 	Step failed to reduce F after 3 attempts. Quitting step.
ElecMinimize: 	Undoing step.
	Linear fluid (dielectric constant: 78.4, screening length: 5.74355 Bohr) occupying 0.633792 of unit cell:	Completed after 0 iterations at t[s]:   2269.03
ElecMinimize: 	Step failed along negative gradient direction.
ElecMinimize: Probably at roundoff error limit. (Stopping)
Setting wave functions to eigenvectors of Hamiltonian
Single-point solvation energy estimate, DeltaF = +0.004862224187036

# Ionic positions in lattice coordinates:
ion Bi   0.333347514104370   0.166695028208743   0.525049303559665 0
ion Bi   0.833347514104370   0.166695028208743   0.525049303559665 0
ion Bi   0.333347514104370   0.666695028208743   0.525049303559665 0
ion Bi   0.833347514104370   0.666695028208743   0.525049303559665 0
ion Bi   0.166651213099459   0.333302426198919   0.474901216381536 0
ion Bi   0.666651213099459   0.333302426198919   0.474901216381536 0
ion Bi   0.166651213099459   0.833302426198919   0.474901216381536 0
ion Bi   0.666651213099459   0.833302426198919   0.474901216381536 0
ion Bi   0.333329339554221   0.166658679108444   0.359011163343079 0
ion Bi   0.833329339554221   0.166658679108444   0.359011163343079 0
ion Bi   0.333329339554221   0.666658679108444   0.359011163343079 0
ion Bi   0.833329339554221   0.666658679108444   0.359011163343079 0
ion Bi   0.166669638534848   0.333339277069697   0.640969298984328 0
ion Bi   0.666669638534848   0.333339277069697   0.640969298984328 0
ion Bi   0.166669638534848   0.833339277069697   0.640969298984328 0
ion Bi   0.666669638534848   0.833339277069697   0.640969298984328 0
ion Bi   0.000003099299273   0.000006198598548   0.253285293065889 0
ion Bi   0.500003099299273   0.000006198598548   0.253285293065889 0
ion Bi   0.000003099299273   0.500006198598548   0.253285293065889 0
ion Bi   0.500003099299273   0.500006198598548   0.253285293065889 0
ion Bi   0.999995092917920   0.999990185835841   0.746749162446836 0
ion Bi   0.499995092917920   0.999990185835841   0.746749162446836 0
ion Bi   0.999995092917920   0.499990185835841   0.746749162446836 0
ion Bi   0.499995092917920   0.499990185835841   0.746749162446836 0
ion Se   0.000015994451075   0.000031988902151   0.402541410442493 0
ion Se   0.500015994451075   0.000031988902151   0.402541410442493 0
ion Se   0.000015994451075   0.500031988902151   0.402541410442493 0
ion Se   0.500015994451075   0.500031988902151   0.402541410442493 0
ion Se   0.999975911355857   0.999951822711715   0.597435105480047 0
ion Se   0.499975911355857   0.999951822711715   0.597435105480047 0
ion Se   0.999975911355857   0.499951822711715   0.597435105480047 0
ion Se   0.499975911355857   0.499951822711715   0.597435105480047 0
ion Se   0.333349692394367   0.166699384788735   0.692934093505612 0
ion Se   0.833349692394367   0.166699384788735   0.692934093505612 0
ion Se   0.333349692394367   0.666699384788735   0.692934093505612 0
ion Se   0.833349692394367   0.666699384788735   0.692934093505612 0
ion Se   0.166658611119678   0.333317222239359   0.307080690783032 0
ion Se   0.666658611119678   0.333317222239359   0.307080690783032 0
ion Se   0.166658611119678   0.833317222239359   0.307080690783032 0
ion Se   0.666658611119678   0.833317222239359   0.307080690783032 0
ion Se   0.333325219127274   0.166650438254550   0.211065782437280 0
ion Se   0.833325219127274   0.166650438254550   0.211065782437280 0
ion Se   0.333325219127274   0.666650438254550   0.211065782437280 0
ion Se   0.833325219127274   0.666650438254550   0.211065782437280 0
ion Se   0.166678674041644   0.333357348083290   0.788977479570193 0
ion Se   0.666678674041644   0.333357348083290   0.788977479570193 0
ion Se   0.166678674041644   0.833357348083290   0.788977479570193 0
ion Se   0.666678674041644   0.833357348083290   0.788977479570193 0


# Forces in Lattice coordinates:
force Bi  -0.000000000000000  -0.000528304322883   0.084698154018792 0
force Bi   0.000000000000000  -0.000528304322883   0.084698154018794 0
force Bi   0.000000000000000  -0.000528304322883   0.084698154019019 0
force Bi   0.000000000000000  -0.000528304322883   0.084698154018794 0
force Bi   0.000000000000000   0.000507707935970  -0.085379373685710 0
force Bi   0.000000000000000   0.000507707935970  -0.085379373686163 0
force Bi   0.000000000000000   0.000507707935970  -0.085379373685711 0
force Bi  -0.000000000000000   0.000507707935970  -0.085379373685710 0
force Bi   0.000000000000000   0.000071160178330  -0.041942352696131 0
force Bi  -0.000000000000000   0.000071160178330  -0.041942352696131 0
force Bi   0.000000000000000   0.000071160178330  -0.041942352696130 0
force Bi   0.000000000000000   0.000071160178330  -0.041942352696130 0
force Bi   0.000000000000000  -0.000132551011923   0.045566398783521 0
force Bi   0.000000000000000  -0.000132551011923   0.045566398784430 0
force Bi  -0.000000000000000  -0.000132551011923   0.045566398784430 0
force Bi  -0.000000000000000  -0.000132551011923   0.045566398783521 0
force Bi   0.000000000000000  -0.000097490992581  -0.054363491402631 0
force Bi   0.000000000000000  -0.000097490992581  -0.054363491402632 0
force Bi  -0.000000000000000  -0.000097490992581  -0.054363491402631 0
force Bi   0.000000000000000  -0.000097490992581  -0.054363491402631 0
force Bi   0.000000000000000   0.000171680163683   0.055995006011834 0
force Bi  -0.000000000000000   0.000171680163683   0.055995006011834 0
force Bi  -0.000000000000000   0.000171680163683   0.055995006010924 0
force Bi  -0.000000000000000   0.000171680163683   0.055995006010015 0
force Se  -0.000000000000000  -0.000373585482860   0.099050974073922 0
force Se  -0.000000000000000  -0.000373585482860   0.099050974073922 0
force Se  -0.000000000000000  -0.000373585482860   0.099050974073694 0
force Se   0.000000000000000  -0.000373585482860   0.099050974073921 0
force Se  -0.000000000000000   0.000517342189728  -0.097681124466373 0
force Se   0.000000000000000   0.000517342189728  -0.097681124466373 0
force Se  -0.000000000000000   0.000517342189728  -0.097681124466146 0
force Se  -0.000000000000000   0.000517342189728  -0.097681124466372 0
force Se   0.000000000000000  -0.000241405846539  -0.004801418274265 0
force Se  -0.000000000000000  -0.000241405846539  -0.004801418274265 0
force Se   0.000000000000000  -0.000241405846539  -0.004801418274265 0
force Se   0.000000000000000  -0.000241405846539  -0.004801418274265 0
force Se   0.000000000000000   0.000128458092248   0.003049068479311 0
force Se   0.000000000000000   0.000128458092248   0.003049068479765 0
force Se  -0.000000000000000   0.000128458092248   0.003049068479765 0
force Se   0.000000000000000   0.000128458092248   0.003049068479311 0
force Se  -0.000000000000000   0.000200122190894  -0.067791902447190 0
force Se   0.000000000000000   0.000200122190894  -0.067791902448100 0
force Se  -0.000000000000000   0.000200122190894  -0.067791902447190 0
force Se   0.000000000000000   0.000200122190894  -0.067791902447190 0
force Se  -0.000000000000000  -0.000238285585314   0.065498689911792 0
force Se   0.000000000000000  -0.000238285585314   0.065498689912246 0
force Se   0.000000000000000  -0.000238285585314   0.065498689911790 0
force Se   0.000000000000000  -0.000238285585314   0.065498689911788 0

# Energy components:
   A_diel =        0.0048020731868421
   Eewald =    37823.8257308794563869
       EH =    39552.4674886798748048
     Eloc =   -79842.6504743459372548
      Enl =      606.8109901510903228
      Exc =    -1131.5755168039017917
 Exc_core =      792.0389680676209991
       KE =      244.0723991264640631
-------------------------------------
     Etot =    -1955.0056121721554518
       TS =        0.0171730674173601
-------------------------------------
        F =    -1955.0227852395728405

IonicMinimize: Iter:   0  F: -1955.022785239572841  |grad|_K:  0.000e+00  t[s]:   2285.88
IonicMinimize: Converged (|grad|_K<1.000000e-04).

#--- Lowdin population analysis ---
# oxidation-state Bi +0.116 +0.116 +0.116 +0.116 +0.117 +0.117 +0.117 +0.117 +0.683 +0.683 +0.683 +0.683 +0.683 +0.683 +0.683 +0.683 +0.713 +0.713 +0.713 +0.713 +0.713 +0.713 +0.713 +0.713
# oxidation-state Se -0.407 -0.407 -0.407 -0.407 -0.407 -0.407 -0.407 -0.407 -0.558 -0.558 -0.558 -0.558 -0.558 -0.558 -0.558 -0.558 -0.361 -0.361 -0.361 -0.361 -0.361 -0.361 -0.361 -0.361


Dumping 'NbTe2.fillings' ... done
Dumping 'NbTe2.wfns' ... done
Dumping 'NbTe2.fluidState' ... done
Dumping 'NbTe2.eigenvals' ... done
End date and time: Tue Jul 14 10:24:52 2020  (Duration: 0-0:38:09.99)
Done!
