
*************** JDFTx 1.5.0  ***************

Start date and time: Thu Jan  7 17:57:07 2021
Executable jdftx_gpu with command-line: -i Charged.in -o Charged.out
Running on hosts (process indices):  amax (0-4)
Divided in process groups (process indices):  0 (0)  1 (1)  2 (2)  3 (3)  4 (4)
gpuInit: Found compatible cuda device 0 'Tesla K80'
gpuInit: Found compatible cuda device 1 'Tesla K80'
gpuInit: Found compatible cuda device 2 'Tesla K80'
gpuInit: Found compatible cuda device 3 'Tesla K80'
gpuInit: Found compatible cuda device 4 'Tesla K80'
gpuInit: Selected device 0
Resource initialization completed at t[s]:      2.91
Run totals: 5 processes, 24 threads, 5 GPUs


Input parsed successfully to the following command list (including defaults):

basis kpoint-dependent
cache-projectors no
coords-type Lattice
core-overlap-check none
coulomb-interaction Slab 001
coulomb-truncation-embed 0.5 0.5 0.5
davidson-band-ratio 1.1
dump End State
dump-name NbTe2.$VAR
elec-cutoff 20
elec-eigen-algo Davidson
elec-ex-corr gga-PBE
elec-initial-charge -1.000000
elec-initial-magnetization 5.000000 no
elec-smearing Gauss 0.0073499
electronic-minimize  \
	dirUpdateScheme      FletcherReeves \
	linminMethod         DirUpdateRecommended \
	nIterations          200 \
	history              15 \
	knormThreshold       0 \
	energyDiffThreshold  1e-08 \
	nEnergyDiff          2 \
	alphaTstart          1 \
	alphaTmin            1e-10 \
	updateTestStepSize   yes \
	alphaTreduceFactor   0.1 \
	alphaTincreaseFactor 3 \
	nAlphaAdjustMax      3 \
	wolfeEnergy          0.0001 \
	wolfeGradient        0.9 \
	fdTest               no
exchange-regularization WignerSeitzTruncated
fluid LinearPCM 298.000000 1.013250
fluid-anion F- 1 MeanFieldLJ \
	epsBulk 1 \
	pMol 0 \
	epsInf 1 \
	Pvap 0 \
	sigmaBulk 0 \
	Rvdw 2.24877 \
	Res 0 \
	tauNuc 343133
fluid-cation Na+ 1 MeanFieldLJ \
	epsBulk 1 \
	pMol 0 \
	epsInf 1 \
	Pvap 0 \
	sigmaBulk 0 \
	Rvdw 2.19208 \
	Res 0 \
	tauNuc 343133
fluid-ex-corr lda-TF lda-PZ
fluid-gummel-loop 10 1.000000e-05
fluid-minimize  \
	dirUpdateScheme      PolakRibiere \
	linminMethod         DirUpdateRecommended \
	nIterations          400 \
	history              15 \
	knormThreshold       1e-11 \
	energyDiffThreshold  0 \
	nEnergyDiff          2 \
	alphaTstart          1 \
	alphaTmin            1e-10 \
	updateTestStepSize   yes \
	alphaTreduceFactor   0.1 \
	alphaTincreaseFactor 3 \
	nAlphaAdjustMax      6 \
	wolfeEnergy          0.0001 \
	wolfeGradient        0.9 \
	fdTest               no
fluid-solvent H2O 55.338 ScalarEOS \
	epsBulk 78.4 \
	pMol 0.92466 \
	epsInf 1.77 \
	Pvap 1.06736e-10 \
	sigmaBulk 4.62e-05 \
	Rvdw 2.61727 \
	Res 1.42 \
	tauNuc 343133 \
	poleEl 15 7 1
forces-output-coords Positions
initial-state NbTe2.$VAR
ion Ta   0.166669984000002   0.083329999999997   0.500000000000000 1
ion Ta   0.416670001999996   0.083329999999997   0.500000000000000 1
ion Ta   0.666670019999998   0.083329999999997   0.500000000000000 1
ion Ta   0.916670037999999   0.083329999999997   0.500000000000000 1
ion Ta   0.166669994000003   0.333330001000000   0.500000000000000 1
ion Ta   0.416669994000003   0.333330001000000   0.500000000000000 1
ion Ta   0.666670011999997   0.333330001000000   0.500000000000000 1
ion Ta   0.916669994000003   0.333330001000000   0.500000000000000 1
ion Ta   0.166669994000003   0.583329982000002   0.500000000000000 1
ion Ta   0.416669994000003   0.583329982000002   0.500000000000000 1
ion Ta   0.666669994000003   0.583329982000002   0.500000000000000 1
ion Ta   0.916670011000001   0.583329982000002   0.500000000000000 1
ion Ta   0.166669992999999   0.833329962999997   0.500000000000000 1
ion Ta   0.416669992999999   0.833329962999997   0.500000000000000 1
ion Ta   0.666670011000001   0.833329962999997   0.500000000000000 1
ion Ta   0.916670029000002   0.833329962999997   0.500000000000000 1
ion S   0.000000000000000   0.000000000000000   0.586319975000002 1
ion S   0.000000000000000   0.000000000000000   0.413679999000003 1
ion S   0.250000000000000   0.000000000000000   0.586319975000002 1
ion S   0.250000000000000   0.000000000000000   0.413679999000003 1
ion S   0.500000000000000   0.000000000000000   0.586319975000002 1
ion S   0.500000000000000   0.000000000000000   0.413679999000003 1
ion S   0.749999981999999   0.000000000000000   0.586319975000002 1
ion S   0.749999981999999   0.000000000000000   0.413679999000003 1
ion S   0.000000000999996   0.250000002000000   0.586319975000002 1
ion S   0.000000000999996   0.250000002000000   0.413679999000003 1
ion S   0.250000000999996   0.250000002000000   0.586319975000002 1
ion S   0.250000000999996   0.250000002000000   0.413679999000003 1
ion S   0.499999991999999   0.250000002000000   0.586319975000002 1
ion S   0.499999991999999   0.250000002000000   0.413679999000003 1
ion S   0.750000010000001   0.250000002000000   0.586319975000002 1
ion S   0.750000010000001   0.250000002000000   0.413679999000003 1
ion S   0.000000002000000   0.500000002999997   0.586319975000002 1
ion S   0.000000002000000   0.500000002999997   0.413679999000003 1
ion S   0.250000002000000   0.500000002999997   0.586319975000002 1
ion S   0.250000002000000   0.500000002999997   0.413679999000003 1
ion S   0.500000002000000   0.500000002999997   0.586319975000002 1
ion S   0.500000002000000   0.500000002999997   0.413679999000003 1
ion S   0.749999965999997   0.500000002999997   0.586319975000002 1
ion S   0.749999965999997   0.500000002999997   0.413679999000003 1
ion S   0.000000022000002   0.750000026000002   0.586319975000002 1
ion S   0.000000022000002   0.750000026000002   0.413679999000003 1
ion S   0.250000022000002   0.750000026000002   0.586319975000002 1
ion S   0.250000022000002   0.750000026000002   0.413679999000003 1
ion S   0.500000022000002   0.750000026000002   0.586319975000002 1
ion S   0.500000022000002   0.750000026000002   0.413679999000003 1
ion S   0.750000004000000   0.750000026000002   0.586319975000002 1
ion S   0.750000004000000   0.750000026000002   0.413679999000003 1
ion-species GBRV/$ID_pbe.uspp
ion-width Ecut
ionic-minimize  \
	dirUpdateScheme      L-BFGS \
	linminMethod         DirUpdateRecommended \
	nIterations          500 \
	history              15 \
	knormThreshold       0.0001 \
	energyDiffThreshold  1e-06 \
	nEnergyDiff          2 \
	alphaTstart          1 \
	alphaTmin            1e-10 \
	updateTestStepSize   yes \
	alphaTreduceFactor   0.1 \
	alphaTincreaseFactor 3 \
	nAlphaAdjustMax      3 \
	wolfeEnergy          0.0001 \
	wolfeGradient        0.9 \
	fdTest               no
kpoint   0.000000000000   0.000000000000   0.000000000000  1.00000000000000
kpoint-folding 4 4 1 
latt-move-scale 1 1 1
latt-scale 1.88973 1.88973 1.88973 
lattice Triclinic 13.3213 13.3213 18.1305 90 90 120
lattice-minimize  \
	dirUpdateScheme      L-BFGS \
	linminMethod         DirUpdateRecommended \
	nIterations          0 \
	history              15 \
	knormThreshold       0 \
	energyDiffThreshold  1e-06 \
	nEnergyDiff          2 \
	alphaTstart          1 \
	alphaTmin            1e-10 \
	updateTestStepSize   yes \
	alphaTreduceFactor   0.1 \
	alphaTincreaseFactor 3 \
	nAlphaAdjustMax      3 \
	wolfeEnergy          0.0001 \
	wolfeGradient        0.9 \
	fdTest               no
lcao-params -1 1e-06 0.0073499
pcm-variant CANDLE
spintype z-spin
subspace-rotation-factor 1 yes
symmetries automatic
symmetry-threshold 0.0001



---------- Setting up symmetries ----------

Found 24 point-group symmetries of the bravais lattice
Found 192 space-group symmetries with basis
Applied RMS atom displacement 6.87527e-05 bohrs to make symmetries exact.

---------- Initializing the Grid ----------
R = 
[    25.1736   -12.5868          0  ]
[          0     21.801          0  ]
[          0          0    34.2617  ]
unit cell volume = 18803.1
G =
[   0.249594   0.144103         -0  ]
[          0   0.288207          0  ]
[          0         -0   0.183388  ]
Minimum fftbox size, Smin = [  104  104  140  ]
Chosen fftbox size, S = [  108  108  140  ]

---------- Exchange Correlation functional ----------
Initalized PBE GGA exchange.
Initalized PBE GGA correlation.

---------- Setting up pseudopotentials ----------
Width of ionic core gaussian charges (only for fluid interactions / plotting) set to 0.397384

Reading pseudopotential file '/home/guoxy/vasp/jdftx-1.5.0/build/pseudopotentials/GBRV/ta_pbe.uspp':
  Title: Ta.  Created by USPP 7.3.6 on 14-9-2013
  Reference state energy: -70.583193.  13 valence electrons in orbitals:
    |500>  occupation: 2  eigenvalue: -2.682396
    |510>  occupation: 6  eigenvalue: -1.447928
    |520>  occupation: 3  eigenvalue: -0.131987
    |600>  occupation: 2  eigenvalue: -0.199982
    |610>  occupation: 0  eigenvalue: -0.051129
  lMax: 3  lLocal: 3  QijEcut: 5
  7 projectors sampled on a log grid with 667 points:
    l: 0  eig: -2.682397  rCut: 1.4
    l: 0  eig: -0.199983  rCut: 1.4
    l: 1  eig: -1.447928  rCut: 1.5
    l: 1  eig: -0.051130  rCut: 1.5
    l: 2  eig: -0.131987  rCut: 1.7
    l: 2  eig: 0.150000  rCut: 1.7
    l: 3  eig: 0.250000  rCut: 2.3
  Partial core density with radius 1.2
  Transforming core density to a uniform radial grid of dG=0.02 with 1498 points.
  Transforming local potential to a uniform radial grid of dG=0.02 with 1498 points.
  Transforming nonlocal projectors to a uniform radial grid of dG=0.02 with 432 points.
  Transforming density augmentations to a uniform radial grid of dG=0.02 with 1498 points.
  Transforming atomic orbitals to a uniform radial grid of dG=0.02 with 432 points.
  Core radius for overlap checks: 2.30 bohrs.

Reading pseudopotential file '/home/guoxy/vasp/jdftx-1.5.0/build/pseudopotentials/GBRV/s_pbe.uspp':
  Title: S.  Created by USPP 7.3.6 on 1-4-15
  Reference state energy: -11.898476.  6 valence electrons in orbitals:
    |300>  occupation: 2  eigenvalue: -0.634167
    |310>  occupation: 4  eigenvalue: -0.257568
  lMax: 2  lLocal: 3  QijEcut: 6
  6 projectors sampled on a log grid with 635 points:
    l: 0  eig: -0.634161  rCut: 1.5
    l: 0  eig: 1.500000  rCut: 1.5
    l: 1  eig: -0.257567  rCut: 1.5
    l: 1  eig: 1.500000  rCut: 1.5
    l: 2  eig: -1.000000  rCut: 1.5
    l: 2  eig: 1.500000  rCut: 1.5
  Partial core density with radius 1.15
  Transforming core density to a uniform radial grid of dG=0.02 with 1498 points.
  Transforming local potential to a uniform radial grid of dG=0.02 with 1498 points.
  Transforming nonlocal projectors to a uniform radial grid of dG=0.02 with 432 points.
  Transforming density augmentations to a uniform radial grid of dG=0.02 with 1498 points.
  Transforming atomic orbitals to a uniform radial grid of dG=0.02 with 432 points.
  Core radius for overlap checks: 1.50 bohrs.

Initialized 2 species with 48 total atoms.

Folded 1 k-points by 4x4x1 to 16 k-points.

---------- Setting up k-points, bands, fillings ----------
Adding inversion symmetry to k-mesh for non-inversion-symmetric unit cell.
Reduced to 4 k-points under symmetry. 
Computing the number of bands and number of electrons
Calculating initial fillings.
nElectrons: 399.000000   nBands: 336   nStates: 8

----- Setting up reduced wavefunction bases (one per k-point) -----
average nbasis = 80337.188 , ideal nbasis = 80328.404

---------- Setting up coulomb interaction ----------
Fluid mode embedding: using embedded box, but periodic Coulomb kernel.
(Fluid response is responsible for (approximate) separation between periodic images.)
Setting up double-sized grid for truncated Coulomb potentials:
R = 
[    25.1736   -12.5868          0  ]
[          0     21.801          0  ]
[          0          0    68.5234  ]
unit cell volume = 37606.3
G =
[   0.249594   0.144103         -0  ]
[          0   0.288207          0  ]
[          0         -0  0.0916941  ]
Chosen fftbox size, S = [  108  108  280  ]
Integer grid location selected as the embedding center:
   Grid: [  54  54  70  ]
   Lattice: [  0.5  0.5  0.5  ]
   Cartesian: [  6.2934  10.9005  17.1308  ]
Constructing Wigner-Seitz cell: 8 faces (6 quadrilaterals, 2 hexagons)
Range-separation parameter for embedded mesh potentials due to point charges: 0.624095 bohrs.

Initializing van der Waals corrections
	NOTE: vdW corrections apply only for interactions with fluid.
	Ta:  C6:  815.23 Eh-a0^6  R0: 3.326 a0 (WARNING: beyond Grimme's data set)
	 S:  C6:   96.61 Eh-a0^6  R0: 3.180 a0

---------- Setting up ewald sum ----------
Optimum gaussian width for ewald sums = 7.011160 bohr.
Real space sum over 605 unit cells with max indices [  5  5  2  ]
Reciprocal space sum over 7425 terms with max indices [  7  7  16  ]

---------- Allocating electronic variables ----------
Initializing wave functions:  linear combination of atomic orbitals
Ta pseudo-atom occupations:   s ( 2 2 )  p ( 6 0 )  d ( 3 )
S pseudo-atom occupations:   s ( 2 )  p ( 4 )
	FillingsUpdate:  mu: +0.678382036  nElectrons: 399.000000  magneticMoment: [ Abs: 1.30627  Tot: +1.24882 ]
LCAOMinimize: Iter:   0  F: -1211.3879800047957360  |grad|_K:  2.861e-02  alpha:  1.000e+00
	FillingsUpdate:  mu: -1.100178508  nElectrons: 399.000000  magneticMoment: [ Abs: 0.83560  Tot: +0.83070 ]
LCAOMinimize: Iter:   1  F: -1223.6546944741842253  |grad|_K:  1.411e-02  alpha:  4.748e-01  linmin:  1.353e-01  cgtest: -2.098e+00  t[s]:    210.24
LCAOMinimize: 	Bad step direction: g.d > 0.
LCAOMinimize: 	Undoing step.
LCAOMinimize: 	Step failed: resetting search direction.
	FillingsUpdate:  mu: -1.100178508  nElectrons: 399.000000  magneticMoment: [ Abs: 0.83560  Tot: +0.83070 ]
LCAOMinimize: Iter:   2  F: -1223.6546944741842253  |grad|_K:  1.411e-02  alpha:  0.000e+00
	FillingsUpdate:  mu: -0.588665007  nElectrons: 399.000000  magneticMoment: [ Abs: 2.20644  Tot: +2.20005 ]
LCAOMinimize: Iter:   3  F: -1254.9724589469319653  |grad|_K:  7.913e-03  alpha:  1.857e-01  linmin: -3.700e-01  cgtest:  9.207e-01  t[s]:    321.54
LCAOMinimize: Encountered beta<0, resetting CG.
LCAOMinimize: 	Predicted alpha/alphaT>3.000000, increasing alphaT to 5.570214e-01.
	FillingsUpdate:  mu: -0.499504175  nElectrons: 399.000000  magneticMoment: [ Abs: 2.08776  Tot: +2.07030 ]
LCAOMinimize: Iter:   4  F: -1260.7645736404913350  |grad|_K:  6.819e-03  alpha:  9.947e-02  linmin: -3.612e-01  cgtest:  8.389e-01  t[s]:    405.96
LCAOMinimize: 	Predicted alpha/alphaT>3.000000, increasing alphaT to 2.983967e-01.
	FillingsUpdate:  mu: -0.168734975  nElectrons: 399.000000  magneticMoment: [ Abs: 1.59444  Tot: +1.57396 ]
LCAOMinimize: Iter:   5  F: -1267.7037887472936291  |grad|_K:  2.421e-03  alpha:  2.732e-01  linmin:  3.418e-01  cgtest: -5.972e-01  t[s]:    490.69
LCAOMinimize: 	Bad step direction: g.d > 0.
LCAOMinimize: 	Undoing step.
LCAOMinimize: 	Step failed: resetting search direction.
	FillingsUpdate:  mu: -0.168734975  nElectrons: 399.000000  magneticMoment: [ Abs: 1.59444  Tot: +1.57396 ]
LCAOMinimize: Iter:   6  F: -1267.7037887472936291  |grad|_K:  2.421e-03  alpha:  0.000e+00
	FillingsUpdate:  mu: -0.276447802  nElectrons: 399.000000  magneticMoment: [ Abs: 1.57529  Tot: +1.53933 ]
LCAOMinimize: Iter:   7  F: -1268.0718998912393545  |grad|_K:  8.986e-05  alpha:  1.649e-01  linmin:  2.504e-01  cgtest: -8.358e-01  t[s]:    600.78
LCAOMinimize: 	Predicted alpha/alphaT>3.000000, increasing alphaT to 4.947311e-01.
	FillingsUpdate:  mu: -0.277024435  nElectrons: 399.000000  magneticMoment: [ Abs: 1.17600  Tot: +1.13460 ]
LCAOMinimize: Iter:   8  F: -1268.0733309082343112  |grad|_K:  1.002e-04  alpha:  6.874e-01  linmin:  3.403e-04  cgtest:  7.128e-01  t[s]:    685.84
	FillingsUpdate:  mu: -0.272583290  nElectrons: 399.000000  magneticMoment: [ Abs: 1.04442  Tot: +1.00306 ]
LCAOMinimize: Iter:   9  F: -1268.0742455082786364  |grad|_K:  1.479e-05  alpha:  1.897e-01  linmin: -4.735e-02  cgtest:  2.076e-01  t[s]:    751.07
LCAOMinimize: Encountered beta<0, resetting CG.
LCAOMinimize: 	Predicted alpha/alphaT>3.000000, increasing alphaT to 5.691445e-01.
LCAOMinimize: 	Predicted alpha/alphaT>3.000000, increasing alphaT to 1.707434e+00.
	FillingsUpdate:  mu: -0.272345281  nElectrons: 399.000000  magneticMoment: [ Abs: 0.13246  Tot: +0.08878 ]
LCAOMinimize: Iter:  10  F: -1268.0744926466791185  |grad|_K:  9.055e-06  alpha:  2.486e+00  linmin: -4.728e-04  cgtest: -3.735e-03  t[s]:    855.33
	FillingsUpdate:  mu: -0.272806165  nElectrons: 399.000000  magneticMoment: [ Abs: 0.08130  Tot: +0.04214 ]
LCAOMinimize: Iter:  11  F: -1268.0745030042182862  |grad|_K:  5.680e-06  alpha:  2.829e-01  linmin:  1.222e-02  cgtest: -2.283e-02  t[s]:    920.78
	FillingsUpdate:  mu: -0.272621321  nElectrons: 399.000000  magneticMoment: [ Abs: 0.01369  Tot: -0.00754 ]
LCAOMinimize: Iter:  12  F: -1268.0745122703599463  |grad|_K:  8.740e-07  alpha:  6.429e-01  linmin: -1.759e-04  cgtest:  2.055e-01  t[s]:    986.05
LCAOMinimize: Encountered beta<0, resetting CG.
	FillingsUpdate:  mu: -0.272569680  nElectrons: 399.000000  magneticMoment: [ Abs: 0.00762  Tot: -0.00446 ]
LCAOMinimize: Iter:  13  F: -1268.0745124888167084  |grad|_K:  7.468e-07  alpha:  6.296e-01  linmin: -2.426e-04  cgtest:  6.881e-04  t[s]:   1051.15
	FillingsUpdate:  mu: -0.272598682  nElectrons: 399.000000  magneticMoment: [ Abs: 0.00458  Tot: -0.00277 ]
LCAOMinimize: Iter:  14  F: -1268.0745125567502782  |grad|_K:  1.865e-07  alpha:  2.678e-01  linmin:  4.872e-04  cgtest: -4.527e-03  t[s]:   1116.44
LCAOMinimize: Converged (|Delta F|<1.000000e-06 for 2 iters).
----- createFluidSolver() ----- (Fluid-side solver setup)
   Initializing fluid molecule 'H2O'
     Initializing site 'O'
       Electron density: proportional to exp(-r/0.36935)*erfc((r-0.51523)/0.36823) with norm 6.826
       Charge density: gaussian nuclear width 0.478731 with net site charge 0.826
       Polarizability: cuspless exponential with width 0.32 and norm 3.73
       Hard sphere radius: 2.57003 bohrs
       Positions in reference frame:
         [ +0.000000 +0.000000 +0.000000 ]
     Initializing site 'H'
       Electron density: proportional to exp(-r/0.34641)*erfc((r-0)/0.390882) with norm 0.587
       Charge density: gaussian nuclear width 0.377945 with net site charge -0.413
       Polarizability: cuspless exponential with width 0.39 and norm 3.3
       Positions in reference frame:
         [ +0.000000 -1.441945 +1.122523 ]
         [ +0.000000 +1.441945 +1.122523 ]
     Net charge: 0   dipole magnitude: 0.927204
     Initializing spherical shell mfKernel with radius 2.61727 Bohr
     deltaS corrections:
       site 'O': -7.54299
       site 'H': -6.83917
   Initializing fluid molecule 'Na+'
     Initializing site 'Na'
       Electron density: proportional to exp(-r/0.19682)*erfc((r-0.71491)/0.41314) with norm 8.1383
       Charge density: gaussian nuclear width 0.365347 with net site charge -1
       Hard sphere radius: 1.86327 bohrs
       Positions in reference frame:
         [ +0.000000 +0.000000 +0.000000 ]
     Net charge: -1   dipole magnitude: 0
     Initializing gaussian mfKernel with width: 1.55004 Bohr
     deltaS corrections:
       site 'Na': -22.3555
   Initializing fluid molecule 'F-'
     Initializing site 'F'
       Electron density: proportional to exp(-r/0.38886)*erfc((r-0)/0.438782) with norm 8
       Charge density: gaussian nuclear width 0.374796 with net site charge 1
       Hard sphere radius: 2.39995 bohrs
       Positions in reference frame:
         [ +0.000000 +0.000000 +0.000000 ]
     Net charge: 1   dipole magnitude: 0
     Initializing gaussian mfKernel with width: 1.59012 Bohr
     deltaS corrections:
       site 'F': -9.04335

Correction to mu due to finite nuclear width = -0.0105536
   Cavity determined by nc: 0.00142 and sigma: 0.707107
   Nonlocal vdW cavity from gaussian model electron density with norm = 8 and sigma = 0.993594 bohr
   Charge asymmetry in cavity with sensitivity pCavity = 36.5 e-bohr/Eh
   Electrostatic cavity expanded by eta = 1.46 bohrs
   Weighted density cavitation model constrained by Nbulk: 0.0049383 bohr^-3, Pvap: 3.14029 kPa, Rvdw: 2.61727 bohr and sigmaBulk: 4.62e-05 Eh/bohr^2 at T: 298 K.
   Weighted density dispersion model using vdW pair potentials with single solvent site with sqrtC6eff: 0.77 SI.


---- Citations for features of the code used in this run ----

   Software package:
      R. Sundararaman, K. Letchworth-Weaver, K.A. Schwarz, D. Gunceler, Y. Ozhabes and T.A. Arias, 'JDFTx: software for joint density-functional theory', SoftwareX 6, 278 (2017)

   gga-PBE exchange-correlation functional:
      J.P. Perdew, K. Burke and M. Ernzerhof, Phys. Rev. Lett. 77, 3865 (1996)

   Pseudopotentials:
      KF Garrity, JW Bennett, KM Rabe and D Vanderbilt, Comput. Mater. Sci. 81, 446 (2014)

   Truncated Coulomb potentials:
      R. Sundararaman and T.A. Arias, Phys. Rev. B 87, 165122 (2013)

   Van der Waals correction pair-potentials:
      S. Grimme, J. Comput. Chem. 27, 1787 (2006)

   Charge-asymmetric nonlocally-determined local-electric (CANDLE) solvation model:
      R. Sundararaman and W.A. Goddard III, J. Chem. Phys. 142, 064107 (2015)

   Total energy minimization with Auxiliary Hamiltonian:
      C. Freysoldt, S. Boeck, and J. Neugebauer, Phys. Rev. B 79, 241103(R) (2009)

This list may not be complete. Please suggest additional citations or
report any other bugs at https://github.com/shankar1729/jdftx/issues

Initialization completed successfully at t[s]:   1127.02

Fluid solver invoked on fresh (partially random / LCAO) wavefunctions
Running a vacuum solve first:

-------- Initial electronic minimization -----------
	FillingsUpdate:  mu: -0.272598682  nElectrons: 399.000000  magneticMoment: [ Abs: 0.00458  Tot: -0.00277 ]
ElecMinimize: Iter:   0  F: -1268.074512556719810  |grad|_K:  8.824e-05  alpha:  1.000e+00
	FillingsUpdate:  mu: -0.166045024  nElectrons: 399.000000  magneticMoment: [ Abs: 0.00238  Tot: -0.00154 ]
	SubspaceRotationAdjust: set factor to 0.876
ElecMinimize: Iter:   1  F: -1269.417975840286090  |grad|_K:  5.133e-05  alpha:  8.009e-01  linmin: -3.168e-05  t[s]:   1274.92
	FillingsUpdate:  mu: -0.225346602  nElectrons: 399.000000  magneticMoment: [ Abs: 0.00159  Tot: -0.00112 ]
	SubspaceRotationAdjust: set factor to 0.564
ElecMinimize: Iter:   2  F: -1269.618790863490403  |grad|_K:  3.420e-05  alpha:  3.998e-01  linmin:  3.914e-04  t[s]:   1366.46
	FillingsUpdate:  mu: -0.199746332  nElectrons: 399.000000  magneticMoment: [ Abs: 0.00112  Tot: -0.00081 ]
	SubspaceRotationAdjust: set factor to 0.498
ElecMinimize: Iter:   3  F: -1269.733959212588388  |grad|_K:  1.405e-05  alpha:  4.754e-01  linmin:  1.663e-04  t[s]:   1457.69
	FillingsUpdate:  mu: -0.202247688  nElectrons: 399.000000  magneticMoment: [ Abs: 0.00093  Tot: -0.00069 ]
	SubspaceRotationAdjust: set factor to 0.548
ElecMinimize: Iter:   4  F: -1269.759469990237676  |grad|_K:  8.615e-06  alpha:  6.101e-01  linmin:  1.586e-05  t[s]:   1549.41
	FillingsUpdate:  mu: -0.207392391  nElectrons: 399.000000  magneticMoment: [ Abs: 0.00079  Tot: -0.00060 ]
	SubspaceRotationAdjust: set factor to 0.604
ElecMinimize: Iter:   5  F: -1269.769492941105000  |grad|_K:  5.034e-06  alpha:  6.263e-01  linmin:  1.331e-05  t[s]:   1640.64
	FillingsUpdate:  mu: -0.204371989  nElectrons: 399.000000  magneticMoment: [ Abs: 0.00065  Tot: -0.00051 ]
	SubspaceRotationAdjust: set factor to 0.684
ElecMinimize: Iter:   6  F: -1269.773111568585136  |grad|_K:  3.102e-06  alpha:  6.619e-01  linmin:  2.046e-05  t[s]:   1732.94
	FillingsUpdate:  mu: -0.205306415  nElectrons: 399.000000  magneticMoment: [ Abs: 0.00054  Tot: -0.00044 ]
	SubspaceRotationAdjust: set factor to 0.851
ElecMinimize: Iter:   7  F: -1269.774338647352579  |grad|_K:  1.770e-06  alpha:  5.924e-01  linmin:  4.157e-06  t[s]:   1826.12
	FillingsUpdate:  mu: -0.205752523  nElectrons: 399.000000  magneticMoment: [ Abs: 0.00044  Tot: -0.00037 ]
	SubspaceRotationAdjust: set factor to 0.959
ElecMinimize: Iter:   8  F: -1269.774707005327855  |grad|_K:  9.588e-07  alpha:  5.444e-01  linmin:  2.110e-06  t[s]:   1918.70
	FillingsUpdate:  mu: -0.205155359  nElectrons: 399.000000  magneticMoment: [ Abs: 0.00035  Tot: -0.00030 ]
	SubspaceRotationAdjust: set factor to 0.881
ElecMinimize: Iter:   9  F: -1269.774816987151780  |grad|_K:  6.452e-07  alpha:  5.533e-01  linmin:  1.821e-06  t[s]:   2010.30
	FillingsUpdate:  mu: -0.205782912  nElectrons: 399.000000  magneticMoment: [ Abs: 0.00028  Tot: -0.00024 ]
	SubspaceRotationAdjust: set factor to 0.685
ElecMinimize: Iter:  10  F: -1269.774854791490725  |grad|_K:  3.613e-07  alpha:  4.199e-01  linmin:  6.042e-07  t[s]:   2102.91
	FillingsUpdate:  mu: -0.205589680  nElectrons: 399.000000  magneticMoment: [ Abs: 0.00021  Tot: -0.00019 ]
	SubspaceRotationAdjust: set factor to 0.672
ElecMinimize: Iter:  11  F: -1269.774870478794810  |grad|_K:  2.148e-07  alpha:  5.559e-01  linmin:  1.436e-06  t[s]:   2195.76
	FillingsUpdate:  mu: -0.205625647  nElectrons: 399.000000  magneticMoment: [ Abs: 0.00016  Tot: -0.00015 ]
	SubspaceRotationAdjust: set factor to 0.823
ElecMinimize: Iter:  12  F: -1269.774875725748188  |grad|_K:  1.342e-07  alpha:  5.261e-01  linmin:  6.506e-07  t[s]:   2288.61
	FillingsUpdate:  mu: -0.205679540  nElectrons: 399.000000  magneticMoment: [ Abs: 0.00013  Tot: -0.00012 ]
	SubspaceRotationAdjust: set factor to 0.897
ElecMinimize: Iter:  13  F: -1269.774877756484102  |grad|_K:  8.284e-08  alpha:  5.215e-01  linmin:  4.776e-07  t[s]:   2380.16
	FillingsUpdate:  mu: -0.205617886  nElectrons: 399.000000  magneticMoment: [ Abs: 0.00010  Tot: -0.00009 ]
	SubspaceRotationAdjust: set factor to 0.862
ElecMinimize: Iter:  14  F: -1269.774878483111024  |grad|_K:  4.938e-08  alpha:  4.895e-01  linmin:  1.562e-07  t[s]:   2472.75
	FillingsUpdate:  mu: -0.205640439  nElectrons: 399.000000  magneticMoment: [ Abs: 0.00008  Tot: -0.00007 ]
	SubspaceRotationAdjust: set factor to 0.834
ElecMinimize: Iter:  15  F: -1269.774878744376110  |grad|_K:  2.704e-08  alpha:  4.953e-01  linmin:  1.158e-07  t[s]:   2565.93
	FillingsUpdate:  mu: -0.205632753  nElectrons: 399.000000  magneticMoment: [ Abs: 0.00006  Tot: -0.00006 ]
	SubspaceRotationAdjust: set factor to 0.904
ElecMinimize: Iter:  16  F: -1269.774878828528244  |grad|_K:  1.736e-08  alpha:  5.318e-01  linmin:  7.133e-09  t[s]:   2658.98
	FillingsUpdate:  mu: -0.205631285  nElectrons: 399.000000  magneticMoment: [ Abs: 0.00005  Tot: -0.00004 ]
	SubspaceRotationAdjust: set factor to 1.04
ElecMinimize: Iter:  17  F: -1269.774878862211608  |grad|_K:  1.035e-08  alpha:  5.153e-01  linmin: -1.734e-07  t[s]:   2752.04
	FillingsUpdate:  mu: -0.205635046  nElectrons: 399.000000  magneticMoment: [ Abs: 0.00004  Tot: -0.00003 ]
	SubspaceRotationAdjust: set factor to 1.12
ElecMinimize: Iter:  18  F: -1269.774878874836759  |grad|_K:  6.504e-09  alpha:  5.462e-01  linmin:  7.657e-08  t[s]:   2843.98
	FillingsUpdate:  mu: -0.205630566  nElectrons: 399.000000  magneticMoment: [ Abs: 0.00003  Tot: -0.00002 ]
	SubspaceRotationAdjust: set factor to 0.969
ElecMinimize: Iter:  19  F: -1269.774878878932896  |grad|_K:  4.130e-09  alpha:  4.481e-01  linmin:  7.192e-08  t[s]:   2937.52
	FillingsUpdate:  mu: -0.205633988  nElectrons: 399.000000  magneticMoment: [ Abs: 0.00002  Tot: -0.00002 ]
	SubspaceRotationAdjust: set factor to 0.723
ElecMinimize: Iter:  20  F: -1269.774878880491542  |grad|_K:  2.470e-09  alpha:  4.114e-01  linmin: -5.814e-07  t[s]:   3029.99
ElecMinimize: Converged (|Delta F|<1.000000e-08 for 2 iters).
Setting wave functions to eigenvectors of Hamiltonian
Vacuum energy after initial minimize, F = -1269.774878880491542

	Linear fluid (dielectric constant: 78.4, screening length: 5.74355 Bohr) occupying 0.759070 of unit cell:	Completed after 15 iterations at t[s]:   3050.86

-------- Electronic minimization -----------
	Linear fluid (dielectric constant: 78.4, screening length: 5.74355 Bohr) occupying 0.759070 of unit cell:	Completed after 0 iterations at t[s]:   3074.69
	FillingsUpdate:  mu: -0.235453144  nElectrons: 399.000000  magneticMoment: [ Abs: 0.00002  Tot: -0.00001 ]
ElecMinimize: Iter:   0  F: -1269.706716548594841  |grad|_K:  1.679e-06  alpha:  1.000e+00
	Linear fluid (dielectric constant: 78.4, screening length: 5.74355 Bohr) occupying 0.759534 of unit cell:	Completed after 9 iterations at t[s]:   3148.10
	Linear fluid (dielectric constant: 78.4, screening length: 5.74355 Bohr) occupying 0.759249 of unit cell:	Completed after 10 iterations at t[s]:   3181.20
	FillingsUpdate:  mu: -0.232038095  nElectrons: 399.000000  magneticMoment: [ Abs: 0.00001  Tot: -0.00001 ]
	SubspaceRotationAdjust: set factor to 0.517
ElecMinimize: Iter:   1  F: -1269.706950078997579  |grad|_K:  9.251e-07  alpha:  3.830e-01  linmin:  8.852e-07  t[s]:   3223.72
	Linear fluid (dielectric constant: 78.4, screening length: 5.74355 Bohr) occupying 0.759389 of unit cell:	Completed after 9 iterations at t[s]:   3252.55
	Linear fluid (dielectric constant: 78.4, screening length: 5.74355 Bohr) occupying 0.759488 of unit cell:	Completed after 8 iterations at t[s]:   3286.56
	FillingsUpdate:  mu: -0.231541791  nElectrons: 399.000000  magneticMoment: [ Abs: 0.00001  Tot: -0.00001 ]
	SubspaceRotationAdjust: set factor to 0.51
ElecMinimize: Iter:   2  F: -1269.707071571387814  |grad|_K:  3.225e-07  alpha:  6.528e-01  linmin: -6.238e-06  t[s]:   3328.61
	Linear fluid (dielectric constant: 78.4, screening length: 5.74355 Bohr) occupying 0.759551 of unit cell:	Completed after 3 iterations at t[s]:   3357.53
	Linear fluid (dielectric constant: 78.4, screening length: 5.74355 Bohr) occupying 0.759557 of unit cell:	Completed after 0 iterations at t[s]:   3387.98
	FillingsUpdate:  mu: -0.231530249  nElectrons: 399.000000  magneticMoment: [ Abs: 0.00001  Tot: -0.00001 ]
	SubspaceRotationAdjust: set factor to 0.586
ElecMinimize: Iter:   3  F: -1269.707087865497897  |grad|_K:  1.718e-07  alpha:  7.154e-01  linmin: -8.179e-06  t[s]:   3428.94
	Linear fluid (dielectric constant: 78.4, screening length: 5.74355 Bohr) occupying 0.759585 of unit cell:	Completed after 2 iterations at t[s]:   3457.56
	Linear fluid (dielectric constant: 78.4, screening length: 5.74355 Bohr) occupying 0.759580 of unit cell:	Completed after 0 iterations at t[s]:   3489.10
	FillingsUpdate:  mu: -0.231548412  nElectrons: 399.000000  magneticMoment: [ Abs: 0.00001  Tot: -0.00001 ]
	SubspaceRotationAdjust: set factor to 0.624
ElecMinimize: Iter:   4  F: -1269.707091768293822  |grad|_K:  1.088e-07  alpha:  6.035e-01  linmin: -2.233e-06  t[s]:   3528.91
	Linear fluid (dielectric constant: 78.4, screening length: 5.74355 Bohr) occupying 0.759589 of unit cell:	Completed after 2 iterations at t[s]:   3556.94
	Linear fluid (dielectric constant: 78.4, screening length: 5.74355 Bohr) occupying 0.759589 of unit cell:	Completed after 0 iterations at t[s]:   3587.34
	FillingsUpdate:  mu: -0.231497920  nElectrons: 399.000000  magneticMoment: [ Abs: 0.00001  Tot: -0.00001 ]
	SubspaceRotationAdjust: set factor to 0.689
ElecMinimize: Iter:   5  F: -1269.707093420550336  |grad|_K:  6.340e-08  alpha:  6.391e-01  linmin: -2.068e-05  t[s]:   3627.38
	Linear fluid (dielectric constant: 78.4, screening length: 5.74355 Bohr) occupying 0.759588 of unit cell:	Completed after 0 iterations at t[s]:   3655.00
	Linear fluid (dielectric constant: 78.4, screening length: 5.74355 Bohr) occupying 0.759588 of unit cell:	Completed after 0 iterations at t[s]:   3685.56
	FillingsUpdate:  mu: -0.231497359  nElectrons: 399.000000  magneticMoment: [ Abs: 0.00001  Tot: -0.00001 ]
	SubspaceRotationAdjust: set factor to 0.781
ElecMinimize: Iter:   6  F: -1269.707093936275214  |grad|_K:  4.301e-08  alpha:  5.725e-01  linmin:  1.235e-07  t[s]:   3725.67
	Linear fluid (dielectric constant: 78.4, screening length: 5.74355 Bohr) occupying 0.759584 of unit cell:	Completed after 0 iterations at t[s]:   3754.00
	Linear fluid (dielectric constant: 78.4, screening length: 5.74355 Bohr) occupying 0.759585 of unit cell:	Completed after 0 iterations at t[s]:   3783.91
	FillingsUpdate:  mu: -0.231496612  nElectrons: 399.000000  magneticMoment: [ Abs: 0.00001  Tot: -0.00000 ]
	SubspaceRotationAdjust: set factor to 0.887
ElecMinimize: Iter:   7  F: -1269.707094135510715  |grad|_K:  2.393e-08  alpha:  4.976e-01  linmin: -2.913e-08  t[s]:   3823.27
	Linear fluid (dielectric constant: 78.4, screening length: 5.74355 Bohr) occupying 0.759583 of unit cell:	Completed after 0 iterations at t[s]:   3851.02
	Linear fluid (dielectric constant: 78.4, screening length: 5.74355 Bohr) occupying 0.759583 of unit cell:	Completed after 1 iterations at t[s]:   3881.30
	FillingsUpdate:  mu: -0.231502428  nElectrons: 399.000000  magneticMoment: [ Abs: 0.00000  Tot: -0.00000 ]
	SubspaceRotationAdjust: set factor to 0.813
ElecMinimize: Iter:   8  F: -1269.707094142549977  |grad|_K:  1.727e-08  alpha:  5.088e-01  linmin:  2.402e-05  t[s]:   3921.66
	Linear fluid (dielectric constant: 78.4, screening length: 5.74355 Bohr) occupying 0.759581 of unit cell:	Completed after 0 iterations at t[s]:   3949.75
	Linear fluid (dielectric constant: 78.4, screening length: 5.74355 Bohr) occupying 0.759581 of unit cell:	Completed after 0 iterations at t[s]:   3979.51
	FillingsUpdate:  mu: -0.231502835  nElectrons: 399.000000  magneticMoment: [ Abs: 0.00000  Tot: -0.00000 ]
	SubspaceRotationAdjust: set factor to 1.14
ElecMinimize: Iter:   9  F: -1269.707094172747247  |grad|_K:  1.251e-08  alpha:  5.575e-01  linmin:  2.308e-07  t[s]:   4019.61
	Linear fluid (dielectric constant: 78.4, screening length: 5.74355 Bohr) occupying 0.759581 of unit cell:	Completed after 0 iterations at t[s]:   4048.00
	Linear fluid (dielectric constant: 78.4, screening length: 5.74355 Bohr) occupying 0.759581 of unit cell:	Completed after 0 iterations at t[s]:   4077.91
	FillingsUpdate:  mu: -0.231503682  nElectrons: 399.000000  magneticMoment: [ Abs: 0.00000  Tot: -0.00000 ]
	SubspaceRotationAdjust: set factor to 1.46
ElecMinimize: Iter:  10  F: -1269.707094193264311  |grad|_K:  1.070e-08  alpha:  6.086e-01  linmin:  9.811e-09  t[s]:   4118.75
	Linear fluid (dielectric constant: 78.4, screening length: 5.74355 Bohr) occupying 0.759581 of unit cell:	Completed after 3 iterations at t[s]:   4147.39
	Linear fluid (dielectric constant: 78.4, screening length: 5.74355 Bohr) occupying 0.759581 of unit cell:	Completed after 0 iterations at t[s]:   4178.01
ElecMinimize: 	Step increased F by 1.735862e-08, reducing alpha to 4.479601e-03.
	Linear fluid (dielectric constant: 78.4, screening length: 5.74355 Bohr) occupying 0.759581 of unit cell:	Completed after 0 iterations at t[s]:   4240.41
ElecMinimize: 	Step increased F by 7.352583e-09, reducing alpha to 4.479601e-04.
	Linear fluid (dielectric constant: 78.4, screening length: 5.74355 Bohr) occupying 0.759581 of unit cell:	Completed after 0 iterations at t[s]:   4302.09
ElecMinimize: 	Step increased F by 6.441041e-09, reducing alpha to 4.479601e-05.
ElecMinimize: 	Step failed to reduce F after 3 attempts. Quitting step.
ElecMinimize: 	Undoing step.
	Linear fluid (dielectric constant: 78.4, screening length: 5.74355 Bohr) occupying 0.759581 of unit cell:	Completed after 0 iterations at t[s]:   4364.65
ElecMinimize: 	Step failed: resetting search direction.
	FillingsUpdate:  mu: -0.231433729  nElectrons: 399.000000  magneticMoment: [ Abs: 0.00000  Tot: -0.00000 ]
	SubspaceRotationAdjust: set factor to 0.822
ElecMinimize: Iter:  11  F: -1269.707094186888526  |grad|_K:  6.598e-08  alpha:  4.480e-05
	Linear fluid (dielectric constant: 78.4, screening length: 5.74355 Bohr) occupying 0.759579 of unit cell:	Completed after 2 iterations at t[s]:   4433.54
	Linear fluid (dielectric constant: 78.4, screening length: 5.74355 Bohr) occupying 0.759580 of unit cell:	Completed after 2 iterations at t[s]:   4463.88
ElecMinimize: 	Step increased F by 2.970478e-08, reducing alpha to 1.121394e-02.
	Linear fluid (dielectric constant: 78.4, screening length: 5.74355 Bohr) occupying 0.759581 of unit cell:	Completed after 0 iterations at t[s]:   4527.00
	FillingsUpdate:  mu: -0.231521866  nElectrons: 399.000000  magneticMoment: [ Abs: 0.00000  Tot: -0.00000 ]
	SubspaceRotationAdjust: set factor to 0.314
ElecMinimize: Iter:  12  F: -1269.707094222625983  |grad|_K:  1.909e-08  alpha:  1.121e-02  linmin:  5.394e-04  t[s]:   4566.30
	Linear fluid (dielectric constant: 78.4, screening length: 5.74355 Bohr) occupying 0.759581 of unit cell:	Completed after 0 iterations at t[s]:   4594.47
ElecMinimize: 	Predicted alpha/alphaT>3.000000, increasing alphaT to 3.364181e-02.
	Linear fluid (dielectric constant: 78.4, screening length: 5.74355 Bohr) occupying 0.759581 of unit cell:	Completed after 0 iterations at t[s]:   4624.31
ElecMinimize: 	Predicted alpha/alphaT>3.000000, increasing alphaT to 1.009254e-01.
	Linear fluid (dielectric constant: 78.4, screening length: 5.74355 Bohr) occupying 0.759581 of unit cell:	Completed after 0 iterations at t[s]:   4654.26
ElecMinimize: 	Predicted alpha/alphaT>3.000000, increasing alphaT to 3.027763e-01.
	Linear fluid (dielectric constant: 78.4, screening length: 5.74355 Bohr) occupying 0.759582 of unit cell:	Completed after 1 iterations at t[s]:   4684.44
ElecMinimize: 	Step increased F by 1.611413e-07, reducing alpha to 7.699864e-02.
	Linear fluid (dielectric constant: 78.4, screening length: 5.74355 Bohr) occupying 0.759581 of unit cell:	Completed after 0 iterations at t[s]:   4747.34
ElecMinimize: 	Step increased F by 5.678976e-08, reducing alpha to 7.699864e-03.
	Linear fluid (dielectric constant: 78.4, screening length: 5.74355 Bohr) occupying 0.759581 of unit cell:	Completed after 0 iterations at t[s]:   4810.14
ElecMinimize: 	Step increased F by 4.884896e-08, reducing alpha to 7.699864e-04.
ElecMinimize: 	Step failed to reduce F after 3 attempts. Quitting step.
ElecMinimize: 	Undoing step.
	Linear fluid (dielectric constant: 78.4, screening length: 5.74355 Bohr) occupying 0.759581 of unit cell:	Completed after 0 iterations at t[s]:   4872.67
ElecMinimize: 	Step failed: resetting search direction.
	FillingsUpdate:  mu: -0.231447011  nElectrons: 399.000000  magneticMoment: [ Abs: 0.00000  Tot: -0.00000 ]
	SubspaceRotationAdjust: set factor to 0.178
ElecMinimize: Iter:  13  F: -1269.707094173841824  |grad|_K:  2.787e-08  alpha:  7.700e-04
	Linear fluid (dielectric constant: 78.4, screening length: 5.74355 Bohr) occupying 0.759581 of unit cell:	Completed after 0 iterations at t[s]:   4941.01
ElecMinimize: 	Predicted alpha/alphaT>3.000000, increasing alphaT to 3.364181e-02.
	Linear fluid (dielectric constant: 78.4, screening length: 5.74355 Bohr) occupying 0.759581 of unit cell:	Completed after 0 iterations at t[s]:   4970.28
ElecMinimize: 	Predicted alpha/alphaT>3.000000, increasing alphaT to 1.009254e-01.
	Linear fluid (dielectric constant: 78.4, screening length: 5.74355 Bohr) occupying 0.759581 of unit cell:	Completed after 0 iterations at t[s]:   4999.33
ElecMinimize: 	Predicted alpha/alphaT>3.000000, increasing alphaT to 3.027763e-01.
	Linear fluid (dielectric constant: 78.4, screening length: 5.74355 Bohr) occupying 0.759580 of unit cell:	Completed after 2 iterations at t[s]:   5029.80
ElecMinimize: 	Step increased F by 6.790819e-07, reducing alpha to 1.611472e-01.
	Linear fluid (dielectric constant: 78.4, screening length: 5.74355 Bohr) occupying 0.759581 of unit cell:	Completed after 2 iterations at t[s]:   5092.99
	FillingsUpdate:  mu: -0.231488773  nElectrons: 399.000000  magneticMoment: [ Abs: 0.00000  Tot: -0.00000 ]
	SubspaceRotationAdjust: set factor to 0.352
ElecMinimize: Iter:  14  F: -1269.707094173941414  |grad|_K:  6.237e-09  alpha:  1.611e-01  linmin: -3.669e-04  t[s]:   5133.75
	Linear fluid (dielectric constant: 78.4, screening length: 5.74355 Bohr) occupying 0.759581 of unit cell:	Completed after 0 iterations at t[s]:   5162.37
ElecMinimize: 	Predicted alpha/alphaT>3.000000, increasing alphaT to 4.834416e-01.
	Linear fluid (dielectric constant: 78.4, screening length: 5.74355 Bohr) occupying 0.759581 of unit cell:	Completed after 0 iterations at t[s]:   5192.12
	Linear fluid (dielectric constant: 78.4, screening length: 5.74355 Bohr) occupying 0.759581 of unit cell:	Completed after 0 iterations at t[s]:   5221.98
	FillingsUpdate:  mu: -0.231488795  nElectrons: 399.000000  magneticMoment: [ Abs: 0.00000  Tot: -0.00000 ]
	SubspaceRotationAdjust: set factor to 0.381
ElecMinimize: Iter:  15  F: -1269.707094180659851  |grad|_K:  5.690e-09  alpha:  7.179e-01  linmin:  1.603e-06  t[s]:   5262.32
ElecMinimize: Converged (|Delta F|<1.000000e-08 for 2 iters).
Setting wave functions to eigenvectors of Hamiltonian
Single-point solvation energy estimate, DeltaF = +0.067784699831691

# Ionic positions in lattice coordinates:
ion Ta   0.166667780131944   0.083332222888888   0.499999991333335 1
ion Ta   0.416667780131944   0.083332222888888   0.499999991333335 1
ion Ta   0.666667780131944   0.083332222888888   0.499999991333335 1
ion Ta   0.916667780131944   0.083332222888888   0.499999991333335 1
ion Ta   0.166667780131944   0.333332222888888   0.499999991333335 1
ion Ta   0.416667780131944   0.333332222888888   0.499999991333335 1
ion Ta   0.666667780131944   0.333332222888888   0.499999991333335 1
ion Ta   0.916667780131944   0.333332222888888   0.499999991333335 1
ion Ta   0.166667780131944   0.583332222888888   0.499999991333335 1
ion Ta   0.416667780131944   0.583332222888888   0.499999991333335 1
ion Ta   0.666667780131944   0.583332222888888   0.499999991333335 1
ion Ta   0.916667780131944   0.583332222888888   0.499999991333335 1
ion Ta   0.166667780131944   0.833332222888888   0.499999991333335 1
ion Ta   0.416667780131944   0.833332222888888   0.499999991333335 1
ion Ta   0.666667780131944   0.833332222888888   0.499999991333335 1
ion Ta   0.916667780131944   0.833332222888888   0.499999991333335 1
ion S   0.000001113465278  -0.000001110444445   0.586319979333335 1
ion S   0.000001113465278  -0.000001110444445   0.413680003333335 1
ion S   0.250001113465278  -0.000001110444445   0.586319979333335 1
ion S   0.250001113465278  -0.000001110444445   0.413680003333335 1
ion S   0.500001113465278  -0.000001110444445   0.586319979333335 1
ion S   0.500001113465278  -0.000001110444445   0.413680003333335 1
ion S   0.750001113465278  -0.000001110444445   0.586319979333335 1
ion S   0.750001113465278  -0.000001110444445   0.413680003333335 1
ion S   0.000001113465278   0.249998889555555   0.586319979333335 1
ion S   0.000001113465278   0.249998889555555   0.413680003333335 1
ion S   0.250001113465278   0.249998889555555   0.586319979333335 1
ion S   0.250001113465278   0.249998889555555   0.413680003333335 1
ion S   0.500001113465278   0.249998889555555   0.586319979333335 1
ion S   0.500001113465278   0.249998889555555   0.413680003333335 1
ion S   0.750001113465278   0.249998889555555   0.586319979333335 1
ion S   0.750001113465278   0.249998889555555   0.413680003333335 1
ion S   0.000001113465278   0.499998889555555   0.586319979333335 1
ion S   0.000001113465278   0.499998889555555   0.413680003333335 1
ion S   0.250001113465278   0.499998889555555   0.586319979333335 1
ion S   0.250001113465278   0.499998889555555   0.413680003333335 1
ion S   0.500001113465278   0.499998889555555   0.586319979333335 1
ion S   0.500001113465278   0.499998889555555   0.413680003333335 1
ion S   0.750001113465278   0.499998889555555   0.586319979333335 1
ion S   0.750001113465278   0.499998889555555   0.413680003333335 1
ion S   0.000001113465278   0.749998889555555   0.586319979333335 1
ion S   0.000001113465278   0.749998889555555   0.413680003333335 1
ion S   0.250001113465278   0.749998889555555   0.586319979333335 1
ion S   0.250001113465278   0.749998889555555   0.413680003333335 1
ion S   0.500001113465278   0.749998889555555   0.586319979333335 1
ion S   0.500001113465278   0.749998889555555   0.413680003333335 1
ion S   0.750001113465278   0.749998889555555   0.586319979333335 1
ion S   0.750001113465278   0.749998889555555   0.413680003333335 1


# Forces in Lattice coordinates:
force Ta  -0.000000000000000  -0.000000000000000   0.000000000000000 1
force Ta  -0.000000000000000  -0.000000000000000  -0.000000000000000 1
force Ta   0.000000000000000  -0.000000000000000   0.000000000000000 1
force Ta   0.000000000000000  -0.000000000000000   0.000000000000000 1
force Ta   0.000000000000000  -0.000000000000000   0.000000000000000 1
force Ta   0.000000000000000  -0.000000000000000  -0.000000000000000 1
force Ta  -0.000000000000000  -0.000000000000000  -0.000000000000000 1
force Ta  -0.000000000000000  -0.000000000000000  -0.000000000000000 1
force Ta  -0.000000000000000  -0.000000000000000   0.000000000000000 1
force Ta   0.000000000000000   0.000000000000000   0.000000000000000 1
force Ta   0.000000000000000  -0.000000000000000   0.000000000000000 1
force Ta  -0.000000000000000  -0.000000000000000  -0.000000000000000 1
force Ta   0.000000000000000  -0.000000000000000   0.000000000000000 1
force Ta   0.000000000000000  -0.000000000000000  -0.000000000000000 1
force Ta  -0.000000000000000   0.000000000000000  -0.000000000000000 1
force Ta  -0.000000000000000  -0.000000000000000   0.000000000000000 1
force S  -0.000000000000000  -0.000000000000000   0.031942165571416 1
force S  -0.000000000000000  -0.000000000000000  -0.031942165571530 1
force S   0.000000000000000  -0.000000000000000   0.031942165571189 1
force S  -0.000000000000000   0.000000000000000  -0.031942165571189 1
force S   0.000000000000000  -0.000000000000000   0.031942165571303 1
force S  -0.000000000000000  -0.000000000000000  -0.031942165571532 1
force S   0.000000000000000  -0.000000000000000   0.031942165571189 1
force S  -0.000000000000000  -0.000000000000000  -0.031942165571303 1
force S   0.000000000000000  -0.000000000000000   0.031942165571302 1
force S   0.000000000000000  -0.000000000000000  -0.031942165571416 1
force S   0.000000000000000  -0.000000000000000   0.031942165571415 1
force S  -0.000000000000000   0.000000000000000  -0.031942165571188 1
force S   0.000000000000000  -0.000000000000000   0.031942165571416 1
force S  -0.000000000000000  -0.000000000000000  -0.031942165571302 1
force S   0.000000000000000  -0.000000000000000   0.031942165571302 1
force S  -0.000000000000000  -0.000000000000000  -0.031942165571530 1
force S   0.000000000000000  -0.000000000000000   0.031942165571529 1
force S   0.000000000000000  -0.000000000000000  -0.031942165571416 1
force S  -0.000000000000000  -0.000000000000000   0.031942165571302 1
force S   0.000000000000000   0.000000000000000  -0.031942165571189 1
force S   0.000000000000000  -0.000000000000000   0.031942165571415 1
force S  -0.000000000000000  -0.000000000000000  -0.031942165571303 1
force S  -0.000000000000000  -0.000000000000000   0.031942165571416 1
force S  -0.000000000000000  -0.000000000000000  -0.031942165571189 1
force S  -0.000000000000000  -0.000000000000000   0.031942165571303 1
force S  -0.000000000000000  -0.000000000000000  -0.031942165571415 1
force S   0.000000000000000  -0.000000000000000   0.031942165571416 1
force S   0.000000000000000   0.000000000000000  -0.031942165571530 1
force S   0.000000000000000  -0.000000000000000   0.031942165571416 1
force S  -0.000000000000000  -0.000000000000000  -0.031942165571303 1
force S   0.000000000000000  -0.000000000000000   0.031942165571303 1
force S   0.000000000000000  -0.000000000000000  -0.031942165571416 1

# Energy components:
   A_diel =        0.0568516540583388
   Eewald =     7269.5185627740620475
       EH =     8248.5492351271423104
     Eloc =   -16791.2585138363501756
      Enl =     -222.9927289522899798
      Exc =     -472.9624524217226735
 Exc_core =      252.5823485118696397
       KE =      446.8764814365425195
  MuShift =        0.0105535712440920
-------------------------------------
     Etot =    -1269.6196621354442868
       TS =        0.0874320452154784
-------------------------------------
        F =    -1269.7070941806598512

IonicMinimize: Iter:   0  F: -1269.707094180659851  |grad|_K:  4.395e-04  t[s]:   5282.76

#--- Lowdin population analysis ---
# oxidation-state Ta -0.377 -0.377 -0.377 -0.377 -0.377 -0.377 -0.377 -0.377 -0.377 -0.377 -0.377 -0.377 -0.377 -0.377 -0.377 -0.377
# magnetic-moments Ta -0.000 -0.000 -0.000 -0.000 -0.000 -0.000 -0.000 -0.000 -0.000 -0.000 -0.000 -0.000 -0.000 -0.000 -0.000 -0.000
# oxidation-state S +0.279 +0.279 +0.279 +0.279 +0.279 +0.279 +0.279 +0.279 +0.279 +0.279 +0.279 +0.279 +0.279 +0.279 +0.279 +0.279 +0.279 +0.279 +0.279 +0.279 +0.279 +0.279 +0.279 +0.279 +0.279 +0.279 +0.279 +0.279 +0.279 +0.279 +0.279 +0.279
# magnetic-moments S -0.000 -0.000 -0.000 -0.000 -0.000 -0.000 -0.000 -0.000 -0.000 -0.000 -0.000 -0.000 -0.000 -0.000 -0.000 -0.000 -0.000 -0.000 -0.000 -0.000 -0.000 -0.000 -0.000 -0.000 -0.000 -0.000 -0.000 -0.000 -0.000 -0.000 -0.000 -0.000

	Linear fluid (dielectric constant: 78.4, screening length: 5.74355 Bohr) occupying 0.759546 of unit cell:	Completed after 3 iterations at t[s]:   5312.05

-------- Electronic minimization -----------
	Linear fluid (dielectric constant: 78.4, screening length: 5.74355 Bohr) occupying 0.759546 of unit cell:	Completed after 0 iterations at t[s]:   5335.37
	FillingsUpdate:  mu: -0.231370132  nElectrons: 399.000000  magneticMoment: [ Abs: 0.00000  Tot: -0.00000 ]
ElecMinimize: Iter:   0  F: -1269.707114518716025  |grad|_K:  1.502e-07  alpha:  1.000e+00
	Linear fluid (dielectric constant: 78.4, screening length: 5.74355 Bohr) occupying 0.759548 of unit cell:	Completed after 2 iterations at t[s]:   5407.18
	Linear fluid (dielectric constant: 78.4, screening length: 5.74355 Bohr) occupying 0.759547 of unit cell:	Completed after 2 iterations at t[s]:   5438.50
	FillingsUpdate:  mu: -0.231550197  nElectrons: 399.000000  magneticMoment: [ Abs: 0.00000  Tot: -0.00000 ]
	SubspaceRotationAdjust: set factor to 0.355
ElecMinimize: Iter:   1  F: -1269.707118354187742  |grad|_K:  8.806e-08  alpha:  7.816e-01  linmin:  4.174e-04  t[s]:   5479.14
	Linear fluid (dielectric constant: 78.4, screening length: 5.74355 Bohr) occupying 0.759551 of unit cell:	Completed after 3 iterations at t[s]:   5510.17
	Linear fluid (dielectric constant: 78.4, screening length: 5.74355 Bohr) occupying 0.759551 of unit cell:	Completed after 0 iterations at t[s]:   5540.06
	FillingsUpdate:  mu: -0.231492581  nElectrons: 399.000000  magneticMoment: [ Abs: 0.00000  Tot: -0.00000 ]
	SubspaceRotationAdjust: set factor to 0.497
ElecMinimize: Iter:   2  F: -1269.707119840780479  |grad|_K:  6.317e-08  alpha:  9.034e-01  linmin: -9.709e-05  t[s]:   5579.88
	Linear fluid (dielectric constant: 78.4, screening length: 5.74355 Bohr) occupying 0.759555 of unit cell:	Completed after 0 iterations at t[s]:   5608.61
	Linear fluid (dielectric constant: 78.4, screening length: 5.74355 Bohr) occupying 0.759554 of unit cell:	Completed after 0 iterations at t[s]:   5638.51
	FillingsUpdate:  mu: -0.231493941  nElectrons: 399.000000  magneticMoment: [ Abs: 0.00000  Tot: -0.00000 ]
	SubspaceRotationAdjust: set factor to 0.583
ElecMinimize: Iter:   3  F: -1269.707120382839321  |grad|_K:  4.243e-08  alpha:  6.004e-01  linmin:  4.914e-08  t[s]:   5678.76
	Linear fluid (dielectric constant: 78.4, screening length: 5.74355 Bohr) occupying 0.759556 of unit cell:	Completed after 0 iterations at t[s]:   5707.20
	Linear fluid (dielectric constant: 78.4, screening length: 5.74355 Bohr) occupying 0.759556 of unit cell:	Completed after 0 iterations at t[s]:   5737.62
	FillingsUpdate:  mu: -0.231494611  nElectrons: 399.000000  magneticMoment: [ Abs: 0.00000  Tot: -0.00000 ]
	SubspaceRotationAdjust: set factor to 0.672
ElecMinimize: Iter:   4  F: -1269.707120555871370  |grad|_K:  2.173e-08  alpha:  4.441e-01  linmin:  1.129e-08  t[s]:   5777.29
	Linear fluid (dielectric constant: 78.4, screening length: 5.74355 Bohr) occupying 0.759556 of unit cell:	Completed after 0 iterations at t[s]:   5805.37
	Linear fluid (dielectric constant: 78.4, screening length: 5.74355 Bohr) occupying 0.759556 of unit cell:	Completed after 0 iterations at t[s]:   5835.36
	FillingsUpdate:  mu: -0.231494805  nElectrons: 399.000000  magneticMoment: [ Abs: 0.00000  Tot: -0.00000 ]
	SubspaceRotationAdjust: set factor to 0.748
ElecMinimize: Iter:   5  F: -1269.707120601429324  |grad|_K:  1.051e-08  alpha:  4.458e-01  linmin: -1.744e-08  t[s]:   5875.60
	Linear fluid (dielectric constant: 78.4, screening length: 5.74355 Bohr) occupying 0.759557 of unit cell:	Completed after 0 iterations at t[s]:   5903.80
	Linear fluid (dielectric constant: 78.4, screening length: 5.74355 Bohr) occupying 0.759557 of unit cell:	Completed after 0 iterations at t[s]:   5934.04
	FillingsUpdate:  mu: -0.231494812  nElectrons: 399.000000  magneticMoment: [ Abs: 0.00000  Tot: -0.00000 ]
	SubspaceRotationAdjust: set factor to 0.826
ElecMinimize: Iter:   6  F: -1269.707120615229996  |grad|_K:  5.121e-09  alpha:  5.787e-01  linmin: -2.610e-07  t[s]:   5973.66
	Linear fluid (dielectric constant: 78.4, screening length: 5.74355 Bohr) occupying 0.759558 of unit cell:	Completed after 0 iterations at t[s]:   6002.78
	Linear fluid (dielectric constant: 78.4, screening length: 5.74355 Bohr) occupying 0.759558 of unit cell:	Completed after 0 iterations at t[s]:   6033.16
	FillingsUpdate:  mu: -0.231494720  nElectrons: 399.000000  magneticMoment: [ Abs: 0.00000  Tot: -0.00000 ]
	SubspaceRotationAdjust: set factor to 0.934
ElecMinimize: Iter:   7  F: -1269.707120618518957  |grad|_K:  3.373e-09  alpha:  5.878e-01  linmin:  1.093e-06  t[s]:   6073.17
	Linear fluid (dielectric constant: 78.4, screening length: 5.74355 Bohr) occupying 0.759558 of unit cell:	Completed after 0 iterations at t[s]:   6101.27
	Linear fluid (dielectric constant: 78.4, screening length: 5.74355 Bohr) occupying 0.759558 of unit cell:	Completed after 0 iterations at t[s]:   6131.15
	FillingsUpdate:  mu: -0.231494623  nElectrons: 399.000000  magneticMoment: [ Abs: 0.00000  Tot: -0.00000 ]
	SubspaceRotationAdjust: set factor to 1.12
ElecMinimize: Iter:   8  F: -1269.707120619652414  |grad|_K:  1.886e-09  alpha:  5.158e-01  linmin:  7.798e-07  t[s]:   6171.08
ElecMinimize: Converged (|Delta F|<1.000000e-08 for 2 iters).
Setting wave functions to eigenvectors of Hamiltonian
IonicMinimize: 	Wolfe criterion not satisfied: alpha: 1  (E-E0)/|gdotd0|: -0.950569  gdotd/gdotd0: 0.905038 (taking cubic step)
	Linear fluid (dielectric constant: 78.4, screening length: 5.74355 Bohr) occupying 0.759490 of unit cell:	Completed after 4 iterations at t[s]:   6221.05

-------- Electronic minimization -----------
	Linear fluid (dielectric constant: 78.4, screening length: 5.74355 Bohr) occupying 0.759490 of unit cell:	Completed after 0 iterations at t[s]:   6245.46
	FillingsUpdate:  mu: -0.231158755  nElectrons: 399.000000  magneticMoment: [ Abs: 0.00000  Tot: -0.00000 ]
ElecMinimize: Iter:   0  F: -1269.707132771829038  |grad|_K:  4.683e-07  alpha:  1.000e+00
	Linear fluid (dielectric constant: 78.4, screening length: 5.74355 Bohr) occupying 0.759487 of unit cell:	Completed after 9 iterations at t[s]:   6321.13
	Linear fluid (dielectric constant: 78.4, screening length: 5.74355 Bohr) occupying 0.759489 of unit cell:	Completed after 9 iterations at t[s]:   6354.76
	FillingsUpdate:  mu: -0.231784999  nElectrons: 399.000000  magneticMoment: [ Abs: 0.00000  Tot: -0.00000 ]
	SubspaceRotationAdjust: set factor to 0.719
ElecMinimize: Iter:   1  F: -1269.707147132526870  |grad|_K:  3.194e-07  alpha:  3.034e-01  linmin:  2.656e-05  t[s]:   6396.52
	Linear fluid (dielectric constant: 78.4, screening length: 5.74355 Bohr) occupying 0.759500 of unit cell:	Completed after 3 iterations at t[s]:   6425.20
	Linear fluid (dielectric constant: 78.4, screening length: 5.74355 Bohr) occupying 0.759505 of unit cell:	Completed after 2 iterations at t[s]:   6455.95
	FillingsUpdate:  mu: -0.231526396  nElectrons: 399.000000  magneticMoment: [ Abs: 0.00000  Tot: -0.00000 ]
	SubspaceRotationAdjust: set factor to 0.979
ElecMinimize: Iter:   2  F: -1269.707157244081827  |grad|_K:  7.570e-08  alpha:  4.601e-01  linmin:  4.361e-05  t[s]:   6496.50
	Linear fluid (dielectric constant: 78.4, screening length: 5.74355 Bohr) occupying 0.759508 of unit cell:	Completed after 3 iterations at t[s]:   6525.49
	Linear fluid (dielectric constant: 78.4, screening length: 5.74355 Bohr) occupying 0.759509 of unit cell:	Completed after 0 iterations at t[s]:   6556.45
	FillingsUpdate:  mu: -0.231477728  nElectrons: 399.000000  magneticMoment: [ Abs: 0.00000  Tot: -0.00000 ]
	SubspaceRotationAdjust: set factor to 1.15
ElecMinimize: Iter:   3  F: -1269.707157849880105  |grad|_K:  2.869e-08  alpha:  4.843e-01  linmin: -3.331e-04  t[s]:   6596.98
	Linear fluid (dielectric constant: 78.4, screening length: 5.74355 Bohr) occupying 0.759509 of unit cell:	Completed after 0 iterations at t[s]:   6625.38
	Linear fluid (dielectric constant: 78.4, screening length: 5.74355 Bohr) occupying 0.759509 of unit cell:	Completed after 0 iterations at t[s]:   6655.32
	FillingsUpdate:  mu: -0.231476769  nElectrons: 399.000000  magneticMoment: [ Abs: 0.00000  Tot: -0.00000 ]
	SubspaceRotationAdjust: set factor to 1.3
ElecMinimize: Iter:   4  F: -1269.707157999451283  |grad|_K:  1.888e-08  alpha:  7.439e-01  linmin:  1.395e-07  t[s]:   6694.89
	Linear fluid (dielectric constant: 78.4, screening length: 5.74355 Bohr) occupying 0.759509 of unit cell:	Completed after 0 iterations at t[s]:   6722.93
	Linear fluid (dielectric constant: 78.4, screening length: 5.74355 Bohr) occupying 0.759509 of unit cell:	Completed after 0 iterations at t[s]:   6752.68
	FillingsUpdate:  mu: -0.231476042  nElectrons: 399.000000  magneticMoment: [ Abs: 0.00000  Tot: -0.00000 ]
	SubspaceRotationAdjust: set factor to 1.43
ElecMinimize: Iter:   5  F: -1269.707158046525592  |grad|_K:  1.110e-08  alpha:  6.110e-01  linmin:  4.047e-08  t[s]:   6792.17
	Linear fluid (dielectric constant: 78.4, screening length: 5.74355 Bohr) occupying 0.759509 of unit cell:	Completed after 0 iterations at t[s]:   6820.74
	Linear fluid (dielectric constant: 78.4, screening length: 5.74355 Bohr) occupying 0.759509 of unit cell:	Completed after 0 iterations at t[s]:   6850.44
	FillingsUpdate:  mu: -0.231475768  nElectrons: 399.000000  magneticMoment: [ Abs: 0.00000  Tot: -0.00000 ]
	SubspaceRotationAdjust: set factor to 1.65
ElecMinimize: Iter:   6  F: -1269.707158061019300  |grad|_K:  5.773e-09  alpha:  5.425e-01  linmin: -6.259e-08  t[s]:   6889.96
	Linear fluid (dielectric constant: 78.4, screening length: 5.74355 Bohr) occupying 0.759510 of unit cell:	Completed after 0 iterations at t[s]:   6918.34
	Linear fluid (dielectric constant: 78.4, screening length: 5.74355 Bohr) occupying 0.759510 of unit cell:	Completed after 0 iterations at t[s]:   6948.31
	FillingsUpdate:  mu: -0.231475785  nElectrons: 399.000000  magneticMoment: [ Abs: 0.00000  Tot: -0.00000 ]
	SubspaceRotationAdjust: set factor to 1.88
ElecMinimize: Iter:   7  F: -1269.707158064555642  |grad|_K:  3.656e-09  alpha:  4.887e-01  linmin: -6.229e-07  t[s]:   6987.65
	Linear fluid (dielectric constant: 78.4, screening length: 5.74355 Bohr) occupying 0.759510 of unit cell:	Completed after 0 iterations at t[s]:   7015.91
	Linear fluid (dielectric constant: 78.4, screening length: 5.74355 Bohr) occupying 0.759510 of unit cell:	Completed after 0 iterations at t[s]:   7045.15
	FillingsUpdate:  mu: -0.231475904  nElectrons: 399.000000  magneticMoment: [ Abs: 0.00000  Tot: -0.00000 ]
	SubspaceRotationAdjust: set factor to 2.03
ElecMinimize: Iter:   8  F: -1269.707158066114744  |grad|_K:  2.228e-09  alpha:  5.390e-01  linmin:  1.504e-08  t[s]:   7084.98
ElecMinimize: Converged (|Delta F|<1.000000e-08 for 2 iters).
Setting wave functions to eigenvectors of Hamiltonian

# Ionic positions in lattice coordinates:
ion Ta   0.166667780131944   0.083332222888888   0.499999991333335 1
ion Ta   0.416667780131944   0.083332222888888   0.499999991333335 1
ion Ta   0.666667780131944   0.083332222888888   0.499999991333335 1
ion Ta   0.916667780131944   0.083332222888888   0.499999991333335 1
ion Ta   0.166667780131944   0.333332222888888   0.499999991333335 1
ion Ta   0.416667780131944   0.333332222888888   0.499999991333335 1
ion Ta   0.666667780131944   0.333332222888888   0.499999991333335 1
ion Ta   0.916667780131944   0.333332222888888   0.499999991333335 1
ion Ta   0.166667780131944   0.583332222888888   0.499999991333335 1
ion Ta   0.416667780131944   0.583332222888888   0.499999991333335 1
ion Ta   0.666667780131944   0.583332222888888   0.499999991333335 1
ion Ta   0.916667780131944   0.583332222888888   0.499999991333335 1
ion Ta   0.166667780131944   0.833332222888888   0.499999991333335 1
ion Ta   0.416667780131944   0.833332222888888   0.499999991333335 1
ion Ta   0.666667780131944   0.833332222888888   0.499999991333335 1
ion Ta   0.916667780131944   0.833332222888888   0.499999991333335 1
ion S   0.000001113465278  -0.000001110444445   0.586401612824880 1
ion S   0.000001113465278  -0.000001110444445   0.413598369841790 1
ion S   0.250001113465278  -0.000001110444445   0.586401612824880 1
ion S   0.250001113465278  -0.000001110444445   0.413598369841790 1
ion S   0.500001113465278  -0.000001110444445   0.586401612824880 1
ion S   0.500001113465278  -0.000001110444445   0.413598369841790 1
ion S   0.750001113465278  -0.000001110444445   0.586401612824880 1
ion S   0.750001113465278  -0.000001110444445   0.413598369841790 1
ion S   0.000001113465278   0.249998889555555   0.586401612824880 1
ion S   0.000001113465278   0.249998889555555   0.413598369841790 1
ion S   0.250001113465278   0.249998889555555   0.586401612824880 1
ion S   0.250001113465278   0.249998889555555   0.413598369841790 1
ion S   0.500001113465278   0.249998889555555   0.586401612824880 1
ion S   0.500001113465278   0.249998889555555   0.413598369841790 1
ion S   0.750001113465278   0.249998889555555   0.586401612824880 1
ion S   0.750001113465278   0.249998889555555   0.413598369841790 1
ion S   0.000001113465278   0.499998889555555   0.586401612824880 1
ion S   0.000001113465278   0.499998889555555   0.413598369841790 1
ion S   0.250001113465278   0.499998889555555   0.586401612824880 1
ion S   0.250001113465278   0.499998889555555   0.413598369841790 1
ion S   0.500001113465278   0.499998889555555   0.586401612824880 1
ion S   0.500001113465278   0.499998889555555   0.413598369841790 1
ion S   0.750001113465278   0.499998889555555   0.586401612824880 1
ion S   0.750001113465278   0.499998889555555   0.413598369841790 1
ion S   0.000001113465278   0.749998889555555   0.586401612824880 1
ion S   0.000001113465278   0.749998889555555   0.413598369841790 1
ion S   0.250001113465278   0.749998889555555   0.586401612824880 1
ion S   0.250001113465278   0.749998889555555   0.413598369841790 1
ion S   0.500001113465278   0.749998889555555   0.586401612824880 1
ion S   0.500001113465278   0.749998889555555   0.413598369841790 1
ion S   0.750001113465278   0.749998889555555   0.586401612824880 1
ion S   0.750001113465278   0.749998889555555   0.413598369841790 1


# Forces in Lattice coordinates:
force Ta  -0.000000000000000   0.000000000000000  -0.000000000000000 1
force Ta  -0.000000000000000   0.000000000000000  -0.000000000000000 1
force Ta   0.000000000000000   0.000000000000000   0.000000000000000 1
force Ta  -0.000000000000000   0.000000000000000  -0.000000000000000 1
force Ta   0.000000000000000   0.000000000000000  -0.000000000000000 1
force Ta   0.000000000000000   0.000000000000000  -0.000000000000000 1
force Ta   0.000000000000000   0.000000000000000  -0.000000000000000 1
force Ta  -0.000000000000000   0.000000000000000   0.000000000000000 1
force Ta   0.000000000000000   0.000000000000000   0.000000000000000 1
force Ta  -0.000000000000000   0.000000000000000  -0.000000000000000 1
force Ta   0.000000000000000   0.000000000000000   0.000000000000000 1
force Ta   0.000000000000000   0.000000000000000  -0.000000000000000 1
force Ta  -0.000000000000000   0.000000000000000  -0.000000000000000 1
force Ta   0.000000000000000   0.000000000000000   0.000000000000000 1
force Ta   0.000000000000000   0.000000000000000  -0.000000000000000 1
force Ta  -0.000000000000000   0.000000000000000  -0.000000000000000 1
force S  -0.000000000000000  -0.000000000000000   0.015726625090803 1
force S   0.000000000000000  -0.000000000000000  -0.015726625090916 1
force S   0.000000000000000  -0.000000000000000   0.015726625091030 1
force S   0.000000000000000  -0.000000000000000  -0.015726625091257 1
force S  -0.000000000000000  -0.000000000000000   0.015726625091030 1
force S   0.000000000000000   0.000000000000000  -0.015726625091030 1
force S  -0.000000000000000  -0.000000000000000   0.015726625090916 1
force S  -0.000000000000000  -0.000000000000000  -0.015726625091030 1
force S  -0.000000000000000  -0.000000000000000   0.015726625091030 1
force S   0.000000000000000   0.000000000000000  -0.015726625091257 1
force S  -0.000000000000000  -0.000000000000000   0.015726625091030 1
force S  -0.000000000000000   0.000000000000000  -0.015726625091257 1
force S  -0.000000000000000  -0.000000000000000   0.015726625090917 1
force S   0.000000000000000   0.000000000000000  -0.015726625091257 1
force S  -0.000000000000000  -0.000000000000000   0.015726625091030 1
force S   0.000000000000000  -0.000000000000000  -0.015726625091142 1
force S  -0.000000000000000  -0.000000000000000   0.015726625091030 1
force S  -0.000000000000000  -0.000000000000000  -0.015726625091258 1
force S   0.000000000000000  -0.000000000000000   0.015726625091031 1
force S   0.000000000000000  -0.000000000000000  -0.015726625091258 1
force S   0.000000000000000  -0.000000000000000   0.015726625091031 1
force S   0.000000000000000  -0.000000000000000  -0.015726625091258 1
force S  -0.000000000000000  -0.000000000000000   0.015726625091030 1
force S  -0.000000000000000  -0.000000000000000  -0.015726625091258 1
force S  -0.000000000000000  -0.000000000000000   0.015726625091030 1
force S  -0.000000000000000  -0.000000000000000  -0.015726625091144 1
force S  -0.000000000000000  -0.000000000000000   0.015726625091144 1
force S   0.000000000000000  -0.000000000000000  -0.015726625091143 1
force S  -0.000000000000000   0.000000000000000   0.015726625091144 1
force S   0.000000000000000  -0.000000000000000  -0.015726625091030 1
force S   0.000000000000000  -0.000000000000000   0.015726625091030 1
force S  -0.000000000000000  -0.000000000000000  -0.015726625091144 1

# Energy components:
   A_diel =        0.0568801499379032
   Eewald =     7267.9686364684475848
       EH =     8247.0223438375978731
     Eloc =   -16788.1550904075775179
      Enl =     -222.9881866261563061
      Exc =     -472.9448877195706018
 Exc_core =      252.5823425343072017
       KE =      446.8277161796791006
  MuShift =        0.0105535712440920
-------------------------------------
     Etot =    -1269.6196920120908089
       TS =        0.0874660540239875
-------------------------------------
        F =    -1269.7071580661147436

IonicMinimize: Iter:   1  F: -1269.707158066114744  |grad|_K:  2.164e-04  alpha:  3.000e+00  linmin: -1.000e+00  t[s]:   7105.79

#--- Lowdin population analysis ---
# oxidation-state Ta -0.377 -0.377 -0.377 -0.377 -0.377 -0.377 -0.377 -0.377 -0.377 -0.377 -0.377 -0.377 -0.377 -0.377 -0.377 -0.377
# magnetic-moments Ta -0.000 -0.000 -0.000 -0.000 -0.000 -0.000 -0.000 -0.000 -0.000 -0.000 -0.000 -0.000 -0.000 -0.000 -0.000 -0.000
# oxidation-state S +0.279 +0.279 +0.279 +0.279 +0.279 +0.279 +0.279 +0.279 +0.279 +0.279 +0.279 +0.279 +0.279 +0.279 +0.279 +0.279 +0.279 +0.279 +0.279 +0.279 +0.279 +0.279 +0.279 +0.279 +0.279 +0.279 +0.279 +0.279 +0.279 +0.279 +0.279 +0.279
# magnetic-moments S +0.000 +0.000 +0.000 +0.000 +0.000 +0.000 +0.000 +0.000 +0.000 +0.000 +0.000 +0.000 +0.000 +0.000 +0.000 +0.000 +0.000 +0.000 +0.000 +0.000 +0.000 +0.000 +0.000 +0.000 +0.000 +0.000 +0.000 +0.000 +0.000 +0.000 +0.000 +0.000

	Linear fluid (dielectric constant: 78.4, screening length: 5.74355 Bohr) occupying 0.759413 of unit cell:	Completed after 5 iterations at t[s]:   7136.36

-------- Electronic minimization -----------
	Linear fluid (dielectric constant: 78.4, screening length: 5.74355 Bohr) occupying 0.759413 of unit cell:	Completed after 0 iterations at t[s]:   7161.43
	FillingsUpdate:  mu: -0.231065479  nElectrons: 399.000000  magneticMoment: [ Abs: 0.00001  Tot: -0.00000 ]
ElecMinimize: Iter:   0  F: -1269.707124870358939  |grad|_K:  8.169e-07  alpha:  1.000e+00
	Linear fluid (dielectric constant: 78.4, screening length: 5.74355 Bohr) occupying 0.759405 of unit cell:	Completed after 10 iterations at t[s]:   7235.24
	Linear fluid (dielectric constant: 78.4, screening length: 5.74355 Bohr) occupying 0.759412 of unit cell:	Completed after 10 iterations at t[s]:   7268.62
	FillingsUpdate:  mu: -0.231913398  nElectrons: 399.000000  magneticMoment: [ Abs: 0.00001  Tot: -0.00000 ]
	SubspaceRotationAdjust: set factor to 1.22
ElecMinimize: Iter:   1  F: -1269.707151302924331  |grad|_K:  6.077e-07  alpha:  1.843e-01  linmin:  2.476e-05  t[s]:   7311.01
	Linear fluid (dielectric constant: 78.4, screening length: 5.74355 Bohr) occupying 0.759429 of unit cell:	Completed after 3 iterations at t[s]:   7339.22
	Linear fluid (dielectric constant: 78.4, screening length: 5.74355 Bohr) occupying 0.759437 of unit cell:	Completed after 3 iterations at t[s]:   7369.88
	FillingsUpdate:  mu: -0.231512954  nElectrons: 399.000000  magneticMoment: [ Abs: 0.00000  Tot: -0.00000 ]
	SubspaceRotationAdjust: set factor to 0.543
ElecMinimize: Iter:   2  F: -1269.707173612695669  |grad|_K:  1.084e-07  alpha:  2.814e-01  linmin:  1.250e-04  t[s]:   7410.28
	Linear fluid (dielectric constant: 78.4, screening length: 5.74355 Bohr) occupying 0.759439 of unit cell:	Completed after 3 iterations at t[s]:   7439.82
	Linear fluid (dielectric constant: 78.4, screening length: 5.74355 Bohr) occupying 0.759441 of unit cell:	Completed after 0 iterations at t[s]:   7470.48
	FillingsUpdate:  mu: -0.231458661  nElectrons: 399.000000  magneticMoment: [ Abs: 0.00000  Tot: -0.00000 ]
	SubspaceRotationAdjust: set factor to 0.737
ElecMinimize: Iter:   3  F: -1269.707175125836102  |grad|_K:  5.236e-08  alpha:  4.936e-01  linmin: -1.015e-03  t[s]:   7510.94
	Linear fluid (dielectric constant: 78.4, screening length: 5.74355 Bohr) occupying 0.759441 of unit cell:	Completed after 0 iterations at t[s]:   7538.67
	Linear fluid (dielectric constant: 78.4, screening length: 5.74355 Bohr) occupying 0.759442 of unit cell:	Completed after 0 iterations at t[s]:   7568.42
	FillingsUpdate:  mu: -0.231458276  nElectrons: 399.000000  magneticMoment: [ Abs: 0.00000  Tot: -0.00000 ]
	SubspaceRotationAdjust: set factor to 0.9
ElecMinimize: Iter:   4  F: -1269.707175837196473  |grad|_K:  2.849e-08  alpha:  8.873e-01  linmin:  2.103e-07  t[s]:   7608.11
	Linear fluid (dielectric constant: 78.4, screening length: 5.74355 Bohr) occupying 0.759441 of unit cell:	Completed after 0 iterations at t[s]:   7636.34
	Linear fluid (dielectric constant: 78.4, screening length: 5.74355 Bohr) occupying 0.759441 of unit cell:	Completed after 0 iterations at t[s]:   7666.25
	FillingsUpdate:  mu: -0.231458056  nElectrons: 399.000000  magneticMoment: [ Abs: 0.00000  Tot: +0.00000 ]
	SubspaceRotationAdjust: set factor to 1.05
ElecMinimize: Iter:   5  F: -1269.707175963251075  |grad|_K:  2.048e-08  alpha:  7.177e-01  linmin: -3.623e-08  t[s]:   7706.24
	Linear fluid (dielectric constant: 78.4, screening length: 5.74355 Bohr) occupying 0.759440 of unit cell:	Completed after 0 iterations at t[s]:   7734.73
	Linear fluid (dielectric constant: 78.4, screening length: 5.74355 Bohr) occupying 0.759440 of unit cell:	Completed after 0 iterations at t[s]:   7764.73
	FillingsUpdate:  mu: -0.231457932  nElectrons: 399.000000  magneticMoment: [ Abs: 0.00000  Tot: +0.00000 ]
	SubspaceRotationAdjust: set factor to 1.18
ElecMinimize: Iter:   6  F: -1269.707176010807189  |grad|_K:  1.065e-08  alpha:  5.230e-01  linmin:  7.236e-08  t[s]:   7805.23
	Linear fluid (dielectric constant: 78.4, screening length: 5.74355 Bohr) occupying 0.759440 of unit cell:	Completed after 0 iterations at t[s]:   7833.00
	Linear fluid (dielectric constant: 78.4, screening length: 5.74355 Bohr) occupying 0.759440 of unit cell:	Completed after 0 iterations at t[s]:   7862.71
	FillingsUpdate:  mu: -0.231457946  nElectrons: 399.000000  magneticMoment: [ Abs: 0.00000  Tot: +0.00000 ]
	SubspaceRotationAdjust: set factor to 1.31
ElecMinimize: Iter:   7  F: -1269.707176026729712  |grad|_K:  6.997e-09  alpha:  6.411e-01  linmin: -7.272e-07  t[s]:   7902.57
	Linear fluid (dielectric constant: 78.4, screening length: 5.74355 Bohr) occupying 0.759440 of unit cell:	Completed after 0 iterations at t[s]:   7931.11
	Linear fluid (dielectric constant: 78.4, screening length: 5.74355 Bohr) occupying 0.759440 of unit cell:	Completed after 0 iterations at t[s]:   7960.61
	FillingsUpdate:  mu: -0.231458039  nElectrons: 399.000000  magneticMoment: [ Abs: 0.00000  Tot: -0.00000 ]
	SubspaceRotationAdjust: set factor to 1.54
ElecMinimize: Iter:   8  F: -1269.707176032005918  |grad|_K:  4.356e-09  alpha:  4.921e-01  linmin: -4.112e-09  t[s]:   8000.84
	Linear fluid (dielectric constant: 78.4, screening length: 5.74355 Bohr) occupying 0.759441 of unit cell:	Completed after 0 iterations at t[s]:   8028.87
	Linear fluid (dielectric constant: 78.4, screening length: 5.74355 Bohr) occupying 0.759441 of unit cell:	Completed after 0 iterations at t[s]:   8059.26
	FillingsUpdate:  mu: -0.231458146  nElectrons: 399.000000  magneticMoment: [ Abs: 0.00000  Tot: -0.00000 ]
	SubspaceRotationAdjust: set factor to 1.72
ElecMinimize: Iter:   9  F: -1269.707176034189388  |grad|_K:  2.605e-09  alpha:  5.221e-01  linmin: -2.346e-06  t[s]:   8099.58
ElecMinimize: Converged (|Delta F|<1.000000e-08 for 2 iters).
Setting wave functions to eigenvectors of Hamiltonian

# Ionic positions in lattice coordinates:
ion Ta   0.166667780131944   0.083332222888888   0.499999991333335 1
ion Ta   0.416667780131944   0.083332222888888   0.499999991333335 1
ion Ta   0.666667780131944   0.083332222888888   0.499999991333335 1
ion Ta   0.916667780131944   0.083332222888888   0.499999991333335 1
ion Ta   0.166667780131944   0.333332222888888   0.499999991333335 1
ion Ta   0.416667780131944   0.333332222888888   0.499999991333335 1
ion Ta   0.666667780131944   0.333332222888888   0.499999991333335 1
ion Ta   0.916667780131944   0.333332222888888   0.499999991333335 1
ion Ta   0.166667780131944   0.583332222888888   0.499999991333335 1
ion Ta   0.416667780131944   0.583332222888888   0.499999991333335 1
ion Ta   0.666667780131944   0.583332222888888   0.499999991333335 1
ion Ta   0.916667780131944   0.583332222888888   0.499999991333335 1
ion Ta   0.166667780131944   0.833332222888888   0.499999991333335 1
ion Ta   0.416667780131944   0.833332222888888   0.499999991333335 1
ion Ta   0.666667780131944   0.833332222888888   0.499999991333335 1
ion Ta   0.916667780131944   0.833332222888888   0.499999991333335 1
ion S   0.000001113465278  -0.000001110444445   0.586480784981859 1
ion S   0.000001113465278  -0.000001110444445   0.413519197684811 1
ion S   0.250001113465278  -0.000001110444445   0.586480784981859 1
ion S   0.250001113465278  -0.000001110444445   0.413519197684811 1
ion S   0.500001113465278  -0.000001110444445   0.586480784981859 1
ion S   0.500001113465278  -0.000001110444445   0.413519197684811 1
ion S   0.750001113465278  -0.000001110444445   0.586480784981859 1
ion S   0.750001113465278  -0.000001110444445   0.413519197684811 1
ion S   0.000001113465278   0.249998889555555   0.586480784981859 1
ion S   0.000001113465278   0.249998889555555   0.413519197684811 1
ion S   0.250001113465278   0.249998889555555   0.586480784981859 1
ion S   0.250001113465278   0.249998889555555   0.413519197684811 1
ion S   0.500001113465278   0.249998889555555   0.586480784981859 1
ion S   0.500001113465278   0.249998889555555   0.413519197684811 1
ion S   0.750001113465278   0.249998889555555   0.586480784981859 1
ion S   0.750001113465278   0.249998889555555   0.413519197684811 1
ion S   0.000001113465278   0.499998889555555   0.586480784981859 1
ion S   0.000001113465278   0.499998889555555   0.413519197684811 1
ion S   0.250001113465278   0.499998889555555   0.586480784981859 1
ion S   0.250001113465278   0.499998889555555   0.413519197684811 1
ion S   0.500001113465278   0.499998889555555   0.586480784981859 1
ion S   0.500001113465278   0.499998889555555   0.413519197684811 1
ion S   0.750001113465278   0.499998889555555   0.586480784981859 1
ion S   0.750001113465278   0.499998889555555   0.413519197684811 1
ion S   0.000001113465278   0.749998889555555   0.586480784981859 1
ion S   0.000001113465278   0.749998889555555   0.413519197684811 1
ion S   0.250001113465278   0.749998889555555   0.586480784981859 1
ion S   0.250001113465278   0.749998889555555   0.413519197684811 1
ion S   0.500001113465278   0.749998889555555   0.586480784981859 1
ion S   0.500001113465278   0.749998889555555   0.413519197684811 1
ion S   0.750001113465278   0.749998889555555   0.586480784981859 1
ion S   0.750001113465278   0.749998889555555   0.413519197684811 1


# Forces in Lattice coordinates:
force Ta   0.000000000000000  -0.000000000000000   0.000000000000000 1
force Ta   0.000000000000000   0.000000000000000   0.000000000000000 1
force Ta   0.000000000000000   0.000000000000000  -0.000000000000000 1
force Ta  -0.000000000000000   0.000000000000000   0.000000000000000 1
force Ta  -0.000000000000000   0.000000000000000   0.000000000000000 1
force Ta   0.000000000000000   0.000000000000000  -0.000000000000000 1
force Ta  -0.000000000000000   0.000000000000000   0.000000000000000 1
force Ta  -0.000000000000000   0.000000000000000   0.000000000000000 1
force Ta  -0.000000000000000   0.000000000000000  -0.000000000000000 1
force Ta  -0.000000000000000   0.000000000000000  -0.000000000000000 1
force Ta   0.000000000000000   0.000000000000000  -0.000000000000000 1
force Ta   0.000000000000000   0.000000000000000  -0.000000000000000 1
force Ta   0.000000000000000   0.000000000000000   0.000000000000000 1
force Ta  -0.000000000000000   0.000000000000000  -0.000000000000000 1
force Ta  -0.000000000000000   0.000000000000000  -0.000000000000000 1
force Ta   0.000000000000000   0.000000000000000   0.000000000000000 1
force S  -0.000000000000000  -0.000000000000000   0.001183328346763 1
force S   0.000000000000000  -0.000000000000000  -0.001183328346992 1
force S  -0.000000000000000  -0.000000000000000   0.001183328346762 1
force S   0.000000000000000  -0.000000000000000  -0.001183328346877 1
force S   0.000000000000000  -0.000000000000000   0.001183328346764 1
force S   0.000000000000000  -0.000000000000000  -0.001183328346992 1
force S  -0.000000000000000  -0.000000000000000   0.001183328346764 1
force S   0.000000000000000  -0.000000000000000  -0.001183328346878 1
force S  -0.000000000000000  -0.000000000000000   0.001183328346763 1
force S   0.000000000000000   0.000000000000000  -0.001183328346992 1
force S  -0.000000000000000   0.000000000000000   0.001183328346764 1
force S   0.000000000000000  -0.000000000000000  -0.001183328346992 1
force S  -0.000000000000000  -0.000000000000000   0.001183328346764 1
force S   0.000000000000000   0.000000000000000  -0.001183328346992 1
force S  -0.000000000000000  -0.000000000000000   0.001183328346764 1
force S   0.000000000000000  -0.000000000000000  -0.001183328346991 1
force S   0.000000000000000   0.000000000000000   0.001183328346764 1
force S   0.000000000000000   0.000000000000000  -0.001183328346877 1
force S   0.000000000000000  -0.000000000000000   0.001183328346764 1
force S   0.000000000000000  -0.000000000000000  -0.001183328346991 1
force S  -0.000000000000000  -0.000000000000000   0.001183328346763 1
force S  -0.000000000000000  -0.000000000000000  -0.001183328346992 1
force S  -0.000000000000000   0.000000000000000   0.001183328346763 1
force S  -0.000000000000000  -0.000000000000000  -0.001183328346991 1
force S   0.000000000000000  -0.000000000000000   0.001183328346763 1
force S   0.000000000000000   0.000000000000000  -0.001183328346991 1
force S  -0.000000000000000  -0.000000000000000   0.001183328346764 1
force S   0.000000000000000   0.000000000000000  -0.001183328346991 1
force S  -0.000000000000000  -0.000000000000000   0.001183328346762 1
force S  -0.000000000000000  -0.000000000000000  -0.001183328346877 1
force S   0.000000000000000  -0.000000000000000   0.001183328346762 1
force S   0.000000000000000  -0.000000000000000  -0.001183328346877 1

# Energy components:
   A_diel =        0.0568965521230775
   Eewald =     7266.4653489049851487
       EH =     8245.5777798351700767
     Eloc =   -16785.1801560672502092
      Enl =     -222.9866673625090243
      Exc =     -472.9281593429532222
 Exc_core =      252.5823368025469335
       KE =      446.7823923457992237
  MuShift =        0.0105535712440920
-------------------------------------
     Etot =    -1269.6196747608435089
       TS =        0.0875012733458711
-------------------------------------
        F =    -1269.7071760341893878

IonicMinimize: Iter:   2  F: -1269.707176034189388  |grad|_K:  1.628e-05  alpha:  1.000e+00  linmin: -1.000e+00  t[s]:   8120.12
IonicMinimize: Converged (|grad|_K<1.000000e-04).

#--- Lowdin population analysis ---
# oxidation-state Ta -0.376 -0.376 -0.376 -0.376 -0.376 -0.376 -0.376 -0.376 -0.376 -0.376 -0.376 -0.376 -0.376 -0.376 -0.376 -0.376
# magnetic-moments Ta -0.000 -0.000 -0.000 -0.000 -0.000 -0.000 -0.000 -0.000 -0.000 -0.000 -0.000 -0.000 -0.000 -0.000 -0.000 -0.000
# oxidation-state S +0.278 +0.278 +0.278 +0.278 +0.278 +0.278 +0.278 +0.278 +0.278 +0.278 +0.278 +0.278 +0.278 +0.278 +0.278 +0.278 +0.278 +0.278 +0.278 +0.278 +0.278 +0.278 +0.278 +0.278 +0.278 +0.278 +0.278 +0.278 +0.278 +0.278 +0.278 +0.278
# magnetic-moments S +0.000 +0.000 +0.000 +0.000 +0.000 +0.000 +0.000 +0.000 +0.000 +0.000 +0.000 +0.000 +0.000 +0.000 +0.000 +0.000 +0.000 +0.000 +0.000 +0.000 +0.000 +0.000 +0.000 +0.000 +0.000 +0.000 +0.000 +0.000 +0.000 +0.000 +0.000 +0.000


Dumping 'NbTe2.fillings' ... done
Dumping 'NbTe2.wfns' ... done
Dumping 'NbTe2.fluidState' ... done
Dumping 'NbTe2.ionpos' ... done
Dumping 'NbTe2.eigenvals' ... done
End date and time: Thu Jan  7 20:12:42 2021  (Duration: 0-2:15:34.75)
Done!
