
*************** JDFTx 1.5.0  ***************

Start date and time: Wed Apr 14 05:45:53 2021
Executable jdftx_gpu with command-line: -i Charged.in -o Charged.out
Running on hosts (process indices):  amax (0-6)
Divided in process groups (process indices):  0 (0)  1 (1)  2 (2)  3 (3)  4 (4)  5 (5)  6 (6)
gpuInit: Found compatible cuda device 0 'Tesla K80'
gpuInit: Found compatible cuda device 1 'Tesla K80'
gpuInit: Found compatible cuda device 2 'Tesla K80'
gpuInit: Found compatible cuda device 3 'Tesla K80'
gpuInit: Found compatible cuda device 4 'Tesla K80'
gpuInit: Found compatible cuda device 5 'Tesla K80'
gpuInit: Found compatible cuda device 6 'Tesla K80'
gpuInit: Selected device 0
Resource initialization completed at t[s]:      3.46
Run totals: 7 processes, 24 threads, 7 GPUs


Input parsed successfully to the following command list (including defaults):

basis kpoint-dependent
cache-projectors no
coords-type Lattice
core-overlap-check none
coulomb-interaction Slab 001
coulomb-truncation-embed 0.5 0.5 0.5
davidson-band-ratio 1.1
dump End State
dump-name NbTe2.$VAR
elec-cutoff 20
elec-eigen-algo Davidson
elec-ex-corr gga-PBE
elec-initial-charge 0.000000
elec-smearing Gauss 0.0073499
electronic-minimize  \
	dirUpdateScheme      FletcherReeves \
	linminMethod         DirUpdateRecommended \
	nIterations          200 \
	history              15 \
	knormThreshold       0 \
	energyDiffThreshold  1e-08 \
	nEnergyDiff          2 \
	alphaTstart          1 \
	alphaTmin            1e-10 \
	updateTestStepSize   yes \
	alphaTreduceFactor   0.1 \
	alphaTincreaseFactor 3 \
	nAlphaAdjustMax      3 \
	wolfeEnergy          0.0001 \
	wolfeGradient        0.9 \
	fdTest               no
exchange-regularization WignerSeitzTruncated
fluid LinearPCM 298.000000 1.013250
fluid-anion F- 1 MeanFieldLJ \
	epsBulk 1 \
	pMol 0 \
	epsInf 1 \
	Pvap 0 \
	sigmaBulk 0 \
	Rvdw 2.24877 \
	Res 0 \
	tauNuc 343133
fluid-cation Na+ 1 MeanFieldLJ \
	epsBulk 1 \
	pMol 0 \
	epsInf 1 \
	Pvap 0 \
	sigmaBulk 0 \
	Rvdw 2.19208 \
	Res 0 \
	tauNuc 343133
fluid-ex-corr lda-TF lda-PZ
fluid-gummel-loop 10 1.000000e-05
fluid-minimize  \
	dirUpdateScheme      PolakRibiere \
	linminMethod         DirUpdateRecommended \
	nIterations          400 \
	history              15 \
	knormThreshold       1e-11 \
	energyDiffThreshold  0 \
	nEnergyDiff          2 \
	alphaTstart          1 \
	alphaTmin            1e-10 \
	updateTestStepSize   yes \
	alphaTreduceFactor   0.1 \
	alphaTincreaseFactor 3 \
	nAlphaAdjustMax      6 \
	wolfeEnergy          0.0001 \
	wolfeGradient        0.9 \
	fdTest               no
fluid-solvent H2O 55.338 ScalarEOS \
	epsBulk 78.4 \
	pMol 0.92466 \
	epsInf 1.77 \
	Pvap 1.06736e-10 \
	sigmaBulk 4.62e-05 \
	Rvdw 2.61727 \
	Res 1.42 \
	tauNuc 343133 \
	poleEl 15 7 1
forces-output-coords Positions
initial-state NbTe2.$VAR
ion Mo   0.000160000000000   0.125489991000000   0.570079980000000 1
ion Mo   0.125159993000000   0.125499996000000   0.429910017000000 1
ion Mo   0.250160014000000   0.125489991000000   0.570079980000000 1
ion Mo   0.375160004000000   0.125499996000000   0.429910017000000 1
ion Mo   0.500159993000000   0.125489991000000   0.570079980000000 1
ion Mo   0.625159983000000   0.125499996000000   0.429910017000000 1
ion Mo   0.750160014000000   0.125489991000000   0.570079980000000 1
ion Mo   0.875160004000000   0.125499996000000   0.429910017000000 1
ion Mo   0.000160000000000   0.375490011000000   0.570079980000000 1
ion Mo   0.125159993000000   0.375499986000000   0.429910017000000 1
ion Mo   0.250160014000000   0.375490011000000   0.570079980000000 1
ion Mo   0.375160004000000   0.375499986000000   0.429910017000000 1
ion Mo   0.500159993000000   0.375490011000000   0.570079980000000 1
ion Mo   0.625159983000000   0.375499986000000   0.429910017000000 1
ion Mo   0.750160014000000   0.375490011000000   0.570079980000000 1
ion Mo   0.875160004000000   0.375499986000000   0.429910017000000 1
ion Mo   0.000160000000000   0.625490011000000   0.570079980000000 1
ion Mo   0.125159993000000   0.625500025000000   0.429910017000000 1
ion Mo   0.250160014000000   0.625490011000000   0.570079980000000 1
ion Mo   0.375160004000000   0.625500025000000   0.429910017000000 1
ion Mo   0.500159993000000   0.625490011000000   0.570079980000000 1
ion Mo   0.625159983000000   0.625500025000000   0.429910017000000 1
ion Mo   0.750160014000000   0.625490011000000   0.570079980000000 1
ion Mo   0.875160004000000   0.625500025000000   0.429910017000000 1
ion Mo   0.000160000000000   0.875490011000000   0.570079980000000 1
ion Mo   0.125159993000000   0.875499986000000   0.429910017000000 1
ion Mo   0.250160014000000   0.875490011000000   0.570079980000000 1
ion Mo   0.375160004000000   0.875499986000000   0.429910017000000 1
ion Mo   0.500159993000000   0.875490011000000   0.570079980000000 1
ion Mo   0.625159983000000   0.875499986000000   0.429910017000000 1
ion Mo   0.750160014000000   0.875490011000000   0.570079980000000 1
ion Mo   0.875160004000000   0.875499986000000   0.429910017000000 1
ion B   0.000160000000000   0.000510000000000   0.478370032000000 1
ion B   0.125159993000000   0.000510000000000   0.521629968000000 1
ion B   0.250160014000000   0.000510000000000   0.478370032000000 1
ion B   0.375160004000000   0.000510000000000   0.521629968000000 1
ion B   0.500159993000000   0.000510000000000   0.478370032000000 1
ion B   0.625159983000000   0.000510000000000   0.521629968000000 1
ion B   0.750160014000000   0.000510000000000   0.478370032000000 1
ion B   0.875160004000000   0.000510000000000   0.521629968000000 1
ion B   0.000160000000000   0.250510001000000   0.478370032000000 1
ion B   0.125159993000000   0.250510001000000   0.521629968000000 1
ion B   0.250160014000000   0.250510001000000   0.478370032000000 1
ion B   0.375160004000000   0.250510001000000   0.521629968000000 1
ion B   0.500159993000000   0.250510001000000   0.478370032000000 1
ion B   0.625159983000000   0.250510001000000   0.521629968000000 1
ion B   0.750160014000000   0.250510001000000   0.478370032000000 1
ion B   0.875160004000000   0.250510001000000   0.521629968000000 1
ion B   0.000160000000000   0.500509961000000   0.478370032000000 1
ion B   0.125159993000000   0.500509961000000   0.521629968000000 1
ion B   0.250160014000000   0.500509961000000   0.478370032000000 1
ion B   0.375160004000000   0.500509961000000   0.521629968000000 1
ion B   0.500159993000000   0.500509961000000   0.478370032000000 1
ion B   0.625159983000000   0.500509961000000   0.521629968000000 1
ion B   0.750160014000000   0.500509961000000   0.478370032000000 1
ion B   0.875160004000000   0.500509961000000   0.521629968000000 1
ion B   0.000160000000000   0.750510001000000   0.478370032000000 1
ion B   0.125159993000000   0.750510001000000   0.521629968000000 1
ion B   0.250160014000000   0.750510001000000   0.478370032000000 1
ion B   0.375160004000000   0.750510001000000   0.521629968000000 1
ion B   0.500159993000000   0.750510001000000   0.478370032000000 1
ion B   0.625159983000000   0.750510001000000   0.521629968000000 1
ion B   0.750160014000000   0.750510001000000   0.478370032000000 1
ion B   0.875160004000000   0.750510001000000   0.521629968000000 1
ion O   0.125159993000000   0.125400007000000   0.635730028000000 1
ion O   0.000160000000000   0.125440006000000   0.364269996000000 1
ion O   0.375160004000000   0.125400007000000   0.635730028000000 1
ion O   0.250160014000000   0.125440006000000   0.364269996000000 1
ion O   0.625159983000000   0.125400007000000   0.635730028000000 1
ion O   0.500159993000000   0.125440006000000   0.364269996000000 1
ion O   0.875160004000000   0.125400007000000   0.635730028000000 1
ion O   0.750160014000000   0.125440006000000   0.364269996000000 1
ion O   0.125159993000000   0.375399997000000   0.635730028000000 1
ion O   0.000160000000000   0.375440016000000   0.364269996000000 1
ion O   0.375160004000000   0.375399997000000   0.635730028000000 1
ion O   0.250160014000000   0.375440016000000   0.364269996000000 1
ion O   0.625159983000000   0.375399997000000   0.635730028000000 1
ion O   0.500159993000000   0.375440016000000   0.364269996000000 1
ion O   0.875160004000000   0.375399997000000   0.635730028000000 1
ion O   0.750160014000000   0.375440016000000   0.364269996000000 1
ion O   0.125159993000000   0.625399997000000   0.635730028000000 1
ion O   0.000160000000000   0.625440016000000   0.364269996000000 1
ion O   0.375160004000000   0.625399997000000   0.635730028000000 1
ion O   0.250160014000000   0.625440016000000   0.364269996000000 1
ion O   0.625159983000000   0.625399997000000   0.635730028000000 1
ion O   0.500159993000000   0.625440016000000   0.364269996000000 1
ion O   0.875160004000000   0.625399997000000   0.635730028000000 1
ion O   0.750160014000000   0.625440016000000   0.364269996000000 1
ion O   0.125159993000000   0.875399997000000   0.635730028000000 1
ion O   0.000160000000000   0.875439977000000   0.364269996000000 1
ion O   0.375160004000000   0.875399997000000   0.635730028000000 1
ion O   0.250160014000000   0.875439977000000   0.364269996000000 1
ion O   0.625159983000000   0.875399997000000   0.635730028000000 1
ion O   0.500159993000000   0.875439977000000   0.364269996000000 1
ion O   0.875160004000000   0.875399997000000   0.635730028000000 1
ion O   0.750160014000000   0.875439977000000   0.364269996000000 1
ion-species GBRV/$ID_pbe.uspp
ion-width Ecut
ionic-minimize  \
	dirUpdateScheme      L-BFGS \
	linminMethod         DirUpdateRecommended \
	nIterations          500 \
	history              15 \
	knormThreshold       0.0001 \
	energyDiffThreshold  1e-06 \
	nEnergyDiff          2 \
	alphaTstart          1 \
	alphaTmin            1e-10 \
	updateTestStepSize   yes \
	alphaTreduceFactor   0.1 \
	alphaTincreaseFactor 3 \
	nAlphaAdjustMax      3 \
	wolfeEnergy          0.0001 \
	wolfeGradient        0.9 \
	fdTest               no
kpoint   0.000000000000   0.000000000000   0.000000000000  1.00000000000000
kpoint-folding 3 3 1 
latt-move-scale 1 1 1
latt-scale 1.88973 1.88973 1.88973 
lattice Triclinic 11.4386 12.0462 20.3069 90 90 90
lattice-minimize  \
	dirUpdateScheme      L-BFGS \
	linminMethod         DirUpdateRecommended \
	nIterations          0 \
	history              15 \
	knormThreshold       0 \
	energyDiffThreshold  1e-06 \
	nEnergyDiff          2 \
	alphaTstart          1 \
	alphaTmin            1e-10 \
	updateTestStepSize   yes \
	alphaTreduceFactor   0.1 \
	alphaTincreaseFactor 3 \
	nAlphaAdjustMax      3 \
	wolfeEnergy          0.0001 \
	wolfeGradient        0.9 \
	fdTest               no
lcao-params -1 1e-06 0.0073499
pcm-variant CANDLE
spintype no-spin
subspace-rotation-factor 1 yes
symmetries automatic
symmetry-threshold 0.0001



---------- Setting up symmetries ----------

Found 8 point-group symmetries of the bravais lattice
Found 32 space-group symmetries with basis
Applied RMS atom displacement 3.87749e-07 bohrs to make symmetries exact.

---------- Initializing the Grid ----------
R = 
[    21.6158          0          0  ]
[          0     22.764          0  ]
[          0          0    38.3745  ]
unit cell volume = 18882.7
G =
[   0.290675          0          0  ]
[          0   0.276014          0  ]
[          0          0   0.163733  ]
Minimum fftbox size, Smin = [  88  92  156  ]
Chosen fftbox size, S = [  90  96  160  ]

---------- Exchange Correlation functional ----------
Initalized PBE GGA exchange.
Initalized PBE GGA correlation.

---------- Setting up pseudopotentials ----------
Width of ionic core gaussian charges (only for fluid interactions / plotting) set to 0.397384

Reading pseudopotential file '/home/guoxy/vasp/jdftx-1.5.0/build/pseudopotentials/GBRV/mo_pbe.uspp':
  Title: Mo.  Created by USPP 7.3.6 on 14-9-2013
  Reference state energy: -69.261020.  14 valence electrons in orbitals:
    |400>  occupation: 2  eigenvalue: -2.465796
    |410>  occupation: 6  eigenvalue: -1.510132
    |420>  occupation: 4  eigenvalue: -0.207728
    |500>  occupation: 2  eigenvalue: -0.179278
    |510>  occupation: 0  eigenvalue: -0.052696
  lMax: 2  lLocal: 3  QijEcut: 5
  6 projectors sampled on a log grid with 629 points:
    l: 0  eig: -2.465797  rCut: 1.8
    l: 0  eig: -0.179280  rCut: 1.8
    l: 1  eig: -1.510132  rCut: 2
    l: 1  eig: 0.150000  rCut: 2
    l: 2  eig: -0.052696  rCut: 2.2
    l: 2  eig: 0.150000  rCut: 2.2
  Partial core density with radius 1.2
  Transforming core density to a uniform radial grid of dG=0.02 with 1144 points.
  Transforming local potential to a uniform radial grid of dG=0.02 with 1144 points.
  Transforming nonlocal projectors to a uniform radial grid of dG=0.02 with 432 points.
  Transforming density augmentations to a uniform radial grid of dG=0.02 with 1144 points.
  Transforming atomic orbitals to a uniform radial grid of dG=0.02 with 432 points.
  Core radius for overlap checks: 2.20 bohrs.

Reading pseudopotential file '/home/guoxy/vasp/jdftx-1.5.0/build/pseudopotentials/GBRV/b_pbe.uspp':
  Title: B.  Created by USPP 7.3.6 on 8-4-15
  Reference state energy: -2.950027.  3 valence electrons in orbitals:
    |200>  occupation: 2  eigenvalue: -0.346865
    |210>  occupation: 1  eigenvalue: -0.132618
  lMax: 1  lLocal: 2  QijEcut: 6
  4 projectors sampled on a log grid with 559 points:
    l: 0  eig: -0.346865  rCut: 1.25
    l: 0  eig: -0.500000  rCut: 1.25
    l: 1  eig: -0.346865  rCut: 1.25
    l: 1  eig: -1.000000  rCut: 1.25
  Partial core density with radius 0.9
  Transforming core density to a uniform radial grid of dG=0.02 with 1144 points.
  Transforming local potential to a uniform radial grid of dG=0.02 with 1144 points.
  Transforming nonlocal projectors to a uniform radial grid of dG=0.02 with 432 points.
  Transforming density augmentations to a uniform radial grid of dG=0.02 with 1144 points.
  Transforming atomic orbitals to a uniform radial grid of dG=0.02 with 432 points.
  Core radius for overlap checks: 1.25 bohrs.

Reading pseudopotential file '/home/guoxy/vasp/jdftx-1.5.0/build/pseudopotentials/GBRV/o_pbe.uspp':
  Title: O.  Created by USPP 7.3.6 on 3-2-2014
  Reference state energy: -15.894388.  6 valence electrons in orbitals:
    |200>  occupation: 2  eigenvalue: -0.878823
    |210>  occupation: 4  eigenvalue: -0.332131
  lMax: 2  lLocal: 2  QijEcut: 6
  5 projectors sampled on a log grid with 511 points:
    l: 0  eig: -0.878823  rCut: 1.25
    l: 0  eig: 0.000000  rCut: 1.25
    l: 1  eig: -0.332132  rCut: 1.25
    l: 1  eig: 0.000000  rCut: 1.25
    l: 2  eig: 1.000000  rCut: 1.25
  Partial core density with radius 0.7
  Transforming core density to a uniform radial grid of dG=0.02 with 1144 points.
  Transforming local potential to a uniform radial grid of dG=0.02 with 1144 points.
  Transforming nonlocal projectors to a uniform radial grid of dG=0.02 with 432 points.
  Transforming density augmentations to a uniform radial grid of dG=0.02 with 1144 points.
  Transforming atomic orbitals to a uniform radial grid of dG=0.02 with 432 points.
  Core radius for overlap checks: 1.25 bohrs.

Initialized 3 species with 96 total atoms.

Folded 1 k-points by 3x3x1 to 9 k-points.

---------- Setting up k-points, bands, fillings ----------
Adding inversion symmetry to k-mesh for non-inversion-symmetric unit cell.
Reduced to 4 k-points under symmetry. 
Computing the number of bands and number of electrons
Calculating initial fillings.
nElectrons: 736.000000   nBands: 672   nStates: 4

----- Setting up reduced wavefunction bases (one per k-point) -----
average nbasis = 80683.000 , ideal nbasis = 80668.147

---------- Setting up coulomb interaction ----------
Fluid mode embedding: using embedded box, but periodic Coulomb kernel.
(Fluid response is responsible for (approximate) separation between periodic images.)
Setting up double-sized grid for truncated Coulomb potentials:
R = 
[    21.6158          0          0  ]
[          0     22.764          0  ]
[          0          0     76.749  ]
unit cell volume = 37765.3
G =
[   0.290675          0          0  ]
[          0   0.276014          0  ]
[          0          0  0.0818667  ]
Chosen fftbox size, S = [  90  96  320  ]
Integer grid location selected as the embedding center:
   Grid: [  45  48  80  ]
   Lattice: [  0.5  0.5  0.5  ]
   Cartesian: [  10.8079  11.382  19.1872  ]
Constructing Wigner-Seitz cell: 6 faces (6 quadrilaterals, 0 hexagons)
Range-separation parameter for embedded mesh potentials due to point charges: 0.618265 bohrs.

Initializing van der Waals corrections
	NOTE: vdW corrections apply only for interactions with fluid.
	Mo:  C6:  427.91 Eh-a0^6  R0: 3.097 a0
	 B:  C6:   54.29 Eh-a0^6  R0: 2.806 a0
	 O:  C6:   12.14 Eh-a0^6  R0: 2.536 a0

---------- Setting up ewald sum ----------
Optimum gaussian width for ewald sums = 6.255027 bohr.
Real space sum over 405 unit cells with max indices [  4  4  2  ]
Reciprocal space sum over 9225 terms with max indices [  7  7  20  ]

---------- Allocating electronic variables ----------
Initializing wave functions:  linear combination of atomic orbitals
Mo pseudo-atom occupations:   s ( 2 0 )  p ( 6 0 )  d ( 6 )
B pseudo-atom occupations:   s ( 2 )  p ( 1 )
O pseudo-atom occupations:   s ( 2 )  p ( 4 )
	FillingsUpdate:  mu: -0.486660234  nElectrons: 736.000000
LCAOMinimize: Iter:   0  F: -2738.8300633016224310  |grad|_K:  1.261e-02  alpha:  1.000e+00
	FillingsUpdate:  mu: -0.289002118  nElectrons: 736.000000
LCAOMinimize: Iter:   1  F: -2786.1366641993613484  |grad|_K:  5.941e-03  alpha:  2.130e-01  linmin: -3.951e-01  cgtest:  7.563e-01  t[s]:    152.62
LCAOMinimize: Encountered beta<0, resetting CG.
	FillingsUpdate:  mu: -0.037518697  nElectrons: 736.000000
LCAOMinimize: Iter:   2  F: -2792.8842258872118691  |grad|_K:  3.639e-03  alpha:  1.918e-01  linmin:  1.590e-01  cgtest: -1.118e-01  t[s]:    208.83
	FillingsUpdate:  mu: -0.076009055  nElectrons: 736.000000
LCAOMinimize: Iter:   3  F: -2793.9116414193285891  |grad|_K:  2.513e-03  alpha:  1.375e-01  linmin:  6.997e-04  cgtest:  7.596e-01  t[s]:    265.27
LCAOMinimize: Encountered beta<0, resetting CG.
	FillingsUpdate:  mu: -0.159357135  nElectrons: 736.000000
LCAOMinimize: Iter:   4  F: -2794.3231743463961720  |grad|_K:  1.641e-03  alpha:  7.719e-02  linmin:  1.039e-02  cgtest: -4.432e-02  t[s]:    321.74
	FillingsUpdate:  mu: -0.178001974  nElectrons: 736.000000
LCAOMinimize: Iter:   5  F: -2794.4002347357459257  |grad|_K:  3.420e-04  alpha:  3.353e-02  linmin:  4.381e-02  cgtest: -3.755e-02  t[s]:    378.19
LCAOMinimize: 	Predicted alpha/alphaT>3.000000, increasing alphaT to 1.006047e-01.
LCAOMinimize: 	Predicted alpha/alphaT>3.000000, increasing alphaT to 3.018141e-01.
	FillingsUpdate:  mu: -0.162971234  nElectrons: 736.000000
LCAOMinimize: Iter:   6  F: -2794.4338378147253934  |grad|_K:  1.868e-04  alpha:  3.249e-01  linmin: -9.413e-04  cgtest:  5.100e-02  t[s]:    466.31
	FillingsUpdate:  mu: -0.163049492  nElectrons: 736.000000
LCAOMinimize: Iter:   7  F: -2794.4358482882867065  |grad|_K:  2.053e-04  alpha:  6.309e-02  linmin: -8.210e-04  cgtest:  1.489e-03  t[s]:    522.57
	FillingsUpdate:  mu: -0.163800823  nElectrons: 736.000000
LCAOMinimize: Iter:   8  F: -2794.4416552826237421  |grad|_K:  1.102e-04  alpha:  1.515e-01  linmin:  7.348e-04  cgtest: -3.485e-02  t[s]:    579.06
	FillingsUpdate:  mu: -0.158760416  nElectrons: 736.000000
LCAOMinimize: Iter:   9  F: -2794.4430777328252589  |grad|_K:  2.104e-05  alpha:  1.294e-01  linmin:  3.355e-03  cgtest:  5.094e-04  t[s]:    635.56
	FillingsUpdate:  mu: -0.158734014  nElectrons: 736.000000
LCAOMinimize: Iter:  10  F: -2794.4431052068657664  |grad|_K:  2.583e-05  alpha:  6.875e-02  linmin: -1.203e-05  cgtest:  3.285e-03  t[s]:    692.28
	FillingsUpdate:  mu: -0.158859856  nElectrons: 736.000000
LCAOMinimize: Iter:  11  F: -2794.4432258857518718  |grad|_K:  1.092e-05  alpha:  1.998e-01  linmin:  4.226e-04  cgtest: -4.041e-02  t[s]:    748.66
	FillingsUpdate:  mu: -0.158794152  nElectrons: 736.000000
LCAOMinimize: Iter:  12  F: -2794.4432466641533210  |grad|_K:  4.776e-06  alpha:  1.926e-01  linmin:  1.717e-04  cgtest:  3.307e-03  t[s]:    805.38
	FillingsUpdate:  mu: -0.158912585  nElectrons: 736.000000
LCAOMinimize: Iter:  13  F: -2794.4432517537434251  |grad|_K:  1.447e-06  alpha:  2.464e-01  linmin:  1.784e-04  cgtest: -2.077e-04  t[s]:    861.36
	FillingsUpdate:  mu: -0.158864125  nElectrons: 736.000000
LCAOMinimize: Iter:  14  F: -2794.4432521086409906  |grad|_K:  1.190e-06  alpha:  1.870e-01  linmin:  4.230e-05  cgtest:  1.194e-04  t[s]:    917.86
	FillingsUpdate:  mu: -0.158915687  nElectrons: 736.000000
LCAOMinimize: Iter:  15  F: -2794.4432524939497853  |grad|_K:  1.694e-06  alpha:  3.005e-01  linmin: -3.092e-05  cgtest:  3.968e-04  t[s]:    974.23
LCAOMinimize: Converged (|Delta F|<1.000000e-06 for 2 iters).
----- createFluidSolver() ----- (Fluid-side solver setup)
   Initializing fluid molecule 'H2O'
     Initializing site 'O'
       Electron density: proportional to exp(-r/0.36935)*erfc((r-0.51523)/0.36823) with norm 6.826
       Charge density: gaussian nuclear width 0.478731 with net site charge 0.826
       Polarizability: cuspless exponential with width 0.32 and norm 3.73
       Hard sphere radius: 2.57003 bohrs
       Positions in reference frame:
         [ +0.000000 +0.000000 +0.000000 ]
     Initializing site 'H'
       Electron density: proportional to exp(-r/0.34641)*erfc((r-0)/0.390882) with norm 0.587
       Charge density: gaussian nuclear width 0.377945 with net site charge -0.413
       Polarizability: cuspless exponential with width 0.39 and norm 3.3
       Positions in reference frame:
         [ +0.000000 -1.441945 +1.122523 ]
         [ +0.000000 +1.441945 +1.122523 ]
     Net charge: 0   dipole magnitude: 0.927204
     Initializing spherical shell mfKernel with radius 2.61727 Bohr
     deltaS corrections:
       site 'O': -7.54299
       site 'H': -6.83917
   Initializing fluid molecule 'Na+'
     Initializing site 'Na'
       Electron density: proportional to exp(-r/0.19682)*erfc((r-0.71491)/0.41314) with norm 8.1383
       Charge density: gaussian nuclear width 0.365347 with net site charge -1
       Hard sphere radius: 1.86327 bohrs
       Positions in reference frame:
         [ +0.000000 +0.000000 +0.000000 ]
     Net charge: -1   dipole magnitude: 0
     Initializing gaussian mfKernel with width: 1.55004 Bohr
     deltaS corrections:
       site 'Na': -22.3555
   Initializing fluid molecule 'F-'
     Initializing site 'F'
       Electron density: proportional to exp(-r/0.38886)*erfc((r-0)/0.438782) with norm 8
       Charge density: gaussian nuclear width 0.374796 with net site charge 1
       Hard sphere radius: 2.39995 bohrs
       Positions in reference frame:
         [ +0.000000 +0.000000 +0.000000 ]
     Net charge: 1   dipole magnitude: 0
     Initializing gaussian mfKernel with width: 1.59012 Bohr
     deltaS corrections:
       site 'F': -9.04335

Correction to mu due to finite nuclear width = -0.0193368
   Cavity determined by nc: 0.00142 and sigma: 0.707107
   Nonlocal vdW cavity from gaussian model electron density with norm = 8 and sigma = 0.993594 bohr
   Charge asymmetry in cavity with sensitivity pCavity = 36.5 e-bohr/Eh
   Electrostatic cavity expanded by eta = 1.46 bohrs
   Weighted density cavitation model constrained by Nbulk: 0.0049383 bohr^-3, Pvap: 3.14029 kPa, Rvdw: 2.61727 bohr and sigmaBulk: 4.62e-05 Eh/bohr^2 at T: 298 K.
   Weighted density dispersion model using vdW pair potentials with single solvent site with sqrtC6eff: 0.77 SI.


---- Citations for features of the code used in this run ----

   Software package:
      R. Sundararaman, K. Letchworth-Weaver, K.A. Schwarz, D. Gunceler, Y. Ozhabes and T.A. Arias, 'JDFTx: software for joint density-functional theory', SoftwareX 6, 278 (2017)

   gga-PBE exchange-correlation functional:
      J.P. Perdew, K. Burke and M. Ernzerhof, Phys. Rev. Lett. 77, 3865 (1996)

   Pseudopotentials:
      KF Garrity, JW Bennett, KM Rabe and D Vanderbilt, Comput. Mater. Sci. 81, 446 (2014)

   Truncated Coulomb potentials:
      R. Sundararaman and T.A. Arias, Phys. Rev. B 87, 165122 (2013)

   Van der Waals correction pair-potentials:
      S. Grimme, J. Comput. Chem. 27, 1787 (2006)

   Charge-asymmetric nonlocally-determined local-electric (CANDLE) solvation model:
      R. Sundararaman and W.A. Goddard III, J. Chem. Phys. 142, 064107 (2015)

   Total energy minimization with Auxiliary Hamiltonian:
      C. Freysoldt, S. Boeck, and J. Neugebauer, Phys. Rev. B 79, 241103(R) (2009)

This list may not be complete. Please suggest additional citations or
report any other bugs at https://github.com/shankar1729/jdftx/issues

Initialization completed successfully at t[s]:    987.41

Fluid solver invoked on fresh (partially random / LCAO) wavefunctions
Running a vacuum solve first:

-------- Initial electronic minimization -----------
	FillingsUpdate:  mu: -0.158915687  nElectrons: 736.000000
ElecMinimize: Iter:   0  F: -2794.443252494053468  |grad|_K:  1.154e-04  alpha:  1.000e+00
	FillingsUpdate:  mu: -0.082969378  nElectrons: 736.000000
	SubspaceRotationAdjust: set factor to 0.697
ElecMinimize: Iter:   1  F: -2796.286900408005295  |grad|_K:  8.399e-05  alpha:  6.354e-01  linmin:  2.594e-06  t[s]:   1129.21
	FillingsUpdate:  mu: -0.151476006  nElectrons: 736.000000
	SubspaceRotationAdjust: set factor to 0.37
ElecMinimize: Iter:   2  F: -2796.503161136695780  |grad|_K:  5.868e-05  alpha:  1.963e-01  linmin:  5.310e-04  t[s]:   1216.32
	FillingsUpdate:  mu: -0.138929193  nElectrons: 736.000000
	SubspaceRotationAdjust: set factor to 0.227
ElecMinimize: Iter:   3  F: -2796.659409313434935  |grad|_K:  5.460e-05  alpha:  2.630e-01  linmin:  4.106e-06  t[s]:   1303.22
	FillingsUpdate:  mu: -0.127665784  nElectrons: 736.000000
	SubspaceRotationAdjust: set factor to 0.133
	SubspaceRotationAdjust: resetting CG because factor has changed by 0.132738
ElecMinimize: 	State modified externally: resetting search direction.
ElecMinimize: Iter:   4  F: -2796.738611820546339  |grad|_K:  2.120e-05  alpha:  1.212e-01
	FillingsUpdate:  mu: -0.130431599  nElectrons: 736.000000
	SubspaceRotationAdjust: set factor to 0.267
ElecMinimize: Iter:   5  F: -2796.774170174395294  |grad|_K:  1.173e-05  alpha:  3.635e-01  linmin:  1.542e-05  t[s]:   1523.87
	FillingsUpdate:  mu: -0.128640779  nElectrons: 736.000000
	SubspaceRotationAdjust: set factor to 0.238
ElecMinimize: Iter:   6  F: -2796.788664723520924  |grad|_K:  7.849e-06  alpha:  4.846e-01  linmin:  2.567e-05  t[s]:   1610.99
	FillingsUpdate:  mu: -0.126609532  nElectrons: 736.000000
	SubspaceRotationAdjust: set factor to 0.155
ElecMinimize: Iter:   7  F: -2796.792616387098406  |grad|_K:  7.046e-06  alpha:  2.943e-01  linmin: -3.351e-06  t[s]:   1697.92
	FillingsUpdate:  mu: -0.124935759  nElectrons: 736.000000
	SubspaceRotationAdjust: set factor to 0.139
ElecMinimize: Iter:   8  F: -2796.796847799264015  |grad|_K:  6.100e-06  alpha:  3.920e-01  linmin:  1.182e-05  t[s]:   1784.75
	FillingsUpdate:  mu: -0.125004060  nElectrons: 736.000000
	SubspaceRotationAdjust: set factor to 0.186
ElecMinimize: Iter:   9  F: -2796.801594039108750  |grad|_K:  4.891e-06  alpha:  5.953e-01  linmin:  2.864e-05  t[s]:   1871.70
	FillingsUpdate:  mu: -0.125228233  nElectrons: 736.000000
	SubspaceRotationAdjust: set factor to 0.174
ElecMinimize: Iter:  10  F: -2796.803978153713615  |grad|_K:  4.533e-06  alpha:  4.672e-01  linmin:  2.959e-06  t[s]:   1958.87
	FillingsUpdate:  mu: -0.125809911  nElectrons: 736.000000
	SubspaceRotationAdjust: set factor to 0.125
ElecMinimize: Iter:  11  F: -2796.805716604389545  |grad|_K:  3.419e-06  alpha:  3.894e-01  linmin: -9.096e-08  t[s]:   2045.87
	FillingsUpdate:  mu: -0.126490102  nElectrons: 736.000000
	SubspaceRotationAdjust: set factor to 0.118
ElecMinimize: Iter:  12  F: -2796.806648362016404  |grad|_K:  2.119e-06  alpha:  3.660e-01  linmin: -6.684e-07  t[s]:   2132.88
	FillingsUpdate:  mu: -0.126701796  nElectrons: 736.000000
	SubspaceRotationAdjust: set factor to 0.127
ElecMinimize: Iter:  13  F: -2796.807031670309243  |grad|_K:  1.359e-06  alpha:  3.917e-01  linmin: -4.621e-07  t[s]:   2219.92
	FillingsUpdate:  mu: -0.126404929  nElectrons: 736.000000
	SubspaceRotationAdjust: set factor to 0.11
ElecMinimize: Iter:  14  F: -2796.807203840879083  |grad|_K:  7.756e-07  alpha:  4.277e-01  linmin: -2.871e-07  t[s]:   2306.85
	FillingsUpdate:  mu: -0.126197998  nElectrons: 736.000000
	SubspaceRotationAdjust: set factor to 0.128
ElecMinimize: Iter:  15  F: -2796.807250802156432  |grad|_K:  4.833e-07  alpha:  3.584e-01  linmin: -8.833e-08  t[s]:   2393.95
	FillingsUpdate:  mu: -0.126130419  nElectrons: 736.000000
	SubspaceRotationAdjust: set factor to 0.163
ElecMinimize: Iter:  16  F: -2796.807276745918898  |grad|_K:  3.947e-07  alpha:  5.101e-01  linmin:  2.913e-07  t[s]:   2480.96
	FillingsUpdate:  mu: -0.126112309  nElectrons: 736.000000
	SubspaceRotationAdjust: set factor to 0.166
ElecMinimize: Iter:  17  F: -2796.807291004727631  |grad|_K:  3.245e-07  alpha:  4.205e-01  linmin:  1.415e-07  t[s]:   2567.87
	FillingsUpdate:  mu: -0.126071495  nElectrons: 736.000000
	SubspaceRotationAdjust: set factor to 0.192
ElecMinimize: Iter:  18  F: -2796.807305307198021  |grad|_K:  3.375e-07  alpha:  6.247e-01  linmin:  3.350e-07  t[s]:   2654.97
	FillingsUpdate:  mu: -0.126066456  nElectrons: 736.000000
	SubspaceRotationAdjust: set factor to 0.232
ElecMinimize: Iter:  19  F: -2796.807317899031659  |grad|_K:  3.012e-07  alpha:  5.088e-01  linmin:  1.097e-07  t[s]:   2741.97
	FillingsUpdate:  mu: -0.126139370  nElectrons: 736.000000
	SubspaceRotationAdjust: set factor to 0.252
ElecMinimize: Iter:  20  F: -2796.807328175681505  |grad|_K:  2.758e-07  alpha:  5.210e-01  linmin:  1.617e-07  t[s]:   2828.91
	FillingsUpdate:  mu: -0.126190000  nElectrons: 736.000000
	SubspaceRotationAdjust: set factor to 0.203
ElecMinimize: Iter:  21  F: -2796.807333464845215  |grad|_K:  2.533e-07  alpha:  3.195e-01  linmin: -4.996e-08  t[s]:   2915.87
	FillingsUpdate:  mu: -0.126218010  nElectrons: 736.000000
	SubspaceRotationAdjust: set factor to 0.169
ElecMinimize: Iter:  22  F: -2796.807337591429132  |grad|_K:  1.684e-07  alpha:  2.952e-01  linmin:  6.628e-08  t[s]:   3003.08
	FillingsUpdate:  mu: -0.126216155  nElectrons: 736.000000
	SubspaceRotationAdjust: set factor to 0.206
ElecMinimize: Iter:  23  F: -2796.807340016305716  |grad|_K:  1.116e-07  alpha:  3.931e-01  linmin:  8.975e-08  t[s]:   3090.12
	FillingsUpdate:  mu: -0.126217757  nElectrons: 736.000000
	SubspaceRotationAdjust: set factor to 0.23
ElecMinimize: Iter:  24  F: -2796.807341202808402  |grad|_K:  8.953e-08  alpha:  4.379e-01  linmin:  1.517e-08  t[s]:   3177.06
	FillingsUpdate:  mu: -0.126222347  nElectrons: 736.000000
	SubspaceRotationAdjust: set factor to 0.217
ElecMinimize: Iter:  25  F: -2796.807341768973401  |grad|_K:  7.209e-08  alpha:  3.244e-01  linmin: -4.636e-10  t[s]:   3264.07
	FillingsUpdate:  mu: -0.126224945  nElectrons: 736.000000
	SubspaceRotationAdjust: set factor to 0.233
ElecMinimize: Iter:  26  F: -2796.807342159183008  |grad|_K:  5.917e-08  alpha:  3.448e-01  linmin:  2.338e-08  t[s]:   3351.01
	FillingsUpdate:  mu: -0.126223668  nElectrons: 736.000000
	SubspaceRotationAdjust: set factor to 0.314
ElecMinimize: Iter:  27  F: -2796.807342490237261  |grad|_K:  4.663e-08  alpha:  4.345e-01  linmin:  4.270e-08  t[s]:   3438.11
	FillingsUpdate:  mu: -0.126219068  nElectrons: 736.000000
	SubspaceRotationAdjust: set factor to 0.394
ElecMinimize: Iter:  28  F: -2796.807342764929672  |grad|_K:  4.599e-08  alpha:  5.813e-01  linmin:  7.217e-08  t[s]:   3525.10
	FillingsUpdate:  mu: -0.126212064  nElectrons: 736.000000
	SubspaceRotationAdjust: set factor to 0.472
ElecMinimize: Iter:  29  F: -2796.807342964096733  |grad|_K:  4.044e-08  alpha:  4.329e-01  linmin:  1.714e-08  t[s]:   3611.96
	FillingsUpdate:  mu: -0.126207522  nElectrons: 736.000000
	SubspaceRotationAdjust: set factor to 0.345
ElecMinimize: Iter:  30  F: -2796.807343064005636  |grad|_K:  5.098e-08  alpha:  2.806e-01  linmin:  4.022e-09  t[s]:   3699.04
	FillingsUpdate:  mu: -0.126204248  nElectrons: 736.000000
	SubspaceRotationAdjust: set factor to 0.236
ElecMinimize: Iter:  31  F: -2796.807343138719261  |grad|_K:  2.813e-08  alpha:  1.318e-01  linmin: -2.029e-08  t[s]:   3785.94
	FillingsUpdate:  mu: -0.126202628  nElectrons: 736.000000
	SubspaceRotationAdjust: set factor to 0.291
ElecMinimize: Iter:  32  F: -2796.807343199988736  |grad|_K:  2.087e-08  alpha:  3.526e-01  linmin: -1.876e-07  t[s]:   3872.97
	FillingsUpdate:  mu: -0.126202687  nElectrons: 736.000000
	SubspaceRotationAdjust: set factor to 0.278
ElecMinimize: Iter:  33  F: -2796.807343235000189  |grad|_K:  1.847e-08  alpha:  3.669e-01  linmin:  3.907e-08  t[s]:   3960.15
	FillingsUpdate:  mu: -0.126202760  nElectrons: 736.000000
	SubspaceRotationAdjust: set factor to 0.247
ElecMinimize: Iter:  34  F: -2796.807343251172369  |grad|_K:  1.521e-08  alpha:  2.165e-01  linmin:  3.952e-08  t[s]:   4047.03
	FillingsUpdate:  mu: -0.126202867  nElectrons: 736.000000
	SubspaceRotationAdjust: set factor to 0.346
ElecMinimize: Iter:  35  F: -2796.807343268195837  |grad|_K:  1.113e-08  alpha:  3.368e-01  linmin: -2.166e-07  t[s]:   4134.04
	FillingsUpdate:  mu: -0.126203610  nElectrons: 736.000000
	SubspaceRotationAdjust: set factor to 0.375
ElecMinimize: Iter:  36  F: -2796.807343280465375  |grad|_K:  1.156e-08  alpha:  4.534e-01  linmin:  1.804e-07  t[s]:   4221.06
	FillingsUpdate:  mu: -0.126204523  nElectrons: 736.000000
	SubspaceRotationAdjust: set factor to 0.311
ElecMinimize: Iter:  37  F: -2796.807343287091498  |grad|_K:  1.217e-08  alpha:  2.286e-01  linmin: -2.538e-08  t[s]:   4307.99
	FillingsUpdate:  mu: -0.126205658  nElectrons: 736.000000
	SubspaceRotationAdjust: set factor to 0.329
ElecMinimize: Iter:  38  F: -2796.807343293784015  |grad|_K:  8.012e-09  alpha:  2.106e-01  linmin: -1.347e-08  t[s]:   4394.96
ElecMinimize: Converged (|Delta F|<1.000000e-08 for 2 iters).
Setting wave functions to eigenvectors of Hamiltonian
Vacuum energy after initial minimize, F = -2796.807343293784015

	Linear fluid (dielectric constant: 78.4, screening length: 5.74355 Bohr) occupying 0.744800 of unit cell:	Completed after 19 iterations at t[s]:   4412.25

-------- Electronic minimization -----------
	Linear fluid (dielectric constant: 78.4, screening length: 5.74355 Bohr) occupying 0.744800 of unit cell:	Completed after 0 iterations at t[s]:   4431.69
	FillingsUpdate:  mu: -0.261481265  nElectrons: 736.000000
ElecMinimize: Iter:   0  F: -2796.803955383988978  |grad|_K:  5.777e-07  alpha:  1.000e+00
	Linear fluid (dielectric constant: 78.4, screening length: 5.74355 Bohr) occupying 0.744913 of unit cell:	Completed after 8 iterations at t[s]:   4503.83
	Linear fluid (dielectric constant: 78.4, screening length: 5.74355 Bohr) occupying 0.744890 of unit cell:	Completed after 3 iterations at t[s]:   4532.01
	FillingsUpdate:  mu: -0.261933347  nElectrons: 736.000000
	SubspaceRotationAdjust: set factor to 0.247
ElecMinimize: Iter:   1  F: -2796.804013021957871  |grad|_K:  4.675e-07  alpha:  7.937e-01  linmin:  8.372e-08  t[s]:   4569.16
	Linear fluid (dielectric constant: 78.4, screening length: 5.74355 Bohr) occupying 0.744993 of unit cell:	Completed after 12 iterations at t[s]:   4600.34
	Linear fluid (dielectric constant: 78.4, screening length: 5.74355 Bohr) occupying 0.744949 of unit cell:	Completed after 8 iterations at t[s]:   4629.82
	FillingsUpdate:  mu: -0.261330102  nElectrons: 736.000000
	SubspaceRotationAdjust: set factor to 0.221
ElecMinimize: Iter:   2  F: -2796.804034314960973  |grad|_K:  3.331e-07  alpha:  4.504e-01  linmin:  1.403e-07  t[s]:   4667.74
	Linear fluid (dielectric constant: 78.4, screening length: 5.74355 Bohr) occupying 0.744985 of unit cell:	Completed after 8 iterations at t[s]:   4698.29
	Linear fluid (dielectric constant: 78.4, screening length: 5.74355 Bohr) occupying 0.744988 of unit cell:	Completed after 0 iterations at t[s]:   4725.66
	FillingsUpdate:  mu: -0.261089041  nElectrons: 736.000000
	SubspaceRotationAdjust: set factor to 0.207
ElecMinimize: Iter:   3  F: -2796.804046149425176  |grad|_K:  2.217e-07  alpha:  4.892e-01  linmin: -1.796e-06  t[s]:   4762.24
	Linear fluid (dielectric constant: 78.4, screening length: 5.74355 Bohr) occupying 0.745005 of unit cell:	Completed after 3 iterations at t[s]:   4792.10
	Linear fluid (dielectric constant: 78.4, screening length: 5.74355 Bohr) occupying 0.745006 of unit cell:	Completed after 0 iterations at t[s]:   4818.80
	FillingsUpdate:  mu: -0.261107064  nElectrons: 736.000000
	SubspaceRotationAdjust: set factor to 0.29
ElecMinimize: Iter:   4  F: -2796.804052081426107  |grad|_K:  1.348e-07  alpha:  5.284e-01  linmin: -1.023e-06  t[s]:   4855.42
	Linear fluid (dielectric constant: 78.4, screening length: 5.74355 Bohr) occupying 0.745013 of unit cell:	Completed after 3 iterations at t[s]:   4885.06
	Linear fluid (dielectric constant: 78.4, screening length: 5.74355 Bohr) occupying 0.745012 of unit cell:	Completed after 0 iterations at t[s]:   4911.68
	FillingsUpdate:  mu: -0.261141562  nElectrons: 736.000000
	SubspaceRotationAdjust: set factor to 0.251
ElecMinimize: Iter:   5  F: -2796.804054014803569  |grad|_K:  1.251e-07  alpha:  4.769e-01  linmin: -4.956e-07  t[s]:   4948.35
	Linear fluid (dielectric constant: 78.4, screening length: 5.74355 Bohr) occupying 0.745018 of unit cell:	Completed after 3 iterations at t[s]:   4978.20
	Linear fluid (dielectric constant: 78.4, screening length: 5.74355 Bohr) occupying 0.745016 of unit cell:	Completed after 1 iterations at t[s]:   5005.04
	FillingsUpdate:  mu: -0.261114592  nElectrons: 736.000000
	SubspaceRotationAdjust: set factor to 0.238
ElecMinimize: Iter:   6  F: -2796.804055075411725  |grad|_K:  7.248e-08  alpha:  3.162e-01  linmin:  5.466e-07  t[s]:   5042.00
	Linear fluid (dielectric constant: 78.4, screening length: 5.74355 Bohr) occupying 0.745018 of unit cell:	Completed after 1 iterations at t[s]:   5071.57
	Linear fluid (dielectric constant: 78.4, screening length: 5.74355 Bohr) occupying 0.745019 of unit cell:	Completed after 0 iterations at t[s]:   5097.85
	FillingsUpdate:  mu: -0.261116630  nElectrons: 736.000000
	SubspaceRotationAdjust: set factor to 0.316
ElecMinimize: Iter:   7  F: -2796.804055628583228  |grad|_K:  4.004e-08  alpha:  4.677e-01  linmin: -3.756e-06  t[s]:   5134.53
	Linear fluid (dielectric constant: 78.4, screening length: 5.74355 Bohr) occupying 0.745020 of unit cell:	Completed after 2 iterations at t[s]:   5164.07
	Linear fluid (dielectric constant: 78.4, screening length: 5.74355 Bohr) occupying 0.745019 of unit cell:	Completed after 0 iterations at t[s]:   5190.43
	FillingsUpdate:  mu: -0.261095362  nElectrons: 736.000000
	SubspaceRotationAdjust: set factor to 0.295
ElecMinimize: Iter:   8  F: -2796.804055670005255  |grad|_K:  4.588e-08  alpha:  2.462e-01  linmin: -8.300e-07  t[s]:   5227.09
	Linear fluid (dielectric constant: 78.4, screening length: 5.74355 Bohr) occupying 0.745021 of unit cell:	Completed after 0 iterations at t[s]:   5256.13
	Linear fluid (dielectric constant: 78.4, screening length: 5.74355 Bohr) occupying 0.745021 of unit cell:	Completed after 0 iterations at t[s]:   5282.07
	FillingsUpdate:  mu: -0.261095293  nElectrons: 736.000000
	SubspaceRotationAdjust: set factor to 0.409
ElecMinimize: Iter:   9  F: -2796.804055796852481  |grad|_K:  3.924e-08  alpha:  2.629e-01  linmin: -2.625e-09  t[s]:   5318.73
	Linear fluid (dielectric constant: 78.4, screening length: 5.74355 Bohr) occupying 0.745022 of unit cell:	Completed after 2 iterations at t[s]:   5348.40
	Linear fluid (dielectric constant: 78.4, screening length: 5.74355 Bohr) occupying 0.745021 of unit cell:	Completed after 0 iterations at t[s]:   5374.76
ElecMinimize: 	Step increased F by 2.808974e-09, reducing alpha to 7.659896e-03.
	Linear fluid (dielectric constant: 78.4, screening length: 5.74355 Bohr) occupying 0.745021 of unit cell:	Completed after 0 iterations at t[s]:   5432.93
	FillingsUpdate:  mu: -0.261077547  nElectrons: 736.000000
	SubspaceRotationAdjust: set factor to 0.337
ElecMinimize: Iter:  10  F: -2796.804055818797679  |grad|_K:  4.697e-08  alpha:  7.660e-03  linmin:  3.902e-06  t[s]:   5469.57
	Linear fluid (dielectric constant: 78.4, screening length: 5.74355 Bohr) occupying 0.745021 of unit cell:	Completed after 0 iterations at t[s]:   5498.73
ElecMinimize: 	Predicted alpha/alphaT>3.000000, increasing alphaT to 2.297969e-02.
	Linear fluid (dielectric constant: 78.4, screening length: 5.74355 Bohr) occupying 0.745021 of unit cell:	Completed after 0 iterations at t[s]:   5524.43
ElecMinimize: 	Predicted alpha/alphaT>3.000000, increasing alphaT to 6.893906e-02.
	Linear fluid (dielectric constant: 78.4, screening length: 5.74355 Bohr) occupying 0.745021 of unit cell:	Completed after 0 iterations at t[s]:   5550.14
	Linear fluid (dielectric constant: 78.4, screening length: 5.74355 Bohr) occupying 0.745022 of unit cell:	Completed after 0 iterations at t[s]:   5575.95
	FillingsUpdate:  mu: -0.261077502  nElectrons: 736.000000
	SubspaceRotationAdjust: set factor to 0.328
ElecMinimize: Iter:  11  F: -2796.804055848680946  |grad|_K:  4.374e-08  alpha:  1.050e-01  linmin: -4.453e-08  t[s]:   5612.71
	Linear fluid (dielectric constant: 78.4, screening length: 5.74355 Bohr) occupying 0.745023 of unit cell:	Completed after 2 iterations at t[s]:   5642.44
	Linear fluid (dielectric constant: 78.4, screening length: 5.74355 Bohr) occupying 0.745022 of unit cell:	Completed after 0 iterations at t[s]:   5668.85
ElecMinimize: 	Step increased F by 3.745981e-08, reducing alpha to 3.070376e-03.
	Linear fluid (dielectric constant: 78.4, screening length: 5.74355 Bohr) occupying 0.745022 of unit cell:	Completed after 0 iterations at t[s]:   5727.30
ElecMinimize: 	Step increased F by 3.378000e-08, reducing alpha to 3.070376e-04.
	Linear fluid (dielectric constant: 78.4, screening length: 5.74355 Bohr) occupying 0.745022 of unit cell:	Completed after 0 iterations at t[s]:   5785.47
ElecMinimize: 	Step increased F by 3.364585e-08, reducing alpha to 3.070376e-05.
ElecMinimize: 	Step failed to reduce F after 3 attempts. Quitting step.
ElecMinimize: 	Undoing step.
	Linear fluid (dielectric constant: 78.4, screening length: 5.74355 Bohr) occupying 0.745022 of unit cell:	Completed after 0 iterations at t[s]:   5843.69
ElecMinimize: 	Step failed: resetting search direction.
	FillingsUpdate:  mu: -0.261084208  nElectrons: 736.000000
	SubspaceRotationAdjust: set factor to 0.199
ElecMinimize: Iter:  12  F: -2796.804055815068750  |grad|_K:  3.080e-08  alpha:  3.070e-05
	Linear fluid (dielectric constant: 78.4, screening length: 5.74355 Bohr) occupying 0.745022 of unit cell:	Completed after 0 iterations at t[s]:   5909.54
	Linear fluid (dielectric constant: 78.4, screening length: 5.74355 Bohr) occupying 0.745022 of unit cell:	Completed after 0 iterations at t[s]:   5935.42
	FillingsUpdate:  mu: -0.261083590  nElectrons: 736.000000
	SubspaceRotationAdjust: set factor to 0.219
ElecMinimize: Iter:  13  F: -2796.804055857375715  |grad|_K:  1.998e-08  alpha:  1.500e-01  linmin: -4.635e-05  t[s]:   5971.84
	Linear fluid (dielectric constant: 78.4, screening length: 5.74355 Bohr) occupying 0.745022 of unit cell:	Completed after 2 iterations at t[s]:   6001.34
	Linear fluid (dielectric constant: 78.4, screening length: 5.74355 Bohr) occupying 0.745022 of unit cell:	Completed after 0 iterations at t[s]:   6027.69
ElecMinimize: 	Step increased F by 3.537934e-08, reducing alpha to 3.538779e-03.
	Linear fluid (dielectric constant: 78.4, screening length: 5.74355 Bohr) occupying 0.745022 of unit cell:	Completed after 0 iterations at t[s]:   6085.85
ElecMinimize: 	Step increased F by 3.250034e-08, reducing alpha to 3.538779e-04.
	Linear fluid (dielectric constant: 78.4, screening length: 5.74355 Bohr) occupying 0.745022 of unit cell:	Completed after 0 iterations at t[s]:   6144.07
ElecMinimize: 	Step increased F by 3.222431e-08, reducing alpha to 3.538779e-05.
ElecMinimize: 	Step failed to reduce F after 3 attempts. Quitting step.
ElecMinimize: 	Undoing step.
	Linear fluid (dielectric constant: 78.4, screening length: 5.74355 Bohr) occupying 0.745022 of unit cell:	Completed after 0 iterations at t[s]:   6202.27
ElecMinimize: 	Step failed: resetting search direction.
	FillingsUpdate:  mu: -0.261081388  nElectrons: 736.000000
	SubspaceRotationAdjust: set factor to 0.16
ElecMinimize: Iter:  14  F: -2796.804055825190517  |grad|_K:  2.652e-08  alpha:  3.539e-05
	Linear fluid (dielectric constant: 78.4, screening length: 5.74355 Bohr) occupying 0.745022 of unit cell:	Completed after 0 iterations at t[s]:   6267.99
	Linear fluid (dielectric constant: 78.4, screening length: 5.74355 Bohr) occupying 0.745022 of unit cell:	Completed after 0 iterations at t[s]:   6294.17
	FillingsUpdate:  mu: -0.261081232  nElectrons: 736.000000
	SubspaceRotationAdjust: set factor to 0.112
ElecMinimize: Iter:  15  F: -2796.804055863670328  |grad|_K:  1.787e-08  alpha:  1.939e-01  linmin: -9.551e-05  t[s]:   6330.84
	Linear fluid (dielectric constant: 78.4, screening length: 5.74355 Bohr) occupying 0.745022 of unit cell:	Completed after 2 iterations at t[s]:   6360.52
	Linear fluid (dielectric constant: 78.4, screening length: 5.74355 Bohr) occupying 0.745022 of unit cell:	Completed after 0 iterations at t[s]:   6387.21
ElecMinimize: 	Step increased F by 2.723709e-08, reducing alpha to 5.443982e-03.
	Linear fluid (dielectric constant: 78.4, screening length: 5.74355 Bohr) occupying 0.745022 of unit cell:	Completed after 0 iterations at t[s]:   6445.64
ElecMinimize: 	Step increased F by 2.243360e-08, reducing alpha to 5.443982e-04.
	Linear fluid (dielectric constant: 78.4, screening length: 5.74355 Bohr) occupying 0.745022 of unit cell:	Completed after 0 iterations at t[s]:   6504.06
ElecMinimize: 	Step increased F by 2.196293e-08, reducing alpha to 5.443982e-05.
ElecMinimize: 	Step failed to reduce F after 3 attempts. Quitting step.
ElecMinimize: 	Undoing step.
	Linear fluid (dielectric constant: 78.4, screening length: 5.74355 Bohr) occupying 0.745022 of unit cell:	Completed after 0 iterations at t[s]:   6562.21
ElecMinimize: 	Step failed: resetting search direction.
	FillingsUpdate:  mu: -0.261081118  nElectrons: 736.000000
	SubspaceRotationAdjust: set factor to 0.062
ElecMinimize: Iter:  16  F: -2796.804055841643731  |grad|_K:  1.440e-08  alpha:  5.444e-05
	Linear fluid (dielectric constant: 78.4, screening length: 5.74355 Bohr) occupying 0.745022 of unit cell:	Completed after 0 iterations at t[s]:   6628.02
ElecMinimize: 	Predicted alpha/alphaT>3.000000, increasing alphaT to 5.815529e-01.
	Linear fluid (dielectric constant: 78.4, screening length: 5.74355 Bohr) occupying 0.745022 of unit cell:	Completed after 0 iterations at t[s]:   6653.72
	Linear fluid (dielectric constant: 78.4, screening length: 5.74355 Bohr) occupying 0.745022 of unit cell:	Completed after 2 iterations at t[s]:   6680.08
ElecMinimize: 	Step increased F by 9.021915e-08, reducing alpha to 1.217878e-01.
	Linear fluid (dielectric constant: 78.4, screening length: 5.74355 Bohr) occupying 0.745022 of unit cell:	Completed after 0 iterations at t[s]:   6738.87
	FillingsUpdate:  mu: -0.261084156  nElectrons: 736.000000
	SubspaceRotationAdjust: set factor to 0.0417
	SubspaceRotationAdjust: resetting CG because factor has changed by 0.126835
	Linear fluid (dielectric constant: 78.4, screening length: 5.74355 Bohr) occupying 0.745022 of unit cell:	Completed after 0 iterations at t[s]:   6788.11
ElecMinimize: 	State modified externally: resetting search direction.
ElecMinimize: Iter:  17  F: -2796.804055893789609  |grad|_K:  1.818e-08  alpha:  1.218e-01
	Linear fluid (dielectric constant: 78.4, screening length: 5.74355 Bohr) occupying 0.745022 of unit cell:	Completed after 2 iterations at t[s]:   6854.09
	Linear fluid (dielectric constant: 78.4, screening length: 5.74355 Bohr) occupying 0.745022 of unit cell:	Completed after 0 iterations at t[s]:   6880.61
ElecMinimize: 	Step increased F by 5.180982e-08, reducing alpha to 1.530621e-03.
	Linear fluid (dielectric constant: 78.4, screening length: 5.74355 Bohr) occupying 0.745022 of unit cell:	Completed after 0 iterations at t[s]:   6938.80
ElecMinimize: 	Step increased F by 5.206766e-08, reducing alpha to 1.530621e-04.
	Linear fluid (dielectric constant: 78.4, screening length: 5.74355 Bohr) occupying 0.745022 of unit cell:	Completed after 0 iterations at t[s]:   6996.91
ElecMinimize: 	Step increased F by 5.206175e-08, reducing alpha to 1.530621e-05.
ElecMinimize: 	Step failed to reduce F after 3 attempts. Quitting step.
ElecMinimize: 	Undoing step.
	Linear fluid (dielectric constant: 78.4, screening length: 5.74355 Bohr) occupying 0.745022 of unit cell:	Completed after 0 iterations at t[s]:   7055.25
ElecMinimize: 	Step failed along negative gradient direction.
ElecMinimize: Probably at roundoff error limit. (Stopping)
Setting wave functions to eigenvectors of Hamiltonian
Single-point solvation energy estimate, DeltaF = +0.003287452068435

# Ionic positions in lattice coordinates:
ion Mo   0.000160000625000   0.125490006000000   0.570079980000000 1
ion Mo   0.125160000625000   0.125499998250000   0.429910017000000 1
ion Mo   0.250160000625000   0.125490006000000   0.570079980000000 1
ion Mo   0.375160000625000   0.125499998250000   0.429910017000000 1
ion Mo   0.500160000625000   0.125490006000000   0.570079980000000 1
ion Mo   0.625160000625000   0.125499998250000   0.429910017000000 1
ion Mo   0.750160000625000   0.125490006000000   0.570079980000000 1
ion Mo   0.875160000625000   0.125499998250000   0.429910017000000 1
ion Mo   0.000160000625000   0.375490006000000   0.570079980000000 1
ion Mo   0.125160000625000   0.375499998250000   0.429910017000000 1
ion Mo   0.250160000625000   0.375490006000000   0.570079980000000 1
ion Mo   0.375160000625000   0.375499998250000   0.429910017000000 1
ion Mo   0.500160000625000   0.375490006000000   0.570079980000000 1
ion Mo   0.625160000625000   0.375499998250000   0.429910017000000 1
ion Mo   0.750160000625000   0.375490006000000   0.570079980000000 1
ion Mo   0.875160000625000   0.375499998250000   0.429910017000000 1
ion Mo   0.000160000625000   0.625490006000000   0.570079980000000 1
ion Mo   0.125160000625000   0.625499998250000   0.429910017000000 1
ion Mo   0.250160000625000   0.625490006000000   0.570079980000000 1
ion Mo   0.375160000625000   0.625499998250000   0.429910017000000 1
ion Mo   0.500160000625000   0.625490006000000   0.570079980000000 1
ion Mo   0.625160000625000   0.625499998250000   0.429910017000000 1
ion Mo   0.750160000625000   0.625490006000000   0.570079980000000 1
ion Mo   0.875160000625000   0.625499998250000   0.429910017000000 1
ion Mo   0.000160000625000   0.875490006000000   0.570079980000000 1
ion Mo   0.125160000625000   0.875499998250000   0.429910017000000 1
ion Mo   0.250160000625000   0.875490006000000   0.570079980000000 1
ion Mo   0.375160000625000   0.875499998250000   0.429910017000000 1
ion Mo   0.500160000625000   0.875490006000000   0.570079980000000 1
ion Mo   0.625160000625000   0.875499998250000   0.429910017000000 1
ion Mo   0.750160000625000   0.875490006000000   0.570079980000000 1
ion Mo   0.875160000625000   0.875499998250000   0.429910017000000 1
ion B   0.000160000625000   0.000509990750000   0.478370032000000 1
ion B   0.125160000625000   0.000509990750000   0.521629968000000 1
ion B   0.250160000625000   0.000509990750000   0.478370032000000 1
ion B   0.375160000625000   0.000509990750000   0.521629968000000 1
ion B   0.500160000625000   0.000509990750000   0.478370032000000 1
ion B   0.625160000625000   0.000509990750000   0.521629968000000 1
ion B   0.750160000625000   0.000509990750000   0.478370032000000 1
ion B   0.875160000625000   0.000509990750000   0.521629968000000 1
ion B   0.000160000625000   0.250509990750000   0.478370032000000 1
ion B   0.125160000625000   0.250509990750000   0.521629968000000 1
ion B   0.250160000625000   0.250509990750000   0.478370032000000 1
ion B   0.375160000625000   0.250509990750000   0.521629968000000 1
ion B   0.500160000625000   0.250509990750000   0.478370032000000 1
ion B   0.625160000625000   0.250509990750000   0.521629968000000 1
ion B   0.750160000625000   0.250509990750000   0.478370032000000 1
ion B   0.875160000625000   0.250509990750000   0.521629968000000 1
ion B   0.000160000625000   0.500509990750000   0.478370032000000 1
ion B   0.125160000625000   0.500509990750000   0.521629968000000 1
ion B   0.250160000625000   0.500509990750000   0.478370032000000 1
ion B   0.375160000625000   0.500509990750000   0.521629968000000 1
ion B   0.500160000625000   0.500509990750000   0.478370032000000 1
ion B   0.625160000625000   0.500509990750000   0.521629968000000 1
ion B   0.750160000625000   0.500509990750000   0.478370032000000 1
ion B   0.875160000625000   0.500509990750000   0.521629968000000 1
ion B   0.000160000625000   0.750509990750000   0.478370032000000 1
ion B   0.125160000625000   0.750509990750000   0.521629968000000 1
ion B   0.250160000625000   0.750509990750000   0.478370032000000 1
ion B   0.375160000625000   0.750509990750000   0.521629968000000 1
ion B   0.500160000625000   0.750509990750000   0.478370032000000 1
ion B   0.625160000625000   0.750509990750000   0.521629968000000 1
ion B   0.750160000625000   0.750509990750000   0.478370032000000 1
ion B   0.875160000625000   0.750509990750000   0.521629968000000 1
ion O   0.125160000625000   0.125399999500000   0.635730028000000 1
ion O   0.000160000625000   0.125440003750000   0.364269996000000 1
ion O   0.375160000625000   0.125399999500000   0.635730028000000 1
ion O   0.250160000625000   0.125440003750000   0.364269996000000 1
ion O   0.625160000625000   0.125399999500000   0.635730028000000 1
ion O   0.500160000625000   0.125440003750000   0.364269996000000 1
ion O   0.875160000625000   0.125399999500000   0.635730028000000 1
ion O   0.750160000625000   0.125440003750000   0.364269996000000 1
ion O   0.125160000625000   0.375399999500000   0.635730028000000 1
ion O   0.000160000625000   0.375440003750000   0.364269996000000 1
ion O   0.375160000625000   0.375399999500000   0.635730028000000 1
ion O   0.250160000625000   0.375440003750000   0.364269996000000 1
ion O   0.625160000625000   0.375399999500000   0.635730028000000 1
ion O   0.500160000625000   0.375440003750000   0.364269996000000 1
ion O   0.875160000625000   0.375399999500000   0.635730028000000 1
ion O   0.750160000625000   0.375440003750000   0.364269996000000 1
ion O   0.125160000625000   0.625399999500000   0.635730028000000 1
ion O   0.000160000625000   0.625440003750000   0.364269996000000 1
ion O   0.375160000625000   0.625399999500000   0.635730028000000 1
ion O   0.250160000625000   0.625440003750000   0.364269996000000 1
ion O   0.625160000625000   0.625399999500000   0.635730028000000 1
ion O   0.500160000625000   0.625440003750000   0.364269996000000 1
ion O   0.875160000625000   0.625399999500000   0.635730028000000 1
ion O   0.750160000625000   0.625440003750000   0.364269996000000 1
ion O   0.125160000625000   0.875399999500000   0.635730028000000 1
ion O   0.000160000625000   0.875440003750000   0.364269996000000 1
ion O   0.375160000625000   0.875399999500000   0.635730028000000 1
ion O   0.250160000625000   0.875440003750000   0.364269996000000 1
ion O   0.625160000625000   0.875399999500000   0.635730028000000 1
ion O   0.500160000625000   0.875440003750000   0.364269996000000 1
ion O   0.875160000625000   0.875399999500000   0.635730028000000 1
ion O   0.750160000625000   0.875440003750000   0.364269996000000 1


# Forces in Lattice coordinates:
force Mo   0.000000000000000  -0.000431483589090   0.085595793968918 1
force Mo   0.000000000000000  -0.000513787489435  -0.082451317294313 1
force Mo   0.000000000000000  -0.000431483589090   0.085595793968464 1
force Mo   0.000000000000000  -0.000513787489435  -0.082451317294312 1
force Mo   0.000000000000000  -0.000431483589090   0.085595793968918 1
force Mo   0.000000000000000  -0.000513787489435  -0.082451317294540 1
force Mo  -0.000000000000000  -0.000431483589090   0.085595793968690 1
force Mo   0.000000000000000  -0.000513787489435  -0.082451317294767 1
force Mo   0.000000000000000  -0.000431483589090   0.085595793968918 1
force Mo   0.000000000000000  -0.000513787489435  -0.082451317294312 1
force Mo   0.000000000000000  -0.000431483589090   0.085595793968917 1
force Mo   0.000000000000000  -0.000513787489435  -0.082451317294540 1
force Mo  -0.000000000000000  -0.000431483589090   0.085595793969145 1
force Mo  -0.000000000000000  -0.000513787489435  -0.082451317294086 1
force Mo   0.000000000000000  -0.000431483589090   0.085595793969145 1
force Mo  -0.000000000000000  -0.000513787489435  -0.082451317294312 1
force Mo   0.000000000000000  -0.000431483589090   0.085595793969145 1
force Mo   0.000000000000000  -0.000513787489435  -0.082451317294540 1
force Mo  -0.000000000000000  -0.000431483589090   0.085595793969145 1
force Mo  -0.000000000000000  -0.000513787489435  -0.082451317294313 1
force Mo   0.000000000000000  -0.000431483589090   0.085595793969146 1
force Mo  -0.000000000000000  -0.000513787489435  -0.082451317294312 1
force Mo  -0.000000000000000  -0.000431483589090   0.085595793969145 1
force Mo  -0.000000000000000  -0.000513787489435  -0.082451317294540 1
force Mo   0.000000000000000  -0.000431483589090   0.085595793969145 1
force Mo   0.000000000000000  -0.000513787489435  -0.082451317294767 1
force Mo   0.000000000000000  -0.000431483589090   0.085595793969145 1
force Mo  -0.000000000000000  -0.000513787489435  -0.082451317294540 1
force Mo   0.000000000000000  -0.000431483589090   0.085595793968918 1
force Mo   0.000000000000000  -0.000513787489435  -0.082451317294313 1
force Mo   0.000000000000000  -0.000431483589090   0.085595793969145 1
force Mo   0.000000000000000  -0.000513787489435  -0.082451317294540 1
force B  -0.000000000000000   0.000186121234017   0.042497892446003 1
force B  -0.000000000000000  -0.000108525129546  -0.043432446740219 1
force B   0.000000000000000   0.000186121234017   0.042497892445946 1
force B  -0.000000000000000  -0.000108525129546  -0.043432446740219 1
force B   0.000000000000000   0.000186121234017   0.042497892445989 1
force B  -0.000000000000000  -0.000108525129546  -0.043432446740218 1
force B  -0.000000000000000   0.000186121234017   0.042497892445975 1
force B   0.000000000000000  -0.000108525129546  -0.043432446740204 1
force B  -0.000000000000000   0.000186121234017   0.042497892445989 1
force B  -0.000000000000000  -0.000108525129546  -0.043432446740219 1
force B   0.000000000000000   0.000186121234017   0.042497892445960 1
force B  -0.000000000000000  -0.000108525129546  -0.043432446740204 1
force B   0.000000000000000   0.000186121234017   0.042497892445975 1
force B  -0.000000000000000  -0.000108525129546  -0.043432446740219 1
force B  -0.000000000000000   0.000186121234017   0.042497892446003 1
force B   0.000000000000000  -0.000108525129546  -0.043432446740204 1
force B  -0.000000000000000   0.000186121234017   0.042497892445988 1
force B   0.000000000000000  -0.000108525129546  -0.043432446740219 1
force B   0.000000000000000   0.000186121234017   0.042497892446017 1
force B   0.000000000000000  -0.000108525129546  -0.043432446740219 1
force B  -0.000000000000000   0.000186121234017   0.042497892446003 1
force B  -0.000000000000000  -0.000108525129546  -0.043432446740204 1
force B  -0.000000000000000   0.000186121234017   0.042497892445989 1
force B  -0.000000000000000  -0.000108525129546  -0.043432446740204 1
force B  -0.000000000000000   0.000186121234017   0.042497892446003 1
force B   0.000000000000000  -0.000108525129546  -0.043432446740219 1
force B   0.000000000000000   0.000186121234017   0.042497892446003 1
force B   0.000000000000000  -0.000108525129546  -0.043432446740219 1
force B  -0.000000000000000   0.000186121234017   0.042497892446017 1
force B   0.000000000000000  -0.000108525129546  -0.043432446740219 1
force B   0.000000000000000   0.000186121234017   0.042497892446003 1
force B  -0.000000000000000  -0.000108525129546  -0.043432446740219 1
force O  -0.000000000000000   0.000354763830354  -0.010744984561857 1
force O   0.000000000000000  -0.000191780491916   0.008147295731160 1
force O  -0.000000000000000   0.000354763830354  -0.010744984561633 1
force O  -0.000000000000000  -0.000191780491916   0.008147295731391 1
force O  -0.000000000000000   0.000354763830354  -0.010744984561402 1
force O  -0.000000000000000  -0.000191780491916   0.008147295730705 1
force O  -0.000000000000000   0.000354763830354  -0.010744984561860 1
force O  -0.000000000000000  -0.000191780491916   0.008147295730478 1
force O  -0.000000000000000   0.000354763830354  -0.010744984562088 1
force O   0.000000000000000  -0.000191780491916   0.008147295731387 1
force O   0.000000000000000   0.000354763830354  -0.010744984561860 1
force O  -0.000000000000000  -0.000191780491916   0.008147295731163 1
force O  -0.000000000000000   0.000354763830354  -0.010744984562084 1
force O   0.000000000000000  -0.000191780491916   0.008147295731163 1
force O   0.000000000000000   0.000354763830354  -0.010744984562088 1
force O  -0.000000000000000  -0.000191780491916   0.008147295731156 1
force O   0.000000000000000   0.000354763830354  -0.010744984562088 1
force O   0.000000000000000  -0.000191780491916   0.008147295730936 1
force O   0.000000000000000   0.000354763830354  -0.010744984561860 1
force O   0.000000000000000  -0.000191780491916   0.008147295730932 1
force O   0.000000000000000   0.000354763830354  -0.010744984561637 1
force O   0.000000000000000  -0.000191780491916   0.008147295730481 1
force O   0.000000000000000   0.000354763830354  -0.010744984561860 1
force O  -0.000000000000000  -0.000191780491916   0.008147295730936 1
force O  -0.000000000000000   0.000354763830354  -0.010744984561633 1
force O   0.000000000000000  -0.000191780491916   0.008147295730481 1
force O  -0.000000000000000   0.000354763830354  -0.010744984561860 1
force O   0.000000000000000  -0.000191780491916   0.008147295730485 1
force O  -0.000000000000000   0.000354763830354  -0.010744984562088 1
force O   0.000000000000000  -0.000191780491916   0.008147295730708 1
force O   0.000000000000000   0.000354763830354  -0.010744984562088 1
force O  -0.000000000000000  -0.000191780491916   0.008147295730708 1

# Energy components:
   A_diel =        0.0031893457772910
   Eewald =    29325.6187284626394103
       EH =    31633.4757109790371032
     Eloc =   -64589.1897883516503498
      Enl =      491.1049615145151961
      Exc =     -473.6409221414256763
 Exc_core =       52.0916191795059760
       KE =      763.8443281739939721
-------------------------------------
     Etot =    -2796.6921728376100873
       TS =        0.1118830041055808
-------------------------------------
        F =    -2796.8040558417155808

IonicMinimize: Iter:   0  F: -2796.804055841715581  |grad|_K:  8.241e-04  t[s]:   7112.99

#--- Lowdin population analysis ---
# oxidation-state Mo +0.419 +0.420 +0.419 +0.420 +0.419 +0.420 +0.419 +0.420 +0.419 +0.420 +0.419 +0.420 +0.419 +0.420 +0.419 +0.420 +0.419 +0.420 +0.419 +0.420 +0.419 +0.420 +0.419 +0.420 +0.419 +0.420 +0.419 +0.420 +0.419 +0.420 +0.419 +0.420
# oxidation-state B -0.115 -0.114 -0.115 -0.114 -0.115 -0.114 -0.115 -0.114 -0.115 -0.114 -0.115 -0.114 -0.115 -0.114 -0.115 -0.114 -0.115 -0.114 -0.115 -0.114 -0.115 -0.114 -0.115 -0.114 -0.115 -0.114 -0.115 -0.114 -0.115 -0.114 -0.115 -0.114
# oxidation-state O -0.247 -0.246 -0.247 -0.246 -0.247 -0.246 -0.247 -0.246 -0.247 -0.246 -0.247 -0.246 -0.247 -0.246 -0.247 -0.246 -0.247 -0.246 -0.247 -0.246 -0.247 -0.246 -0.247 -0.246 -0.247 -0.246 -0.247 -0.246 -0.247 -0.246 -0.247 -0.246

	Linear fluid (dielectric constant: 78.4, screening length: 5.74355 Bohr) occupying 0.745036 of unit cell:	Completed after 10 iterations at t[s]:   7145.92

-------- Electronic minimization -----------
	Linear fluid (dielectric constant: 78.4, screening length: 5.74355 Bohr) occupying 0.745036 of unit cell:	Completed after 0 iterations at t[s]:   7164.20
	FillingsUpdate:  mu: -0.260170810  nElectrons: 736.000000
ElecMinimize: Iter:   0  F: -2796.803996586184894  |grad|_K:  4.286e-07  alpha:  1.000e+00
	Linear fluid (dielectric constant: 78.4, screening length: 5.74355 Bohr) occupying 0.745038 of unit cell:	Completed after 6 iterations at t[s]:   7235.65
	Linear fluid (dielectric constant: 78.4, screening length: 5.74355 Bohr) occupying 0.745037 of unit cell:	Completed after 2 iterations at t[s]:   7263.14
	FillingsUpdate:  mu: -0.260531765  nElectrons: 736.000000
	SubspaceRotationAdjust: set factor to 0.0482
ElecMinimize: Iter:   1  F: -2796.804028106036185  |grad|_K:  2.918e-07  alpha:  7.890e-01  linmin:  1.325e-05  t[s]:   7300.21
	Linear fluid (dielectric constant: 78.4, screening length: 5.74355 Bohr) occupying 0.745037 of unit cell:	Completed after 3 iterations at t[s]:   7330.14
	Linear fluid (dielectric constant: 78.4, screening length: 5.74355 Bohr) occupying 0.745036 of unit cell:	Completed after 2 iterations at t[s]:   7357.11
	FillingsUpdate:  mu: -0.260670416  nElectrons: 736.000000
	SubspaceRotationAdjust: set factor to 0.0611
ElecMinimize: Iter:   2  F: -2796.804047401055414  |grad|_K:  3.675e-07  alpha:  1.044e+00  linmin:  2.849e-05  t[s]:   7393.97
	Linear fluid (dielectric constant: 78.4, screening length: 5.74355 Bohr) occupying 0.745033 of unit cell:	Completed after 3 iterations at t[s]:   7423.63
	Linear fluid (dielectric constant: 78.4, screening length: 5.74355 Bohr) occupying 0.745031 of unit cell:	Completed after 2 iterations at t[s]:   7450.71
	FillingsUpdate:  mu: -0.260885995  nElectrons: 736.000000
	SubspaceRotationAdjust: set factor to 0.0665
ElecMinimize: Iter:   3  F: -2796.804094559691293  |grad|_K:  5.750e-07  alpha:  1.612e+00  linmin: -2.137e-06  t[s]:   7487.58
	Linear fluid (dielectric constant: 78.4, screening length: 5.74355 Bohr) occupying 0.745013 of unit cell:	Completed after 6 iterations at t[s]:   7517.66
	Linear fluid (dielectric constant: 78.4, screening length: 5.74355 Bohr) occupying 0.745024 of unit cell:	Completed after 3 iterations at t[s]:   7545.35
	FillingsUpdate:  mu: -0.261083262  nElectrons: 736.000000
	SubspaceRotationAdjust: set factor to 0.0706
ElecMinimize: Iter:   4  F: -2796.804141915053151  |grad|_K:  5.780e-07  alpha:  6.604e-01  linmin:  3.117e-06  t[s]:   7582.51
	Linear fluid (dielectric constant: 78.4, screening length: 5.74355 Bohr) occupying 0.745017 of unit cell:	Completed after 2 iterations at t[s]:   7612.08
	Linear fluid (dielectric constant: 78.4, screening length: 5.74355 Bohr) occupying 0.745018 of unit cell:	Completed after 0 iterations at t[s]:   7638.46
	FillingsUpdate:  mu: -0.261059758  nElectrons: 736.000000
	SubspaceRotationAdjust: set factor to 0.0747
ElecMinimize: Iter:   5  F: -2796.804185731805774  |grad|_K:  4.439e-07  alpha:  6.032e-01  linmin:  5.457e-06  t[s]:   7675.02
	Linear fluid (dielectric constant: 78.4, screening length: 5.74355 Bohr) occupying 0.745017 of unit cell:	Completed after 2 iterations at t[s]:   7704.55
	Linear fluid (dielectric constant: 78.4, screening length: 5.74355 Bohr) occupying 0.745017 of unit cell:	Completed after 2 iterations at t[s]:   7731.28
	FillingsUpdate:  mu: -0.261049499  nElectrons: 736.000000
	SubspaceRotationAdjust: set factor to 0.0836
ElecMinimize: Iter:   6  F: -2796.804204185908930  |grad|_K:  2.698e-07  alpha:  4.320e-01  linmin:  1.049e-06  t[s]:   7768.33
	Linear fluid (dielectric constant: 78.4, screening length: 5.74355 Bohr) occupying 0.745018 of unit cell:	Completed after 3 iterations at t[s]:   7798.15
	Linear fluid (dielectric constant: 78.4, screening length: 5.74355 Bohr) occupying 0.745019 of unit cell:	Completed after 0 iterations at t[s]:   7824.70
	FillingsUpdate:  mu: -0.260990163  nElectrons: 736.000000
	SubspaceRotationAdjust: set factor to 0.1
ElecMinimize: Iter:   7  F: -2796.804212732780798  |grad|_K:  1.780e-07  alpha:  5.373e-01  linmin: -1.668e-05  t[s]:   7861.32
	Linear fluid (dielectric constant: 78.4, screening length: 5.74355 Bohr) occupying 0.745021 of unit cell:	Completed after 2 iterations at t[s]:   7890.87
	Linear fluid (dielectric constant: 78.4, screening length: 5.74355 Bohr) occupying 0.745020 of unit cell:	Completed after 0 iterations at t[s]:   7917.17
	FillingsUpdate:  mu: -0.260895812  nElectrons: 736.000000
	SubspaceRotationAdjust: set factor to 0.12
ElecMinimize: Iter:   8  F: -2796.804215670592384  |grad|_K:  1.156e-07  alpha:  4.198e-01  linmin:  9.440e-06  t[s]:   7953.74
	Linear fluid (dielectric constant: 78.4, screening length: 5.74355 Bohr) occupying 0.745021 of unit cell:	Completed after 2 iterations at t[s]:   7983.42
	Linear fluid (dielectric constant: 78.4, screening length: 5.74355 Bohr) occupying 0.745022 of unit cell:	Completed after 0 iterations at t[s]:   8009.71
	FillingsUpdate:  mu: -0.260876860  nElectrons: 736.000000
	SubspaceRotationAdjust: set factor to 0.15
ElecMinimize: Iter:   9  F: -2796.804217143139340  |grad|_K:  7.982e-08  alpha:  5.024e-01  linmin: -2.652e-05  t[s]:   8046.32
	Linear fluid (dielectric constant: 78.4, screening length: 5.74355 Bohr) occupying 0.745022 of unit cell:	Completed after 2 iterations at t[s]:   8075.90
	Linear fluid (dielectric constant: 78.4, screening length: 5.74355 Bohr) occupying 0.745023 of unit cell:	Completed after 0 iterations at t[s]:   8102.38
	FillingsUpdate:  mu: -0.260836139  nElectrons: 736.000000
	SubspaceRotationAdjust: set factor to 0.192
ElecMinimize: Iter:  10  F: -2796.804217989704739  |grad|_K:  5.939e-08  alpha:  5.572e-01  linmin: -9.180e-06  t[s]:   8138.94
	Linear fluid (dielectric constant: 78.4, screening length: 5.74355 Bohr) occupying 0.745023 of unit cell:	Completed after 3 iterations at t[s]:   8168.62
	Linear fluid (dielectric constant: 78.4, screening length: 5.74355 Bohr) occupying 0.745023 of unit cell:	Completed after 0 iterations at t[s]:   8195.14
	FillingsUpdate:  mu: -0.260773210  nElectrons: 736.000000
	SubspaceRotationAdjust: set factor to 0.22
ElecMinimize: Iter:  11  F: -2796.804218366421537  |grad|_K:  4.687e-08  alpha:  4.759e-01  linmin: -5.371e-06  t[s]:   8231.78
	Linear fluid (dielectric constant: 78.4, screening length: 5.74355 Bohr) occupying 0.745024 of unit cell:	Completed after 0 iterations at t[s]:   8261.00
	Linear fluid (dielectric constant: 78.4, screening length: 5.74355 Bohr) occupying 0.745024 of unit cell:	Completed after 0 iterations at t[s]:   8286.95
	FillingsUpdate:  mu: -0.260773488  nElectrons: 736.000000
	SubspaceRotationAdjust: set factor to 0.272
ElecMinimize: Iter:  12  F: -2796.804218653592216  |grad|_K:  4.138e-08  alpha:  5.679e-01  linmin:  3.055e-08  t[s]:   8323.62
	Linear fluid (dielectric constant: 78.4, screening length: 5.74355 Bohr) occupying 0.745025 of unit cell:	Completed after 2 iterations at t[s]:   8352.97
	Linear fluid (dielectric constant: 78.4, screening length: 5.74355 Bohr) occupying 0.745024 of unit cell:	Completed after 0 iterations at t[s]:   8379.35
	FillingsUpdate:  mu: -0.260789680  nElectrons: 736.000000
	SubspaceRotationAdjust: set factor to 0.261
ElecMinimize: Iter:  13  F: -2796.804218686637796  |grad|_K:  5.706e-08  alpha:  2.349e-01  linmin:  4.708e-06  t[s]:   8415.89
	Linear fluid (dielectric constant: 78.4, screening length: 5.74355 Bohr) occupying 0.745025 of unit cell:	Completed after 0 iterations at t[s]:   8444.92
	Linear fluid (dielectric constant: 78.4, screening length: 5.74355 Bohr) occupying 0.745025 of unit cell:	Completed after 0 iterations at t[s]:   8471.01
	FillingsUpdate:  mu: -0.260789352  nElectrons: 736.000000
	SubspaceRotationAdjust: set factor to 0.33
	SubspaceRotationAdjust: resetting CG because factor has changed by 7.91295
	Linear fluid (dielectric constant: 78.4, screening length: 5.74355 Bohr) occupying 0.745025 of unit cell:	Completed after 0 iterations at t[s]:   8520.01
ElecMinimize: 	State modified externally: resetting search direction.
ElecMinimize: Iter:  14  F: -2796.804218797567501  |grad|_K:  5.414e-08  alpha:  2.048e-01
	Linear fluid (dielectric constant: 78.4, screening length: 5.74355 Bohr) occupying 0.745025 of unit cell:	Completed after 2 iterations at t[s]:   8586.00
	Linear fluid (dielectric constant: 78.4, screening length: 5.74355 Bohr) occupying 0.745025 of unit cell:	Completed after 0 iterations at t[s]:   8612.42
	FillingsUpdate:  mu: -0.260763817  nElectrons: 736.000000
	SubspaceRotationAdjust: set factor to 0.261
ElecMinimize: Iter:  15  F: -2796.804218834292442  |grad|_K:  2.859e-08  alpha:  1.209e-01  linmin: -1.472e-05  t[s]:   8649.01
	Linear fluid (dielectric constant: 78.4, screening length: 5.74355 Bohr) occupying 0.745025 of unit cell:	Completed after 0 iterations at t[s]:   8678.10
ElecMinimize: 	Predicted alpha/alphaT>3.000000, increasing alphaT to 3.625606e-01.
	Linear fluid (dielectric constant: 78.4, screening length: 5.74355 Bohr) occupying 0.745025 of unit cell:	Completed after 0 iterations at t[s]:   8703.83
	Linear fluid (dielectric constant: 78.4, screening length: 5.74355 Bohr) occupying 0.745025 of unit cell:	Completed after 0 iterations at t[s]:   8729.85
	FillingsUpdate:  mu: -0.260762632  nElectrons: 736.000000
	SubspaceRotationAdjust: set factor to 0.406
ElecMinimize: Iter:  16  F: -2796.804218920423864  |grad|_K:  2.525e-08  alpha:  4.264e-01  linmin: -5.017e-06  t[s]:   8766.60
	Linear fluid (dielectric constant: 78.4, screening length: 5.74355 Bohr) occupying 0.745025 of unit cell:	Completed after 3 iterations at t[s]:   8796.43
	Linear fluid (dielectric constant: 78.4, screening length: 5.74355 Bohr) occupying 0.745025 of unit cell:	Completed after 0 iterations at t[s]:   8823.00
	FillingsUpdate:  mu: -0.260769113  nElectrons: 736.000000
	SubspaceRotationAdjust: set factor to 0.24
ElecMinimize: Iter:  17  F: -2796.804218923850385  |grad|_K:  5.701e-08  alpha:  1.500e-01  linmin:  1.091e-05  t[s]:   8859.69
	Linear fluid (dielectric constant: 78.4, screening length: 5.74355 Bohr) occupying 0.745025 of unit cell:	Completed after 0 iterations at t[s]:   8888.87
	Linear fluid (dielectric constant: 78.4, screening length: 5.74355 Bohr) occupying 0.745025 of unit cell:	Completed after 0 iterations at t[s]:   8914.77
	FillingsUpdate:  mu: -0.260769075  nElectrons: 736.000000
	SubspaceRotationAdjust: set factor to 0.147
ElecMinimize: Iter:  18  F: -2796.804218937505993  |grad|_K:  4.463e-08  alpha:  4.182e-02  linmin:  1.051e-09  t[s]:   8951.54
	Linear fluid (dielectric constant: 78.4, screening length: 5.74355 Bohr) occupying 0.745025 of unit cell:	Completed after 0 iterations at t[s]:   8980.75
ElecMinimize: 	Predicted alpha/alphaT>3.000000, increasing alphaT to 1.254672e-01.
	Linear fluid (dielectric constant: 78.4, screening length: 5.74355 Bohr) occupying 0.745025 of unit cell:	Completed after 0 iterations at t[s]:   9006.35
	Linear fluid (dielectric constant: 78.4, screening length: 5.74355 Bohr) occupying 0.745025 of unit cell:	Completed after 0 iterations at t[s]:   9032.19
	FillingsUpdate:  mu: -0.260768978  nElectrons: 736.000000
	SubspaceRotationAdjust: set factor to 0.141
ElecMinimize: Iter:  19  F: -2796.804218999095610  |grad|_K:  4.295e-08  alpha:  1.420e-01  linmin: -2.140e-08  t[s]:   9068.90
	Linear fluid (dielectric constant: 78.4, screening length: 5.74355 Bohr) occupying 0.745025 of unit cell:	Completed after 2 iterations at t[s]:   9098.46
	Linear fluid (dielectric constant: 78.4, screening length: 5.74355 Bohr) occupying 0.745025 of unit cell:	Completed after 0 iterations at t[s]:   9124.76
ElecMinimize: 	Step increased F by 3.834839e-08, reducing alpha to 2.629931e-03.
	Linear fluid (dielectric constant: 78.4, screening length: 5.74355 Bohr) occupying 0.745025 of unit cell:	Completed after 0 iterations at t[s]:   9183.04
ElecMinimize: 	Step increased F by 1.197532e-08, reducing alpha to 2.629931e-04.
	Linear fluid (dielectric constant: 78.4, screening length: 5.74355 Bohr) occupying 0.745025 of unit cell:	Completed after 0 iterations at t[s]:   9241.19
ElecMinimize: 	Step increased F by 9.488758e-09, reducing alpha to 2.629931e-05.
ElecMinimize: 	Step failed to reduce F after 3 attempts. Quitting step.
ElecMinimize: 	Undoing step.
	Linear fluid (dielectric constant: 78.4, screening length: 5.74355 Bohr) occupying 0.745025 of unit cell:	Completed after 0 iterations at t[s]:   9299.41
ElecMinimize: 	Step failed: resetting search direction.
	FillingsUpdate:  mu: -0.260778197  nElectrons: 736.000000
	SubspaceRotationAdjust: set factor to 0.0956
ElecMinimize: Iter:  20  F: -2796.804218989668698  |grad|_K:  3.728e-08  alpha:  2.630e-05
	Linear fluid (dielectric constant: 78.4, screening length: 5.74355 Bohr) occupying 0.745025 of unit cell:	Completed after 2 iterations at t[s]:   9365.32
	Linear fluid (dielectric constant: 78.4, screening length: 5.74355 Bohr) occupying 0.745025 of unit cell:	Completed after 0 iterations at t[s]:   9391.69
ElecMinimize: 	Step increased F by 4.596268e-08, reducing alpha to 5.029498e-03.
	Linear fluid (dielectric constant: 78.4, screening length: 5.74355 Bohr) occupying 0.745025 of unit cell:	Completed after 0 iterations at t[s]:   9449.88
ElecMinimize: 	Step increased F by 5.573384e-08, reducing alpha to 5.029498e-04.
	Linear fluid (dielectric constant: 78.4, screening length: 5.74355 Bohr) occupying 0.745025 of unit cell:	Completed after 0 iterations at t[s]:   9507.85
ElecMinimize: 	Step increased F by 5.678248e-08, reducing alpha to 5.029498e-05.
ElecMinimize: 	Step failed to reduce F after 3 attempts. Quitting step.
ElecMinimize: 	Undoing step.
	Linear fluid (dielectric constant: 78.4, screening length: 5.74355 Bohr) occupying 0.745025 of unit cell:	Completed after 0 iterations at t[s]:   9565.83
ElecMinimize: 	Step failed along negative gradient direction.
ElecMinimize: Probably at roundoff error limit. (Stopping)
Setting wave functions to eigenvectors of Hamiltonian

# Ionic positions in lattice coordinates:
ion Mo   0.000160000625000   0.125489399989408   0.570138149491988 1
ion Mo   0.125160000625000   0.125499233413041   0.429854070603961 1
ion Mo   0.250160000625000   0.125489399989408   0.570138149491988 1
ion Mo   0.375160000625000   0.125499233413041   0.429854070603961 1
ion Mo   0.500160000625000   0.125489399989408   0.570138149491988 1
ion Mo   0.625160000625000   0.125499233413041   0.429854070603961 1
ion Mo   0.750160000625000   0.125489399989408   0.570138149491988 1
ion Mo   0.875160000625000   0.125499233413041   0.429854070603961 1
ion Mo   0.000160000625000   0.375489399989408   0.570138149491988 1
ion Mo   0.125160000625000   0.375499233413041   0.429854070603961 1
ion Mo   0.250160000625000   0.375489399989408   0.570138149491988 1
ion Mo   0.375160000625000   0.375499233413041   0.429854070603961 1
ion Mo   0.500160000625000   0.375489399989408   0.570138149491988 1
ion Mo   0.625160000625000   0.375499233413041   0.429854070603961 1
ion Mo   0.750160000625000   0.375489399989408   0.570138149491988 1
ion Mo   0.875160000625000   0.375499233413041   0.429854070603961 1
ion Mo   0.000160000625000   0.625489399989408   0.570138149491988 1
ion Mo   0.125160000625000   0.625499233413041   0.429854070603961 1
ion Mo   0.250160000625000   0.625489399989408   0.570138149491988 1
ion Mo   0.375160000625000   0.625499233413041   0.429854070603961 1
ion Mo   0.500160000625000   0.625489399989408   0.570138149491988 1
ion Mo   0.625160000625000   0.625499233413041   0.429854070603961 1
ion Mo   0.750160000625000   0.625489399989408   0.570138149491988 1
ion Mo   0.875160000625000   0.625499233413041   0.429854070603961 1
ion Mo   0.000160000625000   0.875489399989408   0.570138149491988 1
ion Mo   0.125160000625000   0.875499233413041   0.429854070603961 1
[...]
ElecMinimize: Iter:   7  F: -2796.804509281044830  |grad|_K:  1.298e-08  alpha:  2.140e-01  linmin: -2.258e-03  t[s]:  19930.01
	Linear fluid (dielectric constant: 78.4, screening length: 5.74355 Bohr) occupying 0.744784 of unit cell:	Completed after 0 iterations at t[s]:  19961.03
	Linear fluid (dielectric constant: 78.4, screening length: 5.74355 Bohr) occupying 0.744784 of unit cell:	Completed after 0 iterations at t[s]:  19988.98
	FillingsUpdate:  mu: -0.260729976  nElectrons: 736.000000
	SubspaceRotationAdjust: set factor to 0.075
ElecMinimize: Iter:   8  F: -2796.804509305016381  |grad|_K:  1.049e-08  alpha:  4.331e-01  linmin:  1.594e-05  t[s]:  20027.64
	Linear fluid (dielectric constant: 78.4, screening length: 5.74355 Bohr) occupying 0.744784 of unit cell:	Completed after 0 iterations at t[s]:  20058.14
	Linear fluid (dielectric constant: 78.4, screening length: 5.74355 Bohr) occupying 0.744784 of unit cell:	Completed after 0 iterations at t[s]:  20085.77
	FillingsUpdate:  mu: -0.260729985  nElectrons: 736.000000
	SubspaceRotationAdjust: set factor to 0.0883
ElecMinimize: Iter:   9  F: -2796.804509316412350  |grad|_K:  1.024e-08  alpha:  4.850e-01  linmin: -5.662e-06  t[s]:  20124.46
	Linear fluid (dielectric constant: 78.4, screening length: 5.74355 Bohr) occupying 0.744784 of unit cell:	Completed after 2 iterations at t[s]:  20156.37
	Linear fluid (dielectric constant: 78.4, screening length: 5.74355 Bohr) occupying 0.744784 of unit cell:	Completed after 0 iterations at t[s]:  20185.07
ElecMinimize: 	Step increased F by 4.629828e-08, reducing alpha to 4.583541e-03.
	Linear fluid (dielectric constant: 78.4, screening length: 5.74355 Bohr) occupying 0.744784 of unit cell:	Completed after 0 iterations at t[s]:  20246.73
ElecMinimize: 	Step increased F by 5.000038e-08, reducing alpha to 4.583541e-04.
	Linear fluid (dielectric constant: 78.4, screening length: 5.74355 Bohr) occupying 0.744784 of unit cell:	Completed after 0 iterations at t[s]:  20308.54
ElecMinimize: 	Step increased F by 4.982530e-08, reducing alpha to 4.583541e-05.
ElecMinimize: 	Step failed to reduce F after 3 attempts. Quitting step.
ElecMinimize: 	Undoing step.
	Linear fluid (dielectric constant: 78.4, screening length: 5.74355 Bohr) occupying 0.744784 of unit cell:	Completed after 0 iterations at t[s]:  20370.57
ElecMinimize: 	Step failed: resetting search direction.
	FillingsUpdate:  mu: -0.260734800  nElectrons: 736.000000
	SubspaceRotationAdjust: set factor to 0.0833
ElecMinimize: Iter:  10  F: -2796.804509266574769  |grad|_K:  2.583e-08  alpha:  4.584e-05
	Linear fluid (dielectric constant: 78.4, screening length: 5.74355 Bohr) occupying 0.744784 of unit cell:	Completed after 2 iterations at t[s]:  20440.99
	Linear fluid (dielectric constant: 78.4, screening length: 5.74355 Bohr) occupying 0.744784 of unit cell:	Completed after 0 iterations at t[s]:  20469.26
	FillingsUpdate:  mu: -0.260732390  nElectrons: 736.000000
	SubspaceRotationAdjust: set factor to 0.0805
ElecMinimize: Iter:  11  F: -2796.804509305085958  |grad|_K:  9.911e-09  alpha:  3.003e-01  linmin:  6.409e-04  t[s]:  20507.59
	Linear fluid (dielectric constant: 78.4, screening length: 5.74355 Bohr) occupying 0.744784 of unit cell:	Completed after 0 iterations at t[s]:  20538.37
	Linear fluid (dielectric constant: 78.4, screening length: 5.74355 Bohr) occupying 0.744784 of unit cell:	Completed after 0 iterations at t[s]:  20566.13
	FillingsUpdate:  mu: -0.260732390  nElectrons: 736.000000
	SubspaceRotationAdjust: set factor to 0.109
ElecMinimize: Iter:  12  F: -2796.804509316064923  |grad|_K:  6.423e-09  alpha:  5.950e-01  linmin:  4.031e-06  t[s]:  20604.49
	Linear fluid (dielectric constant: 78.4, screening length: 5.74355 Bohr) occupying 0.744784 of unit cell:	Completed after 0 iterations at t[s]:  20635.43
	Linear fluid (dielectric constant: 78.4, screening length: 5.74355 Bohr) occupying 0.744784 of unit cell:	Completed after 0 iterations at t[s]:  20663.75
	FillingsUpdate:  mu: -0.260732407  nElectrons: 736.000000
	SubspaceRotationAdjust: set factor to 0.134
ElecMinimize: Iter:  13  F: -2796.804509321620117  |grad|_K:  7.334e-09  alpha:  6.133e-01  linmin: -3.237e-06  t[s]:  20701.57
	Linear fluid (dielectric constant: 78.4, screening length: 5.74355 Bohr) occupying 0.744784 of unit cell:	Completed after 0 iterations at t[s]:  20732.32
	Linear fluid (dielectric constant: 78.4, screening length: 5.74355 Bohr) occupying 0.744784 of unit cell:	Completed after 0 iterations at t[s]:  20760.16
	FillingsUpdate:  mu: -0.260732420  nElectrons: 736.000000
	SubspaceRotationAdjust: set factor to 0.169
ElecMinimize: Iter:  14  F: -2796.804509330122073  |grad|_K:  7.347e-09  alpha:  7.280e-01  linmin:  1.437e-06  t[s]:  20798.59
ElecMinimize: Converged (|Delta F|<1.000000e-08 for 2 iters).
Setting wave functions to eigenvectors of Hamiltonian

# Ionic positions in lattice coordinates:
ion Mo   0.000160000625000   0.125486616144824   0.570380142538101 1
ion Mo   0.125160000625000   0.125493810345100   0.429625233768340 1
ion Mo   0.250160000625000   0.125486616144824   0.570380142538101 1
ion Mo   0.375160000625000   0.125493810345100   0.429625233768340 1
ion Mo   0.500160000625000   0.125486616144824   0.570380142538101 1
ion Mo   0.625160000625000   0.125493810345100   0.429625233768340 1
ion Mo   0.750160000625000   0.125486616144824   0.570380142538101 1
ion Mo   0.875160000625000   0.125493810345100   0.429625233768340 1
ion Mo   0.000160000625000   0.375486616144824   0.570380142538101 1
ion Mo   0.125160000625000   0.375493810345100   0.429625233768340 1
ion Mo   0.250160000625000   0.375486616144824   0.570380142538101 1
ion Mo   0.375160000625000   0.375493810345100   0.429625233768340 1
ion Mo   0.500160000625000   0.375486616144824   0.570380142538101 1
ion Mo   0.625160000625000   0.375493810345100   0.429625233768340 1
ion Mo   0.750160000625000   0.375486616144824   0.570380142538101 1
ion Mo   0.875160000625000   0.375493810345100   0.429625233768340 1
ion Mo   0.000160000625000   0.625486616144824   0.570380142538101 1
ion Mo   0.125160000625000   0.625493810345100   0.429625233768340 1
ion Mo   0.250160000625000   0.625486616144824   0.570380142538101 1
ion Mo   0.375160000625000   0.625493810345100   0.429625233768340 1
ion Mo   0.500160000625000   0.625486616144824   0.570380142538101 1
ion Mo   0.625160000625000   0.625493810345100   0.429625233768340 1
ion Mo   0.750160000625000   0.625486616144824   0.570380142538101 1
ion Mo   0.875160000625000   0.625493810345100   0.429625233768340 1
ion Mo   0.000160000625000   0.875486616144824   0.570380142538101 1
ion Mo   0.125160000625000   0.875493810345100   0.429625233768340 1
ion Mo   0.250160000625000   0.875486616144824   0.570380142538101 1
ion Mo   0.375160000625000   0.875493810345100   0.429625233768340 1
ion Mo   0.500160000625000   0.875486616144824   0.570380142538101 1
ion Mo   0.625160000625000   0.875493810345100   0.429625233768340 1
ion Mo   0.750160000625000   0.875486616144824   0.570380142538101 1
ion Mo   0.875160000625000   0.875493810345100   0.429625233768340 1
ion B   0.000160000625000   0.000510623589349   0.478502488694816 1
ion B   0.125160000625000   0.000506145876216   0.521494522801560 1
ion B   0.250160000625000   0.000510623589349   0.478502488694816 1
ion B   0.375160000625000   0.000506145876216   0.521494522801560 1
ion B   0.500160000625000   0.000510623589349   0.478502488694816 1
ion B   0.625160000625000   0.000506145876216   0.521494522801560 1
ion B   0.750160000625000   0.000510623589349   0.478502488694816 1
ion B   0.875160000625000   0.000506145876216   0.521494522801560 1
ion B   0.000160000625000   0.250510623589349   0.478502488694816 1
ion B   0.125160000625000   0.250506145876216   0.521494522801560 1
ion B   0.250160000625000   0.250510623589349   0.478502488694816 1
ion B   0.375160000625000   0.250506145876216   0.521494522801560 1
ion B   0.500160000625000   0.250510623589349   0.478502488694816 1
ion B   0.625160000625000   0.250506145876216   0.521494522801560 1
ion B   0.750160000625000   0.250510623589349   0.478502488694816 1
ion B   0.875160000625000   0.250506145876216   0.521494522801560 1
ion B   0.000160000625000   0.500510623589349   0.478502488694816 1
ion B   0.125160000625000   0.500506145876216   0.521494522801560 1
ion B   0.250160000625000   0.500510623589349   0.478502488694816 1
ion B   0.375160000625000   0.500506145876216   0.521494522801560 1
ion B   0.500160000625000   0.500510623589349   0.478502488694816 1
ion B   0.625160000625000   0.500506145876216   0.521494522801560 1
ion B   0.750160000625000   0.500510623589349   0.478502488694816 1
ion B   0.875160000625000   0.500506145876216   0.521494522801560 1
ion B   0.000160000625000   0.750510623589349   0.478502488694816 1
ion B   0.125160000625000   0.750506145876216   0.521494522801560 1
ion B   0.250160000625000   0.750510623589349   0.478502488694816 1
ion B   0.375160000625000   0.750506145876216   0.521494522801560 1
ion B   0.500160000625000   0.750510623589349   0.478502488694816 1
ion B   0.625160000625000   0.750506145876216   0.521494522801560 1
ion B   0.750160000625000   0.750510623589349   0.478502488694816 1
ion B   0.875160000625000   0.750506145876216   0.521494522801560 1
ion O   0.125160000625000   0.125418060344119   0.635955935936650 1
ion O   0.000160000625000   0.125434732700392   0.364031697260534 1
ion O   0.375160000625000   0.125418060344119   0.635955935936650 1
ion O   0.250160000625000   0.125434732700392   0.364031697260534 1
ion O   0.625160000625000   0.125418060344119   0.635955935936650 1
ion O   0.500160000625000   0.125434732700392   0.364031697260534 1
ion O   0.875160000625000   0.125418060344119   0.635955935936650 1
ion O   0.750160000625000   0.125434732700392   0.364031697260534 1
ion O   0.125160000625000   0.375418060344119   0.635955935936650 1
ion O   0.000160000625000   0.375434732700392   0.364031697260534 1
ion O   0.375160000625000   0.375418060344119   0.635955935936650 1
ion O   0.250160000625000   0.375434732700392   0.364031697260534 1
ion O   0.625160000625000   0.375418060344119   0.635955935936650 1
ion O   0.500160000625000   0.375434732700392   0.364031697260534 1
ion O   0.875160000625000   0.375418060344119   0.635955935936650 1
ion O   0.750160000625000   0.375434732700392   0.364031697260534 1
ion O   0.125160000625000   0.625418060344119   0.635955935936650 1
ion O   0.000160000625000   0.625434732700393   0.364031697260534 1
ion O   0.375160000625000   0.625418060344119   0.635955935936650 1
ion O   0.250160000625000   0.625434732700393   0.364031697260534 1
ion O   0.625160000625000   0.625418060344119   0.635955935936650 1
ion O   0.500160000625000   0.625434732700393   0.364031697260534 1
ion O   0.875160000625000   0.625418060344119   0.635955935936650 1
ion O   0.750160000625000   0.625434732700393   0.364031697260534 1
ion O   0.125160000625000   0.875418060344119   0.635955935936650 1
ion O   0.000160000625000   0.875434732700393   0.364031697260534 1
ion O   0.375160000625000   0.875418060344119   0.635955935936650 1
ion O   0.250160000625000   0.875434732700393   0.364031697260534 1
ion O   0.625160000625000   0.875418060344119   0.635955935936650 1
ion O   0.500160000625000   0.875434732700393   0.364031697260534 1
ion O   0.875160000625000   0.875418060344119   0.635955935936650 1
ion O   0.750160000625000   0.875434732700393   0.364031697260534 1


# Forces in Lattice coordinates:
force Mo   0.000000000000000  -0.000106303457114  -0.004080028533274 1
force Mo   0.000000000000000  -0.000232540887493   0.000266133769983 1
force Mo  -0.000000000000000  -0.000106303457114  -0.004080028533501 1
force Mo   0.000000000000000  -0.000232540887493   0.000266133770210 1
force Mo   0.000000000000000  -0.000106303457114  -0.004080028533274 1
force Mo  -0.000000000000000  -0.000232540887493   0.000266133769983 1
force Mo  -0.000000000000000  -0.000106303457114  -0.004080028533275 1
force Mo   0.000000000000000  -0.000232540887493   0.000266133769983 1
force Mo   0.000000000000000  -0.000106303457114  -0.004080028533048 1
force Mo   0.000000000000000  -0.000232540887493   0.000266133770210 1
force Mo  -0.000000000000000  -0.000106303457114  -0.004080028533047 1
force Mo   0.000000000000000  -0.000232540887493   0.000266133769983 1
force Mo   0.000000000000000  -0.000106303457114  -0.004080028533047 1
force Mo  -0.000000000000000  -0.000232540887493   0.000266133769983 1
force Mo   0.000000000000000  -0.000106303457114  -0.004080028533048 1
force Mo   0.000000000000000  -0.000232540887493   0.000266133769983 1
force Mo   0.000000000000000  -0.000106303457114  -0.004080028533275 1
force Mo  -0.000000000000000  -0.000232540887493   0.000266133770211 1
force Mo  -0.000000000000000  -0.000106303457114  -0.004080028533502 1
force Mo   0.000000000000000  -0.000232540887493   0.000266133769983 1
force Mo   0.000000000000000  -0.000106303457114  -0.004080028533274 1
force Mo   0.000000000000000  -0.000232540887493   0.000266133769983 1
force Mo   0.000000000000000  -0.000106303457114  -0.004080028533274 1
force Mo  -0.000000000000000  -0.000232540887493   0.000266133770438 1
force Mo   0.000000000000000  -0.000106303457114  -0.004080028533729 1
force Mo  -0.000000000000000  -0.000232540887493   0.000266133770210 1
force Mo  -0.000000000000000  -0.000106303457114  -0.004080028533502 1
force Mo  -0.000000000000000  -0.000232540887493   0.000266133770438 1
force Mo  -0.000000000000000  -0.000106303457114  -0.004080028533274 1
force Mo   0.000000000000000  -0.000232540887493   0.000266133770437 1
force Mo  -0.000000000000000  -0.000106303457114  -0.004080028533502 1
force Mo   0.000000000000000  -0.000232540887493   0.000266133770210 1
force B  -0.000000000000000  -0.000175695283677   0.000557140508614 1
force B   0.000000000000000  -0.000137427333247   0.000334434972794 1
force B   0.000000000000000  -0.000175695283677   0.000557140508614 1
force B   0.000000000000000  -0.000137427333247   0.000334434972794 1
force B  -0.000000000000000  -0.000175695283677   0.000557140508614 1
force B   0.000000000000000  -0.000137427333247   0.000334434972808 1
force B   0.000000000000000  -0.000175695283677   0.000557140508600 1
force B   0.000000000000000  -0.000137427333247   0.000334434972793 1
force B  -0.000000000000000  -0.000175695283677   0.000557140508614 1
force B   0.000000000000000  -0.000137427333247   0.000334434972765 1
force B  -0.000000000000000  -0.000175695283677   0.000557140508614 1
force B  -0.000000000000000  -0.000137427333247   0.000334434972808 1
force B  -0.000000000000000  -0.000175695283677   0.000557140508599 1
force B  -0.000000000000000  -0.000137427333247   0.000334434972765 1
force B   0.000000000000000  -0.000175695283677   0.000557140508613 1
force B  -0.000000000000000  -0.000137427333247   0.000334434972808 1
force B  -0.000000000000000  -0.000175695283677   0.000557140508642 1
force B  -0.000000000000000  -0.000137427333247   0.000334434972779 1
force B   0.000000000000000  -0.000175695283677   0.000557140508642 1
force B  -0.000000000000000  -0.000137427333247   0.000334434972794 1
force B  -0.000000000000000  -0.000175695283677   0.000557140508628 1
force B  -0.000000000000000  -0.000137427333247   0.000334434972794 1
force B   0.000000000000000  -0.000175695283677   0.000557140508628 1
force B   0.000000000000000  -0.000137427333247   0.000334434972808 1
force B  -0.000000000000000  -0.000175695283677   0.000557140508628 1
force B  -0.000000000000000  -0.000137427333247   0.000334434972793 1
force B   0.000000000000000  -0.000175695283677   0.000557140508642 1
force B   0.000000000000000  -0.000137427333247   0.000334434972822 1
force B   0.000000000000000  -0.000175695283677   0.000557140508628 1
force B  -0.000000000000000  -0.000137427333247   0.000334434972793 1
force B  -0.000000000000000  -0.000175695283677   0.000557140508600 1
force B  -0.000000000000000  -0.000137427333247   0.000334434972808 1
force O   0.000000000000000   0.000060794201085   0.001986474208561 1
force O   0.000000000000000  -0.000212138718825   0.001316205586456 1
force O   0.000000000000000   0.000060794201085   0.001986474208557 1
force O  -0.000000000000000  -0.000212138718825   0.001316205586679 1
force O  -0.000000000000000   0.000060794201085   0.001986474208785 1
force O   0.000000000000000  -0.000212138718825   0.001316205586679 1
force O  -0.000000000000000   0.000060794201085   0.001986474208785 1
force O  -0.000000000000000  -0.000212138718825   0.001316205586679 1
force O   0.000000000000000   0.000060794201085   0.001986474208326 1
force O   0.000000000000000  -0.000212138718825   0.001316205586452 1
force O   0.000000000000000   0.000060794201085   0.001986474208557 1
force O  -0.000000000000000  -0.000212138718825   0.001316205586676 1
force O   0.000000000000000   0.000060794201085   0.001986474208103 1
force O  -0.000000000000000  -0.000212138718825   0.001316205586676 1
force O  -0.000000000000000   0.000060794201085   0.001986474208103 1
force O   0.000000000000000  -0.000212138718825   0.001316205586456 1
force O  -0.000000000000000   0.000060794201085   0.001986474208103 1
force O   0.000000000000000  -0.000212138718825   0.001316205586679 1
force O  -0.000000000000000   0.000060794201085   0.001986474208106 1
force O  -0.000000000000000  -0.000212138718825   0.001316205586676 1
force O  -0.000000000000000   0.000060794201085   0.001986474208103 1
force O  -0.000000000000000  -0.000212138718825   0.001316205586903 1
force O  -0.000000000000000   0.000060794201085   0.001986474208103 1
force O  -0.000000000000000  -0.000212138718825   0.001316205586903 1
force O  -0.000000000000000   0.000060794201085   0.001986474208330 1
force O   0.000000000000000  -0.000212138718825   0.001316205586907 1
force O  -0.000000000000000   0.000060794201085   0.001986474208334 1
force O  -0.000000000000000  -0.000212138718825   0.001316205586903 1
force O  -0.000000000000000   0.000060794201085   0.001986474208330 1
force O   0.000000000000000  -0.000212138718825   0.001316205586683 1
force O  -0.000000000000000   0.000060794201085   0.001986474208561 1
force O  -0.000000000000000  -0.000212138718825   0.001316205587138 1

# Energy components:
   A_diel =        0.0031997990118237
   Eewald =    29298.0112316329541500
       EH =    31606.0761843686123029
     Eloc =   -64534.0995997509016888
      Enl =      491.0948673385932466
      Exc =     -473.5910386048295777
 Exc_core =       52.0916203185759557
       KE =      763.7217983894199733
-------------------------------------
     Etot =    -2796.6917365085600977
       TS =        0.1127728215621763
-------------------------------------
        F =    -2796.8045093301220732

IonicMinimize: Iter:   6  F: -2796.804509330122073  |grad|_K:  2.943e-05  alpha:  1.000e+00  linmin:  6.888e-01  t[s]:  20822.16
IonicMinimize: Converged (|grad|_K<1.000000e-04).

#--- Lowdin population analysis ---
# oxidation-state Mo +0.421 +0.421 +0.421 +0.421 +0.421 +0.421 +0.421 +0.421 +0.421 +0.421 +0.421 +0.421 +0.421 +0.421 +0.421 +0.421 +0.421 +0.421 +0.421 +0.421 +0.421 +0.421 +0.421 +0.421 +0.421 +0.421 +0.421 +0.421 +0.421 +0.421 +0.421 +0.421
# oxidation-state B -0.116 -0.116 -0.116 -0.116 -0.116 -0.116 -0.116 -0.116 -0.116 -0.116 -0.116 -0.116 -0.116 -0.116 -0.116 -0.116 -0.116 -0.116 -0.116 -0.116 -0.116 -0.116 -0.116 -0.116 -0.116 -0.116 -0.116 -0.116 -0.116 -0.116 -0.116 -0.116
# oxidation-state O -0.246 -0.246 -0.246 -0.246 -0.246 -0.246 -0.246 -0.246 -0.246 -0.246 -0.246 -0.246 -0.246 -0.246 -0.246 -0.246 -0.246 -0.246 -0.246 -0.246 -0.246 -0.246 -0.246 -0.246 -0.246 -0.246 -0.246 -0.246 -0.246 -0.246 -0.246 -0.246


Dumping 'NbTe2.fillings' ... done
Dumping 'NbTe2.wfns' ... done
Dumping 'NbTe2.fluidState' ... done
Dumping 'NbTe2.ionpos' ... done
Dumping 'NbTe2.eigenvals' ... done
End date and time: Wed Apr 14 11:33:08 2021  (Duration: 0-5:47:15.51)
Done!
