
*************** JDFTx 1.5.0  ***************

Start date and time: Mon Jul 27 15:21:00 2020
Executable jdftx_gpu with command-line: -i Charged.in -o Charged.out
Running on hosts (process indices):  amax (0-5)
Divided in process groups (process indices):  0 (0)  1 (1)  2 (2)  3 (3)  4 (4)  5 (5)
gpuInit: Found compatible cuda device 0 'Tesla K80'
gpuInit: Found compatible cuda device 1 'Tesla K80'
gpuInit: Found compatible cuda device 2 'Tesla K80'
gpuInit: Found compatible cuda device 3 'Tesla K80'
gpuInit: Found compatible cuda device 4 'Tesla K80'
gpuInit: Found compatible cuda device 5 'Tesla K80'
gpuInit: Selected device 0
Resource initialization completed at t[s]:     12.87
Run totals: 6 processes, 24 threads, 6 GPUs


Input parsed successfully to the following command list (including defaults):

basis kpoint-dependent
cache-projectors no
coords-type Lattice
core-overlap-check none
coulomb-interaction Slab 001
coulomb-truncation-embed 0 0 0.5
davidson-band-ratio 1.1
dump End State
dump-name NbTe2.$VAR
elec-cutoff 20 100
elec-eigen-algo Davidson
elec-ex-corr gga-PBE
elec-smearing Gauss 0.0073499
electronic-minimize  \
	dirUpdateScheme      FletcherReeves \
	linminMethod         DirUpdateRecommended \
	nIterations          500 \
	history              15 \
	knormThreshold       0 \
	energyDiffThreshold  1e-08 \
	nEnergyDiff          2 \
	alphaTstart          1 \
	alphaTmin            1e-10 \
	updateTestStepSize   yes \
	alphaTreduceFactor   0.1 \
	alphaTincreaseFactor 3 \
	nAlphaAdjustMax      3 \
	wolfeEnergy          0.0001 \
	wolfeGradient        0.9 \
	fdTest               no
exchange-regularization WignerSeitzTruncated
fluid LinearPCM 298.000000 1.013250
fluid-anion F- 1 MeanFieldLJ \
	epsBulk 1 \
	pMol 0 \
	epsInf 1 \
	Pvap 0 \
	sigmaBulk 0 \
	Rvdw 2.24877 \
	Res 0 \
	tauNuc 343133
fluid-cation Na+ 1 MeanFieldLJ \
	epsBulk 1 \
	pMol 0 \
	epsInf 1 \
	Pvap 0 \
	sigmaBulk 0 \
	Rvdw 2.19208 \
	Res 0 \
	tauNuc 343133
fluid-ex-corr lda-TF lda-PZ
fluid-gummel-loop 10 1.000000e-05
fluid-minimize  \
	dirUpdateScheme      PolakRibiere \
	linminMethod         DirUpdateRecommended \
	nIterations          400 \
	history              15 \
	knormThreshold       1e-11 \
	energyDiffThreshold  0 \
	nEnergyDiff          2 \
	alphaTstart          1 \
	alphaTmin            1e-10 \
	updateTestStepSize   yes \
	alphaTreduceFactor   0.1 \
	alphaTincreaseFactor 3 \
	nAlphaAdjustMax      6 \
	wolfeEnergy          0.0001 \
	wolfeGradient        0.9 \
	fdTest               no
fluid-solvent H2O 55.338 ScalarEOS \
	epsBulk 78.4 \
	pMol 0.92466 \
	epsInf 1.77 \
	Pvap 1.06736e-10 \
	sigmaBulk 4.62e-05 \
	Rvdw 2.61727 \
	Res 1.42 \
	tauNuc 343133 \
	poleEl 15 7 1
forces-output-coords Positions
initial-state NbTe2.$VAR
ion Cu   0.344052789395051   0.266743940047328   0.523483595371547 0
ion Cu   0.844637716849840   0.265210873028988   0.520865619257454 0
ion Cu   0.331280872157471   0.695274195111959   0.547223092515701 0
ion Cu   0.847895214774148   0.755725270926018   0.538449828015675 0
ion Cu   0.095555576321984   0.494242289259856   0.526387110199757 0
ion Cu   0.605079311151333   0.492523066174672   0.540238934779496 0
ion Cu   0.087273908307773   0.987516810092717   0.509767065732580 0
ion Cu   0.586678100211236   0.983236830036316   0.539951160582307 0
ion Cu   0.158359923435773   0.245464085312843   0.459036141298665 0
ion Cu   0.655842533969604   0.244011903065121   0.464360997467794 0
ion Cu   0.153522550357863   0.746345910291657   0.451188259128775 0
ion Cu   0.653886009799714   0.733285231579074   0.503268820877043 0
ion Cu   0.401853770429948   0.002372347604076   0.472179077403680 0
ion Cu   0.893858632246599   0.006775823246987   0.460772618079559 0
ion Cu   0.416797213540169   0.530390927145823   0.485178480262490 0
ion Cu   0.914343682523058   0.519614063468763   0.469324908344586 0
ion Te   0.278114612797859   0.105015032048989   0.572898708747993 0
ion Te   0.778058313728101   0.105648947339754   0.577746020511600 0
ion Te   0.800625801632998   0.600455072247792   0.598340840197879 0
ion Te   0.227152359920463   0.408587881705022   0.413454875302722 0
ion Te   0.722743710157731   0.405757403301890   0.413097108653153 0
ion Te   0.219986232322872   0.898933639545358   0.393111606683212 0
ion Te   0.704608598745137   0.884825660249842   0.426614482518062 0
ion Te   0.473302806068934   0.368503019671245   0.417339048935792 0
ion Te   0.973477404295150   0.359961517432384   0.408013665316179 0
ion Te   0.450984526546094   0.828628439021710   0.439065357783460 0
ion Te   0.959716024201615   0.844452874633121   0.406485062009024 0
ion Te   0.030966736239941   0.147341569099673   0.569601089844469 0
ion Te   0.528417596959580   0.150489893228705   0.579299873469180 0
ion Te   0.078168078133540   0.654450656907981   0.575665568049092 0
ion Te   0.526027747769656   0.633895200327864   0.628241194499205 0
ion O   0.306148592785901   0.074910370178469   0.474085552670737 0
ion O   0.793329667869459   0.071966176308189   0.478099621545296 0
ion O   0.349392043987851   0.616429269319385   0.481849944027075 0
ion O   0.811502921048701   0.577121048887669   0.494500455367977 0
ion O   0.270851490278238   0.304924718598899   0.436706499114113 0
ion O   0.767686423884481   0.302164455840574   0.436016130498010 0
ion O   0.257277413959063   0.794970617594016   0.413224810161516 0
ion O   0.757437985549823   0.786355053808157   0.459865937739828 0
ion O   0.395951645614942   0.183746508501347   0.581900139130107 0
ion O   0.899150626437402   0.182018813327244   0.577187641153703 0
ion O   0.403752953840936   0.666671350332016   0.634373981164533 0
ion O   0.906462116373446   0.681856844089755   0.598146725609095 0
ion O   0.479767840854526   0.047446730517818   0.555700820592529 0
ion O   0.980831446686691   0.047263429417340   0.538845080278763 0
ion O   0.495942103505379   0.536276701621830   0.577626680631524 0
ion O   0.996231443769066   0.557272609012774   0.547308784011331 0
ion O   0.354273988397067   0.448516933137181   0.424804486024901 0
ion O   0.854337452668530   0.441103521772442   0.408739023056875 0
ion O   0.350026549478095   0.926970005914616   0.403033586354869 0
ion O   0.831407262753688   0.921937121713820   0.410136487929556 0
ion O   0.146765020305785   0.067853666259356   0.569120848629464 0
ion O   0.645833008397198   0.072058628936110   0.586561085656606 0
ion O   0.155858406422583   0.564128035141466   0.587018090834258 0
ion O   0.670456943425886   0.558388064109507   0.607127854451016 0
ion O   0.450776621480439   0.327603882237629   0.513414637164044 0
ion O   0.950583607332877   0.326728185055278   0.506782529051401 0
ion O   0.404609243592535   0.798016618691903   0.530862068868149 0
ion O   0.949545543275185   0.814529041962865   0.508254388478367 0
ion O   0.196113875853794   0.430720812267798   0.513559108383953 0
ion O   0.704979867391944   0.430268293713858   0.515125734412190 0
ion O   0.188619746178871   0.924626421773647   0.492533718634122 0
ion O   0.691313352944523   0.921978528735354   0.525454486047662 0
ion O   0.021678892378947   0.461296493433709   0.439199264135155 0
ion O   0.526070421163294   0.465442618790107   0.451632380803325 0
ion O   0.001560571184241   0.948664825533692   0.430857764194879 0
ion O   0.500271349347226   0.930144680005906   0.471680341990527 0
ion O   0.232344323366226   0.207230160382441   0.544761939702230 0
ion O   0.733316223744966   0.207971061810077   0.549324775539408 0
ion O   0.200881022492538   0.712806010316419   0.542808044135804 0
ion O   0.742773854862070   0.702206685212921   0.576673982899527 0
ion O   0.053543383503576   0.182174722310178   0.471065194110483 0
ion O   0.552693509768268   0.179250024272155   0.479363051243687 0
ion O   0.061436103966180   0.676780356726901   0.470037501570426 0
ion O   0.551433954152291   0.681986196054447   0.535173889172427 0
ion O   0.104284027602641   0.327646075895409   0.400485248543875 0
ion O   0.601574501152923   0.327734091571245   0.407472739880748 0
ion O   0.088244678758743   0.815097249266021   0.386523225338180 0
ion O   0.586900051219690   0.797993056486542   0.437922333227627 0
ion-species GBRV/$ID_pbe.uspp
ion-width Ecut
ionic-minimize  \
	dirUpdateScheme      L-BFGS \
	linminMethod         DirUpdateRecommended \
	nIterations          0 \
	history              15 \
	knormThreshold       0.0001 \
	energyDiffThreshold  1e-06 \
	nEnergyDiff          2 \
	alphaTstart          1 \
	alphaTmin            1e-10 \
	updateTestStepSize   yes \
	alphaTreduceFactor   0.1 \
	alphaTincreaseFactor 3 \
	nAlphaAdjustMax      3 \
	wolfeEnergy          0.0001 \
	wolfeGradient        0.9 \
	fdTest               no
kpoint   0.000000000000   0.000000000000   0.000000000000  1.00000000000000
kpoint-folding 2 2 1 
latt-move-scale 1 1 1
latt-scale 1 1 1 
lattice Triclinic 27.7129 32.6528 33.5201 90 90.4153 90
lattice-minimize  \
	dirUpdateScheme      L-BFGS \
	linminMethod         DirUpdateRecommended \
	nIterations          0 \
	history              15 \
	knormThreshold       0 \
	energyDiffThreshold  1e-06 \
	nEnergyDiff          2 \
	alphaTstart          1 \
	alphaTmin            1e-10 \
	updateTestStepSize   yes \
	alphaTreduceFactor   0.1 \
	alphaTincreaseFactor 3 \
	nAlphaAdjustMax      3 \
	wolfeEnergy          0.0001 \
	wolfeGradient        0.9 \
	fdTest               no
lcao-params -1 1e-06 0.0073499
pcm-variant CANDLE
spintype no-spin
subspace-rotation-factor 1 yes
symmetries automatic
symmetry-threshold 0.0001
target-mu -0.24475 no




---------- Setting up symmetries ----------

Found 4 point-group symmetries of the bravais lattice
Found 1 space-group symmetries with basis
Applied RMS atom displacement 0 bohrs to make symmetries exact.

---------- Initializing the Grid ----------
R = 
[    27.7129          0  -0.242964  ]
[          0    32.6528          0  ]
[          0          0    33.5193  ]
unit cell volume = 30331.7
G =
[   0.226724         -0  0.0016434  ]
[          0   0.192424         -0  ]
[          0          0    0.18745  ]
Minimum fftbox size, Smin = [  128  148  152  ]
Chosen fftbox size, S = [  128  150  160  ]

---------- Initializing tighter grid for wavefunction operations ----------
R = 
[    27.7129          0  -0.242964  ]
[          0    32.6528          0  ]
[          0          0    33.5193  ]
unit cell volume = 30331.7
G =
[   0.226724         -0  0.0016434  ]
[          0   0.192424         -0  ]
[          0          0    0.18745  ]
Minimum fftbox size, Smin = [  112  132  136  ]
Chosen fftbox size, S = [  112  140  140  ]

---------- Exchange Correlation functional ----------
Initalized PBE GGA exchange.
Initalized PBE GGA correlation.

---------- Setting up pseudopotentials ----------
Width of ionic core gaussian charges (only for fluid interactions / plotting) set to 0.397384

Reading pseudopotential file '/home/guoxy/vasp/jdftx-1.5.0/build/pseudopotentials/GBRV/cu_pbe.uspp':
  Title: Cu.  Created by USPP 7.3.6 on 3-2-2014
  Reference state energy: -201.059491.  19 valence electrons in orbitals:
    |300>  occupation: 2  eigenvalue: -5.020764
    |310>  occupation: 6  eigenvalue: -3.445588
    |320>  occupation: 8  eigenvalue: -0.925168
    |400>  occupation: 2  eigenvalue: -0.567638
    |410>  occupation: 0  eigenvalue: -0.326154
  lMax: 2  lLocal: 3  QijEcut: 6
  6 projectors sampled on a log grid with 613 points:
    l: 0  eig: -5.020767  rCut: 1.4
    l: 0  eig: -0.567640  rCut: 1.4
    l: 1  eig: -3.445589  rCut: 1.55
    l: 1  eig: -0.326157  rCut: 1.55
    l: 2  eig: -0.925170  rCut: 1.5
    l: 2  eig: 1.500000  rCut: 1.5
  Partial core density with radius 0.8
  Transforming core density to a uniform radial grid of dG=0.02 with 1277 points.
  Transforming local potential to a uniform radial grid of dG=0.02 with 1277 points.
  Transforming nonlocal projectors to a uniform radial grid of dG=0.02 with 432 points.
  Transforming density augmentations to a uniform radial grid of dG=0.02 with 1277 points.
  Transforming atomic orbitals to a uniform radial grid of dG=0.02 with 432 points.
  Core radius for overlap checks: 1.55 bohrs.

Reading pseudopotential file '/home/guoxy/vasp/jdftx-1.5.0/build/pseudopotentials/GBRV/te_pbe.uspp':
  Title: Te.  Created by USPP 7.3.6 on 14-9-2013
  Reference state energy: -13.134220.  6 valence electrons in orbitals:
    |500>  occupation: 2  eigenvalue: -0.555231
    |510>  occupation: 4  eigenvalue: -0.218781
  lMax: 2  lLocal: 2  QijEcut: 5
  5 projectors sampled on a log grid with 723 points:
    l: 0  eig: -0.555229  rCut: 2.1
    l: 0  eig: 1.000000  rCut: 2.1
    l: 1  eig: -0.218780  rCut: 2.1
    l: 1  eig: 1.000000  rCut: 2.1
    l: 2  eig: 1.000000  rCut: 2.6
  Partial core density with radius 1.8
  Transforming core density to a uniform radial grid of dG=0.02 with 1277 points.
  Transforming local potential to a uniform radial grid of dG=0.02 with 1277 points.
  Transforming nonlocal projectors to a uniform radial grid of dG=0.02 with 432 points.
  Transforming density augmentations to a uniform radial grid of dG=0.02 with 1277 points.
  Transforming atomic orbitals to a uniform radial grid of dG=0.02 with 432 points.
  Core radius for overlap checks: 2.60 bohrs.

Reading pseudopotential file '/home/guoxy/vasp/jdftx-1.5.0/build/pseudopotentials/GBRV/o_pbe.uspp':
  Title: O.  Created by USPP 7.3.6 on 3-2-2014
  Reference state energy: -15.894388.  6 valence electrons in orbitals:
    |200>  occupation: 2  eigenvalue: -0.878823
    |210>  occupation: 4  eigenvalue: -0.332131
  lMax: 2  lLocal: 2  QijEcut: 6
  5 projectors sampled on a log grid with 511 points:
    l: 0  eig: -0.878823  rCut: 1.25
    l: 0  eig: 0.000000  rCut: 1.25
    l: 1  eig: -0.332132  rCut: 1.25
    l: 1  eig: 0.000000  rCut: 1.25
    l: 2  eig: 1.000000  rCut: 1.25
  Partial core density with radius 0.7
  Transforming core density to a uniform radial grid of dG=0.02 with 1277 points.
  Transforming local potential to a uniform radial grid of dG=0.02 with 1277 points.
  Transforming nonlocal projectors to a uniform radial grid of dG=0.02 with 432 points.
  Transforming density augmentations to a uniform radial grid of dG=0.02 with 1277 points.
  Transforming atomic orbitals to a uniform radial grid of dG=0.02 with 432 points.
  Core radius for overlap checks: 1.25 bohrs.

Initialized 3 species with 79 total atoms.

Folded 1 k-points by 2x2x1 to 4 k-points.

---------- Setting up k-points, bands, fillings ----------
No reducable k-points. 
Computing the number of bands and number of electrons
Reading initial fillings from file NbTe2.fillings.
nElectrons: 685.625402   nBands: 460   nStates: 4

----- Setting up reduced wavefunction bases (one per k-point) -----
average nbasis = 129578.250 , ideal nbasis = 129579.442

---------- Setting up coulomb interaction ----------
Fluid mode embedding: using embedded box, but periodic Coulomb kernel.
(Fluid response is responsible for (approximate) separation between periodic images.)
Setting up double-sized grid for truncated Coulomb potentials:
R = 
[    27.7129          0  -0.485927  ]
[          0    32.6528          0  ]
[          0          0    67.0385  ]
unit cell volume = 60663.5
G =
[   0.226724         -0  0.0016434  ]
[          0   0.192424         -0  ]
[          0          0   0.093725  ]
Chosen fftbox size, S = [  128  150  320  ]
Integer grid location selected as the embedding center:
   Grid: [  0  0  80  ]
   Lattice: [  0  0  0.5  ]
   Cartesian: [  -0.121482  0  16.7596  ]
Constructing Wigner-Seitz cell: 8 faces (6 quadrilaterals, 2 hexagons)
Range-separation parameter for embedded mesh potentials due to point charges: 0.588606 bohrs.

Initializing van der Waals corrections
	NOTE: vdW corrections apply only for interactions with fluid.
	Cu:  C6:  187.33 Eh-a0^6  R0: 2.952 a0
	Te:  C6:  550.54 Eh-a0^6  R0: 3.575 a0
	 O:  C6:   12.14 Eh-a0^6  R0: 2.536 a0

---------- Setting up ewald sum ----------
Optimum gaussian width for ewald sums = 7.567421 bohr.
Real space sum over 567 unit cells with max indices [  4  4  3  ]
Reciprocal space sum over 7905 terms with max indices [  7  8  15  ]

---------- Allocating electronic variables ----------
Initializing wave functions:  reading from 'NbTe2.wfns'
----- createFluidSolver() ----- (Fluid-side solver setup)
   Initializing fluid molecule 'H2O'
     Initializing site 'O'
       Electron density: proportional to exp(-r/0.36935)*erfc((r-0.51523)/0.36823) with norm 6.826
       Charge density: gaussian nuclear width 0.478731 with net site charge 0.826
       Polarizability: cuspless exponential with width 0.32 and norm 3.73
       Hard sphere radius: 2.57003 bohrs
       Positions in reference frame:
         [ +0.000000 +0.000000 +0.000000 ]
     Initializing site 'H'
       Electron density: proportional to exp(-r/0.34641)*erfc((r-0)/0.390882) with norm 0.587
       Charge density: gaussian nuclear width 0.377945 with net site charge -0.413
       Polarizability: cuspless exponential with width 0.39 and norm 3.3
       Positions in reference frame:
         [ +0.000000 -1.441945 +1.122523 ]
         [ +0.000000 +1.441945 +1.122523 ]
     Net charge: 0   dipole magnitude: 0.927204
     Initializing spherical shell mfKernel with radius 2.61727 Bohr
     deltaS corrections:
       site 'O': -7.54299
       site 'H': -6.83917
   Initializing fluid molecule 'Na+'
     Initializing site 'Na'
       Electron density: proportional to exp(-r/0.19682)*erfc((r-0.71491)/0.41314) with norm 8.1383
       Charge density: gaussian nuclear width 0.365347 with net site charge -1
       Hard sphere radius: 1.86327 bohrs
       Positions in reference frame:
         [ +0.000000 +0.000000 +0.000000 ]
     Net charge: -1   dipole magnitude: 0
     Initializing gaussian mfKernel with width: 1.55004 Bohr
     deltaS corrections:
       site 'Na': -22.3555
   Initializing fluid molecule 'F-'
     Initializing site 'F'
       Electron density: proportional to exp(-r/0.38886)*erfc((r-0)/0.438782) with norm 8
       Charge density: gaussian nuclear width 0.374796 with net site charge 1
       Hard sphere radius: 2.39995 bohrs
       Positions in reference frame:
         [ +0.000000 +0.000000 +0.000000 ]
     Net charge: 1   dipole magnitude: 0
     Initializing gaussian mfKernel with width: 1.59012 Bohr
     deltaS corrections:
       site 'F': -9.04335

Correction to mu due to finite nuclear width = -0.0111547
   Cavity determined by nc: 0.00142 and sigma: 0.707107
   Nonlocal vdW cavity from gaussian model electron density with norm = 8 and sigma = 0.993594 bohr
   Charge asymmetry in cavity with sensitivity pCavity = 36.5 e-bohr/Eh
   Electrostatic cavity expanded by eta = 1.46 bohrs
   Weighted density cavitation model constrained by Nbulk: 0.0049383 bohr^-3, Pvap: 3.14029 kPa, Rvdw: 2.61727 bohr and sigmaBulk: 4.62e-05 Eh/bohr^2 at T: 298 K.
   Weighted density dispersion model using vdW pair potentials with single solvent site with sqrtC6eff: 0.77 SI.
Reading fluid state from 'NbTe2.fluidState'


---- Citations for features of the code used in this run ----

   Software package:
      R. Sundararaman, K. Letchworth-Weaver, K.A. Schwarz, D. Gunceler, Y. Ozhabes and T.A. Arias, 'JDFTx: software for joint density-functional theory', SoftwareX 6, 278 (2017)

   gga-PBE exchange-correlation functional:
      J.P. Perdew, K. Burke and M. Ernzerhof, Phys. Rev. Lett. 77, 3865 (1996)

   Pseudopotentials:
      KF Garrity, JW Bennett, KM Rabe and D Vanderbilt, Comput. Mater. Sci. 81, 446 (2014)

   Truncated Coulomb potentials:
      R. Sundararaman and T.A. Arias, Phys. Rev. B 87, 165122 (2013)

   Van der Waals correction pair-potentials:
      S. Grimme, J. Comput. Chem. 27, 1787 (2006)

   Charge-asymmetric nonlocally-determined local-electric (CANDLE) solvation model:
      R. Sundararaman and W.A. Goddard III, J. Chem. Phys. 142, 064107 (2015)

   Total energy minimization with Auxiliary Hamiltonian:
      C. Freysoldt, S. Boeck, and J. Neugebauer, Phys. Rev. B 79, 241103(R) (2009)

   Grand-canonical (fixed-potential) DFT:
      R. Sundararaman, W. A. Goddard III and T. A. Arias, J. Chem. Phys. 146, 114104 (2017)

This list may not be complete. Please suggest additional citations or
report any other bugs at https://github.com/shankar1729/jdftx/issues

Initialization completed successfully at t[s]:     31.42

Shifting auxilliary hamiltonian by -0.073481 to set nElectrons=685.625402
	Linear fluid (dielectric constant: 78.4, screening length: 5.74355 Bohr) occupying 0.802306 of unit cell:	Completed after 3 iterations at t[s]:     38.05

-------- Electronic minimization -----------
	Linear fluid (dielectric constant: 78.4, screening length: 5.74355 Bohr) occupying 0.802306 of unit cell:	Completed after 0 iterations at t[s]:     44.86
	FillingsUpdate:  mu: -0.244750400  nElectrons: 685.625402
ElecMinimize: Iter:   0  G: -3957.064161977496951  |grad|_K:  9.877e-05  alpha:  1.000e+00
	Linear fluid (dielectric constant: 78.4, screening length: 5.74355 Bohr) occupying 0.788485 of unit cell:	Completed after 31 iterations at t[s]:     75.02
	Linear fluid (dielectric constant: 78.4, screening length: 5.74355 Bohr) occupying 0.797788 of unit cell:	Completed after 36 iterations at t[s]:     91.62
	FillingsUpdate:  mu: -0.244750400  nElectrons: 684.933937
	SubspaceRotationAdjust: set factor to 0.508
ElecMinimize: Iter:   1  G: -3957.109535884827437  |grad|_K:  7.879e-05  alpha:  1.091e-02  linmin: -2.143e-02  t[s]:    104.22
	Linear fluid (dielectric constant: 78.4, screening length: 5.74355 Bohr) occupying 0.792171 of unit cell:	Completed after 18 iterations at t[s]:    118.12
	Linear fluid (dielectric constant: 78.4, screening length: 5.74355 Bohr) occupying 0.785661 of unit cell:	Completed after 19 iterations at t[s]:    131.33
	FillingsUpdate:  mu: -0.244750400  nElectrons: 682.101354
	SubspaceRotationAdjust: set factor to 0.421
ElecMinimize: Iter:   2  G: -3957.189810901832516  |grad|_K:  5.596e-05  alpha:  3.177e-02  linmin:  4.013e-04  t[s]:    143.99
	Linear fluid (dielectric constant: 78.4, screening length: 5.74355 Bohr) occupying 0.784242 of unit cell:	Completed after 17 iterations at t[s]:    157.83
	Linear fluid (dielectric constant: 78.4, screening length: 5.74355 Bohr) occupying 0.784089 of unit cell:	Completed after 14 iterations at t[s]:    170.52
	FillingsUpdate:  mu: -0.244750400  nElectrons: 680.471195
	SubspaceRotationAdjust: set factor to 0.362
ElecMinimize: Iter:   3  G: -3957.215554863083071  |grad|_K:  6.161e-05  alpha:  4.147e-02  linmin:  9.160e-05  t[s]:    183.12
	Linear fluid (dielectric constant: 78.4, screening length: 5.74355 Bohr) occupying 0.784171 of unit cell:	Completed after 19 iterations at t[s]:    197.25
	Linear fluid (dielectric constant: 78.4, screening length: 5.74355 Bohr) occupying 0.784120 of unit cell:	Completed after 13 iterations at t[s]:    209.76
	FillingsUpdate:  mu: -0.244750400  nElectrons: 679.435825
	SubspaceRotationAdjust: set factor to 0.247
ElecMinimize: Iter:   4  G: -3957.243596676613379  |grad|_K:  4.897e-05  alpha:  3.212e-02  linmin: -3.429e-07  t[s]:    222.36
	Linear fluid (dielectric constant: 78.4, screening length: 5.74355 Bohr) occupying 0.784351 of unit cell:	Completed after 14 iterations at t[s]:    235.45
	Linear fluid (dielectric constant: 78.4, screening length: 5.74355 Bohr) occupying 0.784375 of unit cell:	Completed after 8 iterations at t[s]:    247.27
	FillingsUpdate:  mu: -0.244750400  nElectrons: 679.166465
	SubspaceRotationAdjust: set factor to 0.402
ElecMinimize: Iter:   5  G: -3957.263842178452705  |grad|_K:  4.313e-05  alpha:  3.532e-02  linmin: -9.678e-06  t[s]:    259.73
	Linear fluid (dielectric constant: 78.4, screening length: 5.74355 Bohr) occupying 0.784658 of unit cell:	Completed after 15 iterations at t[s]:    273.12
	Linear fluid (dielectric constant: 78.4, screening length: 5.74355 Bohr) occupying 0.784941 of unit cell:	Completed after 16 iterations at t[s]:    285.98
	FillingsUpdate:  mu: -0.244750400  nElectrons: 679.040569
	SubspaceRotationAdjust: set factor to 0.412
ElecMinimize: Iter:   6  G: -3957.296044197926221  |grad|_K:  5.795e-05  alpha:  7.103e-02  linmin: -3.338e-05  t[s]:    299.11
	Linear fluid (dielectric constant: 78.4, screening length: 5.74355 Bohr) occupying 0.786144 of unit cell:	Completed after 17 iterations at t[s]:    312.82
	Linear fluid (dielectric constant: 78.4, screening length: 5.74355 Bohr) occupying 0.786024 of unit cell:	Completed after 9 iterations at t[s]:    324.91
	FillingsUpdate:  mu: -0.244750400  nElectrons: 678.510829
	SubspaceRotationAdjust: set factor to 0.444
ElecMinimize: Iter:   7  G: -3957.348908847554867  |grad|_K:  5.589e-05  alpha:  6.395e-02  linmin: -9.806e-07  t[s]:    337.69
	Linear fluid (dielectric constant: 78.4, screening length: 5.74355 Bohr) occupying 0.787195 of unit cell:	Completed after 19 iterations at t[s]:    351.63
	Linear fluid (dielectric constant: 78.4, screening length: 5.74355 Bohr) occupying 0.786671 of unit cell:	Completed after 18 iterations at t[s]:    364.71
	FillingsUpdate:  mu: -0.244750400  nElectrons: 677.860714
	SubspaceRotationAdjust: set factor to 0.58
ElecMinimize: Iter:   8  G: -3957.375930710343710  |grad|_K:  3.662e-05  alpha:  3.534e-02  linmin: -2.205e-05  t[s]:    377.40
	Linear fluid (dielectric constant: 78.4, screening length: 5.74355 Bohr) occupying 0.787036 of unit cell:	Completed after 15 iterations at t[s]:    390.88
	Linear fluid (dielectric constant: 78.4, screening length: 5.74355 Bohr) occupying 0.787025 of unit cell:	Completed after 3 iterations at t[s]:    402.14
	FillingsUpdate:  mu: -0.244750400  nElectrons: 677.479819
	SubspaceRotationAdjust: set factor to 0.739
ElecMinimize: Iter:   9  G: -3957.387023480980588  |grad|_K:  2.823e-05  alpha:  3.426e-02  linmin:  4.645e-06  t[s]:    414.86
	Linear fluid (dielectric constant: 78.4, screening length: 5.74355 Bohr) occupying 0.787331 of unit cell:	Completed after 11 iterations at t[s]:    427.63
	Linear fluid (dielectric constant: 78.4, screening length: 5.74355 Bohr) occupying 0.787404 of unit cell:	Completed after 9 iterations at t[s]:    439.80
	FillingsUpdate:  mu: -0.244750400  nElectrons: 677.300030
	SubspaceRotationAdjust: set factor to 0.899
ElecMinimize: Iter:  10  G: -3957.395111529308906  |grad|_K:  2.994e-05  alpha:  4.254e-02  linmin: -3.584e-06  t[s]:    452.28
	Linear fluid (dielectric constant: 78.4, screening length: 5.74355 Bohr) occupying 0.787955 of unit cell:	Completed after 17 iterations at t[s]:    466.04
	Linear fluid (dielectric constant: 78.4, screening length: 5.74355 Bohr) occupying 0.788010 of unit cell:	Completed after 9 iterations at t[s]:    477.65
	FillingsUpdate:  mu: -0.244750400  nElectrons: 677.334129
	SubspaceRotationAdjust: set factor to 1.07
ElecMinimize: Iter:  11  G: -3957.405178408205302  |grad|_K:  3.299e-05  alpha:  4.691e-02  linmin: -4.484e-06  t[s]:    490.40
	Linear fluid (dielectric constant: 78.4, screening length: 5.74355 Bohr) occupying 0.788858 of unit cell:	Completed after 18 iterations at t[s]:    504.11
	Linear fluid (dielectric constant: 78.4, screening length: 5.74355 Bohr) occupying 0.788639 of unit cell:	Completed after 14 iterations at t[s]:    516.85
	FillingsUpdate:  mu: -0.244750400  nElectrons: 677.470663
	SubspaceRotationAdjust: set factor to 1.2
ElecMinimize: Iter:  12  G: -3957.414209359095821  |grad|_K:  2.909e-05  alpha:  3.462e-02  linmin: -5.723e-08  t[s]:    529.66
	Linear fluid (dielectric constant: 78.4, screening length: 5.74355 Bohr) occupying 0.789192 of unit cell:	Completed after 15 iterations at t[s]:    543.13
	Linear fluid (dielectric constant: 78.4, screening length: 5.74355 Bohr) occupying 0.789214 of unit cell:	Completed after 3 iterations at t[s]:    554.07
	FillingsUpdate:  mu: -0.244750400  nElectrons: 677.483858
	SubspaceRotationAdjust: set factor to 0.952
ElecMinimize: Iter:  13  G: -3957.421489467315041  |grad|_K:  3.089e-05  alpha:  3.602e-02  linmin:  9.054e-06  t[s]:    566.81
	Linear fluid (dielectric constant: 78.4, screening length: 5.74355 Bohr) occupying 0.789898 of unit cell:	Completed after 13 iterations at t[s]:    579.61
	Linear fluid (dielectric constant: 78.4, screening length: 5.74355 Bohr) occupying 0.789887 of unit cell:	Completed after 3 iterations at t[s]:    590.61
	FillingsUpdate:  mu: -0.244750400  nElectrons: 677.290953
	SubspaceRotationAdjust: set factor to 0.886
ElecMinimize: Iter:  14  G: -3957.429524529123682  |grad|_K:  2.680e-05  alpha:  3.543e-02  linmin: -3.790e-06  t[s]:    603.03
	Linear fluid (dielectric constant: 78.4, screening length: 5.74355 Bohr) occupying 0.790410 of unit cell:	Completed after 17 iterations at t[s]:    616.51
	Linear fluid (dielectric constant: 78.4, screening length: 5.74355 Bohr) occupying 0.790354 of unit cell:	Completed after 8 iterations at t[s]:    628.62
	FillingsUpdate:  mu: -0.244750400  nElectrons: 677.037374
	SubspaceRotationAdjust: set factor to 1.14
ElecMinimize: Iter:  15  G: -3957.434950610058877  |grad|_K:  1.967e-05  alpha:  3.161e-02  linmin: -7.105e-06  t[s]:    640.52
	Linear fluid (dielectric constant: 78.4, screening length: 5.74355 Bohr) occupying 0.790623 of unit cell:	Completed after 15 iterations at t[s]:    654.07
	Linear fluid (dielectric constant: 78.4, screening length: 5.74355 Bohr) occupying 0.790672 of unit cell:	Completed after 9 iterations at t[s]:    666.31
	FillingsUpdate:  mu: -0.244750400  nElectrons: 676.851553
	SubspaceRotationAdjust: set factor to 0.861
ElecMinimize: Iter:  16  G: -3957.438430851203520  |grad|_K:  1.925e-05  alpha:  3.749e-02  linmin: -3.956e-06  t[s]:    678.93
	Linear fluid (dielectric constant: 78.4, screening length: 5.74355 Bohr) occupying 0.790995 of unit cell:	Completed after 13 iterations at t[s]:    691.67
	Linear fluid (dielectric constant: 78.4, screening length: 5.74355 Bohr) occupying 0.790994 of unit cell:	Completed after 0 iterations at t[s]:    701.58
	FillingsUpdate:  mu: -0.244750400  nElectrons: 676.805447
	SubspaceRotationAdjust: set factor to 0.73
ElecMinimize: Iter:  17  G: -3957.441744661824941  |grad|_K:  1.670e-05  alpha:  3.736e-02  linmin:  1.213e-05  t[s]:    714.07
	Linear fluid (dielectric constant: 78.4, screening length: 5.74355 Bohr) occupying 0.791244 of unit cell:	Completed after 16 iterations at t[s]:    727.36
	Linear fluid (dielectric constant: 78.4, screening length: 5.74355 Bohr) occupying 0.791257 of unit cell:	Completed after 4 iterations at t[s]:    737.96
	FillingsUpdate:  mu: -0.244750400  nElectrons: 676.932800
	SubspaceRotationAdjust: set factor to 0.768
ElecMinimize: Iter:  18  G: -3957.444348579679172  |grad|_K:  1.331e-05  alpha:  3.931e-02  linmin:  6.509e-06  t[s]:    750.50
	Linear fluid (dielectric constant: 78.4, screening length: 5.74355 Bohr) occupying 0.791423 of unit cell:	Completed after 15 iterations at t[s]:    763.13
	Linear fluid (dielectric constant: 78.4, screening length: 5.74355 Bohr) occupying 0.791429 of unit cell:	Completed after 3 iterations at t[s]:    773.96
	FillingsUpdate:  mu: -0.244750400  nElectrons: 677.072091
	SubspaceRotationAdjust: set factor to 0.711
ElecMinimize: Iter:  19  G: -3957.446064677431877  |grad|_K:  1.150e-05  alpha:  4.063e-02  linmin: -1.632e-05  t[s]:    786.72
	Linear fluid (dielectric constant: 78.4, screening length: 5.74355 Bohr) occupying 0.791550 of unit cell:	Completed after 13 iterations at t[s]:    799.51
	Linear fluid (dielectric constant: 78.4, screening length: 5.74355 Bohr) occupying 0.791564 of unit cell:	Completed after 4 iterations at t[s]:    810.60
	FillingsUpdate:  mu: -0.244750400  nElectrons: 677.122809
	SubspaceRotationAdjust: set factor to 0.797
ElecMinimize: Iter:  20  G: -3957.447497132167882  |grad|_K:  1.052e-05  alpha:  4.514e-02  linmin: -7.876e-06  t[s]:    823.10
	Linear fluid (dielectric constant: 78.4, screening length: 5.74355 Bohr) occupying 0.791665 of unit cell:	Completed after 13 iterations at t[s]:    835.81
	Linear fluid (dielectric constant: 78.4, screening length: 5.74355 Bohr) occupying 0.791666 of unit cell:	Completed after 0 iterations at t[s]:    845.70
	FillingsUpdate:  mu: -0.244750400  nElectrons: 677.072653
	SubspaceRotationAdjust: set factor to 1
ElecMinimize: Iter:  21  G: -3957.448708329377041  |grad|_K:  9.794e-06  alpha:  4.566e-02  linmin: -2.439e-05  t[s]:    858.24
	Linear fluid (dielectric constant: 78.4, screening length: 5.74355 Bohr) occupying 0.791740 of unit cell:	Completed after 14 iterations at t[s]:    871.30
	Linear fluid (dielectric constant: 78.4, screening length: 5.74355 Bohr) occupying 0.791740 of unit cell:	Completed after 0 iterations at t[s]:    881.39
	FillingsUpdate:  mu: -0.244750400  nElectrons: 676.997731
	SubspaceRotationAdjust: set factor to 1.02
ElecMinimize: Iter:  22  G: -3957.449759596728654  |grad|_K:  1.012e-05  alpha:  4.551e-02  linmin: -1.381e-05  t[s]:    893.55
	Linear fluid (dielectric constant: 78.4, screening length: 5.74355 Bohr) occupying 0.791801 of unit cell:	Completed after 11 iterations at t[s]:    905.65
	Linear fluid (dielectric constant: 78.4, screening length: 5.74355 Bohr) occupying 0.791792 of unit cell:	Completed after 5 iterations at t[s]:    916.15
	FillingsUpdate:  mu: -0.244750400  nElectrons: 676.982769
	SubspaceRotationAdjust: set factor to 1.27
ElecMinimize: Iter:  23  G: -3957.450711910021255  |grad|_K:  8.813e-06  alpha:  3.877e-02  linmin:  4.427e-06  t[s]:    928.02
	Linear fluid (dielectric constant: 78.4, screening length: 5.74355 Bohr) occupying 0.791817 of unit cell:	Completed after 10 iterations at t[s]:    940.08
	Linear fluid (dielectric constant: 78.4, screening length: 5.74355 Bohr) occupying 0.791816 of unit cell:	Completed after 3 iterations at t[s]:    950.94
	FillingsUpdate:  mu: -0.244750400  nElectrons: 677.004647
	SubspaceRotationAdjust: set factor to 1.55
ElecMinimize: Iter:  24  G: -3957.451382022470625  |grad|_K:  7.878e-06  alpha:  3.617e-02  linmin:  2.336e-06  t[s]:    963.84
	Linear fluid (dielectric constant: 78.4, screening length: 5.74355 Bohr) occupying 0.791820 of unit cell:	Completed after 10 iterations at t[s]:    976.22
	Linear fluid (dielectric constant: 78.4, screening length: 5.74355 Bohr) occupying 0.791820 of unit cell:	Completed after 2 iterations at t[s]:    986.60
	FillingsUpdate:  mu: -0.244750400  nElectrons: 677.005031
	SubspaceRotationAdjust: set factor to 1.76
ElecMinimize: Iter:  25  G: -3957.451891469584552  |grad|_K:  7.243e-06  alpha:  3.438e-02  linmin:  1.247e-05  t[s]:    998.75
	Linear fluid (dielectric constant: 78.4, screening length: 5.74355 Bohr) occupying 0.791806 of unit cell:	Completed after 9 iterations at t[s]:   1010.82
	Linear fluid (dielectric constant: 78.4, screening length: 5.74355 Bohr) occupying 0.791807 of unit cell:	Completed after 1 iterations at t[s]:   1021.16
	FillingsUpdate:  mu: -0.244750400  nElectrons: 677.009673
	SubspaceRotationAdjust: set factor to 2.09
ElecMinimize: Iter:  26  G: -3957.452308567152613  |grad|_K:  6.471e-06  alpha:  3.344e-02  linmin:  2.022e-05  t[s]:   1033.90
	Linear fluid (dielectric constant: 78.4, screening length: 5.74355 Bohr) occupying 0.791779 of unit cell:	Completed after 10 iterations at t[s]:   1045.77
	Linear fluid (dielectric constant: 78.4, screening length: 5.74355 Bohr) occupying 0.791784 of unit cell:	Completed after 4 iterations at t[s]:   1056.69
	FillingsUpdate:  mu: -0.244750400  nElectrons: 677.053825
	SubspaceRotationAdjust: set factor to 2.33
ElecMinimize: Iter:  27  G: -3957.452577606085470  |grad|_K:  5.699e-06  alpha:  2.710e-02  linmin:  9.562e-06  t[s]:   1068.93
	Linear fluid (dielectric constant: 78.4, screening length: 5.74355 Bohr) occupying 0.791751 of unit cell:	Completed after 10 iterations at t[s]:   1081.20
	Linear fluid (dielectric constant: 78.4, screening length: 5.74355 Bohr) occupying 0.791743 of unit cell:	Completed after 4 iterations at t[s]:   1091.71
	FillingsUpdate:  mu: -0.244750400  nElectrons: 677.107973
	SubspaceRotationAdjust: set factor to 2.04
ElecMinimize: Iter:  28  G: -3957.452839109101205  |grad|_K:  5.746e-06  alpha:  3.388e-02  linmin: -4.444e-06  t[s]:   1103.78
	Linear fluid (dielectric constant: 78.4, screening length: 5.74355 Bohr) occupying 0.791682 of unit cell:	Completed after 9 iterations at t[s]:   1115.81
	Linear fluid (dielectric constant: 78.4, screening length: 5.74355 Bohr) occupying 0.791691 of unit cell:	Completed after 4 iterations at t[s]:   1126.76
	FillingsUpdate:  mu: -0.244750400  nElectrons: 677.143197
	SubspaceRotationAdjust: set factor to 1.79
ElecMinimize: Iter:  29  G: -3957.453065276079087  |grad|_K:  5.315e-06  alpha:  2.862e-02  linmin: -3.349e-07  t[s]:   1138.96
	Linear fluid (dielectric constant: 78.4, screening length: 5.74355 Bohr) occupying 0.791633 of unit cell:	Completed after 9 iterations at t[s]:   1150.86
	Linear fluid (dielectric constant: 78.4, screening length: 5.74355 Bohr) occupying 0.791631 of unit cell:	Completed after 0 iterations at t[s]:   1161.00
	FillingsUpdate:  mu: -0.244750400  nElectrons: 677.175951
	SubspaceRotationAdjust: set factor to 1.94
ElecMinimize: Iter:  30  G: -3957.453263399462230  |grad|_K:  4.608e-06  alpha:  2.935e-02  linmin: -1.523e-05  t[s]:   1173.54
	Linear fluid (dielectric constant: 78.4, screening length: 5.74355 Bohr) occupying 0.791576 of unit cell:	Completed after 9 iterations at t[s]:   1185.45
	Linear fluid (dielectric constant: 78.4, screening length: 5.74355 Bohr) occupying 0.791567 of unit cell:	Completed after 3 iterations at t[s]:   1195.96
	FillingsUpdate:  mu: -0.244750400  nElectrons: 677.179961
	SubspaceRotationAdjust: set factor to 1.69
ElecMinimize: Iter:  31  G: -3957.453438228993491  |grad|_K:  4.292e-06  alpha:  3.388e-02  linmin: -1.726e-05  t[s]:   1208.89
	Linear fluid (dielectric constant: 78.4, screening length: 5.74355 Bohr) occupying 0.791503 of unit cell:	Completed after 10 iterations at t[s]:   1221.16
	Linear fluid (dielectric constant: 78.4, screening length: 5.74355 Bohr) occupying 0.791512 of unit cell:	Completed after 3 iterations at t[s]:   1231.80
	FillingsUpdate:  mu: -0.244750400  nElectrons: 677.163402
	SubspaceRotationAdjust: set factor to 1.51
ElecMinimize: Iter:  32  G: -3957.453568192233888  |grad|_K:  3.862e-06  alpha:  2.913e-02  linmin:  2.938e-06  t[s]:   1244.05
	Linear fluid (dielectric constant: 78.4, screening length: 5.74355 Bohr) occupying 0.791463 of unit cell:	Completed after 8 iterations at t[s]:   1255.84
	Linear fluid (dielectric constant: 78.4, screening length: 5.74355 Bohr) occupying 0.791458 of unit cell:	Completed after 3 iterations at t[s]:   1266.12
	FillingsUpdate:  mu: -0.244750400  nElectrons: 677.165852
	SubspaceRotationAdjust: set factor to 2.04
ElecMinimize: Iter:  33  G: -3957.453681972840968  |grad|_K:  3.263e-06  alpha:  3.203e-02  linmin: -2.389e-06  t[s]:   1278.46
	Linear fluid (dielectric constant: 78.4, screening length: 5.74355 Bohr) occupying 0.791418 of unit cell:	Completed after 8 iterations at t[s]:   1290.76
	Linear fluid (dielectric constant: 78.4, screening length: 5.74355 Bohr) occupying 0.791414 of unit cell:	Completed after 2 iterations at t[s]:   1301.02
	FillingsUpdate:  mu: -0.244750400  nElectrons: 677.170453
	SubspaceRotationAdjust: set factor to 1.88
ElecMinimize: Iter:  34  G: -3957.453771621185751  |grad|_K:  3.327e-06  alpha:  3.514e-02  linmin: -1.468e-05  t[s]:   1313.28
	Linear fluid (dielectric constant: 78.4, screening length: 5.74355 Bohr) occupying 0.791370 of unit cell:	Completed after 8 iterations at t[s]:   1325.24
	Linear fluid (dielectric constant: 78.4, screening length: 5.74355 Bohr) occupying 0.791380 of unit cell:	Completed after 3 iterations at t[s]:   1335.90
	FillingsUpdate:  mu: -0.244750400  nElectrons: 677.170463
	SubspaceRotationAdjust: set factor to 1.72
ElecMinimize: Iter:  35  G: -3957.453844726664101  |grad|_K:  2.876e-06  alpha:  2.736e-02  linmin:  4.967e-06  t[s]:   1348.40
	Linear fluid (dielectric constant: 78.4, screening length: 5.74355 Bohr) occupying 0.791356 of unit cell:	Completed after 8 iterations at t[s]:   1360.61
	Linear fluid (dielectric constant: 78.4, screening length: 5.74355 Bohr) occupying 0.791353 of unit cell:	Completed after 2 iterations at t[s]:   1370.92
	FillingsUpdate:  mu: -0.244750400  nElectrons: 677.195097
	SubspaceRotationAdjust: set factor to 1.6
ElecMinimize: Iter:  36  G: -3957.453905612183917  |grad|_K:  2.374e-06  alpha:  3.091e-02  linmin: -2.799e-05  t[s]:   1383.08
	Linear fluid (dielectric constant: 78.4, screening length: 5.74355 Bohr) occupying 0.791337 of unit cell:	Completed after 8 iterations at t[s]:   1395.12
	Linear fluid (dielectric constant: 78.4, screening length: 5.74355 Bohr) occupying 0.791338 of unit cell:	Completed after 0 iterations at t[s]:   1404.81
	FillingsUpdate:  mu: -0.244750400  nElectrons: 677.219162
	SubspaceRotationAdjust: set factor to 1.35
ElecMinimize: Iter:  37  G: -3957.453945589621981  |grad|_K:  2.107e-06  alpha:  2.932e-02  linmin:  5.723e-05  t[s]:   1417.04
	Linear fluid (dielectric constant: 78.4, screening length: 5.74355 Bohr) occupying 0.791328 of unit cell:	Completed after 4 iterations at t[s]:   1428.51
	Linear fluid (dielectric constant: 78.4, screening length: 5.74355 Bohr) occupying 0.791327 of unit cell:	Completed after 3 iterations at t[s]:   1438.83
	FillingsUpdate:  mu: -0.244750400  nElectrons: 677.222460
	SubspaceRotationAdjust: set factor to 1.36
ElecMinimize: Iter:  38  G: -3957.453980461030824  |grad|_K:  1.793e-06  alpha:  3.394e-02  linmin:  1.194e-04  t[s]:   1450.83
	Linear fluid (dielectric constant: 78.4, screening length: 5.74355 Bohr) occupying 0.791319 of unit cell:	Completed after 4 iterations at t[s]:   1462.06
	Linear fluid (dielectric constant: 78.4, screening length: 5.74355 Bohr) occupying 0.791316 of unit cell:	Completed after 3 iterations at t[s]:   1472.73
	FillingsUpdate:  mu: -0.244750400  nElectrons: 677.217454
	SubspaceRotationAdjust: set factor to 1.35
ElecMinimize: Iter:  39  G: -3957.454015769337730  |grad|_K:  1.937e-06  alpha:  4.831e-02  linmin:  5.376e-05  t[s]:   1485.37
	Linear fluid (dielectric constant: 78.4, screening length: 5.74355 Bohr) occupying 0.791306 of unit cell:	Completed after 8 iterations at t[s]:   1497.62
	Linear fluid (dielectric constant: 78.4, screening length: 5.74355 Bohr) occupying 0.791309 of unit cell:	Completed after 3 iterations at t[s]:   1508.11
	FillingsUpdate:  mu: -0.244750400  nElectrons: 677.217500
	SubspaceRotationAdjust: set factor to 1.26
ElecMinimize: Iter:  40  G: -3957.454048643704937  |grad|_K:  1.736e-06  alpha:  3.753e-02  linmin:  8.589e-06  t[s]:   1520.60
	Linear fluid (dielectric constant: 78.4, screening length: 5.74355 Bohr) occupying 0.791304 of unit cell:	Completed after 4 iterations at t[s]:   1531.76
	Linear fluid (dielectric constant: 78.4, screening length: 5.74355 Bohr) occupying 0.791304 of unit cell:	Completed after 0 iterations at t[s]:   1541.43
	FillingsUpdate:  mu: -0.244750400  nElectrons: 677.208392
	SubspaceRotationAdjust: set factor to 1.14
ElecMinimize: Iter:  41  G: -3957.454078207232669  |grad|_K:  1.546e-06  alpha:  4.104e-02  linmin: -1.181e-04  t[s]:   1553.77
	Linear fluid (dielectric constant: 78.4, screening length: 5.74355 Bohr) occupying 0.791301 of unit cell:	Completed after 8 iterations at t[s]:   1565.55
	Linear fluid (dielectric constant: 78.4, screening length: 5.74355 Bohr) occupying 0.791301 of unit cell:	Completed after 2 iterations at t[s]:   1576.00
	FillingsUpdate:  mu: -0.244750400  nElectrons: 677.188109
	SubspaceRotationAdjust: set factor to 1.24
ElecMinimize: Iter:  42  G: -3957.454099342427526  |grad|_K:  1.357e-06  alpha:  3.587e-02  linmin: -5.041e-05  t[s]:   1588.34
	Linear fluid (dielectric constant: 78.4, screening length: 5.74355 Bohr) occupying 0.791301 of unit cell:	Completed after 4 iterations at t[s]:   1599.53
	Linear fluid (dielectric constant: 78.4, screening length: 5.74355 Bohr) occupying 0.791301 of unit cell:	Completed after 3 iterations at t[s]:   1609.98
	FillingsUpdate:  mu: -0.244750400  nElectrons: 677.171133
	SubspaceRotationAdjust: set factor to 1.25
ElecMinimize: Iter:  43  G: -3957.454117247780232  |grad|_K:  1.167e-06  alpha:  4.071e-02  linmin:  1.077e-04  t[s]:   1622.32
	Linear fluid (dielectric constant: 78.4, screening length: 5.74355 Bohr) occupying 0.791303 of unit cell:	Completed after 3 iterations at t[s]:   1633.56
	Linear fluid (dielectric constant: 78.4, screening length: 5.74355 Bohr) occupying 0.791303 of unit cell:	Completed after 0 iterations at t[s]:   1643.46
	FillingsUpdate:  mu: -0.244750400  nElectrons: 677.167566
	SubspaceRotationAdjust: set factor to 1.19
ElecMinimize: Iter:  44  G: -3957.454130929085295  |grad|_K:  1.099e-06  alpha:  4.454e-02  linmin: -5.227e-05  t[s]:   1655.98
	Linear fluid (dielectric constant: 78.4, screening length: 5.74355 Bohr) occupying 0.791307 of unit cell:	Completed after 4 iterations at t[s]:   1667.19
	Linear fluid (dielectric constant: 78.4, screening length: 5.74355 Bohr) occupying 0.791307 of unit cell:	Completed after 0 iterations at t[s]:   1676.76
	FillingsUpdate:  mu: -0.244750400  nElectrons: 677.173193
	SubspaceRotationAdjust: set factor to 1.5
ElecMinimize: Iter:  45  G: -3957.454142614335979  |grad|_K:  9.214e-07  alpha:  3.938e-02  linmin:  9.548e-05  t[s]:   1688.86
	Linear fluid (dielectric constant: 78.4, screening length: 5.74355 Bohr) occupying 0.791311 of unit cell:	Completed after 3 iterations at t[s]:   1700.02
	Linear fluid (dielectric constant: 78.4, screening length: 5.74355 Bohr) occupying 0.791311 of unit cell:	Completed after 0 iterations at t[s]:   1710.40
	FillingsUpdate:  mu: -0.244750400  nElectrons: 677.183579
	SubspaceRotationAdjust: set factor to 1.56
ElecMinimize: Iter:  46  G: -3957.454150383591241  |grad|_K:  8.251e-07  alpha:  4.047e-02  linmin:  5.149e-05  t[s]:   1722.92
	Linear fluid (dielectric constant: 78.4, screening length: 5.74355 Bohr) occupying 0.791314 of unit cell:	Completed after 7 iterations at t[s]:   1734.90
	Linear fluid (dielectric constant: 78.4, screening length: 5.74355 Bohr) occupying 0.791314 of unit cell:	Completed after 0 iterations at t[s]:   1744.93
	FillingsUpdate:  mu: -0.244750400  nElectrons: 677.192182
	SubspaceRotationAdjust: set factor to 1.25
ElecMinimize: Iter:  47  G: -3957.454155530611388  |grad|_K:  8.759e-07  alpha:  3.305e-02  linmin:  8.013e-05  t[s]:   1757.55
	Linear fluid (dielectric constant: 78.4, screening length: 5.74355 Bohr) occupying 0.791317 of unit cell:	Completed after 3 iterations at t[s]:   1769.15
	Linear fluid (dielectric constant: 78.4, screening length: 5.74355 Bohr) occupying 0.791318 of unit cell:	Completed after 0 iterations at t[s]:   1779.50
	FillingsUpdate:  mu: -0.244750400  nElectrons: 677.189680
	SubspaceRotationAdjust: set factor to 1.67
ElecMinimize: Iter:  48  G: -3957.454162546318912  |grad|_K:  7.055e-07  alpha:  3.961e-02  linmin: -9.498e-05  t[s]:   1792.22
	Linear fluid (dielectric constant: 78.4, screening length: 5.74355 Bohr) occupying 0.791320 of unit cell:	Completed after 4 iterations at t[s]:   1803.67
	Linear fluid (dielectric constant: 78.4, screening length: 5.74355 Bohr) occupying 0.791320 of unit cell:	Completed after 0 iterations at t[s]:   1813.81
	FillingsUpdate:  mu: -0.244750400  nElectrons: 677.183786
	SubspaceRotationAdjust: set factor to 1.78
ElecMinimize: Iter:  49  G: -3957.454167318683631  |grad|_K:  7.529e-07  alpha:  3.850e-02  linmin: -2.034e-04  t[s]:   1826.18
	Linear fluid (dielectric constant: 78.4, screening length: 5.74355 Bohr) occupying 0.791323 of unit cell:	Completed after 3 iterations at t[s]:   1837.42
	Linear fluid (dielectric constant: 78.4, screening length: 5.74355 Bohr) occupying 0.791322 of unit cell:	Completed after 0 iterations at t[s]:   1847.49
	FillingsUpdate:  mu: -0.244750400  nElectrons: 677.182646
	SubspaceRotationAdjust: set factor to 1.81
ElecMinimize: Iter:  50  G: -3957.454172206974818  |grad|_K:  5.755e-07  alpha:  3.169e-02  linmin:  3.471e-04  t[s]:   1859.81
	Linear fluid (dielectric constant: 78.4, screening length: 5.74355 Bohr) occupying 0.791323 of unit cell:	Completed after 2 iterations at t[s]:   1870.95
	Linear fluid (dielectric constant: 78.4, screening length: 5.74355 Bohr) occupying 0.791323 of unit cell:	Completed after 0 iterations at t[s]:   1881.26
	FillingsUpdate:  mu: -0.244750400  nElectrons: 677.181054
	SubspaceRotationAdjust: set factor to 2.39
ElecMinimize: Iter:  51  G: -3957.454175150324318  |grad|_K:  4.726e-07  alpha:  4.224e-02  linmin: -2.366e-04  t[s]:   1893.80
	Linear fluid (dielectric constant: 78.4, screening length: 5.74355 Bohr) occupying 0.791323 of unit cell:	Completed after 3 iterations at t[s]:   1905.14
	Linear fluid (dielectric constant: 78.4, screening length: 5.74355 Bohr) occupying 0.791323 of unit cell:	Completed after 0 iterations at t[s]:   1915.34
	FillingsUpdate:  mu: -0.244750400  nElectrons: 677.179887
	SubspaceRotationAdjust: set factor to 2.26
ElecMinimize: Iter:  52  G: -3957.454177149802035  |grad|_K:  5.578e-07  alpha:  3.584e-02  linmin: -1.296e-04  t[s]:   1927.91
	Linear fluid (dielectric constant: 78.4, screening length: 5.74355 Bohr) occupying 0.791323 of unit cell:	Completed after 3 iterations at t[s]:   1939.35
	Linear fluid (dielectric constant: 78.4, screening length: 5.74355 Bohr) occupying 0.791323 of unit cell:	Completed after 0 iterations at t[s]:   1949.40
	FillingsUpdate:  mu: -0.244750400  nElectrons: 677.177893
	SubspaceRotationAdjust: set factor to 1.84
ElecMinimize: Iter:  53  G: -3957.454179611408563  |grad|_K:  4.815e-07  alpha:  2.951e-02  linmin:  2.158e-04  t[s]:   1961.93
	Linear fluid (dielectric constant: 78.4, screening length: 5.74355 Bohr) occupying 0.791322 of unit cell:	Completed after 2 iterations at t[s]:   1972.76
	Linear fluid (dielectric constant: 78.4, screening length: 5.74355 Bohr) occupying 0.791322 of unit cell:	Completed after 0 iterations at t[s]:   1983.12
	FillingsUpdate:  mu: -0.244750400  nElectrons: 677.182050
	SubspaceRotationAdjust: set factor to 2.17
ElecMinimize: Iter:  54  G: -3957.454181321739270  |grad|_K:  3.659e-07  alpha:  3.559e-02  linmin: -9.590e-05  t[s]:   1995.45
	Linear fluid (dielectric constant: 78.4, screening length: 5.74355 Bohr) occupying 0.791321 of unit cell:	Completed after 3 iterations at t[s]:   2006.93
	Linear fluid (dielectric constant: 78.4, screening length: 5.74355 Bohr) occupying 0.791321 of unit cell:	Completed after 0 iterations at t[s]:   2017.44
	FillingsUpdate:  mu: -0.244750400  nElectrons: 677.186910
	SubspaceRotationAdjust: set factor to 2.02
ElecMinimize: Iter:  55  G: -3957.454182429668890  |grad|_K:  3.746e-07  alpha:  3.288e-02  linmin: -1.346e-04  t[s]:   2029.91
	Linear fluid (dielectric constant: 78.4, screening length: 5.74355 Bohr) occupying 0.791320 of unit cell:	Completed after 2 iterations at t[s]:   2041.11
	Linear fluid (dielectric constant: 78.4, screening length: 5.74355 Bohr) occupying 0.791320 of unit cell:	Completed after 0 iterations at t[s]:   2051.54
	FillingsUpdate:  mu: -0.244750400  nElectrons: 677.190163
	SubspaceRotationAdjust: set factor to 1.93
ElecMinimize: Iter:  56  G: -3957.454183766822098  |grad|_K:  3.105e-07  alpha:  3.483e-02  linmin: -6.354e-05  t[s]:   2064.11
	Linear fluid (dielectric constant: 78.4, screening length: 5.74355 Bohr) occupying 0.791319 of unit cell:	Completed after 2 iterations at t[s]:   2075.24
	Linear fluid (dielectric constant: 78.4, screening length: 5.74355 Bohr) occupying 0.791319 of unit cell:	Completed after 0 iterations at t[s]:   2085.67
	FillingsUpdate:  mu: -0.244750400  nElectrons: 677.188929
	SubspaceRotationAdjust: set factor to 2.05
ElecMinimize: Iter:  57  G: -3957.454184589728357  |grad|_K:  2.934e-07  alpha:  3.362e-02  linmin: -5.763e-05  t[s]:   2098.12
	Linear fluid (dielectric constant: 78.4, screening length: 5.74355 Bohr) occupying 0.791317 of unit cell:	Completed after 2 iterations at t[s]:   2109.40
	Linear fluid (dielectric constant: 78.4, screening length: 5.74355 Bohr) occupying 0.791317 of unit cell:	Completed after 0 iterations at t[s]:   2119.60
	FillingsUpdate:  mu: -0.244750400  nElectrons: 677.187926
	SubspaceRotationAdjust: set factor to 2.25
ElecMinimize: Iter:  58  G: -3957.454185421085185  |grad|_K:  2.595e-07  alpha:  3.690e-02  linmin: -9.347e-05  t[s]:   2132.21
	Linear fluid (dielectric constant: 78.4, screening length: 5.74355 Bohr) occupying 0.791316 of unit cell:	Completed after 2 iterations at t[s]:   2143.77
	Linear fluid (dielectric constant: 78.4, screening length: 5.74355 Bohr) occupying 0.791316 of unit cell:	Completed after 0 iterations at t[s]:   2153.92
	FillingsUpdate:  mu: -0.244750400  nElectrons: 677.187699
	SubspaceRotationAdjust: set factor to 1.92
ElecMinimize: Iter:  59  G: -3957.454185888162101  |grad|_K:  2.729e-07  alpha:  2.695e-02  linmin:  5.743e-05  t[s]:   2166.57
	Linear fluid (dielectric constant: 78.4, screening length: 5.74355 Bohr) occupying 0.791315 of unit cell:	Completed after 1 iterations at t[s]:   2177.69
	Linear fluid (dielectric constant: 78.4, screening length: 5.74355 Bohr) occupying 0.791314 of unit cell:	Completed after 0 iterations at t[s]:   2188.08
	FillingsUpdate:  mu: -0.244750400  nElectrons: 677.185801
	SubspaceRotationAdjust: set factor to 1.82
ElecMinimize: Iter:  60  G: -3957.454186417710844  |grad|_K:  2.236e-07  alpha:  3.090e-02  linmin: -1.509e-04  t[s]:   2200.59
	Linear fluid (dielectric constant: 78.4, screening length: 5.74355 Bohr) occupying 0.791314 of unit cell:	Completed after 2 iterations at t[s]:   2211.71
	Linear fluid (dielectric constant: 78.4, screening length: 5.74355 Bohr) occupying 0.791314 of unit cell:	Completed after 0 iterations at t[s]:   2222.47
	FillingsUpdate:  mu: -0.244750400  nElectrons: 677.184848
	SubspaceRotationAdjust: set factor to 1.5
ElecMinimize: Iter:  61  G: -3957.454186519769337  |grad|_K:  2.490e-07  alpha:  1.694e-02  linmin:  5.130e-05  t[s]:   2235.04
	Linear fluid (dielectric constant: 78.4, screening length: 5.74355 Bohr) occupying 0.791313 of unit cell:	Completed after 0 iterations at t[s]:   2245.60
ElecMinimize: 	Predicted alpha/alphaT>3.000000, increasing alphaT to 5.082508e-02.
	Linear fluid (dielectric constant: 78.4, screening length: 5.74355 Bohr) occupying 0.791312 of unit cell:	Completed after 2 iterations at t[s]:   2256.31
	Linear fluid (dielectric constant: 78.4, screening length: 5.74355 Bohr) occupying 0.791313 of unit cell:	Completed after 2 iterations at t[s]:   2267.31
	FillingsUpdate:  mu: -0.244750400  nElectrons: 677.184561
	SubspaceRotationAdjust: set factor to 1.32
ElecMinimize: Iter:  62  G: -3957.454186877543634  |grad|_K:  2.118e-07  alpha:  2.187e-02  linmin:  1.330e-04  t[s]:   2279.85
	Linear fluid (dielectric constant: 78.4, screening length: 5.74355 Bohr) occupying 0.791313 of unit cell:	Completed after 0 iterations at t[s]:   2290.99
	Linear fluid (dielectric constant: 78.4, screening length: 5.74355 Bohr) occupying 0.791313 of unit cell:	Completed after 0 iterations at t[s]:   2301.38
	FillingsUpdate:  mu: -0.244750400  nElectrons: 677.185378
	SubspaceRotationAdjust: set factor to 1.2
ElecMinimize: Iter:  63  G: -3957.454187288718913  |grad|_K:  1.987e-07  alpha:  3.829e-02  linmin: -2.025e-04  t[s]:   2313.98
	Linear fluid (dielectric constant: 78.4, screening length: 5.74355 Bohr) occupying 0.791312 of unit cell:	Completed after 3 iterations at t[s]:   2325.64
	Linear fluid (dielectric constant: 78.4, screening length: 5.74355 Bohr) occupying 0.791312 of unit cell:	Completed after 0 iterations at t[s]:   2336.01
	FillingsUpdate:  mu: -0.244750400  nElectrons: 677.185945
	SubspaceRotationAdjust: set factor to 1.12
ElecMinimize: Iter:  64  G: -3957.454187343695139  |grad|_K:  2.328e-07  alpha:  1.277e-02  linmin:  5.127e-04  t[s]:   2348.47
	Linear fluid (dielectric constant: 78.4, screening length: 5.74355 Bohr) occupying 0.791312 of unit cell:	Completed after 0 iterations at t[s]:   2359.34
	Linear fluid (dielectric constant: 78.4, screening length: 5.74355 Bohr) occupying 0.791312 of unit cell:	Completed after 0 iterations at t[s]:   2369.54
	FillingsUpdate:  mu: -0.244750400  nElectrons: 677.186308
	SubspaceRotationAdjust: set factor to 1.07
ElecMinimize: Iter:  65  G: -3957.454187349745553  |grad|_K:  2.275e-07  alpha:  5.056e-03  linmin:  1.631e-08  t[s]:   2381.95
	Linear fluid (dielectric constant: 78.4, screening length: 5.74355 Bohr) occupying 0.791312 of unit cell:	Completed after 0 iterations at t[s]:   2392.96
ElecMinimize: 	Predicted alpha/alphaT>3.000000, increasing alphaT to 1.516677e-02.
	Linear fluid (dielectric constant: 78.4, screening length: 5.74355 Bohr) occupying 0.791312 of unit cell:	Completed after 0 iterations at t[s]:   2403.55
ElecMinimize: 	Predicted alpha/alphaT>3.000000, increasing alphaT to 4.550032e-02.
	Linear fluid (dielectric constant: 78.4, screening length: 5.74355 Bohr) occupying 0.791312 of unit cell:	Completed after 2 iterations at t[s]:   2414.37
	Linear fluid (dielectric constant: 78.4, screening length: 5.74355 Bohr) occupying 0.791312 of unit cell:	Completed after 1 iterations at t[s]:   2424.63
	FillingsUpdate:  mu: -0.244750400  nElectrons: 677.187792
	SubspaceRotationAdjust: set factor to 0.938
ElecMinimize: Iter:  66  G: -3957.454187538630322  |grad|_K:  1.587e-07  alpha:  1.891e-02  linmin:  2.303e-04  t[s]:   2437.23
	Linear fluid (dielectric constant: 78.4, screening length: 5.74355 Bohr) occupying 0.791312 of unit cell:	Completed after 0 iterations at t[s]:   2448.18
ElecMinimize: 	Predicted alpha/alphaT>3.000000, increasing alphaT to 5.672097e-02.
	Linear fluid (dielectric constant: 78.4, screening length: 5.74355 Bohr) occupying 0.791313 of unit cell:	Completed after 0 iterations at t[s]:   2458.54
	Linear fluid (dielectric constant: 78.4, screening length: 5.74355 Bohr) occupying 0.791313 of unit cell:	Completed after 0 iterations at t[s]:   2468.98
	FillingsUpdate:  mu: -0.244750400  nElectrons: 677.189592
	SubspaceRotationAdjust: set factor to 0.868
ElecMinimize: Iter:  67  G: -3957.454187808059032  |grad|_K:  1.506e-07  alpha:  6.023e-02  linmin:  2.179e-08  t[s]:   2481.40
	Linear fluid (dielectric constant: 78.4, screening length: 5.74355 Bohr) occupying 0.791313 of unit cell:	Completed after 3 iterations at t[s]:   2492.76
	Linear fluid (dielectric constant: 78.4, screening length: 5.74355 Bohr) occupying 0.791313 of unit cell:	Completed after 1 iterations at t[s]:   2503.72
ElecMinimize: 	Step increased G by 1.433332e-07, reducing alpha to 1.565461e-03.
	Linear fluid (dielectric constant: 78.4, screening length: 5.74355 Bohr) occupying 0.791313 of unit cell:	Completed after 0 iterations at t[s]:   2524.67
ElecMinimize: 	Step increased G by 7.108474e-08, reducing alpha to 1.565461e-04.
	Linear fluid (dielectric constant: 78.4, screening length: 5.74355 Bohr) occupying 0.791313 of unit cell:	Completed after 0 iterations at t[s]:   2545.54
ElecMinimize: 	Step increased G by 6.507662e-08, reducing alpha to 1.565461e-05.
ElecMinimize: 	Step failed to reduce G after 3 attempts. Quitting step.
ElecMinimize: 	Undoing step.
	Linear fluid (dielectric constant: 78.4, screening length: 5.74355 Bohr) occupying 0.791313 of unit cell:	Completed after 0 iterations at t[s]:   2566.33
ElecMinimize: 	Step failed: resetting search direction.
	FillingsUpdate:  mu: -0.244750400  nElectrons: 677.189594
	SubspaceRotationAdjust: set factor to 0.738
ElecMinimize: Iter:  68  G: -3957.454187743040620  |grad|_K:  1.568e-07  alpha:  1.565e-05
	Linear fluid (dielectric constant: 78.4, screening length: 5.74355 Bohr) occupying 0.791313 of unit cell:	Completed after 2 iterations at t[s]:   2590.33
	Linear fluid (dielectric constant: 78.4, screening length: 5.74355 Bohr) occupying 0.791313 of unit cell:	Completed after 0 iterations at t[s]:   2600.81
	FillingsUpdate:  mu: -0.244750400  nElectrons: 677.189251
	SubspaceRotationAdjust: set factor to 0.566
ElecMinimize: Iter:  69  G: -3957.454187878819994  |grad|_K:  1.543e-07  alpha:  3.684e-02  linmin:  2.506e-05  t[s]:   2613.61
	Linear fluid (dielectric constant: 78.4, screening length: 5.74355 Bohr) occupying 0.791313 of unit cell:	Completed after 0 iterations at t[s]:   2624.39
ElecMinimize: 	Predicted alpha/alphaT>3.000000, increasing alphaT to 1.105119e-01.
	Linear fluid (dielectric constant: 78.4, screening length: 5.74355 Bohr) occupying 0.791313 of unit cell:	Completed after 2 iterations at t[s]:   2635.38
	Linear fluid (dielectric constant: 78.4, screening length: 5.74355 Bohr) occupying 0.791313 of unit cell:	Completed after 0 iterations at t[s]:   2645.65
	FillingsUpdate:  mu: -0.244750400  nElectrons: 677.186426
	SubspaceRotationAdjust: set factor to 0.367
ElecMinimize: Iter:  70  G: -3957.454188313828581  |grad|_K:  1.186e-07  alpha:  6.544e-02  linmin:  1.538e-03  t[s]:   2658.16
	Linear fluid (dielectric constant: 78.4, screening length: 5.74355 Bohr) occupying 0.791313 of unit cell:	Completed after 1 iterations at t[s]:   2669.35
	Linear fluid (dielectric constant: 78.4, screening length: 5.74355 Bohr) occupying 0.791313 of unit cell:	Completed after 0 iterations at t[s]:   2680.10
	FillingsUpdate:  mu: -0.244750400  nElectrons: 677.186379
	SubspaceRotationAdjust: set factor to 0.546
ElecMinimize: Iter:  71  G: -3957.454188353618065  |grad|_K:  6.710e-08  alpha:  4.403e-02  linmin: -1.280e-03  t[s]:   2692.55
	Linear fluid (dielectric constant: 78.4, screening length: 5.74355 Bohr) occupying 0.791313 of unit cell:	Completed after 0 iterations at t[s]:   2703.42
ElecMinimize: 	Predicted alpha/alphaT>3.000000, increasing alphaT to 1.320941e-01.
	Linear fluid (dielectric constant: 78.4, screening length: 5.74355 Bohr) occupying 0.791314 of unit cell:	Completed after 2 iterations at t[s]:   2714.09
	Linear fluid (dielectric constant: 78.4, screening length: 5.74355 Bohr) occupying 0.791313 of unit cell:	Completed after 0 iterations at t[s]:   2724.66
	FillingsUpdate:  mu: -0.244750400  nElectrons: 677.186632
	SubspaceRotationAdjust: set factor to 0.462
ElecMinimize: Iter:  72  G: -3957.454188394588073  |grad|_K:  1.205e-07  alpha:  5.187e-02  linmin:  1.191e-03  t[s]:   2737.56
	Linear fluid (dielectric constant: 78.4, screening length: 5.74355 Bohr) occupying 0.791314 of unit cell:	Completed after 0 iterations at t[s]:   2748.34
	Linear fluid (dielectric constant: 78.4, screening length: 5.74355 Bohr) occupying 0.791314 of unit cell:	Completed after 0 iterations at t[s]:   2758.81
	FillingsUpdate:  mu: -0.244750400  nElectrons: 677.186864
	SubspaceRotationAdjust: set factor to 0.477
ElecMinimize: Iter:  73  G: -3957.454188437041921  |grad|_K:  1.220e-07  alpha:  3.248e-02  linmin:  1.087e-08  t[s]:   2771.15
	Linear fluid (dielectric constant: 78.4, screening length: 5.74355 Bohr) occupying 0.791314 of unit cell:	Completed after 0 iterations at t[s]:   2782.12
ElecMinimize: 	Predicted alpha/alphaT>3.000000, increasing alphaT to 9.743729e-02.
	Linear fluid (dielectric constant: 78.4, screening length: 5.74355 Bohr) occupying 0.791315 of unit cell:	Completed after 2 iterations at t[s]:   2792.60
	Linear fluid (dielectric constant: 78.4, screening length: 5.74355 Bohr) occupying 0.791314 of unit cell:	Completed after 2 iterations at t[s]:   2803.44
	FillingsUpdate:  mu: -0.244750400  nElectrons: 677.186861
	SubspaceRotationAdjust: set factor to 0.331
ElecMinimize: Iter:  74  G: -3957.454188516306658  |grad|_K:  1.052e-07  alpha:  2.390e-02  linmin:  1.268e-03  t[s]:   2816.11
	Linear fluid (dielectric constant: 78.4, screening length: 5.74355 Bohr) occupying 0.791314 of unit cell:	Completed after 0 iterations at t[s]:   2826.88
	Linear fluid (dielectric constant: 78.4, screening length: 5.74355 Bohr) occupying 0.791314 of unit cell:	Completed after 0 iterations at t[s]:   2837.47
	FillingsUpdate:  mu: -0.244750400  nElectrons: 677.187141
	SubspaceRotationAdjust: set factor to 0.316
ElecMinimize: Iter:  75  G: -3957.454188530598003  |grad|_K:  9.316e-08  alpha:  2.979e-02  linmin:  3.921e-07  t[s]:   2849.98
	Linear fluid (dielectric constant: 78.4, screening length: 5.74355 Bohr) occupying 0.791315 of unit cell:	Completed after 0 iterations at t[s]:   2860.66
ElecMinimize: 	Predicted alpha/alphaT>3.000000, increasing alphaT to 8.937841e-02.
	Linear fluid (dielectric constant: 78.4, screening length: 5.74355 Bohr) occupying 0.791315 of unit cell:	Completed after 2 iterations at t[s]:   2871.48
	Linear fluid (dielectric constant: 78.4, screening length: 5.74355 Bohr) occupying 0.791315 of unit cell:	Completed after 0 iterations at t[s]:   2881.69
	FillingsUpdate:  mu: -0.244750400  nElectrons: 677.187547
	SubspaceRotationAdjust: set factor to 0.326
ElecMinimize: Iter:  76  G: -3957.454188577983132  |grad|_K:  8.312e-08  alpha:  2.931e-02  linmin:  8.788e-04  t[s]:   2894.29
	Linear fluid (dielectric constant: 78.4, screening length: 5.74355 Bohr) occupying 0.791315 of unit cell:	Completed after 0 iterations at t[s]:   2904.96
	Linear fluid (dielectric constant: 78.4, screening length: 5.74355 Bohr) occupying 0.791315 of unit cell:	Completed after 0 iterations at t[s]:   2914.64
	FillingsUpdate:  mu: -0.244750400  nElectrons: 677.187545
	SubspaceRotationAdjust: set factor to 0.358
ElecMinimize: Iter:  77  G: -3957.454188596282165  |grad|_K:  8.249e-08  alpha:  4.239e-02  linmin: -1.116e-07  t[s]:   2927.09
	Linear fluid (dielectric constant: 78.4, screening length: 5.74355 Bohr) occupying 0.791315 of unit cell:	Completed after 0 iterations at t[s]:   2937.90
	Linear fluid (dielectric constant: 78.4, screening length: 5.74355 Bohr) occupying 0.791315 of unit cell:	Completed after 0 iterations at t[s]:   2948.03
	FillingsUpdate:  mu: -0.244750400  nElectrons: 677.187200
	SubspaceRotationAdjust: set factor to 0.395
ElecMinimize: Iter:  78  G: -3957.454188616369720  |grad|_K:  6.866e-08  alpha:  3.022e-02  linmin: -5.959e-04  t[s]:   2960.48
	Linear fluid (dielectric constant: 78.4, screening length: 5.74355 Bohr) occupying 0.791315 of unit cell:	Completed after 0 iterations at t[s]:   2971.34
	Linear fluid (dielectric constant: 78.4, screening length: 5.74355 Bohr) occupying 0.791315 of unit cell:	Completed after 0 iterations at t[s]:   2981.29
	FillingsUpdate:  mu: -0.244750400  nElectrons: 677.186658
	SubspaceRotationAdjust: set factor to 0.371
ElecMinimize: Iter:  79  G: -3957.454188669744326  |grad|_K:  5.883e-08  alpha:  3.017e-02  linmin: -1.184e-03  t[s]:   2993.71
	Linear fluid (dielectric constant: 78.4, screening length: 5.74355 Bohr) occupying 0.791316 of unit cell:	Completed after 1 iterations at t[s]:   3004.75
	Linear fluid (dielectric constant: 78.4, screening length: 5.74355 Bohr) occupying 0.791315 of unit cell:	Completed after 0 iterations at t[s]:   3015.24
ElecMinimize: 	Step increased G by 1.354424e-07, reducing alpha to 4.776331e-04.
	Linear fluid (dielectric constant: 78.4, screening length: 5.74355 Bohr) occupying 0.791315 of unit cell:	Completed after 0 iterations at t[s]:   3036.19
ElecMinimize: 	Step increased G by 1.208814e-07, reducing alpha to 4.776331e-05.
	Linear fluid (dielectric constant: 78.4, screening length: 5.74355 Bohr) occupying 0.791315 of unit cell:	Completed after 0 iterations at t[s]:   3056.73
ElecMinimize: 	Step increased G by 1.194553e-07, reducing alpha to 4.776331e-06.
ElecMinimize: 	Step failed to reduce G after 3 attempts. Quitting step.
ElecMinimize: 	Undoing step.
	Linear fluid (dielectric constant: 78.4, screening length: 5.74355 Bohr) occupying 0.791315 of unit cell:	Completed after 0 iterations at t[s]:   3077.62
ElecMinimize: 	Step failed: resetting search direction.
	FillingsUpdate:  mu: -0.244750400  nElectrons: 677.186657
	SubspaceRotationAdjust: set factor to 0.304
ElecMinimize: Iter:  80  G: -3957.454188550280833  |grad|_K:  8.291e-08  alpha:  4.776e-06
	Linear fluid (dielectric constant: 78.4, screening length: 5.74355 Bohr) occupying 0.791315 of unit cell:	Completed after 0 iterations at t[s]:   3100.77
ElecMinimize: 	Predicted alpha/alphaT>3.000000, increasing alphaT to 9.051261e-02.
	Linear fluid (dielectric constant: 78.4, screening length: 5.74355 Bohr) occupying 0.791316 of unit cell:	Completed after 1 iterations at t[s]:   3111.32
	Linear fluid (dielectric constant: 78.4, screening length: 5.74355 Bohr) occupying 0.791315 of unit cell:	Completed after 0 iterations at t[s]:   3121.70
	FillingsUpdate:  mu: -0.244750400  nElectrons: 677.186828
	SubspaceRotationAdjust: set factor to 0.435
ElecMinimize: Iter:  81  G: -3957.454188603500370  |grad|_K:  2.955e-08  alpha:  5.945e-02  linmin: -2.236e-03  t[s]:   3134.35
	Linear fluid (dielectric constant: 78.4, screening length: 5.74355 Bohr) occupying 0.791316 of unit cell:	Completed after 0 iterations at t[s]:   3145.31
ElecMinimize: 	Predicted alpha/alphaT>3.000000, increasing alphaT to 1.783362e-01.
	Linear fluid (dielectric constant: 78.4, screening length: 5.74355 Bohr) occupying 0.791316 of unit cell:	Completed after 0 iterations at t[s]:   3155.54
	Linear fluid (dielectric constant: 78.4, screening length: 5.74355 Bohr) occupying 0.791316 of unit cell:	Completed after 1 iterations at t[s]:   3166.47
ElecMinimize: 	Step increased G by 7.166045e-08, reducing alpha to 3.188362e-02.
	Linear fluid (dielectric constant: 78.4, screening length: 5.74355 Bohr) occupying 0.791316 of unit cell:	Completed after 0 iterations at t[s]:   3186.83
	FillingsUpdate:  mu: -0.244750400  nElectrons: 677.186728
	SubspaceRotationAdjust: set factor to 0.417
ElecMinimize: Iter:  82  G: -3957.454188611018253  |grad|_K:  3.895e-08  alpha:  3.188e-02  linmin:  1.026e-04  t[s]:   3199.44
	Linear fluid (dielectric constant: 78.4, screening length: 5.74355 Bohr) occupying 0.791316 of unit cell:	Completed after 0 iterations at t[s]:   3210.18
ElecMinimize: 	Predicted alpha/alphaT>3.000000, increasing alphaT to 9.565086e-02.
	Linear fluid (dielectric constant: 78.4, screening length: 5.74355 Bohr) occupying 0.791316 of unit cell:	Completed after 0 iterations at t[s]:   3220.34
	Linear fluid (dielectric constant: 78.4, screening length: 5.74355 Bohr) occupying 0.791316 of unit cell:	Completed after 0 iterations at t[s]:   3230.57
	FillingsUpdate:  mu: -0.244750400  nElectrons: 677.186230
	SubspaceRotationAdjust: set factor to 0.533
ElecMinimize: Iter:  83  G: -3957.454188647694991  |grad|_K:  3.888e-08  alpha:  1.138e-01  linmin:  4.533e-08  t[s]:   3243.15
	Linear fluid (dielectric constant: 78.4, screening length: 5.74355 Bohr) occupying 0.791316 of unit cell:	Completed after 0 iterations at t[s]:   3254.16
	Linear fluid (dielectric constant: 78.4, screening length: 5.74355 Bohr) occupying 0.791316 of unit cell:	Completed after 0 iterations at t[s]:   3264.53
ElecMinimize: 	Step increased G by 1.177978e-08, reducing alpha to 5.292010e-03.
	Linear fluid (dielectric constant: 78.4, screening length: 5.74355 Bohr) occupying 0.791316 of unit cell:	Completed after 0 iterations at t[s]:   3285.01
ElecMinimize: 	Step increased G by 3.122841e-08, reducing alpha to 5.292010e-04.
	Linear fluid (dielectric constant: 78.4, screening length: 5.74355 Bohr) occupying 0.791316 of unit cell:	Completed after 0 iterations at t[s]:   3306.13
ElecMinimize: 	Step increased G by 3.390596e-08, reducing alpha to 5.292010e-05.
ElecMinimize: 	Step failed to reduce G after 3 attempts. Quitting step.
ElecMinimize: 	Undoing step.
	Linear fluid (dielectric constant: 78.4, screening length: 5.74355 Bohr) occupying 0.791316 of unit cell:	Completed after 0 iterations at t[s]:   3327.49
ElecMinimize: 	Step failed: resetting search direction.
	FillingsUpdate:  mu: -0.244750400  nElectrons: 677.186229
	SubspaceRotationAdjust: set factor to 0.665
ElecMinimize: Iter:  84  G: -3957.454188613738097  |grad|_K:  3.477e-08  alpha:  5.292e-05
	Linear fluid (dielectric constant: 78.4, screening length: 5.74355 Bohr) occupying 0.791316 of unit cell:	Completed after 0 iterations at t[s]:   3350.51
	Linear fluid (dielectric constant: 78.4, screening length: 5.74355 Bohr) occupying 0.791316 of unit cell:	Completed after 0 iterations at t[s]:   3360.90
	FillingsUpdate:  mu: -0.244750400  nElectrons: 677.185918
	SubspaceRotationAdjust: set factor to 0.857
ElecMinimize: Iter:  85  G: -3957.454188678731953  |grad|_K:  3.508e-08  alpha:  2.253e-01  linmin:  7.608e-08  t[s]:   3373.67
	Linear fluid (dielectric constant: 78.4, screening length: 5.74355 Bohr) occupying 0.791316 of unit cell:	Completed after 2 iterations at t[s]:   3384.91
	Linear fluid (dielectric constant: 78.4, screening length: 5.74355 Bohr) occupying 0.791316 of unit cell:	Completed after 1 iterations at t[s]:   3395.42
ElecMinimize: 	Step increased G by 9.998166e-08, reducing alpha to 1.413556e-03.
	Linear fluid (dielectric constant: 78.4, screening length: 5.74355 Bohr) occupying 0.791316 of unit cell:	Completed after 0 iterations at t[s]:   3416.49
ElecMinimize: 	Step increased G by 6.437040e-08, reducing alpha to 1.413556e-04.
	Linear fluid (dielectric constant: 78.4, screening length: 5.74355 Bohr) occupying 0.791316 of unit cell:	Completed after 0 iterations at t[s]:   3437.15
ElecMinimize: 	Step increased G by 6.082792e-08, reducing alpha to 1.413556e-05.
ElecMinimize: 	Step failed to reduce G after 3 attempts. Quitting step.
ElecMinimize: 	Undoing step.
	Linear fluid (dielectric constant: 78.4, screening length: 5.74355 Bohr) occupying 0.791316 of unit cell:	Completed after 0 iterations at t[s]:   3457.52
ElecMinimize: 	Step failed: resetting search direction.
	FillingsUpdate:  mu: -0.244750400  nElectrons: 677.185917
	SubspaceRotationAdjust: set factor to 0.8
ElecMinimize: Iter:  86  G: -3957.454188617924501  |grad|_K:  1.689e-07  alpha:  1.414e-05
	Linear fluid (dielectric constant: 78.4, screening length: 5.74355 Bohr) occupying 0.791316 of unit cell:	Completed after 3 iterations at t[s]:   3482.01
	Linear fluid (dielectric constant: 78.4, screening length: 5.74355 Bohr) occupying 0.791316 of unit cell:	Completed after 3 iterations at t[s]:   3493.14
	FillingsUpdate:  mu: -0.244750400  nElectrons: 677.186913
	SubspaceRotationAdjust: set factor to 0.359
ElecMinimize: Iter:  87  G: -3957.454188657691247  |grad|_K:  7.863e-08  alpha:  3.707e-02  linmin:  4.227e-03  t[s]:   3505.49
	Linear fluid (dielectric constant: 78.4, screening length: 5.74355 Bohr) occupying 0.791316 of unit cell:	Completed after 0 iterations at t[s]:   3516.58
ElecMinimize: 	Predicted alpha/alphaT>3.000000, increasing alphaT to 1.112219e-01.
	Linear fluid (dielectric constant: 78.4, screening length: 5.74355 Bohr) occupying 0.791316 of unit cell:	Completed after 0 iterations at t[s]:   3527.22
	Linear fluid (dielectric constant: 78.4, screening length: 5.74355 Bohr) occupying 0.791316 of unit cell:	Completed after 0 iterations at t[s]:   3537.52
	FillingsUpdate:  mu: -0.244750400  nElectrons: 677.184587
	SubspaceRotationAdjust: set factor to 0.318
ElecMinimize: Iter:  88  G: -3957.454188770634573  |grad|_K:  4.414e-08  alpha:  1.175e-01  linmin: -8.140e-04  t[s]:   3550.06
	Linear fluid (dielectric constant: 78.4, screening length: 5.74355 Bohr) occupying 0.791316 of unit cell:	Completed after 2 iterations at t[s]:   3561.39
	Linear fluid (dielectric constant: 78.4, screening length: 5.74355 Bohr) occupying 0.791316 of unit cell:	Completed after 0 iterations at t[s]:   3571.81
ElecMinimize: 	Step increased G by 8.372444e-08, reducing alpha to 1.364190e-03.
	Linear fluid (dielectric constant: 78.4, screening length: 5.74355 Bohr) occupying 0.791316 of unit cell:	Completed after 0 iterations at t[s]:   3592.77
ElecMinimize: 	Step increased G by 3.907189e-08, reducing alpha to 1.364190e-04.
	Linear fluid (dielectric constant: 78.4, screening length: 5.74355 Bohr) occupying 0.791316 of unit cell:	Completed after 0 iterations at t[s]:   3613.76
ElecMinimize: 	Step increased G by 3.459263e-08, reducing alpha to 1.364190e-05.
ElecMinimize: 	Step failed to reduce G after 3 attempts. Quitting step.
ElecMinimize: 	Undoing step.
	Linear fluid (dielectric constant: 78.4, screening length: 5.74355 Bohr) occupying 0.791316 of unit cell:	Completed after 0 iterations at t[s]:   3634.40
ElecMinimize: 	Step failed: resetting search direction.
	FillingsUpdate:  mu: -0.244750400  nElectrons: 677.184585
	SubspaceRotationAdjust: set factor to 0.27
ElecMinimize: Iter:  89  G: -3957.454188736096967  |grad|_K:  1.430e-07  alpha:  1.364e-05
	Linear fluid (dielectric constant: 78.4, screening length: 5.74355 Bohr) occupying 0.791316 of unit cell:	Completed after 2 iterations at t[s]:   3658.36
	Linear fluid (dielectric constant: 78.4, screening length: 5.74355 Bohr) occupying 0.791316 of unit cell:	Completed after 1 iterations at t[s]:   3669.14
	FillingsUpdate:  mu: -0.244750400  nElectrons: 677.185558
	SubspaceRotationAdjust: set factor to 0.171
ElecMinimize: Iter:  90  G: -3957.454188736232481  |grad|_K:  1.046e-07  alpha:  3.670e-02  linmin:  4.385e-03  t[s]:   3681.98
	Linear fluid (dielectric constant: 78.4, screening length: 5.74355 Bohr) occupying 0.791316 of unit cell:	Completed after 0 iterations at t[s]:   3692.77
ElecMinimize: 	Predicted alpha/alphaT>3.000000, increasing alphaT to 1.101027e-01.
	Linear fluid (dielectric constant: 78.4, screening length: 5.74355 Bohr) occupying 0.791316 of unit cell:	Completed after 1 iterations at t[s]:   3703.38
	Linear fluid (dielectric constant: 78.4, screening length: 5.74355 Bohr) occupying 0.791316 of unit cell:	Completed after 0 iterations at t[s]:   3714.01
ElecMinimize: 	Step increased G by 4.620961e-08, reducing alpha to 4.968440e-03.
	Linear fluid (dielectric constant: 78.4, screening length: 5.74355 Bohr) occupying 0.791316 of unit cell:	Completed after 0 iterations at t[s]:   3735.01
ElecMinimize: 	Step increased G by 8.111556e-08, reducing alpha to 4.968440e-04.
	Linear fluid (dielectric constant: 78.4, screening length: 5.74355 Bohr) occupying 0.791316 of unit cell:	Completed after 0 iterations at t[s]:   3756.25
ElecMinimize: 	Step increased G by 8.533743e-08, reducing alpha to 4.968440e-05.
ElecMinimize: 	Step failed to reduce G after 3 attempts. Quitting step.
ElecMinimize: 	Undoing step.
	Linear fluid (dielectric constant: 78.4, screening length: 5.74355 Bohr) occupying 0.791316 of unit cell:	Completed after 0 iterations at t[s]:   3777.19
ElecMinimize: 	Step failed: resetting search direction.
	FillingsUpdate:  mu: -0.244750400  nElectrons: 677.185560
	SubspaceRotationAdjust: set factor to 0.26
ElecMinimize: Iter:  91  G: -3957.454188650853666  |grad|_K:  5.692e-08  alpha:  4.968e-05
	Linear fluid (dielectric constant: 78.4, screening length: 5.74355 Bohr) occupying 0.791316 of unit cell:	Completed after 0 iterations at t[s]:   3800.68
ElecMinimize: 	Predicted alpha/alphaT>3.000000, increasing alphaT to 1.101027e-01.
	Linear fluid (dielectric constant: 78.4, screening length: 5.74355 Bohr) occupying 0.791316 of unit cell:	Completed after 0 iterations at t[s]:   3811.07
	Linear fluid (dielectric constant: 78.4, screening length: 5.74355 Bohr) occupying 0.791316 of unit cell:	Completed after 2 iterations at t[s]:   3822.13
ElecMinimize: 	Step increased G by 5.661973e-07, reducing alpha to 2.651808e-02.
	Linear fluid (dielectric constant: 78.4, screening length: 5.74355 Bohr) occupying 0.791316 of unit cell:	Completed after 1 iterations at t[s]:   3843.63
	FillingsUpdate:  mu: -0.244750400  nElectrons: 677.185476
	SubspaceRotationAdjust: set factor to 0.181
ElecMinimize: Iter:  92  G: -3957.454188698136022  |grad|_K:  3.247e-08  alpha:  2.652e-02  linmin:  3.348e-03  t[s]:   3856.24
	Linear fluid (dielectric constant: 78.4, screening length: 5.74355 Bohr) occupying 0.791316 of unit cell:	Completed after 0 iterations at t[s]:   3867.03
ElecMinimize: 	Predicted alpha/alphaT>3.000000, increasing alphaT to 7.955423e-02.
	Linear fluid (dielectric constant: 78.4, screening length: 5.74355 Bohr) occupying 0.791316 of unit cell:	Completed after 0 iterations at t[s]:   3877.46
ElecMinimize: 	Predicted alpha/alphaT>3.000000, increasing alphaT to 2.386627e-01.
	Linear fluid (dielectric constant: 78.4, screening length: 5.74355 Bohr) occupying 0.791316 of unit cell:	Completed after 0 iterations at t[s]:   3887.82
	Linear fluid (dielectric constant: 78.4, screening length: 5.74355 Bohr) occupying 0.791316 of unit cell:	Completed after 0 iterations at t[s]:   3897.78
ElecMinimize: 	Step increased G by 2.410525e-08, reducing alpha to 1.067191e-02.
	Linear fluid (dielectric constant: 78.4, screening length: 5.74355 Bohr) occupying 0.791316 of unit cell:	Completed after 0 iterations at t[s]:   3918.78
ElecMinimize: 	Step increased G by 4.274943e-08, reducing alpha to 1.067191e-03.
	Linear fluid (dielectric constant: 78.4, screening length: 5.74355 Bohr) occupying 0.791316 of unit cell:	Completed after 0 iterations at t[s]:   3939.76
ElecMinimize: 	Step increased G by 4.496087e-08, reducing alpha to 1.067191e-04.
ElecMinimize: 	Step failed to reduce G after 3 attempts. Quitting step.
ElecMinimize: 	Undoing step.
	Linear fluid (dielectric constant: 78.4, screening length: 5.74355 Bohr) occupying 0.791316 of unit cell:	Completed after 0 iterations at t[s]:   3960.18
ElecMinimize: 	Step failed: resetting search direction.
	FillingsUpdate:  mu: -0.244750400  nElectrons: 677.185481
	SubspaceRotationAdjust: set factor to 0.157
ElecMinimize: Iter:  93  G: -3957.454188653148321  |grad|_K:  2.006e-08  alpha:  1.067e-04
	Linear fluid (dielectric constant: 78.4, screening length: 5.74355 Bohr) occupying 0.791316 of unit cell:	Completed after 0 iterations at t[s]:   3983.97
ElecMinimize: 	Predicted alpha/alphaT>3.000000, increasing alphaT to 7.955423e-02.
	Linear fluid (dielectric constant: 78.4, screening length: 5.74355 Bohr) occupying 0.791316 of unit cell:	Completed after 0 iterations at t[s]:   3994.16
ElecMinimize: 	Predicted alpha/alphaT>3.000000, increasing alphaT to 2.386627e-01.
	Linear fluid (dielectric constant: 78.4, screening length: 5.74355 Bohr) occupying 0.791316 of unit cell:	Completed after 0 iterations at t[s]:   4004.35
	Linear fluid (dielectric constant: 78.4, screening length: 5.74355 Bohr) occupying 0.791317 of unit cell:	Completed after 2 iterations at t[s]:   4015.26
ElecMinimize: 	Step increased G by 2.626102e-07, reducing alpha to 5.146889e-02.
	Linear fluid (dielectric constant: 78.4, screening length: 5.74355 Bohr) occupying 0.791316 of unit cell:	Completed after 0 iterations at t[s]:   4035.87
	FillingsUpdate:  mu: -0.244750400  nElectrons: 677.185642
	SubspaceRotationAdjust: set factor to 0.146
ElecMinimize: Iter:  94  G: -3957.454188772068392  |grad|_K:  9.827e-08  alpha:  5.147e-02  linmin:  9.705e-04  t[s]:   4048.23
ElecMinimize: 	Bad step direction: g.d > 0.
ElecMinimize: 	Undoing step.
	Linear fluid (dielectric constant: 78.4, screening length: 5.74355 Bohr) occupying 0.791316 of unit cell:	Completed after 0 iterations at t[s]:   4058.93
ElecMinimize: 	Step failed: resetting search direction.
	FillingsUpdate:  mu: -0.244750400  nElectrons: 677.185642
	SubspaceRotationAdjust: set factor to 0.178
ElecMinimize: Iter:  95  G: -3957.454188772071120  |grad|_K:  9.759e-08  alpha:  0.000e+00
	Linear fluid (dielectric constant: 78.4, screening length: 5.74355 Bohr) occupying 0.791316 of unit cell:	Completed after 0 iterations at t[s]:   4082.65
ElecMinimize: 	Predicted alpha/alphaT>3.000000, increasing alphaT to 1.544067e-01.
	Linear fluid (dielectric constant: 78.4, screening length: 5.74355 Bohr) occupying 0.791316 of unit cell:	Completed after 2 iterations at t[s]:   4093.35
	Linear fluid (dielectric constant: 78.4, screening length: 5.74355 Bohr) occupying 0.791316 of unit cell:	Completed after 0 iterations at t[s]:   4103.34
	FillingsUpdate:  mu: -0.244750400  nElectrons: 677.185391
	SubspaceRotationAdjust: set factor to 0.158
ElecMinimize: Iter:  96  G: -3957.454188946682279  |grad|_K:  1.588e-07  alpha:  3.664e-02  linmin:  6.439e-03  t[s]:   4115.97
ElecMinimize: 	Bad step direction: g.d > 0.
ElecMinimize: 	Undoing step.
	Linear fluid (dielectric constant: 78.4, screening length: 5.74355 Bohr) occupying 0.791316 of unit cell:	Completed after 0 iterations at t[s]:   4126.93
ElecMinimize: 	Step failed: resetting search direction.
	FillingsUpdate:  mu: -0.244750400  nElectrons: 677.185391
	SubspaceRotationAdjust: set factor to 0.203
ElecMinimize: Iter:  97  G: -3957.454188946682279  |grad|_K:  1.566e-07  alpha:  0.000e+00
	Linear fluid (dielectric constant: 78.4, screening length: 5.74355 Bohr) occupying 0.791316 of unit cell:	Completed after 1 iterations at t[s]:   4150.38
	Linear fluid (dielectric constant: 78.4, screening length: 5.74355 Bohr) occupying 0.791316 of unit cell:	Completed after 0 iterations at t[s]:   4160.48
ElecMinimize: 	Step increased G by 2.590928e-07, reducing alpha to 1.060335e-03.
	Linear fluid (dielectric constant: 78.4, screening length: 5.74355 Bohr) occupying 0.791316 of unit cell:	Completed after 0 iterations at t[s]:   4181.23
ElecMinimize: 	Step increased G by 2.460024e-07, reducing alpha to 1.060335e-04.
	Linear fluid (dielectric constant: 78.4, screening length: 5.74355 Bohr) occupying 0.791316 of unit cell:	Completed after 0 iterations at t[s]:   4202.14
ElecMinimize: 	Step increased G by 2.448555e-07, reducing alpha to 1.060335e-05.
ElecMinimize: 	Step failed to reduce G after 3 attempts. Quitting step.
ElecMinimize: 	Undoing step.
	Linear fluid (dielectric constant: 78.4, screening length: 5.74355 Bohr) occupying 0.791316 of unit cell:	Completed after 0 iterations at t[s]:   4223.20
ElecMinimize: 	Step failed along negative gradient direction.
ElecMinimize: Probably at roundoff error limit. (Stopping)
Setting wave functions to eigenvectors of Hamiltonian

# Ionic positions in lattice coordinates:
ion Cu   0.344052789395051   0.266743940047328   0.523483595371547 0
ion Cu   0.844637716849840   0.265210873028988   0.520865619257454 0
ion Cu   0.331280872157471   0.695274195111959   0.547223092515701 0
ion Cu   0.847895214774148   0.755725270926018   0.538449828015675 0
ion Cu   0.095555576321984   0.494242289259856   0.526387110199757 0
ion Cu   0.605079311151333   0.492523066174672   0.540238934779496 0
ion Cu   0.087273908307773   0.987516810092717   0.509767065732580 0
ion Cu   0.586678100211236   0.983236830036316   0.539951160582307 0
ion Cu   0.158359923435773   0.245464085312843   0.459036141298665 0
ion Cu   0.655842533969604   0.244011903065121   0.464360997467794 0
ion Cu   0.153522550357863   0.746345910291657   0.451188259128775 0
ion Cu   0.653886009799714   0.733285231579074   0.503268820877043 0
ion Cu   0.401853770429948   0.002372347604076   0.472179077403680 0
ion Cu   0.893858632246599   0.006775823246987   0.460772618079559 0
ion Cu   0.416797213540169   0.530390927145823   0.485178480262490 0
ion Cu   0.914343682523058   0.519614063468763   0.469324908344586 0
ion Te   0.278114612797859   0.105015032048989   0.572898708747993 0
ion Te   0.778058313728101   0.105648947339754   0.577746020511600 0
ion Te   0.800625801632998   0.600455072247792   0.598340840197879 0
ion Te   0.227152359920463   0.408587881705022   0.413454875302722 0
ion Te   0.722743710157731   0.405757403301890   0.413097108653153 0
ion Te   0.219986232322872   0.898933639545358   0.393111606683212 0
ion Te   0.704608598745137   0.884825660249842   0.426614482518062 0
ion Te   0.473302806068934   0.368503019671245   0.417339048935792 0
ion Te   0.973477404295150   0.359961517432384   0.408013665316179 0
ion Te   0.450984526546094   0.828628439021710   0.439065357783460 0
ion Te   0.959716024201615   0.844452874633121   0.406485062009024 0
ion Te   0.030966736239941   0.147341569099673   0.569601089844469 0
ion Te   0.528417596959580   0.150489893228705   0.579299873469180 0
ion Te   0.078168078133540   0.654450656907981   0.575665568049092 0
ion Te   0.526027747769656   0.633895200327864   0.628241194499205 0
ion O   0.306148592785901   0.074910370178469   0.474085552670737 0
ion O   0.793329667869459   0.071966176308189   0.478099621545296 0
ion O   0.349392043987851   0.616429269319385   0.481849944027075 0
ion O   0.811502921048701   0.577121048887669   0.494500455367977 0
ion O   0.270851490278238   0.304924718598899   0.436706499114113 0
ion O   0.767686423884481   0.302164455840574   0.436016130498010 0
ion O   0.257277413959063   0.794970617594016   0.413224810161516 0
ion O   0.757437985549823   0.786355053808157   0.459865937739828 0
ion O   0.395951645614942   0.183746508501347   0.581900139130107 0
ion O   0.899150626437402   0.182018813327244   0.577187641153703 0
ion O   0.403752953840936   0.666671350332016   0.634373981164533 0
ion O   0.906462116373446   0.681856844089755   0.598146725609095 0
ion O   0.479767840854526   0.047446730517818   0.555700820592529 0
ion O   0.980831446686691   0.047263429417340   0.538845080278763 0
ion O   0.495942103505379   0.536276701621830   0.577626680631524 0
ion O   0.996231443769066   0.557272609012774   0.547308784011331 0
ion O   0.354273988397067   0.448516933137181   0.424804486024901 0
ion O   0.854337452668530   0.441103521772442   0.408739023056875 0
ion O   0.350026549478095   0.926970005914616   0.403033586354869 0
ion O   0.831407262753688   0.921937121713820   0.410136487929556 0
ion O   0.146765020305785   0.067853666259356   0.569120848629464 0
ion O   0.645833008397198   0.072058628936110   0.586561085656606 0
ion O   0.155858406422583   0.564128035141466   0.587018090834258 0
ion O   0.670456943425886   0.558388064109507   0.607127854451016 0
ion O   0.450776621480439   0.327603882237629   0.513414637164044 0
ion O   0.950583607332877   0.326728185055278   0.506782529051401 0
ion O   0.404609243592535   0.798016618691903   0.530862068868149 0
ion O   0.949545543275185   0.814529041962865   0.508254388478367 0
ion O   0.196113875853794   0.430720812267798   0.513559108383953 0
ion O   0.704979867391944   0.430268293713858   0.515125734412190 0
ion O   0.188619746178871   0.924626421773647   0.492533718634122 0
ion O   0.691313352944523   0.921978528735354   0.525454486047662 0
ion O   0.021678892378947   0.461296493433709   0.439199264135155 0
ion O   0.526070421163294   0.465442618790107   0.451632380803325 0
ion O   0.001560571184241   0.948664825533692   0.430857764194879 0
ion O   0.500271349347226   0.930144680005906   0.471680341990527 0
ion O   0.232344323366226   0.207230160382441   0.544761939702230 0
ion O   0.733316223744966   0.207971061810077   0.549324775539408 0
ion O   0.200881022492538   0.712806010316419   0.542808044135804 0
ion O   0.742773854862070   0.702206685212921   0.576673982899527 0
ion O   0.053543383503576   0.182174722310178   0.471065194110483 0
ion O   0.552693509768268   0.179250024272155   0.479363051243687 0
ion O   0.061436103966180   0.676780356726901   0.470037501570426 0
ion O   0.551433954152291   0.681986196054447   0.535173889172427 0
ion O   0.104284027602641   0.327646075895409   0.400485248543875 0
ion O   0.601574501152923   0.327734091571245   0.407472739880748 0
ion O   0.088244678758743   0.815097249266021   0.386523225338180 0
ion O   0.586900051219690   0.797993056486542   0.437922333227627 0


# Forces in Lattice coordinates:
force Cu  -0.009335584507340  -0.093283170508604   0.036317658354198 0
force Cu   0.003160175560545  -0.095016762497720   0.068280667203576 0
force Cu   0.058572175708311  -0.063800044461445   0.052408501238062 0
force Cu  -0.066395233040289  -0.073745369754848   0.042810543719700 0
force Cu  -0.050412195560114  -0.003298114167535  -0.007965256501969 0
force Cu   0.056966331645942   0.016147864329291   0.041142250814779 0
force Cu  -0.016522822602195   0.104273251505540   0.067407709066735 0
force Cu   0.000084719902532   0.110139980252585   0.068520107256553 0
force Cu  -0.000766276328616   0.113039220569149  -0.085974501934977 0
force Cu   0.012440003233916   0.106188491448513  -0.097562769101261 0
force Cu  -0.004687656286366   0.017585515399475  -0.115403508897964 0
force Cu   0.045972443954877   0.116746966726538  -0.061522931526749 0
force Cu   0.058643758995547  -0.096148483681918  -0.074795701226873 0
force Cu  -0.003893743616548  -0.127038058154106  -0.098565690550643 0
force Cu   0.021476108694582  -0.034858878192402  -0.160804099069779 0
force Cu   0.065725042999990  -0.156649782804632  -0.083978878122338 0
force Te   0.264546704593249  -0.473327181136485   1.625208563670363 0
force Te   0.387651015097527  -0.481758284769490   1.628983394046806 0
force Te   0.199858046029990  -0.473152231388049   1.336396584098052 0
force Te  -0.376510253498135   0.584000210414498  -1.646930307912276 0
force Te  -0.369776822593376   0.623401824066006  -1.587746690691688 0
force Te  -0.525964624349574   0.504947856847814  -1.778055929484200 0
force Te  -0.498537911766756   0.228388571384813  -1.567249103983364 0
force Te  -0.401015986188854  -0.212121921693440  -1.625415305146314 0
force Te  -0.386711514546616  -0.310123994331368  -1.634401956650421 0
force Te  -0.032063026681754  -0.300454120209945  -1.451234436958108 0
force Te  -0.511278167851699  -0.513111036320435  -1.463325550498698 0
force Te   0.318885112280904   0.436439897705066   1.580044263632608 0
force Te   0.334413444680460   0.471726324934579   1.539307717655973 0
force Te  -0.365770257119378   0.560928491561742   1.017165620324601 0
force Te   0.779650103983129  -0.046105864339615   1.515446842147371 0
force O   0.352837850711983  -0.487583566479254  -1.079214422336733 0
force O   0.265741146272122  -0.513880290007390  -1.116288107393977 0
force O  -0.013517559723118  -0.052182703196077   0.275317764663912 0
force O   0.214909345653458  -0.337593121765614  -1.033083422724268 0
force O   0.170256066290210  -0.926746015291400   0.520232738011678 0
force O   0.158101346377158  -0.893845059512193   0.530956952669570 0
force O   0.114654304744292  -0.869758443417238   0.355409801694516 0
force O   0.209988110810854  -0.705550818850210   0.452511208553497 0
force O  -0.351981857788593   0.464672761672801  -0.225342014542989 0
force O  -0.331334211740097   0.476563924383566  -0.235911956078871 0
force O  -0.862090543008804   0.313567140530454  -0.240655314433685 0
force O   0.185919620326631   0.408074466524852  -0.192187245284575 0
force O  -0.204457567247836  -0.850736191147872  -0.463118255093475 0
force O  -0.183423096513215  -0.823666963573272  -0.535083483012166 0
force O  -0.105438302833656  -0.646962109375462  -0.616584113062410 0
force O  -0.221512614486797  -0.333011044367616  -0.196736600757564 0
force O   0.452067029183987   0.420719423782836   0.292857683352076 0
force O   0.352290015804390   0.430908832625212   0.271493175506153 0
force O   0.624838972194869   0.428544703046133   0.374980942583781 0
force O   0.495944707107857   0.508545383695959   0.166111651047906 0
force O  -0.339040520038498  -0.502848172317572  -0.280451813877875 0
force O  -0.363158704792230  -0.478638731507270  -0.206008711993190 0
force O   0.352569058400491  -0.703886350949607  -0.058374395288633 0
force O  -0.401618504368426  -0.289111926026499  -0.152068039785009 0
force O  -0.335279168687783  -0.601912712985069   1.107096155452808 0
force O  -0.349028799816863  -0.532400656762241   1.130120880713754 0
force O  -0.442548538876013  -0.459688543565131   1.089328776954030 0
force O  -0.177658496798450  -0.415778927596061   1.115164620817147 0
force O  -0.318346691088492   0.328092577526618   1.145372647819855 0
force O  -0.249839691925322   0.389151976119446   1.150610622509106 0
force O  -0.411569843633075   0.424774816366002   1.224761500716383 0
force O  -0.272669461082324   0.539904981571473   1.086541462204003 0
force O   0.142884039802768   0.741601365265847   0.468455562005783 0
force O   0.222225449830351   0.764162661762093   0.618480600042846 0
force O   0.182972909000704   0.908166622887297   0.520192916627306 0
force O   0.168624722442511   0.782096552370929   0.357184345834070 0
force O  -0.148027352489627   0.849777287566649  -0.521077563069543 0
force O  -0.158284877928832   0.853680138216530  -0.552818683952368 0
force O   0.378121018685488   0.153456856903630  -0.227719419722684 0
force O  -0.183952860673052   0.596504602375468  -0.290112491551939 0
force O   0.320615342482478   0.516739233006605  -1.065420274737491 0
force O   0.332607360695862   0.471594878257640  -1.101556349868964 0
force O  -0.018550456534435   0.252437232188257  -0.746841069478869 0
force O   0.250367690662802   0.509307869384292  -1.006108425361791 0
force O   0.450717164388557  -0.464711271298348   0.228814434415806 0
force O   0.349880470183438  -0.526787413411609   0.213323288405471 0
force O   0.479171621035270  -0.262336535092661   0.110263459017194 0
force O   0.225567134557766  -0.297307248598963   0.277603280289732 0

# Energy components:
   A_diel =       -0.3625364732471539
   Eewald =    12808.3206605601699266
       EH =    16310.5637973207267351
     Eloc =   -34094.9966255190811353
      Enl =      651.9483376997048936
      Exc =     -590.8337718012412552
 Exc_core =       78.1983400278668768
       KE =      714.0021306962081553
  MuShift =        0.0537053775130806
-------------------------------------
     Etot =    -4123.1059621113790854
       TS =        0.0896222102166656
-------------------------------------
        F =    -4123.1955843215955611
      muN =     -165.7413956198014375
-------------------------------------
        G =    -3957.4541887017940098

IonicMinimize: Iter:   0  G: -3957.454188701794010  |grad|_K:  0.000e+00  t[s]:   4247.45
IonicMinimize: Converged (|grad|_K<1.000000e-04).

#--- Lowdin population analysis ---
# oxidation-state Cu +0.415 +0.414 +0.449 +0.415 +0.403 +0.408 +0.418 +0.427 +0.415 +0.418 +0.379 +0.411 +0.412 +0.421 +0.460 +0.421
# oxidation-state Te +1.982 +1.979 +2.005 +1.979 +1.978 +1.976 +1.982 +1.975 +1.979 +1.939 +1.983 +1.978 +1.975 +1.982 +2.017
# oxidation-state O -0.611 -0.610 -0.250 -0.591 -0.523 -0.520 -0.599 -0.514 -0.651 -0.653 -0.596 -0.564 -0.519 -0.521 -0.479 -0.448 -0.681 -0.656 -0.635 -0.658 -0.658 -0.658 -0.523 -0.622 -0.615 -0.614 -0.654 -0.611 -0.594 -0.602 -0.605 -0.610 -0.512 -0.555 -0.509 -0.509 -0.521 -0.520 -0.436 -0.467 -0.614 -0.612 -0.556 -0.593 -0.652 -0.654 -0.640 -0.623


Dumping 'NbTe2.fillings' ... done
Dumping 'NbTe2.wfns' ... done
Dumping 'NbTe2.fluidState' ... done
Dumping 'NbTe2.eigenvals' ... done
End date and time: Mon Jul 27 16:31:58 2020  (Duration: 0-1:10:58.27)
Done!
