
*************** JDFTx 1.5.0  ***************

Start date and time: Thu Jul  2 06:24:44 2020
Executable jdftx_gpu with command-line: -i Charged.in -o Charged.out
Running on hosts (process indices):  amax (0)
Divided in process groups (process indices):  0 (0)
gpuInit: Found compatible cuda device 0 'Tesla K80'
gpuInit: Selected device 0
Resource initialization completed at t[s]:      6.21
Run totals: 1 processes, 24 threads, 1 GPUs


Input parsed successfully to the following command list (including defaults):

basis kpoint-dependent
cache-projectors no
coords-type Lattice
core-overlap-check none
coulomb-interaction Slab 001
coulomb-truncation-embed 0 0 0.5
davidson-band-ratio 1.1
dump End State
dump-name NbTe2.$VAR
elec-cutoff 20 100
elec-eigen-algo Davidson
elec-ex-corr gga-PBE
elec-smearing Gauss 0.0073499
electronic-minimize  \
	dirUpdateScheme      FletcherReeves \
	linminMethod         DirUpdateRecommended \
	nIterations          100 \
	history              15 \
	knormThreshold       0 \
	energyDiffThreshold  1e-08 \
	nEnergyDiff          2 \
	alphaTstart          1 \
	alphaTmin            1e-10 \
	updateTestStepSize   yes \
	alphaTreduceFactor   0.1 \
	alphaTincreaseFactor 3 \
	nAlphaAdjustMax      3 \
	wolfeEnergy          0.0001 \
	wolfeGradient        0.9 \
	fdTest               no
electronic-scf  \
	nIterations	500 \
	energyDiffThreshold	1e-08 \
	residualThreshold	1e-07 \
	mixFraction	0.5 \
	qMetric	0.8 \
	history	10 \
	nEigSteps	2 \
	eigDiffThreshold	1e-08 \
	mixedVariable	Density \
	qKerker	0.8 \
	qKappa	-1 \
	verbose	no \
	mixFractionMag	1.5
exchange-regularization WignerSeitzTruncated
fluid LinearPCM 298.000000 1.013250
fluid-anion F- 1 MeanFieldLJ \
	epsBulk 1 \
	pMol 0 \
	epsInf 1 \
	Pvap 0 \
	sigmaBulk 0 \
	Rvdw 2.24877 \
	Res 0 \
	tauNuc 343133
fluid-cation Na+ 1 MeanFieldLJ \
	epsBulk 1 \
	pMol 0 \
	epsInf 1 \
	Pvap 0 \
	sigmaBulk 0 \
	Rvdw 2.19208 \
	Res 0 \
	tauNuc 343133
fluid-ex-corr lda-TF lda-PZ
fluid-gummel-loop 10 1.000000e-05
fluid-minimize  \
	dirUpdateScheme      PolakRibiere \
	linminMethod         DirUpdateRecommended \
	nIterations          400 \
	history              15 \
	knormThreshold       1e-11 \
	energyDiffThreshold  0 \
	nEnergyDiff          2 \
	alphaTstart          1 \
	alphaTmin            1e-10 \
	updateTestStepSize   yes \
	alphaTreduceFactor   0.1 \
	alphaTincreaseFactor 3 \
	nAlphaAdjustMax      6 \
	wolfeEnergy          0.0001 \
	wolfeGradient        0.9 \
	fdTest               no
fluid-solvent H2O 55.338 ScalarEOS \
	epsBulk 78.4 \
	pMol 0.92466 \
	epsInf 1.77 \
	Pvap 1.06736e-10 \
	sigmaBulk 4.62e-05 \
	Rvdw 2.61727 \
	Res 1.42 \
	tauNuc 343133 \
	poleEl 15 7 1
forces-output-coords Positions
initial-state NbTe2.$VAR
ion Ta   0.169793441774572   0.082053608072406   0.499913576382333 0
ion Ta   0.412270134297835   0.082053608072406   0.499913576382333 0
ion Ta   0.667961237771396   0.083975608885695   0.500074524485748 0
ion Ta   0.916024429114300   0.083975608885695   0.500074524485748 0
ion Ta   0.166965688837115   0.333477848418556   0.498766600988603 0
ion Ta   0.403373665990029   0.306737344980053   0.496330623156383 0
ion Ta   0.666522164581442   0.333477848418556   0.498766600988603 0
ion Ta   0.916024385114304   0.332038783228602   0.500074524485748 0
ion Ta   0.169793469774574   0.587729849702163   0.499913576382333 0
ion Ta   0.403373665990029   0.596626310009976   0.496330623156383 0
ion Ta   0.693262578019945   0.596626310009976   0.496330623156383 0
ion Ta   0.917946402927591   0.587729849702163   0.499913576382333 0
ion Ta   0.166669992999999   0.833329962999997   0.500047138345009 0
ion Ta   0.412270125297838   0.830206487225426   0.499913576382333 0
ion Ta   0.666522163581445   0.833034268162885   0.498766600988603 0
ion Ta   0.917946420927592   0.830206487225426   0.499913576382333 0
ion S   0.000250147879952  -0.000250147879952   0.584934305931463 0
ion S   0.000245115289614  -0.000245115289614   0.415156925573465 0
ion S   0.249221860052408  -0.001556279895184   0.587526726124045 0
ion S   0.248784483564777  -0.002431032870446   0.412396199281674 0
ion S   0.499499704240096  -0.000250147879952   0.584934305931463 0
ion S   0.499509769420772  -0.000245115289614   0.415156925573465 0
ion S   0.749213971245869  -0.001572021508260   0.586160391247868 0
ion S   0.749881215528286  -0.000237532943426   0.413368097886788 0
ion S   0.001572022508257   0.250786012754130   0.586160391247868 0
ion S   0.000237533943422   0.250118768471713   0.413368097886788 0
ion S   0.250374657963958   0.252051044996824   0.586524799934160 0
ion S   0.245375792522769   0.246559090801373   0.410001866947740 0
ion S   0.501676378032862   0.252051044996824   0.586524799934160 0
ion S   0.501183289278600   0.246559090801373   0.410001866947740 0
ion S   0.749213999245871   0.250786012754130   0.586160391247868 0
ion S   0.749881243528288   0.250118768471713   0.413368097886788 0
ion S   0.000250149879952   0.500500298759900   0.584934305931463 0
ion S   0.000245117289614   0.500490233579224   0.415156925573465 0
ion S   0.250374658963962   0.498323616967134   0.586524799934160 0
ion S   0.245375793522773   0.498816705721397   0.410001866947740 0
ion S   0.500000002000000   0.500000002999997   0.450847827041556 0
ion S   0.747948851003174   0.498323616967134   0.586524799934160 0
ion S   0.753440805198625   0.498816705721397   0.410001866947740 0
ion S   0.001556301895185   0.750778165947594   0.587526726124045 0
ion S   0.002431054870448   0.751215542435225   0.412396199281674 0
ion S   0.249221918052406   0.750778165947594   0.587526726124045 0
ion S   0.248784541564775   0.751215542435225   0.412396199281674 0
ion S   0.501676408032864   0.749625369036040   0.586524799934160 0
ion S   0.501183319278602   0.754624234477230   0.410001866947740 0
ion S   0.747948961003176   0.749625369036040   0.586524799934160 0
ion S   0.753440915198627   0.754624234477230   0.410001866947740 0
ion-species GBRV/$ID_pbe.uspp
ion-width Ecut
ionic-minimize  \
	dirUpdateScheme      L-BFGS \
	linminMethod         DirUpdateRecommended \
	nIterations          0 \
	history              15 \
	knormThreshold       0.0001 \
	energyDiffThreshold  1e-06 \
	nEnergyDiff          2 \
	alphaTstart          1 \
	alphaTmin            1e-10 \
	updateTestStepSize   yes \
	alphaTreduceFactor   0.1 \
	alphaTincreaseFactor 3 \
	nAlphaAdjustMax      3 \
	wolfeEnergy          0.0001 \
	wolfeGradient        0.9 \
	fdTest               no
kpoint   0.000000000000   0.000000000000   0.000000000000  1.00000000000000
kpoint-folding 3 3 1 
latt-move-scale 1 1 1
latt-scale 1 1 1 
lattice Triclinic 25.1736 25.1736 34.2617 90 90 120
lattice-minimize  \
	dirUpdateScheme      L-BFGS \
	linminMethod         DirUpdateRecommended \
	nIterations          0 \
	history              15 \
	knormThreshold       0 \
	energyDiffThreshold  1e-06 \
	nEnergyDiff          2 \
	alphaTstart          1 \
	alphaTmin            1e-10 \
	updateTestStepSize   yes \
	alphaTreduceFactor   0.1 \
	alphaTincreaseFactor 3 \
	nAlphaAdjustMax      3 \
	wolfeEnergy          0.0001 \
	wolfeGradient        0.9 \
	fdTest               no
lcao-params -1 1e-06 0.0073499
pcm-variant CANDLE
spintype no-spin
subspace-rotation-factor 1 yes
symmetries automatic
symmetry-threshold 0.0001
target-mu -0.24475 no




---------- Setting up symmetries ----------

Found 24 point-group symmetries of the bravais lattice
Found 6 space-group symmetries with basis
Applied RMS atom displacement 6.90795e-05 bohrs to make symmetries exact.

---------- Initializing the Grid ----------
R = 
[    25.1736   -12.5868          0  ]
[          0     21.801          0  ]
[          0          0    34.2617  ]
unit cell volume = 18803.1
G =
[   0.249594   0.144103         -0  ]
[          0   0.288207          0  ]
[          0         -0   0.183388  ]
Minimum fftbox size, Smin = [  116  116  156  ]
Chosen fftbox size, S = [  120  120  160  ]

---------- Initializing tighter grid for wavefunction operations ----------
R = 
[    25.1736   -12.5868          0  ]
[          0     21.801          0  ]
[          0          0    34.2617  ]
unit cell volume = 18803.1
G =
[   0.249594   0.144103         -0  ]
[          0   0.288207          0  ]
[          0         -0   0.183388  ]
Minimum fftbox size, Smin = [  104  104  140  ]
Chosen fftbox size, S = [  108  108  140  ]

---------- Exchange Correlation functional ----------
Initalized PBE GGA exchange.
Initalized PBE GGA correlation.

---------- Setting up pseudopotentials ----------
Width of ionic core gaussian charges (only for fluid interactions / plotting) set to 0.397384

Reading pseudopotential file '/home/guoxy/vasp/jdftx-1.5.0/build/pseudopotentials/GBRV/ta_pbe.uspp':
  Title: Ta.  Created by USPP 7.3.6 on 14-9-2013
  Reference state energy: -70.583193.  13 valence electrons in orbitals:
    |500>  occupation: 2  eigenvalue: -2.682396
    |510>  occupation: 6  eigenvalue: -1.447928
    |520>  occupation: 3  eigenvalue: -0.131987
    |600>  occupation: 2  eigenvalue: -0.199982
    |610>  occupation: 0  eigenvalue: -0.051129
  lMax: 3  lLocal: 3  QijEcut: 5
  7 projectors sampled on a log grid with 667 points:
    l: 0  eig: -2.682397  rCut: 1.4
    l: 0  eig: -0.199983  rCut: 1.4
    l: 1  eig: -1.447928  rCut: 1.5
    l: 1  eig: -0.051130  rCut: 1.5
    l: 2  eig: -0.131987  rCut: 1.7
    l: 2  eig: 0.150000  rCut: 1.7
    l: 3  eig: 0.250000  rCut: 2.3
  Partial core density with radius 1.2
  Transforming core density to a uniform radial grid of dG=0.02 with 1673 points.
  Transforming local potential to a uniform radial grid of dG=0.02 with 1673 points.
  Transforming nonlocal projectors to a uniform radial grid of dG=0.02 with 432 points.
  Transforming density augmentations to a uniform radial grid of dG=0.02 with 1673 points.
  Transforming atomic orbitals to a uniform radial grid of dG=0.02 with 432 points.
  Core radius for overlap checks: 2.30 bohrs.

Reading pseudopotential file '/home/guoxy/vasp/jdftx-1.5.0/build/pseudopotentials/GBRV/s_pbe.uspp':
  Title: S.  Created by USPP 7.3.6 on 1-4-15
  Reference state energy: -11.898476.  6 valence electrons in orbitals:
    |300>  occupation: 2  eigenvalue: -0.634167
    |310>  occupation: 4  eigenvalue: -0.257568
  lMax: 2  lLocal: 3  QijEcut: 6
  6 projectors sampled on a log grid with 635 points:
    l: 0  eig: -0.634161  rCut: 1.5
    l: 0  eig: 1.500000  rCut: 1.5
    l: 1  eig: -0.257567  rCut: 1.5
    l: 1  eig: 1.500000  rCut: 1.5
    l: 2  eig: -1.000000  rCut: 1.5
    l: 2  eig: 1.500000  rCut: 1.5
  Partial core density with radius 1.15
  Transforming core density to a uniform radial grid of dG=0.02 with 1673 points.
  Transforming local potential to a uniform radial grid of dG=0.02 with 1673 points.
  Transforming nonlocal projectors to a uniform radial grid of dG=0.02 with 432 points.
  Transforming density augmentations to a uniform radial grid of dG=0.02 with 1673 points.
  Transforming atomic orbitals to a uniform radial grid of dG=0.02 with 432 points.
  Core radius for overlap checks: 1.50 bohrs.

Initialized 2 species with 47 total atoms.

Folded 1 k-points by 3x3x1 to 9 k-points.

---------- Setting up k-points, bands, fillings ----------
Adding inversion symmetry to k-mesh for non-inversion-symmetric unit cell.
Reduced to 3 k-points under symmetry. 
Computing the number of bands and number of electrons
Reading initial fillings from file NbTe2.fillings.
nElectrons: 394.000000   nBands: 332   nStates: 3

----- Setting up reduced wavefunction bases (one per k-point) -----
average nbasis = 80341.667 , ideal nbasis = 80328.402

---------- Setting up coulomb interaction ----------
Fluid mode embedding: using embedded box, but periodic Coulomb kernel.
(Fluid response is responsible for (approximate) separation between periodic images.)
Setting up double-sized grid for truncated Coulomb potentials:
R = 
[    25.1736   -12.5868          0  ]
[          0     21.801          0  ]
[          0          0    68.5234  ]
unit cell volume = 37606.3
G =
[   0.249594   0.144103         -0  ]
[          0   0.288207          0  ]
[          0         -0  0.0916941  ]
Chosen fftbox size, S = [  120  120  320  ]
Integer grid location selected as the embedding center:
   Grid: [  0  0  80  ]
   Lattice: [  0  0  0.5  ]
   Cartesian: [  0  0  17.1308  ]
Constructing Wigner-Seitz cell: 8 faces (6 quadrilaterals, 2 hexagons)
Range-separation parameter for embedded mesh potentials due to point charges: 0.583787 bohrs.

Initializing van der Waals corrections
	NOTE: vdW corrections apply only for interactions with fluid.
	Ta:  C6:  815.23 Eh-a0^6  R0: 3.326 a0 (WARNING: beyond Grimme's data set)
	 S:  C6:   96.61 Eh-a0^6  R0: 3.180 a0

---------- Setting up ewald sum ----------
Optimum gaussian width for ewald sums = 7.035805 bohr.
Real space sum over 605 unit cells with max indices [  5  5  2  ]
Reciprocal space sum over 7425 terms with max indices [  7  7  16  ]

---------- Allocating electronic variables ----------
Initializing wave functions:  reading from 'NbTe2.wfns'
----- createFluidSolver() ----- (Fluid-side solver setup)
   Initializing fluid molecule 'H2O'
     Initializing site 'O'
       Electron density: proportional to exp(-r/0.36935)*erfc((r-0.51523)/0.36823) with norm 6.826
       Charge density: gaussian nuclear width 0.478731 with net site charge 0.826
       Polarizability: cuspless exponential with width 0.32 and norm 3.73
       Hard sphere radius: 2.57003 bohrs
       Positions in reference frame:
         [ +0.000000 +0.000000 +0.000000 ]
     Initializing site 'H'
       Electron density: proportional to exp(-r/0.34641)*erfc((r-0)/0.390882) with norm 0.587
       Charge density: gaussian nuclear width 0.377945 with net site charge -0.413
       Polarizability: cuspless exponential with width 0.39 and norm 3.3
       Positions in reference frame:
         [ +0.000000 -1.441945 +1.122523 ]
         [ +0.000000 +1.441945 +1.122523 ]
     Net charge: 0   dipole magnitude: 0.927204
     Initializing spherical shell mfKernel with radius 2.61727 Bohr
     deltaS corrections:
       site 'O': -7.54299
       site 'H': -6.83917
   Initializing fluid molecule 'Na+'
     Initializing site 'Na'
       Electron density: proportional to exp(-r/0.19682)*erfc((r-0.71491)/0.41314) with norm 8.1383
       Charge density: gaussian nuclear width 0.365347 with net site charge -1
       Hard sphere radius: 1.86327 bohrs
       Positions in reference frame:
         [ +0.000000 +0.000000 +0.000000 ]
     Net charge: -1   dipole magnitude: 0
     Initializing gaussian mfKernel with width: 1.55004 Bohr
     deltaS corrections:
       site 'Na': -22.3555
   Initializing fluid molecule 'F-'
     Initializing site 'F'
       Electron density: proportional to exp(-r/0.38886)*erfc((r-0)/0.438782) with norm 8
       Charge density: gaussian nuclear width 0.374796 with net site charge 1
       Hard sphere radius: 2.39995 bohrs
       Positions in reference frame:
         [ +0.000000 +0.000000 +0.000000 ]
     Net charge: 1   dipole magnitude: 0
     Initializing gaussian mfKernel with width: 1.59012 Bohr
     deltaS corrections:
       site 'F': -9.04335

Correction to mu due to finite nuclear width = -0.0103953
   Cavity determined by nc: 0.00142 and sigma: 0.707107
   Nonlocal vdW cavity from gaussian model electron density with norm = 8 and sigma = 0.993594 bohr
   Charge asymmetry in cavity with sensitivity pCavity = 36.5 e-bohr/Eh
   Electrostatic cavity expanded by eta = 1.46 bohrs
   Weighted density cavitation model constrained by Nbulk: 0.0049383 bohr^-3, Pvap: 3.14029 kPa, Rvdw: 2.61727 bohr and sigmaBulk: 4.62e-05 Eh/bohr^2 at T: 298 K.
   Weighted density dispersion model using vdW pair potentials with single solvent site with sqrtC6eff: 0.77 SI.
Reading fluid state from 'NbTe2.fluidState'


---- Citations for features of the code used in this run ----

   Software package:
      R. Sundararaman, K. Letchworth-Weaver, K.A. Schwarz, D. Gunceler, Y. Ozhabes and T.A. Arias, 'JDFTx: software for joint density-functional theory', SoftwareX 6, 278 (2017)

   gga-PBE exchange-correlation functional:
      J.P. Perdew, K. Burke and M. Ernzerhof, Phys. Rev. Lett. 77, 3865 (1996)

   Pseudopotentials:
      KF Garrity, JW Bennett, KM Rabe and D Vanderbilt, Comput. Mater. Sci. 81, 446 (2014)

   Truncated Coulomb potentials:
      R. Sundararaman and T.A. Arias, Phys. Rev. B 87, 165122 (2013)

   Van der Waals correction pair-potentials:
      S. Grimme, J. Comput. Chem. 27, 1787 (2006)

   Charge-asymmetric nonlocally-determined local-electric (CANDLE) solvation model:
      R. Sundararaman and W.A. Goddard III, J. Chem. Phys. 142, 064107 (2015)

   Grand-canonical (fixed-potential) DFT:
      R. Sundararaman, W. A. Goddard III and T. A. Arias, J. Chem. Phys. 146, 114104 (2017)

This list may not be complete. Please suggest additional citations or
report any other bugs at https://github.com/shankar1729/jdftx/issues

Initialization completed successfully at t[s]:     17.94

Shifting auxilliary hamiltonian by -0.043213 to set nElectrons=394.000000
	Linear fluid (dielectric constant: 78.4, screening length: 5.74355 Bohr) occupying 0.759115 of unit cell:	Completed after 0 iterations at t[s]:     25.04

-------- Electronic minimization -----------
Will mix electronic density at each iteration.
	FillingsUpdate:  mu: -0.244750400  nElectrons: 394.000000
	Linear fluid (dielectric constant: 78.4, screening length: 5.74355 Bohr) occupying 0.759115 of unit cell:	Completed after 0 iterations at t[s]:     32.70
	FillingsUpdate:  mu: -0.244750400  nElectrons: 370.441440
	Linear fluid (dielectric constant: 78.4, screening length: 5.74355 Bohr) occupying 0.761403 of unit cell:	Completed after 25 iterations at t[s]:     93.75
SCF: Cycle:  0   G: -1152.125916349800036   dG: +1.100e+01   |Residual|: 4.399e-01   |deigs|: 1.567e-06  t[s]:     95.35
	Linear fluid (dielectric constant: 78.4, screening length: 5.74355 Bohr) occupying 0.751156 of unit cell:	Completed after 22 iterations at t[s]:     98.51
	FillingsUpdate:  mu: -0.244750400  nElectrons: 404.812691
	Linear fluid (dielectric constant: 78.4, screening length: 5.74355 Bohr) occupying 0.816248 of unit cell:	Completed after 31 iterations at t[s]:    161.34
SCF: Cycle:  1   G: -1158.930247293098546   dG: -6.804e+00   |Residual|: 4.742e-01   |deigs|: 6.352e-02  t[s]:    162.76
	Linear fluid (dielectric constant: 78.4, screening length: 5.74355 Bohr) occupying 0.749437 of unit cell:	Completed after 23 iterations at t[s]:    165.99
	FillingsUpdate:  mu: -0.244750400  nElectrons: 387.434781
	Linear fluid (dielectric constant: 78.4, screening length: 5.74355 Bohr) occupying 0.761598 of unit cell:	Completed after 20 iterations at t[s]:    228.33
SCF: Cycle:  2   G: -1162.523954921386348   dG: -3.594e+00   |Residual|: 1.530e-01   |deigs|: 3.383e-02  t[s]:    229.57
	Linear fluid (dielectric constant: 78.4, screening length: 5.74355 Bohr) occupying 0.747093 of unit cell:	Completed after 18 iterations at t[s]:    232.27
	FillingsUpdate:  mu: -0.244750400  nElectrons: 390.969491
	Linear fluid (dielectric constant: 78.4, screening length: 5.74355 Bohr) occupying 0.761658 of unit cell:	Completed after 20 iterations at t[s]:    292.55
SCF: Cycle:  3   G: -1163.135462093908245   dG: -6.115e-01   |Residual|: 5.220e-02   |deigs|: 5.217e-03  t[s]:    293.72
	Linear fluid (dielectric constant: 78.4, screening length: 5.74355 Bohr) occupying 0.744269 of unit cell:	Completed after 18 iterations at t[s]:    296.22
	FillingsUpdate:  mu: -0.244750400  nElectrons: 390.297041
	Linear fluid (dielectric constant: 78.4, screening length: 5.74355 Bohr) occupying 0.761583 of unit cell:	Completed after 20 iterations at t[s]:    358.54
SCF: Cycle:  4   G: -1163.076654348631791   dG: +5.881e-02   |Residual|: 4.813e-02   |deigs|: 1.490e-03  t[s]:    359.92
	Linear fluid (dielectric constant: 78.4, screening length: 5.74355 Bohr) occupying 0.740619 of unit cell:	Completed after 18 iterations at t[s]:    362.62
	FillingsUpdate:  mu: -0.244750400  nElectrons: 390.854879
	Linear fluid (dielectric constant: 78.4, screening length: 5.74355 Bohr) occupying 0.761588 of unit cell:	Completed after 19 iterations at t[s]:    425.32
SCF: Cycle:  5   G: -1163.127072344511589   dG: -5.042e-02   |Residual|: 3.448e-02   |deigs|: 1.128e-03  t[s]:    426.73
	Linear fluid (dielectric constant: 78.4, screening length: 5.74355 Bohr) occupying 0.737804 of unit cell:	Completed after 16 iterations at t[s]:    429.46
	FillingsUpdate:  mu: -0.244750400  nElectrons: 391.679105
	Linear fluid (dielectric constant: 78.4, screening length: 5.74355 Bohr) occupying 0.761689 of unit cell:	Completed after 19 iterations at t[s]:    493.41
SCF: Cycle:  6   G: -1163.165492098306913   dG: -3.842e-02   |Residual|: 2.315e-02   |deigs|: 1.132e-03  t[s]:    494.53
	Linear fluid (dielectric constant: 78.4, screening length: 5.74355 Bohr) occupying 0.736162 of unit cell:	Completed after 14 iterations at t[s]:    496.64
	FillingsUpdate:  mu: -0.244750400  nElectrons: 391.435409
	Linear fluid (dielectric constant: 78.4, screening length: 5.74355 Bohr) occupying 0.761807 of unit cell:	Completed after 18 iterations at t[s]:    560.59
SCF: Cycle:  7   G: -1163.157616266628793   dG: +7.876e-03   |Residual|: 2.319e-02   |deigs|: 4.478e-04  t[s]:    562.06
	Linear fluid (dielectric constant: 78.4, screening length: 5.74355 Bohr) occupying 0.734713 of unit cell:	Completed after 14 iterations at t[s]:    564.26
	FillingsUpdate:  mu: -0.244750400  nElectrons: 391.424855
	Linear fluid (dielectric constant: 78.4, screening length: 5.74355 Bohr) occupying 0.761986 of unit cell:	Completed after 16 iterations at t[s]:    627.80
SCF: Cycle:  8   G: -1163.158657084460401   dG: -1.041e-03   |Residual|: 2.218e-02   |deigs|: 3.611e-04  t[s]:    629.12
	Linear fluid (dielectric constant: 78.4, screening length: 5.74355 Bohr) occupying 0.734918 of unit cell:	Completed after 14 iterations at t[s]:    631.50
	FillingsUpdate:  mu: -0.244750400  nElectrons: 391.695346
	Linear fluid (dielectric constant: 78.4, screening length: 5.74355 Bohr) occupying 0.762194 of unit cell:	Completed after 17 iterations at t[s]:    693.19
SCF: Cycle:  9   G: -1163.168241563224456   dG: -9.584e-03   |Residual|: 1.596e-02   |deigs|: 5.883e-04  t[s]:    694.50
	Linear fluid (dielectric constant: 78.4, screening length: 5.74355 Bohr) occupying 0.738109 of unit cell:	Completed after 14 iterations at t[s]:    696.59
	FillingsUpdate:  mu: -0.244750400  nElectrons: 391.908352
	Linear fluid (dielectric constant: 78.4, screening length: 5.74355 Bohr) occupying 0.762464 of unit cell:	Completed after 14 iterations at t[s]:    760.66
SCF: Cycle: 10   G: -1163.172651537058300   dG: -4.410e-03   |Residual|: 9.549e-03   |deigs|: 7.318e-04  t[s]:    761.85
	Linear fluid (dielectric constant: 78.4, screening length: 5.74355 Bohr) occupying 0.745306 of unit cell:	Completed after 13 iterations at t[s]:    763.91
	FillingsUpdate:  mu: -0.244750400  nElectrons: 391.853619
	Linear fluid (dielectric constant: 78.4, screening length: 5.74355 Bohr) occupying 0.762838 of unit cell:	Completed after 14 iterations at t[s]:    824.87
SCF: Cycle: 11   G: -1163.172723396425681   dG: -7.186e-05   |Residual|: 7.477e-03   |deigs|: 7.932e-04  t[s]:    826.13
	Linear fluid (dielectric constant: 78.4, screening length: 5.74355 Bohr) occupying 0.758657 of unit cell:	Completed after 14 iterations at t[s]:    828.42
	FillingsUpdate:  mu: -0.244750400  nElectrons: 392.409573
	Linear fluid (dielectric constant: 78.4, screening length: 5.74355 Bohr) occupying 0.762949 of unit cell:	Completed after 15 iterations at t[s]:    891.51
SCF: Cycle: 12   G: -1163.168474459916524   dG: +4.249e-03   |Residual|: 1.147e-02   |deigs|: 1.602e-03  t[s]:    892.64
	Linear fluid (dielectric constant: 78.4, screening length: 5.74355 Bohr) occupying 0.761317 of unit cell:	Completed after 14 iterations at t[s]:    894.92
	FillingsUpdate:  mu: -0.244750400  nElectrons: 392.177438
	Linear fluid (dielectric constant: 78.4, screening length: 5.74355 Bohr) occupying 0.762799 of unit cell:	Completed after 15 iterations at t[s]:    956.07
SCF: Cycle: 13   G: -1163.172681110828307   dG: -4.207e-03   |Residual|: 5.611e-03   |deigs|: 4.231e-04  t[s]:    957.42
	Linear fluid (dielectric constant: 78.4, screening length: 5.74355 Bohr) occupying 0.761965 of unit cell:	Completed after 14 iterations at t[s]:    959.52
	FillingsUpdate:  mu: -0.244750400  nElectrons: 391.649265
	Linear fluid (dielectric constant: 78.4, screening length: 5.74355 Bohr) occupying 0.762708 of unit cell:	Completed after 14 iterations at t[s]:   1021.68
SCF: Cycle: 14   G: -1163.170031042508072   dG: +2.650e-03   |Residual|: 1.013e-02   |deigs|: 1.359e-03  t[s]:   1022.95
	Linear fluid (dielectric constant: 78.4, screening length: 5.74355 Bohr) occupying 0.762900 of unit cell:	Completed after 15 iterations at t[s]:   1025.18
	FillingsUpdate:  mu: -0.244750400  nElectrons: 391.613969
	Linear fluid (dielectric constant: 78.4, screening length: 5.74355 Bohr) occupying 0.762741 of unit cell:	Completed after 14 iterations at t[s]:   1088.91
SCF: Cycle: 15   G: -1163.169584185787244   dG: +4.469e-04   |Residual|: 9.598e-03   |deigs|: 7.129e-04  t[s]:   1090.15
	Linear fluid (dielectric constant: 78.4, screening length: 5.74355 Bohr) occupying 0.763902 of unit cell:	Completed after 15 iterations at t[s]:   1092.56
	FillingsUpdate:  mu: -0.244750400  nElectrons: 392.077125
	Linear fluid (dielectric constant: 78.4, screening length: 5.74355 Bohr) occupying 0.762848 of unit cell:	Completed after 12 iterations at t[s]:   1153.04
SCF: Cycle: 16   G: -1163.173251574470896   dG: -3.667e-03   |Residual|: 3.906e-03   |deigs|: 6.870e-04  t[s]:   1154.29
	Linear fluid (dielectric constant: 78.4, screening length: 5.74355 Bohr) occupying 0.762554 of unit cell:	Completed after 13 iterations at t[s]:   1156.31
	FillingsUpdate:  mu: -0.244750400  nElectrons: 391.780914
	Linear fluid (dielectric constant: 78.4, screening length: 5.74355 Bohr) occupying 0.762714 of unit cell:	Completed after 14 iterations at t[s]:   1218.13
SCF: Cycle: 17   G: -1163.172214691604950   dG: +1.037e-03   |Residual|: 5.363e-03   |deigs|: 9.329e-04  t[s]:   1219.42
	Linear fluid (dielectric constant: 78.4, screening length: 5.74355 Bohr) occupying 0.762159 of unit cell:	Completed after 13 iterations at t[s]:   1221.38
	FillingsUpdate:  mu: -0.244750400  nElectrons: 391.841132
	Linear fluid (dielectric constant: 78.4, screening length: 5.74355 Bohr) occupying 0.762705 of unit cell:	Completed after 14 iterations at t[s]:   1282.74
SCF: Cycle: 18   G: -1163.172801611130126   dG: -5.869e-04   |Residual|: 4.031e-03   |deigs|: 6.100e-04  t[s]:   1284.29
	Linear fluid (dielectric constant: 78.4, screening length: 5.74355 Bohr) occupying 0.762398 of unit cell:	Completed after 13 iterations at t[s]:   1286.42
	FillingsUpdate:  mu: -0.244750400  nElectrons: 392.026861
	Linear fluid (dielectric constant: 78.4, screening length: 5.74355 Bohr) occupying 0.762736 of unit cell:	Completed after 10 iterations at t[s]:   1348.26
SCF: Cycle: 19   G: -1163.173478795352139   dG: -6.772e-04   |Residual|: 1.156e-03   |deigs|: 5.974e-04  t[s]:   1349.45
	Linear fluid (dielectric constant: 78.4, screening length: 5.74355 Bohr) occupying 0.762581 of unit cell:	Completed after 9 iterations at t[s]:   1351.04
	FillingsUpdate:  mu: -0.244750400  nElectrons: 392.018106
	Linear fluid (dielectric constant: 78.4, screening length: 5.74355 Bohr) occupying 0.762745 of unit cell:	Completed after 9 iterations at t[s]:   1412.08
SCF: Cycle: 20   G: -1163.173486510197563   dG: -7.715e-06   |Residual|: 7.097e-04   |deigs|: 4.237e-04  t[s]:   1413.22
	Linear fluid (dielectric constant: 78.4, screening length: 5.74355 Bohr) occupying 0.762635 of unit cell:	Completed after 9 iterations at t[s]:   1414.94
	FillingsUpdate:  mu: -0.244750400  nElectrons: 391.998990
	Linear fluid (dielectric constant: 78.4, screening length: 5.74355 Bohr) occupying 0.762744 of unit cell:	Completed after 4 iterations at t[s]:   1475.10
SCF: Cycle: 21   G: -1163.173497619097589   dG: -1.111e-05   |Residual|: 4.210e-04   |deigs|: 2.628e-04  t[s]:   1476.37
	Linear fluid (dielectric constant: 78.4, screening length: 5.74355 Bohr) occupying 0.762686 of unit cell:	Completed after 4 iterations at t[s]:   1477.44
	FillingsUpdate:  mu: -0.244750400  nElectrons: 392.007211
	Linear fluid (dielectric constant: 78.4, screening length: 5.74355 Bohr) occupying 0.762746 of unit cell:	Completed after 8 iterations at t[s]:   1537.62
SCF: Cycle: 22   G: -1163.173496589706474   dG: +1.029e-06   |Residual|: 3.520e-04   |deigs|: 1.209e-04  t[s]:   1538.81
	Linear fluid (dielectric constant: 78.4, screening length: 5.74355 Bohr) occupying 0.762719 of unit cell:	Completed after 7 iterations at t[s]:   1540.21
	FillingsUpdate:  mu: -0.244750400  nElectrons: 391.986128
	Linear fluid (dielectric constant: 78.4, screening length: 5.74355 Bohr) occupying 0.762745 of unit cell:	Completed after 9 iterations at t[s]:   1601.80
SCF: Cycle: 23   G: -1163.173493880602564   dG: +2.709e-06   |Residual|: 4.229e-04   |deigs|: 1.415e-04  t[s]:   1603.14
	Linear fluid (dielectric constant: 78.4, screening length: 5.74355 Bohr) occupying 0.762748 of unit cell:	Completed after 8 iterations at t[s]:   1604.72
	FillingsUpdate:  mu: -0.244750400  nElectrons: 392.027852
	Linear fluid (dielectric constant: 78.4, screening length: 5.74355 Bohr) occupying 0.762749 of unit cell:	Completed after 10 iterations at t[s]:   1665.67
SCF: Cycle: 24   G: -1163.173474296191216   dG: +1.958e-05   |Residual|: 7.888e-04   |deigs|: 9.013e-05  t[s]:   1667.06
	Linear fluid (dielectric constant: 78.4, screening length: 5.74355 Bohr) occupying 0.762728 of unit cell:	Completed after 11 iterations at t[s]:   1669.04
	FillingsUpdate:  mu: -0.244750400  nElectrons: 391.972229
	Linear fluid (dielectric constant: 78.4, screening length: 5.74355 Bohr) occupying 0.762744 of unit cell:	Completed after 10 iterations at t[s]:   1730.86
SCF: Cycle: 25   G: -1163.173476438530543   dG: -2.142e-06   |Residual|: 7.839e-04   |deigs|: 1.841e-04  t[s]:   1732.06
	Linear fluid (dielectric constant: 78.4, screening length: 5.74355 Bohr) occupying 0.762753 of unit cell:	Completed after 11 iterations at t[s]:   1733.95
	FillingsUpdate:  mu: -0.244750400  nElectrons: 392.008863
	Linear fluid (dielectric constant: 78.4, screening length: 5.74355 Bohr) occupying 0.762747 of unit cell:	Completed after 8 iterations at t[s]:   1793.56
SCF: Cycle: 26   G: -1163.173493085174641   dG: -1.665e-05   |Residual|: 4.585e-04   |deigs|: 9.646e-05  t[s]:   1794.69
	Linear fluid (dielectric constant: 78.4, screening length: 5.74355 Bohr) occupying 0.762746 of unit cell:	Completed after 7 iterations at t[s]:   1796.31
	FillingsUpdate:  mu: -0.244750400  nElectrons: 391.959638
	Linear fluid (dielectric constant: 78.4, screening length: 5.74355 Bohr) occupying 0.762744 of unit cell:	Completed after 11 iterations at t[s]:   1858.47
SCF: Cycle: 27   G: -1163.173458477891927   dG: +3.461e-05   |Residual|: 9.094e-04   |deigs|: 1.504e-04  t[s]:   1859.59
	Linear fluid (dielectric constant: 78.4, screening length: 5.74355 Bohr) occupying 0.762774 of unit cell:	Completed after 10 iterations at t[s]:   1861.29
	FillingsUpdate:  mu: -0.244750400  nElectrons: 392.005414
	Linear fluid (dielectric constant: 78.4, screening length: 5.74355 Bohr) occupying 0.762749 of unit cell:	Completed after 7 iterations at t[s]:   1922.41
SCF: Cycle: 28   G: -1163.173494798801357   dG: -3.632e-05   |Residual|: 4.460e-04   |deigs|: 1.145e-04  t[s]:   1923.84
	Linear fluid (dielectric constant: 78.4, screening length: 5.74355 Bohr) occupying 0.762764 of unit cell:	Completed after 4 iterations at t[s]:   1925.12
	FillingsUpdate:  mu: -0.244750400  nElectrons: 391.954140
	Linear fluid (dielectric constant: 78.4, screening length: 5.74355 Bohr) occupying 0.762744 of unit cell:	Completed after 11 iterations at t[s]:   1985.74
SCF: Cycle: 29   G: -1163.173447763663717   dG: +4.704e-05   |Residual|: 1.003e-03   |deigs|: 1.117e-04  t[s]:   1986.89
	Linear fluid (dielectric constant: 78.4, screening length: 5.74355 Bohr) occupying 0.762774 of unit cell:	Completed after 11 iterations at t[s]:   1988.66
	FillingsUpdate:  mu: -0.244750400  nElectrons: 391.992907
	Linear fluid (dielectric constant: 78.4, screening length: 5.74355 Bohr) occupying 0.762747 of unit cell:	Completed after 7 iterations at t[s]:   2049.36
SCF: Cycle: 30   G: -1163.173495829164949   dG: -4.807e-05   |Residual|: 3.637e-04   |deigs|: 7.707e-05  t[s]:   2050.67
	Linear fluid (dielectric constant: 78.4, screening length: 5.74355 Bohr) occupying 0.762761 of unit cell:	Completed after 4 iterations at t[s]:   2052.02
	FillingsUpdate:  mu: -0.244750400  nElectrons: 392.023269
	Linear fluid (dielectric constant: 78.4, screening length: 5.74355 Bohr) occupying 0.762749 of unit cell:	Completed after 9 iterations at t[s]:   2112.12
SCF: Cycle: 31   G: -1163.173482555894452   dG: +1.327e-05   |Residual|: 5.948e-04   |deigs|: 8.873e-05  t[s]:   2113.46
	Linear fluid (dielectric constant: 78.4, screening length: 5.74355 Bohr) occupying 0.762772 of unit cell:	Completed after 9 iterations at t[s]:   2115.24
	FillingsUpdate:  mu: -0.244750400  nElectrons: 391.977391
	Linear fluid (dielectric constant: 78.4, screening length: 5.74355 Bohr) occupying 0.762747 of unit cell:	Completed after 10 iterations at t[s]:   2175.77
SCF: Cycle: 32   G: -1163.173488247658952   dG: -5.692e-06   |Residual|: 4.993e-04   |deigs|: 1.064e-04  t[s]:   2176.94
	Linear fluid (dielectric constant: 78.4, screening length: 5.74355 Bohr) occupying 0.762778 of unit cell:	Completed after 9 iterations at t[s]:   2178.55
	FillingsUpdate:  mu: -0.244750400  nElectrons: 392.005602
	Linear fluid (dielectric constant: 78.4, screening length: 5.74355 Bohr) occupying 0.762748 of unit cell:	Completed after 7 iterations at t[s]:   2242.08
SCF: Cycle: 33   G: -1163.173496412533495   dG: -8.165e-06   |Residual|: 3.265e-04   |deigs|: 8.017e-05  t[s]:   2243.26
	Linear fluid (dielectric constant: 78.4, screening length: 5.74355 Bohr) occupying 0.762764 of unit cell:	Completed after 4 iterations at t[s]:   2244.35
	FillingsUpdate:  mu: -0.244750400  nElectrons: 391.963136
	Linear fluid (dielectric constant: 78.4, screening length: 5.74355 Bohr) occupying 0.762745 of unit cell:	Completed after 9 iterations at t[s]:   2305.93
SCF: Cycle: 34   G: -1163.173463406665860   dG: +3.301e-05   |Residual|: 8.450e-04   |deigs|: 8.127e-05  t[s]:   2307.36
	Linear fluid (dielectric constant: 78.4, screening length: 5.74355 Bohr) occupying 0.762771 of unit cell:	Completed after 10 iterations at t[s]:   2309.62
	FillingsUpdate:  mu: -0.244750400  nElectrons: 392.009762
	Linear fluid (dielectric constant: 78.4, screening length: 5.74355 Bohr) occupying 0.762748 of unit cell:	Completed after 8 iterations at t[s]:   2370.92
SCF: Cycle: 35   G: -1163.173494094368834   dG: -3.069e-05   |Residual|: 4.528e-04   |deigs|: 8.544e-05  t[s]:   2372.16
	Linear fluid (dielectric constant: 78.4, screening length: 5.74355 Bohr) occupying 0.762771 of unit cell:	Completed after 7 iterations at t[s]:   2373.75
	FillingsUpdate:  mu: -0.244750400  nElectrons: 391.960849
	Linear fluid (dielectric constant: 78.4, screening length: 5.74355 Bohr) occupying 0.762745 of unit cell:	Completed after 11 iterations at t[s]:   2434.75
SCF: Cycle: 36   G: -1163.173459635984273   dG: +3.446e-05   |Residual|: 8.797e-04   |deigs|: 1.249e-04  t[s]:   2435.96
	Linear fluid (dielectric constant: 78.4, screening length: 5.74355 Bohr) occupying 0.762769 of unit cell:	Completed after 10 iterations at t[s]:   2437.67
	FillingsUpdate:  mu: -0.244750400  nElectrons: 392.000456
	Linear fluid (dielectric constant: 78.4, screening length: 5.74355 Bohr) occupying 0.762747 of unit cell:	Completed after 3 iterations at t[s]:   2496.40
SCF: Cycle: 37   G: -1163.173497775393344   dG: -3.814e-05   |Residual|: 2.895e-04   |deigs|: 5.795e-05  t[s]:   2497.71
	Linear fluid (dielectric constant: 78.4, screening length: 5.74355 Bohr) occupying 0.762765 of unit cell:	Completed after 3 iterations at t[s]:   2498.86
	FillingsUpdate:  mu: -0.244750400  nElectrons: 391.996069
	Linear fluid (dielectric constant: 78.4, screening length: 5.74355 Bohr) occupying 0.762747 of unit cell:	Completed after 3 iterations at t[s]:   2559.40
SCF: Cycle: 38   G: -1163.173498676043891   dG: -9.007e-07   |Residual|: 1.777e-04   |deigs|: 4.824e-05  t[s]:   2560.58
	Linear fluid (dielectric constant: 78.4, screening length: 5.74355 Bohr) occupying 0.762764 of unit cell:	Completed after 4 iterations at t[s]:   2561.77
	FillingsUpdate:  mu: -0.244750400  nElectrons: 392.000920
	Linear fluid (dielectric constant: 78.4, screening length: 5.74355 Bohr) occupying 0.762747 of unit cell:	Completed after 3 iterations at t[s]:   2622.52
SCF: Cycle: 39   G: -1163.173498960955385   dG: -2.849e-07   |Residual|: 1.294e-04   |deigs|: 1.470e-05  t[s]:   2623.77
	Linear fluid (dielectric constant: 78.4, screening length: 5.74355 Bohr) occupying 0.762759 of unit cell:	Completed after 3 iterations at t[s]:   2625.04
	FillingsUpdate:  mu: -0.244750400  nElectrons: 391.985908
	Linear fluid (dielectric constant: 78.4, screening length: 5.74355 Bohr) occupying 0.762746 of unit cell:	Completed after 8 iterations at t[s]:   2685.10
SCF: Cycle: 40   G: -1163.173494721332418   dG: +4.240e-06   |Residual|: 3.068e-04   |deigs|: 5.570e-05  t[s]:   2686.20
	Linear fluid (dielectric constant: 78.4, screening length: 5.74355 Bohr) occupying 0.762756 of unit cell:	Completed after 8 iterations at t[s]:   2687.66
	FillingsUpdate:  mu: -0.244750400  nElectrons: 391.990456
	Linear fluid (dielectric constant: 78.4, screening length: 5.74355 Bohr) occupying 0.762746 of unit cell:	Completed after 7 iterations at t[s]:   2744.97
SCF: Cycle: 41   G: -1163.173496709420760   dG: -1.988e-06   |Residual|: 2.661e-04   |deigs|: 2.974e-05  t[s]:   2746.15
	Linear fluid (dielectric constant: 78.4, screening length: 5.74355 Bohr) occupying 0.762755 of unit cell:	Completed after 7 iterations at t[s]:   2747.54
	FillingsUpdate:  mu: -0.244750400  nElectrons: 391.993725
	Linear fluid (dielectric constant: 78.4, screening length: 5.74355 Bohr) occupying 0.762746 of unit cell:	Completed after 5 iterations at t[s]:   2805.88
SCF: Cycle: 42   G: -1163.173498127499670   dG: -1.418e-06   |Residual|: 2.027e-04   |deigs|: 1.231e-05  t[s]:   2807.08
	Linear fluid (dielectric constant: 78.4, screening length: 5.74355 Bohr) occupying 0.762754 of unit cell:	Completed after 3 iterations at t[s]:   2808.19
	FillingsUpdate:  mu: -0.244750400  nElectrons: 392.020101
	Linear fluid (dielectric constant: 78.4, screening length: 5.74355 Bohr) occupying 0.762748 of unit cell:	Completed after 8 iterations at t[s]:   2868.39
SCF: Cycle: 43   G: -1163.173487593551727   dG: +1.053e-05   |Residual|: 4.644e-04   |deigs|: 3.619e-05  t[s]:   2869.59
	Linear fluid (dielectric constant: 78.4, screening length: 5.74355 Bohr) occupying 0.762755 of unit cell:	Completed after 9 iterations at t[s]:   2871.38
	FillingsUpdate:  mu: -0.244750400  nElectrons: 391.976012
	Linear fluid (dielectric constant: 78.4, screening length: 5.74355 Bohr) occupying 0.762745 of unit cell:	Completed after 9 iterations at t[s]:   2929.81
SCF: Cycle: 44   G: -1163.173486388880519   dG: +1.205e-06   |Residual|: 5.041e-04   |deigs|: 6.275e-05  t[s]:   2931.13
	Linear fluid (dielectric constant: 78.4, screening length: 5.74355 Bohr) occupying 0.762756 of unit cell:	Completed after 9 iterations at t[s]:   2932.80
	FillingsUpdate:  mu: -0.244750400  nElectrons: 391.988206
	Linear fluid (dielectric constant: 78.4, screening length: 5.74355 Bohr) occupying 0.762746 of unit cell:	Completed after 9 iterations at t[s]:   2993.05
SCF: Cycle: 45   G: -1163.173494367264993   dG: -7.978e-06   |Residual|: 3.682e-04   |deigs|: 2.136e-05  t[s]:   2994.39
	Linear fluid (dielectric constant: 78.4, screening length: 5.74355 Bohr) occupying 0.762753 of unit cell:	Completed after 8 iterations at t[s]:   2996.24
	FillingsUpdate:  mu: -0.244750400  nElectrons: 391.996529
	Linear fluid (dielectric constant: 78.4, screening length: 5.74355 Bohr) occupying 0.762746 of unit cell:	Completed after 4 iterations at t[s]:   3053.25
SCF: Cycle: 46   G: -1163.173497317048714   dG: -2.950e-06   |Residual|: 2.873e-04   |deigs|: 2.212e-05  t[s]:   3054.39
	Linear fluid (dielectric constant: 78.4, screening length: 5.74355 Bohr) occupying 0.762755 of unit cell:	Completed after 4 iterations at t[s]:   3055.48
	FillingsUpdate:  mu: -0.244750400  nElectrons: 391.999720
	Linear fluid (dielectric constant: 78.4, screening length: 5.74355 Bohr) occupying 0.762747 of unit cell:	Completed after 3 iterations at t[s]:   3116.32
SCF: Cycle: 47   G: -1163.173499242915113   dG: -1.926e-06   |Residual|: 7.626e-05   |deigs|: 1.335e-05  t[s]:   3117.55
	Linear fluid (dielectric constant: 78.4, screening length: 5.74355 Bohr) occupying 0.762755 of unit cell:	Completed after 1 iterations at t[s]:   3118.39
	FillingsUpdate:  mu: -0.244750400  nElectrons: 391.992378
	Linear fluid (dielectric constant: 78.4, screening length: 5.74355 Bohr) occupying 0.762746 of unit cell:	Completed after 6 iterations at t[s]:   3179.39
SCF: Cycle: 48   G: -1163.173493161053557   dG: +6.082e-06   |Residual|: 4.786e-04   |deigs|: 2.715e-05  t[s]:   3180.73
	Linear fluid (dielectric constant: 78.4, screening length: 5.74355 Bohr) occupying 0.762754 of unit cell:	Completed after 4 iterations at t[s]:   3182.07
	FillingsUpdate:  mu: -0.244750400  nElectrons: 392.026611
	Linear fluid (dielectric constant: 78.4, screening length: 5.74355 Bohr) occupying 0.762749 of unit cell:	Completed after 8 iterations at t[s]:   3243.28
SCF: Cycle: 49   G: -1163.173480114223594   dG: +1.305e-05   |Residual|: 6.008e-04   |deigs|: 5.033e-05  t[s]:   3244.36
	Linear fluid (dielectric constant: 78.4, screening length: 5.74355 Bohr) occupying 0.762751 of unit cell:	Completed after 9 iterations at t[s]:   3246.06
	FillingsUpdate:  mu: -0.244750400  nElectrons: 391.979336
	Linear fluid (dielectric constant: 78.4, screening length: 5.74355 Bohr) occupying 0.762745 of unit cell:	Completed after 9 iterations at t[s]:   3307.51
SCF: Cycle: 50   G: -1163.173490156664002   dG: -1.004e-05   |Residual|: 4.225e-04   |deigs|: 7.551e-05  t[s]:   3309.26
	Linear fluid (dielectric constant: 78.4, screening length: 5.74355 Bohr) occupying 0.762752 of unit cell:	Completed after 9 iterations at t[s]:   3311.62
	FillingsUpdate:  mu: -0.244750400  nElectrons: 391.987912
	Linear fluid (dielectric constant: 78.4, screening length: 5.74355 Bohr) occupying 0.762745 of unit cell:	Completed after 8 iterations at t[s]:   3366.04
SCF: Cycle: 51   G: -1163.173494191155669   dG: -4.034e-06   |Residual|: 3.858e-04   |deigs|: 1.856e-05  t[s]:   3367.20
	Linear fluid (dielectric constant: 78.4, screening length: 5.74355 Bohr) occupying 0.762754 of unit cell:	Completed after 7 iterations at t[s]:   3368.87
	FillingsUpdate:  mu: -0.244750400  nElectrons: 392.003159
	Linear fluid (dielectric constant: 78.4, screening length: 5.74355 Bohr) occupying 0.762747 of unit cell:	Completed after 4 iterations at t[s]:   3427.84
SCF: Cycle: 52   G: -1163.173497322656203   dG: -3.132e-06   |Residual|: 2.914e-04   |deigs|: 4.761e-05  t[s]:   3429.03
	Linear fluid (dielectric constant: 78.4, screening length: 5.74355 Bohr) occupying 0.762753 of unit cell:	Completed after 4 iterations at t[s]:   3430.12
	FillingsUpdate:  mu: -0.244750400  nElectrons: 391.977716
	Linear fluid (dielectric constant: 78.4, screening length: 5.74355 Bohr) occupying 0.762745 of unit cell:	Completed after 9 iterations at t[s]:   3492.66
SCF: Cycle: 53   G: -1163.173487150854498   dG: +1.017e-05   |Residual|: 4.966e-04   |deigs|: 4.440e-05  t[s]:   3494.07
	Linear fluid (dielectric constant: 78.4, screening length: 5.74355 Bohr) occupying 0.762754 of unit cell:	Completed after 8 iterations at t[s]:   3495.78
	FillingsUpdate:  mu: -0.244750400  nElectrons: 391.987396
	Linear fluid (dielectric constant: 78.4, screening length: 5.74355 Bohr) occupying 0.762745 of unit cell:	Completed after 8 iterations at t[s]:   3548.57
SCF: Cycle: 54   G: -1163.173494806714871   dG: -7.656e-06   |Residual|: 3.348e-04   |deigs|: 2.016e-05  t[s]:   3549.91
	Linear fluid (dielectric constant: 78.4, screening length: 5.74355 Bohr) occupying 0.762751 of unit cell:	Completed after 9 iterations at t[s]:   3551.65
	FillingsUpdate:  mu: -0.244750400  nElectrons: 391.982966
	Linear fluid (dielectric constant: 78.4, screening length: 5.74355 Bohr) occupying 0.762745 of unit cell:	Completed after 8 iterations at t[s]:   3603.27
SCF: Cycle: 55   G: -1163.173492052051643   dG: +2.755e-06   |Residual|: 3.905e-04   |deigs|: 1.377e-05  t[s]:   3604.52
	Linear fluid (dielectric constant: 78.4, screening length: 5.74355 Bohr) occupying 0.762745 of unit cell:	Completed after 9 iterations at t[s]:   3606.33
	FillingsUpdate:  mu: -0.244750400  nElectrons: 391.974984
	Linear fluid (dielectric constant: 78.4, screening length: 5.74355 Bohr) occupying 0.762744 of unit cell:	Completed after 9 iterations at t[s]:   3666.17
SCF: Cycle: 56   G: -1163.173482870518001   dG: +9.182e-06   |Residual|: 5.901e-04   |deigs|: 3.062e-05  t[s]:   3667.51
	Linear fluid (dielectric constant: 78.4, screening length: 5.74355 Bohr) occupying 0.762744 of unit cell:	Completed after 9 iterations at t[s]:   3669.24
	FillingsUpdate:  mu: -0.244750400  nElectrons: 391.975751
	Linear fluid (dielectric constant: 78.4, screening length: 5.74355 Bohr) occupying 0.762744 of unit cell:	Completed after 10 iterations at t[s]:   3719.54
SCF: Cycle: 57   G: -1163.173482014643241   dG: +8.559e-07   |Residual|: 6.292e-04   |deigs|: 1.541e-05  t[s]:   3720.71
	Linear fluid (dielectric constant: 78.4, screening length: 5.74355 Bohr) occupying 0.762745 of unit cell:	Completed after 9 iterations at t[s]:   3722.42
	FillingsUpdate:  mu: -0.244750400  nElectrons: 391.982191
	Linear fluid (dielectric constant: 78.4, screening length: 5.74355 Bohr) occupying 0.762744 of unit cell:	Completed after 9 iterations at t[s]:   3784.49
SCF: Cycle: 58   G: -1163.173487600494582   dG: -5.586e-06   |Residual|: 5.629e-04   |deigs|: 1.151e-05  t[s]:   3785.72
	Linear fluid (dielectric constant: 78.4, screening length: 5.74355 Bohr) occupying 0.762750 of unit cell:	Completed after 9 iterations at t[s]:   3787.35
	FillingsUpdate:  mu: -0.244750400  nElectrons: 392.002779
	Linear fluid (dielectric constant: 78.4, screening length: 5.74355 Bohr) occupying 0.762746 of unit cell:	Completed after 4 iterations at t[s]:   3844.90
SCF: Cycle: 59   G: -1163.173496082849169   dG: -8.482e-06   |Residual|: 3.578e-04   |deigs|: 3.146e-05  t[s]:   3846.22
	Linear fluid (dielectric constant: 78.4, screening length: 5.74355 Bohr) occupying 0.762755 of unit cell:	Completed after 4 iterations at t[s]:   3847.33
	FillingsUpdate:  mu: -0.244750400  nElectrons: 391.978112
	Linear fluid (dielectric constant: 78.4, screening length: 5.74355 Bohr) occupying 0.762745 of unit cell:	Completed after 8 iterations at t[s]:   3910.78
SCF: Cycle: 60   G: -1163.173487284148905   dG: +8.799e-06   |Residual|: 4.942e-04   |deigs|: 5.057e-05  t[s]:   3911.88
	Linear fluid (dielectric constant: 78.4, screening length: 5.74355 Bohr) occupying 0.762755 of unit cell:	Completed after 9 iterations at t[s]:   3913.45
	FillingsUpdate:  mu: -0.244750400  nElectrons: 391.990667
	Linear fluid (dielectric constant: 78.4, screening length: 5.74355 Bohr) occupying 0.762746 of unit cell:	Completed after 7 iterations at t[s]:   3965.55
SCF: Cycle: 61   G: -1163.173496681082270   dG: -9.397e-06   |Residual|: 2.657e-04   |deigs|: 1.935e-05  t[s]:   3966.72
	Linear fluid (dielectric constant: 78.4, screening length: 5.74355 Bohr) occupying 0.762754 of unit cell:	Completed after 7 iterations at t[s]:   3968.08
	FillingsUpdate:  mu: -0.244750400  nElectrons: 391.997015
	Linear fluid (dielectric constant: 78.4, screening length: 5.74355 Bohr) occupying 0.762746 of unit cell:	Completed after 3 iterations at t[s]:   4021.09
SCF: Cycle: 62   G: -1163.173498856714332   dG: -2.176e-06   |Residual|: 1.537e-04   |deigs|: 1.501e-05  t[s]:   4022.43
	Linear fluid (dielectric constant: 78.4, screening length: 5.74355 Bohr) occupying 0.762750 of unit cell:	Completed after 3 iterations at t[s]:   4023.81
	FillingsUpdate:  mu: -0.244750400  nElectrons: 392.002367
	Linear fluid (dielectric constant: 78.4, screening length: 5.74355 Bohr) occupying 0.762746 of unit cell:	Completed after 3 iterations at t[s]:   4084.47
SCF: Cycle: 63   G: -1163.173498706831197   dG: +1.499e-07   |Residual|: 1.801e-04   |deigs|: 2.001e-05  t[s]:   4085.60
	Linear fluid (dielectric constant: 78.4, screening length: 5.74355 Bohr) occupying 0.762751 of unit cell:	Completed after 3 iterations at t[s]:   4086.62
	FillingsUpdate:  mu: -0.244750400  nElectrons: 391.974865
	Linear fluid (dielectric constant: 78.4, screening length: 5.74355 Bohr) occupying 0.762745 of unit cell:	Completed after 8 iterations at t[s]:   4147.72
SCF: Cycle: 64   G: -1163.173483504254591   dG: +1.520e-05   |Residual|: 5.657e-04   |deigs|: 3.947e-05  t[s]:   4149.05
	Linear fluid (dielectric constant: 78.4, screening length: 5.74355 Bohr) occupying 0.762752 of unit cell:	Completed after 9 iterations at t[s]:   4150.84
	FillingsUpdate:  mu: -0.244750400  nElectrons: 391.994907
	Linear fluid (dielectric constant: 78.4, screening length: 5.74355 Bohr) occupying 0.762746 of unit cell:	Completed after 4 iterations at t[s]:   4203.43
SCF: Cycle: 65   G: -1163.173497643859037   dG: -1.414e-05   |Residual|: 2.847e-04   |deigs|: 3.241e-05  t[s]:   4204.62
	Linear fluid (dielectric constant: 78.4, screening length: 5.74355 Bohr) occupying 0.762751 of unit cell:	Completed after 3 iterations at t[s]:   4205.73
	FillingsUpdate:  mu: -0.244750400  nElectrons: 392.014663
	Linear fluid (dielectric constant: 78.4, screening length: 5.74355 Bohr) occupying 0.762748 of unit cell:	Completed after 7 iterations at t[s]:   4260.45
SCF: Cycle: 66   G: -1163.173493039694449   dG: +4.604e-06   |Residual|: 3.397e-04   |deigs|: 2.782e-05  t[s]:   4262.02
	Linear fluid (dielectric constant: 78.4, screening length: 5.74355 Bohr) occupying 0.762751 of unit cell:	Completed after 8 iterations at t[s]:   4264.04
	FillingsUpdate:  mu: -0.244750400  nElectrons: 391.966001
	Linear fluid (dielectric constant: 78.4, screening length: 5.74355 Bohr) occupying 0.762744 of unit cell:	Completed after 9 iterations at t[s]:   4325.49
SCF: Cycle: 67   G: -1163.173472409922624   dG: +2.063e-05   |Residual|: 7.328e-04   |deigs|: 6.949e-05  t[s]:   4326.69
	Linear fluid (dielectric constant: 78.4, screening length: 5.74355 Bohr) occupying 0.762752 of unit cell:	Completed after 10 iterations at t[s]:   4328.53
	FillingsUpdate:  mu: -0.244750400  nElectrons: 391.984207
	Linear fluid (dielectric constant: 78.4, screening length: 5.74355 Bohr) occupying 0.762745 of unit cell:	Completed after 9 iterations at t[s]:   4376.03
SCF: Cycle: 68   G: -1163.173491915299337   dG: -1.951e-05   |Residual|: 4.278e-04   |deigs|: 2.975e-05  t[s]:   4377.21
	Linear fluid (dielectric constant: 78.4, screening length: 5.74355 Bohr) occupying 0.762752 of unit cell:	Completed after 9 iterations at t[s]:   4378.99
	FillingsUpdate:  mu: -0.244750400  nElectrons: 391.986709
	Linear fluid (dielectric constant: 78.4, screening length: 5.74355 Bohr) occupying 0.762745 of unit cell:	Completed after 9 iterations at t[s]:   4429.76
SCF: Cycle: 69   G: -1163.173493533310420   dG: -1.618e-06   |Residual|: 3.927e-04   |deigs|: 1.061e-05  t[s]:   4431.09
	Linear fluid (dielectric constant: 78.4, screening length: 5.74355 Bohr) occupying 0.762753 of unit cell:	Completed after 9 iterations at t[s]:   4432.87
	FillingsUpdate:  mu: -0.244750400  nElectrons: 391.992554
	Linear fluid (dielectric constant: 78.4, screening length: 5.74355 Bohr) occupying 0.762746 of unit cell:	Completed after 6 iterations at t[s]:   4492.27
SCF: Cycle: 70   G: -1163.173496593308073   dG: -3.060e-06   |Residual|: 3.022e-04   |deigs|: 1.418e-05  t[s]:   4493.64
	Linear fluid (dielectric constant: 78.4, screening length: 5.74355 Bohr) occupying 0.762754 of unit cell:	Completed after 4 iterations at t[s]:   4494.73
	FillingsUpdate:  mu: -0.244750400  nElectrons: 392.021964
	Linear fluid (dielectric constant: 78.4, screening length: 5.74355 Bohr) occupying 0.762748 of unit cell:	Completed after 8 iterations at t[s]:   4555.48
SCF: Cycle: 71   G: -1163.173485762731161   dG: +1.083e-05   |Residual|: 5.030e-04   |deigs|: 4.202e-05  t[s]:   4556.70
	Linear fluid (dielectric constant: 78.4, screening length: 5.74355 Bohr) occupying 0.762753 of unit cell:	Completed after 9 iterations at t[s]:   4558.35
	FillingsUpdate:  mu: -0.244750400  nElectrons: 391.973550
	Linear fluid (dielectric constant: 78.4, screening length: 5.74355 Bohr) occupying 0.762745 of unit cell:	Completed after 9 iterations at t[s]:   4611.60
SCF: Cycle: 72   G: -1163.173483998048141   dG: +1.765e-06   |Residual|: 5.506e-04   |deigs|: 7.025e-05  t[s]:   4612.92
	Linear fluid (dielectric constant: 78.4, screening length: 5.74355 Bohr) occupying 0.762752 of unit cell:	Completed after 9 iterations at t[s]:   4615.00
	FillingsUpdate:  mu: -0.244750400  nElectrons: 391.983373
	Linear fluid (dielectric constant: 78.4, screening length: 5.74355 Bohr) occupying 0.762745 of unit cell:	Completed after 9 iterations at t[s]:   4675.82
SCF: Cycle: 73   G: -1163.173491161895072   dG: -7.164e-06   |Residual|: 4.411e-04   |deigs|: 2.003e-05  t[s]:   4677.16
	Linear fluid (dielectric constant: 78.4, screening length: 5.74355 Bohr) occupying 0.762751 of unit cell:	Completed after 9 iterations at t[s]:   4679.03
	FillingsUpdate:  mu: -0.244750400  nElectrons: 391.987939
	Linear fluid (dielectric constant: 78.4, screening length: 5.74355 Bohr) occupying 0.762745 of unit cell:	Completed after 9 iterations at t[s]:   4724.53
SCF: Cycle: 74   G: -1163.173494478187877   dG: -3.316e-06   |Residual|: 3.581e-04   |deigs|: 6.930e-06  t[s]:   4725.67
	Linear fluid (dielectric constant: 78.4, screening length: 5.74355 Bohr) occupying 0.762753 of unit cell:	Completed after 8 iterations at t[s]:   4727.28
	FillingsUpdate:  mu: -0.244750400  nElectrons: 392.007640
	Linear fluid (dielectric constant: 78.4, screening length: 5.74355 Bohr) occupying 0.762747 of unit cell:	Completed after 7 iterations at t[s]:   4788.12
SCF: Cycle: 75   G: -1163.173496063971470   dG: -1.586e-06   |Residual|: 3.323e-04   |deigs|: 3.217e-05  t[s]:   4789.50
	Linear fluid (dielectric constant: 78.4, screening length: 5.74355 Bohr) occupying 0.762754 of unit cell:	Completed after 4 iterations at t[s]:   4790.73
	FillingsUpdate:  mu: -0.244750400  nElectrons: 391.943337
	Linear fluid (dielectric constant: 78.4, screening length: 5.74355 Bohr) occupying 0.762742 of unit cell:	Completed after 10 iterations at t[s]:   4852.68
SCF: Cycle: 76   G: -1163.173416105741808   dG: +7.996e-05   |Residual|: 1.268e-03   |deigs|: 8.977e-05  t[s]:   4854.02
	Linear fluid (dielectric constant: 78.4, screening length: 5.74355 Bohr) occupying 0.762757 of unit cell:	Completed after 11 iterations at t[s]:   4855.91
	FillingsUpdate:  mu: -0.244750400  nElectrons: 391.997668
	Linear fluid (dielectric constant: 78.4, screening length: 5.74355 Bohr) occupying 0.762746 of unit cell:	Completed after 3 iterations at t[s]:   4915.53
SCF: Cycle: 77   G: -1163.173498210258458   dG: -8.210e-05   |Residual|: 2.552e-04   |deigs|: 7.843e-05  t[s]:   4916.91
	Linear fluid (dielectric constant: 78.4, screening length: 5.74355 Bohr) occupying 0.762755 of unit cell:	Completed after 3 iterations at t[s]:   4918.03
	FillingsUpdate:  mu: -0.244750400  nElectrons: 392.002019
	Linear fluid (dielectric constant: 78.4, screening length: 5.74355 Bohr) occupying 0.762747 of unit cell:	Completed after 3 iterations at t[s]:   4978.78
SCF: Cycle: 78   G: -1163.173498730316624   dG: -5.201e-07   |Residual|: 1.660e-04   |deigs|: 5.102e-05  t[s]:   4980.07
	Linear fluid (dielectric constant: 78.4, screening length: 5.74355 Bohr) occupying 0.762755 of unit cell:	Completed after 3 iterations at t[s]:   4981.12
	FillingsUpdate:  mu: -0.244750400  nElectrons: 391.973590
	Linear fluid (dielectric constant: 78.4, screening length: 5.74355 Bohr) occupying 0.762745 of unit cell:	Completed after 8 iterations at t[s]:   5041.49
SCF: Cycle: 79   G: -1163.173482746018180   dG: +1.598e-05   |Residual|: 5.657e-04   |deigs|: 3.969e-05  t[s]:   5042.94
	Linear fluid (dielectric constant: 78.4, screening length: 5.74355 Bohr) occupying 0.762754 of unit cell:	Completed after 9 iterations at t[s]:   5044.67
	FillingsUpdate:  mu: -0.244750400  nElectrons: 391.974079
	Linear fluid (dielectric constant: 78.4, screening length: 5.74355 Bohr) occupying 0.762745 of unit cell:	Completed after 9 iterations at t[s]:   5102.13
SCF: Cycle: 80   G: -1163.173482511066823   dG: +2.350e-07   |Residual|: 5.783e-04   |deigs|: 4.526e-05  t[s]:   5103.33
	Linear fluid (dielectric constant: 78.4, screening length: 5.74355 Bohr) occupying 0.762754 of unit cell:	Completed after 9 iterations at t[s]:   5105.28
	FillingsUpdate:  mu: -0.244750400  nElectrons: 391.979833
	Linear fluid (dielectric constant: 78.4, screening length: 5.74355 Bohr) occupying 0.762745 of unit cell:	Completed after 9 iterations at t[s]:   5166.25
SCF: Cycle: 81   G: -1163.173488547671695   dG: -6.037e-06   |Residual|: 4.743e-04   |deigs|: 3.864e-05  t[s]:   5167.44
	Linear fluid (dielectric constant: 78.4, screening length: 5.74355 Bohr) occupying 0.762755 of unit cell:	Completed after 9 iterations at t[s]:   5169.18
	FillingsUpdate:  mu: -0.244750400  nElectrons: 392.000407
	Linear fluid (dielectric constant: 78.4, screening length: 5.74355 Bohr) occupying 0.762747 of unit cell:	Completed after 3 iterations at t[s]:   5229.09
SCF: Cycle: 82   G: -1163.173497652291644   dG: -9.105e-06   |Residual|: 2.917e-04   |deigs|: 6.513e-05  t[s]:   5230.44
	Linear fluid (dielectric constant: 78.4, screening length: 5.74355 Bohr) occupying 0.762755 of unit cell:	Completed after 3 iterations at t[s]:   5231.45
	FillingsUpdate:  mu: -0.244750400  nElectrons: 391.997606
	Linear fluid (dielectric constant: 78.4, screening length: 5.74355 Bohr) occupying 0.762746 of unit cell:	Completed after 3 iterations at t[s]:   5283.97
SCF: Cycle: 83   G: -1163.173498924923479   dG: -1.273e-06   |Residual|: 1.478e-04   |deigs|: 1.322e-05  t[s]:   5285.37
	Linear fluid (dielectric constant: 78.4, screening length: 5.74355 Bohr) occupying 0.762754 of unit cell:	Completed after 3 iterations at t[s]:   5286.37
	FillingsUpdate:  mu: -0.244750400  nElectrons: 392.000955
	Linear fluid (dielectric constant: 78.4, screening length: 5.74355 Bohr) occupying 0.762747 of unit cell:	Completed after 3 iterations at t[s]:   5346.11
SCF: Cycle: 84   G: -1163.173498828491120   dG: +9.643e-08   |Residual|: 1.663e-04   |deigs|: 1.159e-05  t[s]:   5347.40
	Linear fluid (dielectric constant: 78.4, screening length: 5.74355 Bohr) occupying 0.762754 of unit cell:	Completed after 3 iterations at t[s]:   5348.40
	FillingsUpdate:  mu: -0.244750400  nElectrons: 391.988227
	Linear fluid (dielectric constant: 78.4, screening length: 5.74355 Bohr) occupying 0.762746 of unit cell:	Completed after 6 iterations at t[s]:   5407.89
SCF: Cycle: 85   G: -1163.173495833857032   dG: +2.995e-06   |Residual|: 2.904e-04   |deigs|: 1.893e-05  t[s]:   5409.09
	Linear fluid (dielectric constant: 78.4, screening length: 5.74355 Bohr) occupying 0.762754 of unit cell:	Completed after 7 iterations at t[s]:   5410.56
	FillingsUpdate:  mu: -0.244750400  nElectrons: 392.003419
	Linear fluid (dielectric constant: 78.4, screening length: 5.74355 Bohr) occupying 0.762747 of unit cell:	Completed after 4 iterations at t[s]:   5461.41
SCF: Cycle: 86   G: -1163.173498567473644   dG: -2.734e-06   |Residual|: 2.107e-04   |deigs|: 2.355e-05  t[s]:   5462.57
	Linear fluid (dielectric constant: 78.4, screening length: 5.74355 Bohr) occupying 0.762752 of unit cell:	Completed after 2 iterations at t[s]:   5463.47
	FillingsUpdate:  mu: -0.244750400  nElectrons: 391.981519
	Linear fluid (dielectric constant: 78.4, screening length: 5.74355 Bohr) occupying 0.762745 of unit cell:	Completed after 8 iterations at t[s]:   5516.88
SCF: Cycle: 87   G: -1163.173490251789417   dG: +8.316e-06   |Residual|: 4.553e-04   |deigs|: 3.576e-05  t[s]:   5518.14
	Linear fluid (dielectric constant: 78.4, screening length: 5.74355 Bohr) occupying 0.762754 of unit cell:	Completed after 9 iterations at t[s]:   5519.75
	FillingsUpdate:  mu: -0.244750400  nElectrons: 392.000102
	Linear fluid (dielectric constant: 78.4, screening length: 5.74355 Bohr) occupying 0.762746 of unit cell:	Completed after 3 iterations at t[s]:   5570.37
SCF: Cycle: 88   G: -1163.173498274800295   dG: -8.023e-06   |Residual|: 2.352e-04   |deigs|: 2.824e-05  t[s]:   5571.55
	Linear fluid (dielectric constant: 78.4, screening length: 5.74355 Bohr) occupying 0.762753 of unit cell:	Completed after 3 iterations at t[s]:   5572.55
	FillingsUpdate:  mu: -0.244750400  nElectrons: 391.994566
	Linear fluid (dielectric constant: 78.4, screening length: 5.74355 Bohr) occupying 0.762746 of unit cell:	Completed after 4 iterations at t[s]:   5610.83
SCF: Cycle: 89   G: -1163.173498517237704   dG: -2.424e-07   |Residual|: 1.727e-04   |deigs|: 1.300e-05  t[s]:   5611.96
	Linear fluid (dielectric constant: 78.4, screening length: 5.74355 Bohr) occupying 0.762753 of unit cell:	Completed after 3 iterations at t[s]:   5612.94
	FillingsUpdate:  mu: -0.244750400  nElectrons: 392.010534
	Linear fluid (dielectric constant: 78.4, screening length: 5.74355 Bohr) occupying 0.762747 of unit cell:	Completed after 6 iterations at t[s]:   5674.46
SCF: Cycle: 90   G: -1163.173495231448669   dG: +3.286e-06   |Residual|: 3.010e-04   |deigs|: 3.520e-05  t[s]:   5675.91
	Linear fluid (dielectric constant: 78.4, screening length: 5.74355 Bohr) occupying 0.762752 of unit cell:	Completed after 7 iterations at t[s]:   5677.43
	FillingsUpdate:  mu: -0.244750400  nElectrons: 391.966451
	Linear fluid (dielectric constant: 78.4, screening length: 5.74355 Bohr) occupying 0.762744 of unit cell:	Completed after 10 iterations at t[s]:   5738.25
SCF: Cycle: 91   G: -1163.173471965166300   dG: +2.327e-05   |Residual|: 7.327e-04   |deigs|: 6.278e-05  t[s]:   5739.34
	Linear fluid (dielectric constant: 78.4, screening length: 5.74355 Bohr) occupying 0.762752 of unit cell:	Completed after 10 iterations at t[s]:   5741.04
	FillingsUpdate:  mu: -0.244750400  nElectrons: 391.989063
	Linear fluid (dielectric constant: 78.4, screening length: 5.74355 Bohr) occupying 0.762745 of unit cell:	Completed after 9 iterations at t[s]:   5781.77
SCF: Cycle: 92   G: -1163.173494910088721   dG: -2.294e-05   |Residual|: 3.469e-04   |deigs|: 3.704e-05  t[s]:   5782.92
	Linear fluid (dielectric constant: 78.4, screening length: 5.74355 Bohr) occupying 0.762752 of unit cell:	Completed after 8 iterations at t[s]:   5784.66
	FillingsUpdate:  mu: -0.244750400  nElectrons: 392.000983
	Linear fluid (dielectric constant: 78.4, screening length: 5.74355 Bohr) occupying 0.762746 of unit cell:	Completed after 4 iterations at t[s]:   5824.49
SCF: Cycle: 93   G: -1163.173497839144147   dG: -2.929e-06   |Residual|: 2.472e-04   |deigs|: 1.672e-05  t[s]:   5825.71
	Linear fluid (dielectric constant: 78.4, screening length: 5.74355 Bohr) occupying 0.762752 of unit cell:	Completed after 3 iterations at t[s]:   5826.85
	FillingsUpdate:  mu: -0.244750400  nElectrons: 391.983381
	Linear fluid (dielectric constant: 78.4, screening length: 5.74355 Bohr) occupying 0.762745 of unit cell:	Completed after 9 iterations at t[s]:   5875.62
SCF: Cycle: 94   G: -1163.173492916560235   dG: +4.923e-06   |Residual|: 3.595e-04   |deigs|: 2.756e-05  t[s]:   5877.01
	Linear fluid (dielectric constant: 78.4, screening length: 5.74355 Bohr) occupying 0.762752 of unit cell:	Completed after 8 iterations at t[s]:   5878.75
	FillingsUpdate:  mu: -0.244750400  nElectrons: 391.987193
	Linear fluid (dielectric constant: 78.4, screening length: 5.74355 Bohr) occupying 0.762745 of unit cell:	Completed after 9 iterations at t[s]:   5919.16
SCF: Cycle: 95   G: -1163.173494822466182   dG: -1.906e-06   |Residual|: 3.225e-04   |deigs|: 8.000e-06  t[s]:   5920.33
	Linear fluid (dielectric constant: 78.4, screening length: 5.74355 Bohr) occupying 0.762752 of unit cell:	Completed after 7 iterations at t[s]:   5922.02
	FillingsUpdate:  mu: -0.244750400  nElectrons: 391.997648
	Linear fluid (dielectric constant: 78.4, screening length: 5.74355 Bohr) occupying 0.762746 of unit cell:	Completed after 4 iterations at t[s]:   5967.88
SCF: Cycle: 96   G: -1163.173498074977715   dG: -3.253e-06   |Residual|: 2.348e-04   |deigs|: 1.601e-05  t[s]:   5969.12
	Linear fluid (dielectric constant: 78.4, screening length: 5.74355 Bohr) occupying 0.762752 of unit cell:	Completed after 3 iterations at t[s]:   5970.14
	FillingsUpdate:  mu: -0.244750400  nElectrons: 392.003401
	Linear fluid (dielectric constant: 78.4, screening length: 5.74355 Bohr) occupying 0.762747 of unit cell:	Completed after 4 iterations at t[s]:   6022.87
SCF: Cycle: 97   G: -1163.173498147527880   dG: -7.255e-08   |Residual|: 2.149e-04   |deigs|: 1.838e-05  t[s]:   6024.14
	Linear fluid (dielectric constant: 78.4, screening length: 5.74355 Bohr) occupying 0.762752 of unit cell:	Completed after 3 iterations at t[s]:   6025.40
	FillingsUpdate:  mu: -0.244750400  nElectrons: 391.966961
	Linear fluid (dielectric constant: 78.4, screening length: 5.74355 Bohr) occupying 0.762744 of unit cell:	Completed after 10 iterations at t[s]:   6086.75
SCF: Cycle: 98   G: -1163.173472563206133   dG: +2.558e-05   |Residual|: 7.139e-04   |deigs|: 5.540e-05  t[s]:   6087.87
	Linear fluid (dielectric constant: 78.4, screening length: 5.74355 Bohr) occupying 0.762752 of unit cell:	Completed after 9 iterations at t[s]:   6089.51
	FillingsUpdate:  mu: -0.244750400  nElectrons: 391.983724
	Linear fluid (dielectric constant: 78.4, screening length: 5.74355 Bohr) occupying 0.762745 of unit cell:	Completed after 9 iterations at t[s]:   6129.38
SCF: Cycle: 99   G: -1163.173491730712612   dG: -1.917e-05   |Residual|: 4.127e-04   |deigs|: 2.583e-05  t[s]:   6130.59
	Linear fluid (dielectric constant: 78.4, screening length: 5.74355 Bohr) occupying 0.762752 of unit cell:	Completed after 9 iterations at t[s]:   6132.44
	FillingsUpdate:  mu: -0.244750400  nElectrons: 391.986692
	Linear fluid (dielectric constant: 78.4, screening length: 5.74355 Bohr) occupying 0.762745 of unit cell:	Completed after 8 iterations at t[s]:   6172.08
SCF: Cycle: 100   G: -1163.173494739594616   dG: -3.009e-06   |Residual|: 3.142e-04   |deigs|: 4.862e-06  t[s]:   6173.30
	Linear fluid (dielectric constant: 78.4, screening length: 5.74355 Bohr) occupying 0.762752 of unit cell:	Completed after 7 iterations at t[s]:   6174.86
	FillingsUpdate:  mu: -0.244750400  nElectrons: 391.996599
	Linear fluid (dielectric constant: 78.4, screening length: 5.74355 Bohr) occupying 0.762746 of unit cell:	Completed after 4 iterations at t[s]:   6226.50
SCF: Cycle: 101   G: -1163.173497753861739   dG: -3.014e-06   |Residual|: 2.611e-04   |deigs|: 1.933e-05  t[s]:   6227.60
	Linear fluid (dielectric constant: 78.4, screening length: 5.74355 Bohr) occupying 0.762751 of unit cell:	Completed after 3 iterations at t[s]:   6228.59
	FillingsUpdate:  mu: -0.244750400  nElectrons: 392.009535
	Linear fluid (dielectric constant: 78.4, screening length: 5.74355 Bohr) occupying 0.762747 of unit cell:	Completed after 7 iterations at t[s]:   6288.53
SCF: Cycle: 102   G: -1163.173495709608005   dG: +2.044e-06   |Residual|: 2.946e-04   |deigs|: 3.058e-05  t[s]:   6289.84
	Linear fluid (dielectric constant: 78.4, screening length: 5.74355 Bohr) occupying 0.762750 of unit cell:	Completed after 7 iterations at t[s]:   6291.30
	FillingsUpdate:  mu: -0.244750400  nElectrons: 391.965524
	Linear fluid (dielectric constant: 78.4, screening length: 5.74355 Bohr) occupying 0.762744 of unit cell:	Completed after 10 iterations at t[s]:   6343.88
SCF: Cycle: 103   G: -1163.173472042382627   dG: +2.367e-05   |Residual|: 7.308e-04   |deigs|: 6.227e-05  t[s]:   6345.14
	Linear fluid (dielectric constant: 78.4, screening length: 5.74355 Bohr) occupying 0.762751 of unit cell:	Completed after 10 iterations at t[s]:   6347.16
	FillingsUpdate:  mu: -0.244750400  nElectrons: 391.984553
	Linear fluid (dielectric constant: 78.4, screening length: 5.74355 Bohr) occupying 0.762745 of unit cell:	Completed after 9 iterations at t[s]:   6387.55
SCF: Cycle: 104   G: -1163.173493356874360   dG: -2.131e-05   |Residual|: 3.602e-04   |deigs|: 2.983e-05  t[s]:   6388.93
	Linear fluid (dielectric constant: 78.4, screening length: 5.74355 Bohr) occupying 0.762751 of unit cell:	Completed after 9 iterations at t[s]:   6390.59
	FillingsUpdate:  mu: -0.244750400  nElectrons: 391.984863
	Linear fluid (dielectric constant: 78.4, screening length: 5.74355 Bohr) occupying 0.762745 of unit cell:	Completed after 8 iterations at t[s]:   6429.41
SCF: Cycle: 105   G: -1163.173493406746275   dG: -4.987e-08   |Residual|: 3.619e-04   |deigs|: 4.583e-06  t[s]:   6430.52
	Linear fluid (dielectric constant: 78.4, screening length: 5.74355 Bohr) occupying 0.762751 of unit cell:	Completed after 9 iterations at t[s]:   6432.13
	FillingsUpdate:  mu: -0.244750400  nElectrons: 391.987442
	Linear fluid (dielectric constant: 78.4, screening length: 5.74355 Bohr) occupying 0.762745 of unit cell:	Completed after 8 iterations at t[s]:   6492.58
SCF: Cycle: 106   G: -1163.173494649995746   dG: -1.243e-06   |Residual|: 3.414e-04   |deigs|: 4.594e-06  t[s]:   6493.69
	Linear fluid (dielectric constant: 78.4, screening length: 5.74355 Bohr) occupying 0.762750 of unit cell:	Completed after 7 iterations at t[s]:   6495.05
	FillingsUpdate:  mu: -0.244750400  nElectrons: 392.002570
	Linear fluid (dielectric constant: 78.4, screening length: 5.74355 Bohr) occupying 0.762746 of unit cell:	Completed after 4 iterations at t[s]:   6541.43
SCF: Cycle: 107   G: -1163.173496752244773   dG: -2.102e-06   |Residual|: 3.209e-04   |deigs|: 2.208e-05  t[s]:   6542.65
	Linear fluid (dielectric constant: 78.4, screening length: 5.74355 Bohr) occupying 0.762752 of unit cell:	Completed after 4 iterations at t[s]:   6543.81
	FillingsUpdate:  mu: -0.244750400  nElectrons: 391.978300
	Linear fluid (dielectric constant: 78.4, screening length: 5.74355 Bohr) occupying 0.762745 of unit cell:	Completed after 9 iterations at t[s]:   6604.08
SCF: Cycle: 108   G: -1163.173488169413531   dG: +8.583e-06   |Residual|: 4.743e-04   |deigs|: 3.995e-05  t[s]:   6605.23
	Linear fluid (dielectric constant: 78.4, screening length: 5.74355 Bohr) occupying 0.762751 of unit cell:	Completed after 9 iterations at t[s]:   6606.95
	FillingsUpdate:  mu: -0.244750400  nElectrons: 391.985450
	Linear fluid (dielectric constant: 78.4, screening length: 5.74355 Bohr) occupying 0.762745 of unit cell:	Completed after 8 iterations at t[s]:   6646.02
SCF: Cycle: 109   G: -1163.173493764727937   dG: -5.595e-06   |Residual|: 3.537e-04   |deigs|: 1.286e-05  t[s]:   6647.18
	Linear fluid (dielectric constant: 78.4, screening length: 5.74355 Bohr) occupying 0.762751 of unit cell:	Completed after 9 iterations at t[s]:   6648.77
	FillingsUpdate:  mu: -0.244750400  nElectrons: 391.984718
	Linear fluid (dielectric constant: 78.4, screening length: 5.74355 Bohr) occupying 0.762745 of unit cell:	Completed after 8 iterations at t[s]:   6688.28
SCF: Cycle: 110   G: -1163.173493646333782   dG: +1.184e-07   |Residual|: 3.444e-04   |deigs|: 2.657e-06  t[s]:   6689.34
	Linear fluid (dielectric constant: 78.4, screening length: 5.74355 Bohr) occupying 0.762751 of unit cell:	Completed after 8 iterations at t[s]:   6690.88
	FillingsUpdate:  mu: -0.244750400  nElectrons: 391.985011
	Linear fluid (dielectric constant: 78.4, screening length: 5.74355 Bohr) occupying 0.762745 of unit cell:	Completed after 8 iterations at t[s]:   6751.09
SCF: Cycle: 111   G: -1163.173493287610881   dG: +3.587e-07   |Residual|: 3.681e-04   |deigs|: 8.298e-06  t[s]:   6752.26
	Linear fluid (dielectric constant: 78.4, screening length: 5.74355 Bohr) occupying 0.762752 of unit cell:	Completed after 8 iterations at t[s]:   6754.03
	FillingsUpdate:  mu: -0.244750400  nElectrons: 391.993478
	Linear fluid (dielectric constant: 78.4, screening length: 5.74355 Bohr) occupying 0.762746 of unit cell:	Completed after 4 iterations at t[s]:   6813.45
SCF: Cycle: 112   G: -1163.173497455117740   dG: -4.168e-06   |Residual|: 2.596e-04   |deigs|: 1.569e-05  t[s]:   6814.83
	Linear fluid (dielectric constant: 78.4, screening length: 5.74355 Bohr) occupying 0.762748 of unit cell:	Completed after 3 iterations at t[s]:   6815.95
	FillingsUpdate:  mu: -0.244750400  nElectrons: 392.014348
	Linear fluid (dielectric constant: 78.4, screening length: 5.74355 Bohr) occupying 0.762747 of unit cell:	Completed after 8 iterations at t[s]:   6876.22
SCF: Cycle: 113   G: -1163.173492131512603   dG: +5.324e-06   |Residual|: 3.923e-04   |deigs|: 4.555e-05  t[s]:   6877.66
	Linear fluid (dielectric constant: 78.4, screening length: 5.74355 Bohr) occupying 0.762746 of unit cell:	Completed after 7 iterations at t[s]:   6879.40
	FillingsUpdate:  mu: -0.244750400  nElectrons: 391.949040
	Linear fluid (dielectric constant: 78.4, screening length: 5.74355 Bohr) occupying 0.762743 of unit cell:	Completed after 11 iterations at t[s]:   6939.25
SCF: Cycle: 114   G: -1163.173438832910051   dG: +5.330e-05   |Residual|: 1.081e-03   |deigs|: 9.386e-05  t[s]:   6940.56
	Linear fluid (dielectric constant: 78.4, screening length: 5.74355 Bohr) occupying 0.762747 of unit cell:	Completed after 11 iterations at t[s]:   6942.83
	FillingsUpdate:  mu: -0.244750400  nElectrons: 391.972231
	Linear fluid (dielectric constant: 78.4, screening length: 5.74355 Bohr) occupying 0.762744 of unit cell:	Completed after 10 iterations at t[s]:   6990.22
SCF: Cycle: 115   G: -1163.173479375873967   dG: -4.054e-05   |Residual|: 6.440e-04   |deigs|: 3.622e-05  t[s]:   6991.48
	Linear fluid (dielectric constant: 78.4, screening length: 5.74355 Bohr) occupying 0.762747 of unit cell:	Completed after 10 iterations at t[s]:   6993.21
	FillingsUpdate:  mu: -0.244750400  nElectrons: 391.974780
	Linear fluid (dielectric constant: 78.4, screening length: 5.74355 Bohr) occupying 0.762744 of unit cell:	Completed after 10 iterations at t[s]:   7032.57
SCF: Cycle: 116   G: -1163.173482312896340   dG: -2.937e-06   |Residual|: 6.067e-04   |deigs|: 6.663e-06  t[s]:   7033.83
	Linear fluid (dielectric constant: 78.4, screening length: 5.74355 Bohr) occupying 0.762749 of unit cell:	Completed after 9 iterations at t[s]:   7035.46
	FillingsUpdate:  mu: -0.244750400  nElectrons: 391.987571
	Linear fluid (dielectric constant: 78.4, screening length: 5.74355 Bohr) occupying 0.762745 of unit cell:	Completed after 9 iterations at t[s]:   7095.84
SCF: Cycle: 117   G: -1163.173492834537228   dG: -1.052e-05   |Residual|: 4.344e-04   |deigs|: 3.509e-05  t[s]:   7097.05
	Linear fluid (dielectric constant: 78.4, screening length: 5.74355 Bohr) occupying 0.762749 of unit cell:	Completed after 8 iterations at t[s]:   7098.93
	FillingsUpdate:  mu: -0.244750400  nElectrons: 391.999541
	Linear fluid (dielectric constant: 78.4, screening length: 5.74355 Bohr) occupying 0.762746 of unit cell:	Completed after 4 iterations at t[s]:   7138.06
SCF: Cycle: 118   G: -1163.173496987426688   dG: -4.153e-06   |Residual|: 3.138e-04   |deigs|: 1.622e-05  t[s]:   7139.24
	Linear fluid (dielectric constant: 78.4, screening length: 5.74355 Bohr) occupying 0.762748 of unit cell:	Completed after 3 iterations at t[s]:   7140.20
	FillingsUpdate:  mu: -0.244750400  nElectrons: 391.984648
	Linear fluid (dielectric constant: 78.4, screening length: 5.74355 Bohr) occupying 0.762745 of unit cell:	Completed after 9 iterations at t[s]:   7193.69
SCF: Cycle: 119   G: -1163.173494163260784   dG: +2.824e-06   |Residual|: 3.402e-04   |deigs|: 2.803e-05  t[s]:   7194.93
	Linear fluid (dielectric constant: 78.4, screening length: 5.74355 Bohr) occupying 0.762749 of unit cell:	Completed after 8 iterations at t[s]:   7196.89
	FillingsUpdate:  mu: -0.244750400  nElectrons: 391.978372
	Linear fluid (dielectric constant: 78.4, screening length: 5.74355 Bohr) occupying 0.762744 of unit cell:	Completed after 9 iterations at t[s]:   7244.57
SCF: Cycle: 120   G: -1163.173487947537524   dG: +6.216e-06   |Residual|: 4.860e-04   |deigs|: 1.347e-05  t[s]:   7245.92
	Linear fluid (dielectric constant: 78.4, screening length: 5.74355 Bohr) occupying 0.762747 of unit cell:	Completed after 9 iterations at t[s]:   7247.58
	FillingsUpdate:  mu: -0.244750400  nElectrons: 391.973586
	Linear fluid (dielectric constant: 78.4, screening length: 5.74355 Bohr) occupying 0.762744 of unit cell:	Completed after 9 iterations at t[s]:   7298.92
SCF: Cycle: 121   G: -1163.173482395121255   dG: +5.552e-06   |Residual|: 5.801e-04   |deigs|: 2.210e-05  t[s]:   7300.03
	Linear fluid (dielectric constant: 78.4, screening length: 5.74355 Bohr) occupying 0.762749 of unit cell:	Completed after 9 iterations at t[s]:   7301.70
	FillingsUpdate:  mu: -0.244750400  nElectrons: 391.974613
	Linear fluid (dielectric constant: 78.4, screening length: 5.74355 Bohr) occupying 0.762744 of unit cell:	Completed after 9 iterations at t[s]:   7353.13
SCF: Cycle: 122   G: -1163.173482949487607   dG: -5.544e-07   |Residual|: 5.737e-04   |deigs|: 1.287e-05  t[s]:   7354.38
	Linear fluid (dielectric constant: 78.4, screening length: 5.74355 Bohr) occupying 0.762750 of unit cell:	Completed after 9 iterations at t[s]:   7356.00
	FillingsUpdate:  mu: -0.244750400  nElectrons: 391.976758
	Linear fluid (dielectric constant: 78.4, screening length: 5.74355 Bohr) occupying 0.762744 of unit cell:	Completed after 9 iterations at t[s]:   7417.30
SCF: Cycle: 123   G: -1163.173484802820667   dG: -1.853e-06   |Residual|: 5.509e-04   |deigs|: 8.945e-06  t[s]:   7418.60
	Linear fluid (dielectric constant: 78.4, screening length: 5.74355 Bohr) occupying 0.762749 of unit cell:	Completed after 9 iterations at t[s]:   7420.24
	FillingsUpdate:  mu: -0.244750400  nElectrons: 391.978160
	Linear fluid (dielectric constant: 78.4, screening length: 5.74355 Bohr) occupying 0.762744 of unit cell:	Completed after 9 iterations at t[s]:   7471.86
SCF: Cycle: 124   G: -1163.173485837421140   dG: -1.035e-06   |Residual|: 5.509e-04   |deigs|: 1.239e-05  t[s]:   7472.94
	Linear fluid (dielectric constant: 78.4, screening length: 5.74355 Bohr) occupying 0.762752 of unit cell:	Completed after 9 iterations at t[s]:   7474.48
	FillingsUpdate:  mu: -0.244750400  nElectrons: 391.992238
	Linear fluid (dielectric constant: 78.4, screening length: 5.74355 Bohr) occupying 0.762746 of unit cell:	Completed after 7 iterations at t[s]:   7534.52
SCF: Cycle: 125   G: -1163.173495236035023   dG: -9.399e-06   |Residual|: 3.684e-04   |deigs|: 4.148e-05  t[s]:   7535.84
	Linear fluid (dielectric constant: 78.4, screening length: 5.74355 Bohr) occupying 0.762752 of unit cell:	Completed after 7 iterations at t[s]:   7537.33
	FillingsUpdate:  mu: -0.244750400  nElectrons: 392.006379
	Linear fluid (dielectric constant: 78.4, screening length: 5.74355 Bohr) occupying 0.762747 of unit cell:	Completed after 7 iterations at t[s]:   7582.50
SCF: Cycle: 126   G: -1163.173497235164177   dG: -1.999e-06   |Residual|: 2.404e-04   |deigs|: 2.202e-05  t[s]:   7583.91
	Linear fluid (dielectric constant: 78.4, screening length: 5.74355 Bohr) occupying 0.762752 of unit cell:	Completed after 4 iterations at t[s]:   7585.31
	FillingsUpdate:  mu: -0.244750400  nElectrons: 391.940404
[...]
SCF: Cycle: 380   G: -1163.173496229883995   dG: -1.255e-05   |Residual|: 2.611e-04   |deigs|: 4.955e-05  t[s]:  16614.39
	Linear fluid (dielectric constant: 78.4, screening length: 5.74355 Bohr) occupying 0.762745 of unit cell:	Completed after 7 iterations at t[s]:  16615.97
	FillingsUpdate:  mu: -0.244750400  nElectrons: 392.004758
	Linear fluid (dielectric constant: 78.4, screening length: 5.74355 Bohr) occupying 0.762746 of unit cell:	Completed after 4 iterations at t[s]:  16654.23
SCF: Cycle: 381   G: -1163.173498013680728   dG: -1.784e-06   |Residual|: 2.195e-04   |deigs|: 2.785e-05  t[s]:  16655.29
	Linear fluid (dielectric constant: 78.4, screening length: 5.74355 Bohr) occupying 0.762745 of unit cell:	Completed after 3 iterations at t[s]:  16656.53
	FillingsUpdate:  mu: -0.244750400  nElectrons: 391.973106
	Linear fluid (dielectric constant: 78.4, screening length: 5.74355 Bohr) occupying 0.762744 of unit cell:	Completed after 8 iterations at t[s]:  16701.47
SCF: Cycle: 382   G: -1163.173481094918998   dG: +1.692e-05   |Residual|: 6.004e-04   |deigs|: 4.596e-05  t[s]:  16702.74
	Linear fluid (dielectric constant: 78.4, screening length: 5.74355 Bohr) occupying 0.762745 of unit cell:	Completed after 10 iterations at t[s]:  16704.60
	FillingsUpdate:  mu: -0.244750400  nElectrons: 391.998830
	Linear fluid (dielectric constant: 78.4, screening length: 5.74355 Bohr) occupying 0.762745 of unit cell:	Completed after 3 iterations at t[s]:  16741.60
SCF: Cycle: 383   G: -1163.173498885031222   dG: -1.779e-05   |Residual|: 1.441e-04   |deigs|: 3.642e-05  t[s]:  16742.78
	Linear fluid (dielectric constant: 78.4, screening length: 5.74355 Bohr) occupying 0.762745 of unit cell:	Completed after 3 iterations at t[s]:  16743.74
	FillingsUpdate:  mu: -0.244750400  nElectrons: 391.998558
	Linear fluid (dielectric constant: 78.4, screening length: 5.74355 Bohr) occupying 0.762746 of unit cell:	Completed after 2 iterations at t[s]:  16780.36
SCF: Cycle: 384   G: -1163.173499193925636   dG: -3.089e-07   |Residual|: 9.579e-05   |deigs|: 8.000e-06  t[s]:  16781.43
	Linear fluid (dielectric constant: 78.4, screening length: 5.74355 Bohr) occupying 0.762745 of unit cell:	Completed after 3 iterations at t[s]:  16782.42
	FillingsUpdate:  mu: -0.244750400  nElectrons: 391.999491
	Linear fluid (dielectric constant: 78.4, screening length: 5.74355 Bohr) occupying 0.762746 of unit cell:	Completed after 2 iterations at t[s]:  16826.88
SCF: Cycle: 385   G: -1163.173498910551189   dG: +2.834e-07   |Residual|: 1.470e-04   |deigs|: 7.815e-06  t[s]:  16828.07
	Linear fluid (dielectric constant: 78.4, screening length: 5.74355 Bohr) occupying 0.762745 of unit cell:	Completed after 3 iterations at t[s]:  16829.03
	FillingsUpdate:  mu: -0.244750400  nElectrons: 391.991919
	Linear fluid (dielectric constant: 78.4, screening length: 5.74355 Bohr) occupying 0.762745 of unit cell:	Completed after 6 iterations at t[s]:  16873.45
SCF: Cycle: 386   G: -1163.173497899972062   dG: +1.011e-06   |Residual|: 1.865e-04   |deigs|: 1.366e-05  t[s]:  16874.64
	Linear fluid (dielectric constant: 78.4, screening length: 5.74355 Bohr) occupying 0.762745 of unit cell:	Completed after 7 iterations at t[s]:  16876.17
	FillingsUpdate:  mu: -0.244750400  nElectrons: 392.005196
	Linear fluid (dielectric constant: 78.4, screening length: 5.74355 Bohr) occupying 0.762746 of unit cell:	Completed after 4 iterations at t[s]:  16914.56
SCF: Cycle: 387   G: -1163.173498047461635   dG: -1.475e-07   |Residual|: 2.049e-04   |deigs|: 1.942e-05  t[s]:  16915.70
	Linear fluid (dielectric constant: 78.4, screening length: 5.74355 Bohr) occupying 0.762745 of unit cell:	Completed after 3 iterations at t[s]:  16916.76
	FillingsUpdate:  mu: -0.244750400  nElectrons: 391.969264
	Linear fluid (dielectric constant: 78.4, screening length: 5.74355 Bohr) occupying 0.762743 of unit cell:	Completed after 9 iterations at t[s]:  16974.72
SCF: Cycle: 388   G: -1163.173475646734232   dG: +2.240e-05   |Residual|: 6.762e-04   |deigs|: 5.130e-05  t[s]:  16975.84
	Linear fluid (dielectric constant: 78.4, screening length: 5.74355 Bohr) occupying 0.762745 of unit cell:	Completed after 9 iterations at t[s]:  16977.44
	FillingsUpdate:  mu: -0.244750400  nElectrons: 392.000609
	Linear fluid (dielectric constant: 78.4, screening length: 5.74355 Bohr) occupying 0.762745 of unit cell:	Completed after 3 iterations at t[s]:  17014.26
SCF: Cycle: 389   G: -1163.173498593938803   dG: -2.295e-05   |Residual|: 1.877e-04   |deigs|: 4.529e-05  t[s]:  17015.42
	Linear fluid (dielectric constant: 78.4, screening length: 5.74355 Bohr) occupying 0.762745 of unit cell:	Completed after 3 iterations at t[s]:  17016.49
	FillingsUpdate:  mu: -0.244750400  nElectrons: 391.995542
	Linear fluid (dielectric constant: 78.4, screening length: 5.74355 Bohr) occupying 0.762745 of unit cell:	Completed after 3 iterations at t[s]:  17053.78
SCF: Cycle: 390   G: -1163.173498821735166   dG: -2.278e-07   |Residual|: 1.376e-04   |deigs|: 1.360e-05  t[s]:  17054.88
	Linear fluid (dielectric constant: 78.4, screening length: 5.74355 Bohr) occupying 0.762745 of unit cell:	Completed after 3 iterations at t[s]:  17055.81
	FillingsUpdate:  mu: -0.244750400  nElectrons: 392.014085
	Linear fluid (dielectric constant: 78.4, screening length: 5.74355 Bohr) occupying 0.762746 of unit cell:	Completed after 8 iterations at t[s]:  17106.81
SCF: Cycle: 391   G: -1163.173492690784997   dG: +6.131e-06   |Residual|: 3.768e-04   |deigs|: 2.707e-05  t[s]:  17108.12
	Linear fluid (dielectric constant: 78.4, screening length: 5.74355 Bohr) occupying 0.762745 of unit cell:	Completed after 9 iterations at t[s]:  17109.77
	FillingsUpdate:  mu: -0.244750400  nElectrons: 391.984119
	Linear fluid (dielectric constant: 78.4, screening length: 5.74355 Bohr) occupying 0.762745 of unit cell:	Completed after 9 iterations at t[s]:  17146.64
SCF: Cycle: 392   G: -1163.173493627969719   dG: -9.372e-07   |Residual|: 3.476e-04   |deigs|: 4.246e-05  t[s]:  17147.68
	Linear fluid (dielectric constant: 78.4, screening length: 5.74355 Bohr) occupying 0.762745 of unit cell:	Completed after 9 iterations at t[s]:  17149.22
	FillingsUpdate:  mu: -0.244750400  nElectrons: 392.000172
	Linear fluid (dielectric constant: 78.4, screening length: 5.74355 Bohr) occupying 0.762745 of unit cell:	Completed after 3 iterations at t[s]:  17186.97
SCF: Cycle: 393   G: -1163.173498674504799   dG: -5.047e-06   |Residual|: 1.683e-04   |deigs|: 2.415e-05  t[s]:  17188.03
	Linear fluid (dielectric constant: 78.4, screening length: 5.74355 Bohr) occupying 0.762745 of unit cell:	Completed after 3 iterations at t[s]:  17188.96
	FillingsUpdate:  mu: -0.244750400  nElectrons: 391.994286
	Linear fluid (dielectric constant: 78.4, screening length: 5.74355 Bohr) occupying 0.762745 of unit cell:	Completed after 4 iterations at t[s]:  17225.77
SCF: Cycle: 394   G: -1163.173498600075163   dG: +7.443e-08   |Residual|: 1.525e-04   |deigs|: 1.250e-05  t[s]:  17226.85
	Linear fluid (dielectric constant: 78.4, screening length: 5.74355 Bohr) occupying 0.762745 of unit cell:	Completed after 3 iterations at t[s]:  17227.89
	FillingsUpdate:  mu: -0.244750400  nElectrons: 392.018156
	Linear fluid (dielectric constant: 78.4, screening length: 5.74355 Bohr) occupying 0.762747 of unit cell:	Completed after 8 iterations at t[s]:  17284.92
SCF: Cycle: 395   G: -1163.173489051513116   dG: +9.549e-06   |Residual|: 4.530e-04   |deigs|: 3.336e-05  t[s]:  17285.94
	Linear fluid (dielectric constant: 78.4, screening length: 5.74355 Bohr) occupying 0.762745 of unit cell:	Completed after 9 iterations at t[s]:  17287.43
	FillingsUpdate:  mu: -0.244750400  nElectrons: 391.985984
	Linear fluid (dielectric constant: 78.4, screening length: 5.74355 Bohr) occupying 0.762745 of unit cell:	Completed after 8 iterations at t[s]:  17323.39
SCF: Cycle: 396   G: -1163.173495250638553   dG: -6.199e-06   |Residual|: 2.971e-04   |deigs|: 4.548e-05  t[s]:  17324.80
	Linear fluid (dielectric constant: 78.4, screening length: 5.74355 Bohr) occupying 0.762745 of unit cell:	Completed after 9 iterations at t[s]:  17326.52
	FillingsUpdate:  mu: -0.244750400  nElectrons: 391.998466
	Linear fluid (dielectric constant: 78.4, screening length: 5.74355 Bohr) occupying 0.762745 of unit cell:	Completed after 3 iterations at t[s]:  17363.27
SCF: Cycle: 397   G: -1163.173498857260256   dG: -3.607e-06   |Residual|: 1.468e-04   |deigs|: 1.955e-05  t[s]:  17364.35
	Linear fluid (dielectric constant: 78.4, screening length: 5.74355 Bohr) occupying 0.762745 of unit cell:	Completed after 3 iterations at t[s]:  17365.34
	FillingsUpdate:  mu: -0.244750400  nElectrons: 391.997764
	Linear fluid (dielectric constant: 78.4, screening length: 5.74355 Bohr) occupying 0.762746 of unit cell:	Completed after 2 iterations at t[s]:  17402.49
SCF: Cycle: 398   G: -1163.173499167799037   dG: -3.105e-07   |Residual|: 9.809e-05   |deigs|: 7.650e-06  t[s]:  17403.63
	Linear fluid (dielectric constant: 78.4, screening length: 5.74355 Bohr) occupying 0.762745 of unit cell:	Completed after 3 iterations at t[s]:  17404.61
	FillingsUpdate:  mu: -0.244750400  nElectrons: 392.002084
	Linear fluid (dielectric constant: 78.4, screening length: 5.74355 Bohr) occupying 0.762746 of unit cell:	Completed after 3 iterations at t[s]:  17448.70
SCF: Cycle: 399   G: -1163.173498957799666   dG: +2.100e-07   |Residual|: 1.219e-04   |deigs|: 8.198e-06  t[s]:  17449.84
	Linear fluid (dielectric constant: 78.4, screening length: 5.74355 Bohr) occupying 0.762745 of unit cell:	Completed after 3 iterations at t[s]:  17450.82
	FillingsUpdate:  mu: -0.244750400  nElectrons: 391.980438
	Linear fluid (dielectric constant: 78.4, screening length: 5.74355 Bohr) occupying 0.762744 of unit cell:	Completed after 8 iterations at t[s]:  17501.73
SCF: Cycle: 400   G: -1163.173490201565073   dG: +8.756e-06   |Residual|: 4.214e-04   |deigs|: 3.041e-05  t[s]:  17502.90
	Linear fluid (dielectric constant: 78.4, screening length: 5.74355 Bohr) occupying 0.762745 of unit cell:	Completed after 9 iterations at t[s]:  17504.48
	FillingsUpdate:  mu: -0.244750400  nElectrons: 391.998382
	Linear fluid (dielectric constant: 78.4, screening length: 5.74355 Bohr) occupying 0.762745 of unit cell:	Completed after 3 iterations at t[s]:  17541.03
SCF: Cycle: 401   G: -1163.173498896378760   dG: -8.695e-06   |Residual|: 1.424e-04   |deigs|: 2.607e-05  t[s]:  17542.12
	Linear fluid (dielectric constant: 78.4, screening length: 5.74355 Bohr) occupying 0.762745 of unit cell:	Completed after 3 iterations at t[s]:  17543.11
	FillingsUpdate:  mu: -0.244750400  nElectrons: 391.999603
	Linear fluid (dielectric constant: 78.4, screening length: 5.74355 Bohr) occupying 0.762746 of unit cell:	Completed after 0 iterations at t[s]:  17578.83
SCF: Cycle: 402   G: -1163.173499421946190   dG: -5.256e-07   |Residual|: 8.127e-05   |deigs|: 7.253e-06  t[s]:  17580.05
	Linear fluid (dielectric constant: 78.4, screening length: 5.74355 Bohr) occupying 0.762745 of unit cell:	Completed after 0 iterations at t[s]:  17580.58
	FillingsUpdate:  mu: -0.244750400  nElectrons: 391.999605
	Linear fluid (dielectric constant: 78.4, screening length: 5.74355 Bohr) occupying 0.762746 of unit cell:	Completed after 0 iterations at t[s]:  17617.74
SCF: Cycle: 403   G: -1163.173499422616032   dG: -6.698e-10   |Residual|: 8.166e-05   |deigs|: 1.538e-07  t[s]:  17618.94
	Linear fluid (dielectric constant: 78.4, screening length: 5.74355 Bohr) occupying 0.762745 of unit cell:	Completed after 0 iterations at t[s]:  17619.50
	FillingsUpdate:  mu: -0.244750400  nElectrons: 391.999608
	Linear fluid (dielectric constant: 78.4, screening length: 5.74355 Bohr) occupying 0.762746 of unit cell:	Completed after 0 iterations at t[s]:  17672.72
SCF: Cycle: 404   G: -1163.173499422617169   dG: -1.137e-12   |Residual|: 8.239e-05   |deigs|: 6.268e-08  t[s]:  17673.85
SCF: Converged (|Delta E|<1.000000e-08 for 2 iters).


# Ionic positions in lattice coordinates:
ion Ta   0.169791276607906   0.082055807604323   0.499913576382333 0
ion Ta   0.412267932464502   0.082055807604323   0.499913576382333 0
ion Ta   0.667959011771396   0.083977804917612   0.500074524485748 0
ion Ta   0.916022194614302   0.083977804917612   0.500074524485748 0
ion Ta   0.166963501837115   0.333480049950472   0.498766600988603 0
ion Ta   0.403371487490027   0.306739573511968   0.496330623156383 0
ion Ta   0.666519949581442   0.333480049950472   0.498766600988603 0
ion Ta   0.916022194614302   0.332040987760518   0.500074524485748 0
ion Ta   0.169791276607906   0.587732067067412   0.499913576382333 0
ion Ta   0.403371487490027   0.596628512041887   0.496330623156383 0
ion Ta   0.693260426019946   0.596628512041887   0.496330623156383 0
ion Ta   0.917944191927591   0.587732067067412   0.499913576382333 0
ion Ta   0.166667800333333   0.833332199198581   0.500047138345009 0
ion Ta   0.412267932464502   0.830208722924008   0.499913576382333 0
ion Ta   0.666519949581442   0.833036497694799   0.498766600988603 0
ion Ta   0.917944191927591   0.830208722924008   0.499913576382333 0
ion S   0.000251282046618  -0.000251282514703   0.584934305931463 0
ion S   0.000246249456280  -0.000246249924365   0.415156925573465 0
ion S   0.249222995385740  -0.001557410696605   0.587526726124045 0
ion S   0.248785618898109  -0.002432163671867   0.412396199281674 0
ion S   0.499500836906764  -0.000251282514703   0.584934305931463 0
ion S   0.499510902087440  -0.000246249924365   0.415156925573465 0
ion S   0.749215124079204  -0.001573153309678   0.586160391247868 0
ion S   0.749882368361621  -0.000238664744843   0.413368097886788 0
ion S   0.001573152841592   0.250784875452710   0.586160391247868 0
ion S   0.000238664276757   0.250117631170293   0.413368097886788 0
ion S   0.250375802297293   0.252049925695406   0.586524799934160 0
ion S   0.245376936856104   0.246557971499955   0.410001866947740 0
ion S   0.501677524866198   0.252049925695406   0.586524799934160 0
ion S   0.501184436111936   0.246557971499955   0.410001866947740 0
ion S   0.749215124079204   0.250784875452710   0.586160391247868 0
ion S   0.749882368361621   0.250117631170293   0.413368097886788 0
ion S   0.000251282046618   0.500499162625150   0.584934305931463 0
ion S   0.000246249456280   0.500489097444474   0.415156925573465 0
ion S   0.250375802297293   0.498322474665716   0.586524799934160 0
ion S   0.245376936856104   0.498815563419978   0.410001866947740 0
ion S   0.500001133666667   0.499998865865248   0.450847827041556 0
ion S   0.747950073836508   0.498322474665716   0.586524799934160 0
ion S   0.753442028031959   0.498815563419978   0.410001866947740 0
ion S   0.001557410228519   0.750777004146174   0.587526726124045 0
ion S   0.002432163203781   0.751214380633805   0.412396199281674 0
ion S   0.249222995385740   0.750777004146174   0.587526726124045 0
ion S   0.248785618898109   0.751214380633805   0.412396199281674 0
ion S   0.501677524866198   0.749624197234621   0.586524799934160 0
ion S   0.501184436111936   0.754623062675810   0.410001866947740 0
ion S   0.747950073836508   0.749624197234621   0.586524799934160 0
ion S   0.753442028031959   0.754623062675810   0.410001866947740 0


# Forces in Lattice coordinates:
force Ta  -0.089681192198800   0.019825575008438   0.011131781055186 0
force Ta   0.089681192198796  -0.069855617190357   0.011131781055186 0
force Ta  -0.070501378871871  -0.000000000000000  -0.001872637541672 0
force Ta   0.070501378871871  -0.070501378871871  -0.001872637541672 0
force Ta   0.038846479470956   0.000000000000000   0.019050977396172 0
force Ta   0.000000000000000   0.025720163476916  -0.016486781766429 0
force Ta  -0.038846479470956   0.038846479470956   0.019050977396173 0
force Ta   0.000000000000000   0.070501378871870  -0.001872637541669 0
force Ta  -0.069855617190357  -0.019825575008438   0.011131781055190 0
force Ta   0.025720163476902  -0.025720163476902  -0.016486781766427 0
force Ta  -0.025720163476916  -0.000000000000000  -0.016486781766427 0
force Ta   0.069855617190357  -0.089681192198796   0.011131781055190 0
force Ta   0.000000000000000   0.000000000000000   0.015375721943080 0
force Ta   0.019825575008441   0.069855617190357   0.011131781055186 0
force Ta   0.000000000000000  -0.038846479470956   0.019050977396172 0
force Ta  -0.019825575008438   0.089681192198800   0.011131781055186 0
force S   0.002141884436477  -0.002141884436477   0.075387011406772 0
force S  -0.000794680741516   0.000794680741515  -0.068008715749192 0
force S   0.000000000000000   0.006849935961396   0.033783091083154 0
force S   0.000000000000000   0.010370128705969  -0.028120286238822 0
force S  -0.002141884436477  -0.000000000000000   0.075387011406772 0
force S   0.000794680741514  -0.000000000000000  -0.068008715749078 0
force S   0.000000000000000   0.010500532526079   0.042257687887636 0
force S   0.000000000000000   0.022975377226961  -0.060553251421600 0
force S  -0.010500532526079   0.000000000000000   0.042257687887749 0
force S  -0.022975377226961  -0.000000000000000  -0.060553251421712 0
force S  -0.002665561596070  -0.035997220311885   0.003030166436685 0
force S   0.015147756273342  -0.002544845889996  -0.013746843871060 0
force S   0.002665561596070  -0.038662781907959   0.003030166436685 0
force S  -0.015147756273342   0.012602910383344  -0.013746843870946 0
force S   0.010500532526080  -0.010500532526079   0.042257687887636 0
force S   0.022975377226961  -0.022975377226961  -0.060553251421826 0
force S   0.000000000000000   0.002141884436477   0.075387011406773 0
force S   0.000000000000000  -0.000794680741516  -0.068008715749078 0
force S  -0.038662781907963   0.035997220311893   0.003030166436799 0
force S   0.012602910383344   0.002544845889999  -0.013746843871060 0
force S   0.000000000000000  -0.000000000000000  -0.009630761781300 0
force S   0.038662781907966  -0.002665561596071   0.003030166436685 0
force S  -0.012602910383344   0.015147756273342  -0.013746843870832 0
force S  -0.006849935961396   0.000000000000000   0.033783091083154 0
force S  -0.010370128705969   0.000000000000000  -0.028120286238821 0
force S   0.006849935961396  -0.006849935961396   0.033783091083155 0
force S   0.010370128705969  -0.010370128705969  -0.028120286238821 0
force S  -0.035997220311889   0.038662781907956   0.003030166436686 0
force S  -0.002544845889999  -0.012602910383346  -0.013746843871060 0
force S   0.035997220311885   0.002665561596071   0.003030166436686 0
force S   0.002544845889999  -0.015147756273342  -0.013746843870947 0

# Energy components:
   A_diel =        0.0289879624525030
   Eewald =     7066.9738310152897611
       EH =     8005.3047560355807946
     Eloc =   -16331.8758112260347843
      Enl =     -224.8113122651252809
      Exc =     -468.5094591667579493
 Exc_core =      250.8147355274028882
       KE =      443.0092072598420145
  MuShift =        0.0207946080702890
-------------------------------------
     Etot =    -1259.0442702492798617
       TS =        0.0712900934224706
-------------------------------------
        F =    -1259.1155603427023379
      muN =      -95.9420609200851828
-------------------------------------
        G =    -1163.1734994226171693

IonicMinimize: Iter:   0  G: -1163.173499422617169  |grad|_K:  0.000e+00  t[s]:  17684.05
IonicMinimize: Converged (|grad|_K<1.000000e-04).

#--- Lowdin population analysis ---
# oxidation-state Ta -0.375 -0.375 -0.367 -0.367 -0.382 -0.255 -0.382 -0.367 -0.375 -0.255 -0.255 -0.375 -0.400 -0.375 -0.382 -0.375
# oxidation-state S +0.278 +0.280 +0.321 +0.323 +0.278 +0.280 +0.298 +0.297 +0.298 +0.297 +0.315 +0.326 +0.315 +0.326 +0.298 +0.297 +0.278 +0.280 +0.315 +0.326 +0.358 +0.315 +0.326 +0.321 +0.323 +0.321 +0.323 +0.315 +0.326 +0.315 +0.326


Dumping 'NbTe2.fillings' ... done
Dumping 'NbTe2.wfns' ... done
Dumping 'NbTe2.fluidState' ... done
Dumping 'NbTe2.eigenvals' ... done
End date and time: Fri Jul  3 01:32:28 2020  (Duration: 0-4:54:49.01)
Done!
