
*************** JDFTx 1.5.0  ***************

Start date and time: Fri Dec 25 07:18:00 2020
Executable jdftx_gpu with command-line: -i Charged.in -o Charged.out
Running on hosts (process indices):  amax (0-4)
Divided in process groups (process indices):  0 (0)  1 (1)  2 (2)  3 (3)  4 (4)
gpuInit: Found compatible cuda device 0 'Tesla K80'
gpuInit: Found compatible cuda device 1 'Tesla K80'
gpuInit: Found compatible cuda device 2 'Tesla K80'
gpuInit: Found compatible cuda device 3 'Tesla K80'
gpuInit: Found compatible cuda device 4 'Tesla K80'
gpuInit: Selected device 0
Resource initialization completed at t[s]:      3.01
Run totals: 5 processes, 24 threads, 5 GPUs


Input parsed successfully to the following command list (including defaults):

basis kpoint-dependent
cache-projectors no
coords-type Lattice
core-overlap-check none
coulomb-interaction Slab 001
coulomb-truncation-embed 0.5 0.5 0.5
davidson-band-ratio 1.1
dump End State
dump-name NbTe2.$VAR
elec-cutoff 20
elec-eigen-algo Davidson
elec-ex-corr gga-PBE
elec-initial-charge 0.200000
elec-initial-magnetization 2.000000 no
elec-smearing Gauss 0.0073499
electronic-minimize  \
	dirUpdateScheme      FletcherReeves \
	linminMethod         DirUpdateRecommended \
	nIterations          500 \
	history              15 \
	knormThreshold       0 \
	energyDiffThreshold  1e-08 \
	nEnergyDiff          2 \
	alphaTstart          1 \
	alphaTmin            1e-10 \
	updateTestStepSize   yes \
	alphaTreduceFactor   0.1 \
	alphaTincreaseFactor 3 \
	nAlphaAdjustMax      3 \
	wolfeEnergy          0.0001 \
	wolfeGradient        0.9 \
	fdTest               no
exchange-regularization WignerSeitzTruncated
fluid LinearPCM 298.000000 1.013250
fluid-anion F- 1 MeanFieldLJ \
	epsBulk 1 \
	pMol 0 \
	epsInf 1 \
	Pvap 0 \
	sigmaBulk 0 \
	Rvdw 2.24877 \
	Res 0 \
	tauNuc 343133
fluid-cation Na+ 1 MeanFieldLJ \
	epsBulk 1 \
	pMol 0 \
	epsInf 1 \
	Pvap 0 \
	sigmaBulk 0 \
	Rvdw 2.19208 \
	Res 0 \
	tauNuc 343133
fluid-ex-corr lda-TF lda-PZ
fluid-gummel-loop 10 1.000000e-05
fluid-minimize  \
	dirUpdateScheme      PolakRibiere \
	linminMethod         DirUpdateRecommended \
	nIterations          400 \
	history              15 \
	knormThreshold       1e-11 \
	energyDiffThreshold  0 \
	nEnergyDiff          2 \
	alphaTstart          1 \
	alphaTmin            1e-10 \
	updateTestStepSize   yes \
	alphaTreduceFactor   0.1 \
	alphaTincreaseFactor 3 \
	nAlphaAdjustMax      6 \
	wolfeEnergy          0.0001 \
	wolfeGradient        0.9 \
	fdTest               no
fluid-solvent H2O 55.338 ScalarEOS \
	epsBulk 78.4 \
	pMol 0.92466 \
	epsInf 1.77 \
	Pvap 1.06736e-10 \
	sigmaBulk 4.62e-05 \
	Rvdw 2.61727 \
	Res 1.42 \
	tauNuc 343133 \
	poleEl 15 7 1
forces-output-coords Positions
initial-state NbTe2.$VAR
ion C   0.666666490000000   0.333333553000000   0.566297304495419 1
ion C   0.333333522000000   0.666666477000000   0.433742116200332 1
ion Ti   0.000000000000000   0.000000000000000   0.500030186254096 1
ion Ti   0.333333124000000   0.666666927000000   0.618558614194110 1
ion Ti   0.666666794000000   0.333333148000000   0.381441385805890 1
ion-species GBRV/$ID_pbe.uspp
ion-width Ecut
ionic-minimize  \
	dirUpdateScheme      L-BFGS \
	linminMethod         DirUpdateRecommended \
	nIterations          500 \
	history              15 \
	knormThreshold       0.0001 \
	energyDiffThreshold  1e-06 \
	nEnergyDiff          2 \
	alphaTstart          1 \
	alphaTmin            1e-10 \
	updateTestStepSize   yes \
	alphaTreduceFactor   0.1 \
	alphaTincreaseFactor 3 \
	nAlphaAdjustMax      3 \
	wolfeEnergy          0.0001 \
	wolfeGradient        0.9 \
	fdTest               no
kpoint   0.000000000000   0.000000000000   0.000000000000  1.00000000000000
kpoint-folding 19 19 1 
latt-move-scale 1 1 1
latt-scale 1.88973 1.88973 1.88973 
lattice Triclinic 3.05976 3.05976 19.6623 90 90 120
lattice-minimize  \
	dirUpdateScheme      L-BFGS \
	linminMethod         DirUpdateRecommended \
	nIterations          0 \
	history              15 \
	knormThreshold       0 \
	energyDiffThreshold  1e-06 \
	nEnergyDiff          2 \
	alphaTstart          1 \
	alphaTmin            1e-10 \
	updateTestStepSize   yes \
	alphaTreduceFactor   0.1 \
	alphaTincreaseFactor 3 \
	nAlphaAdjustMax      3 \
	wolfeEnergy          0.0001 \
	wolfeGradient        0.9 \
	fdTest               no
lcao-params -1 1e-06 0.0073499
pcm-variant CANDLE
spintype z-spin
subspace-rotation-factor 1 yes
symmetries automatic
symmetry-threshold 0.0001



---------- Setting up symmetries ----------

Found 24 point-group symmetries of the bravais lattice
Found 6 space-group symmetries with basis
Applied RMS atom displacement 1.75613e-06 bohrs to make symmetries exact.

---------- Initializing the Grid ----------
R = 
[    5.78211   -2.89105          0  ]
[          0    5.00745          0  ]
[          0          0    37.1563  ]
unit cell volume = 1075.81
G =
[    1.08666   0.627383         -0  ]
[          0    1.25477          0  ]
[          0         -0   0.169102  ]
Minimum fftbox size, Smin = [  24  24  152  ]
Chosen fftbox size, S = [  24  24  160  ]

---------- Exchange Correlation functional ----------
Initalized PBE GGA exchange.
Initalized PBE GGA correlation.

---------- Setting up pseudopotentials ----------
Width of ionic core gaussian charges (only for fluid interactions / plotting) set to 0.397384

Reading pseudopotential file '/home/guoxy/vasp/jdftx-1.5.0/build/pseudopotentials/GBRV/c_pbe.uspp':
  Title: C.  Created by USPP 7.3.6 on 3-2-2014
  Reference state energy: -5.406344.  4 valence electrons in orbitals:
    |200>  occupation: 2  eigenvalue: -0.504890
    |210>  occupation: 2  eigenvalue: -0.194356
  lMax: 1  lLocal: 2  QijEcut: 5
  4 projectors sampled on a log grid with 503 points:
    l: 0  eig: -0.504890  rCut: 1.3
    l: 0  eig: 0.000000  rCut: 1.3
    l: 1  eig: -0.194357  rCut: 1.3
    l: 1  eig: 0.000000  rCut: 1.3
  Partial core density with radius 1.1
  Transforming core density to a uniform radial grid of dG=0.02 with 1474 points.
  Transforming local potential to a uniform radial grid of dG=0.02 with 1474 points.
  Transforming nonlocal projectors to a uniform radial grid of dG=0.02 with 432 points.
  Transforming density augmentations to a uniform radial grid of dG=0.02 with 1474 points.
  Transforming atomic orbitals to a uniform radial grid of dG=0.02 with 432 points.
  Core radius for overlap checks: 1.30 bohrs.

Reading pseudopotential file '/home/guoxy/vasp/jdftx-1.5.0/build/pseudopotentials/GBRV/ti_pbe.uspp':
  Title: Ti.  Created by USPP 7.3.6 on 31-3-15
  Reference state energy: -59.020943.  12 valence electrons in orbitals:
    |300>  occupation: 2  eigenvalue: -2.777623
    |310>  occupation: 6  eigenvalue: -1.894596
    |400>  occupation: 2  eigenvalue: -0.438610
    |320>  occupation: 1  eigenvalue: -0.583119
  lMax: 2  lLocal: 3  QijEcut: 6
  6 projectors sampled on a log grid with 597 points:
    l: 0  eig: -2.777624  rCut: 1.8
    l: 0  eig: -0.438611  rCut: 1.8
    l: 1  eig: -1.894596  rCut: 1.8
    l: 1  eig: 0.500000  rCut: 1.8
    l: 2  eig: -0.583118  rCut: 1.8
    l: 2  eig: 0.150000  rCut: 1.8
  Partial core density with radius 0.8
  Transforming core density to a uniform radial grid of dG=0.02 with 1474 points.
  Transforming local potential to a uniform radial grid of dG=0.02 with 1474 points.
  Transforming nonlocal projectors to a uniform radial grid of dG=0.02 with 432 points.
  Transforming density augmentations to a uniform radial grid of dG=0.02 with 1474 points.
  Transforming atomic orbitals to a uniform radial grid of dG=0.02 with 432 points.
  Core radius for overlap checks: 1.80 bohrs.

Initialized 2 species with 5 total atoms.

Folded 1 k-points by 19x19x1 to 361 k-points.

---------- Setting up k-points, bands, fillings ----------
Adding inversion symmetry to k-mesh for non-inversion-symmetric unit cell.
Reduced to 40 k-points under symmetry. 
Computing the number of bands and number of electrons
Calculating initial fillings.
nElectrons:  44.200000   nBands: 38   nStates: 80

----- Setting up reduced wavefunction bases (one per k-point) -----
average nbasis = 4596.474 , ideal nbasis = 4595.939

---------- Setting up coulomb interaction ----------
Fluid mode embedding: using embedded box, but periodic Coulomb kernel.
(Fluid response is responsible for (approximate) separation between periodic images.)
Setting up double-sized grid for truncated Coulomb potentials:
R = 
[    5.78211   -2.89105          0  ]
[          0    5.00745          0  ]
[          0          0    74.3126  ]
unit cell volume = 2151.62
G =
[    1.08666   0.627383         -0  ]
[          0    1.25477          0  ]
[          0         -0  0.0845508  ]
Chosen fftbox size, S = [  24  24  320  ]
Integer grid location selected as the embedding center:
   Grid: [  12  12  80  ]
   Lattice: [  0.5  0.5  0.5  ]
   Cartesian: [  1.44553  2.50373  18.5781  ]
Constructing Wigner-Seitz cell: 8 faces (6 quadrilaterals, 2 hexagons)
Range-separation parameter for embedded mesh potentials due to point charges: 0.619224 bohrs.

Initializing van der Waals corrections
	NOTE: vdW corrections apply only for interactions with fluid.
	 C:  C6:   30.35 Eh-a0^6  R0: 2.744 a0
	Ti:  C6:  187.33 Eh-a0^6  R0: 2.952 a0

---------- Setting up ewald sum ----------
Optimum gaussian width for ewald sums = 3.938554 bohr.
Real space sum over 1805 unit cells with max indices [  9  9  2  ]
Reciprocal space sum over 4941 terms with max indices [  4  4  30  ]

---------- Allocating electronic variables ----------
Initializing wave functions:  linear combination of atomic orbitals
C pseudo-atom occupations:   s ( 2 )  p ( 2 )
Ti pseudo-atom occupations:   s ( 2 0 )  p ( 6 )  d ( 4 )
	FillingsUpdate:  mu: +3.384791469  nElectrons: 44.200000  magneticMoment: [ Abs: 0.13098  Tot: +0.11171 ]
LCAOMinimize: Iter:   0  F: -127.0115533262732157  |grad|_K:  9.050e-02  alpha:  1.000e+00
LCAOMinimize: 	Step increased F by 2.193282e+02, reducing alpha to 4.106166e-02.
LCAOMinimize: 	Step increased F by 7.255740e+00, reducing alpha to 4.106166e-03.
	FillingsUpdate:  mu: +2.714765337  nElectrons: 44.200000  magneticMoment: [ Abs: 0.60023  Tot: +0.59997 ]
LCAOMinimize: Iter:   1  F: -136.7355405688674921  |grad|_K:  1.852e-01  alpha:  4.106e-03  linmin: -2.601e-01  cgtest:  4.241e-01  t[s]:     73.25
	FillingsUpdate:  mu: +0.930634465  nElectrons: 44.200000  magneticMoment: [ Abs: 1.34245  Tot: +1.34240 ]
LCAOMinimize: Iter:   2  F: -155.2452864082770247  |grad|_K:  1.781e-01  alpha:  1.852e-03  linmin:  3.049e-01  cgtest: -6.301e-01  t[s]:     89.84
LCAOMinimize: 	Bad step direction: g.d > 0.
LCAOMinimize: 	Undoing step.
LCAOMinimize: 	Step failed: resetting search direction.
	FillingsUpdate:  mu: +0.930634465  nElectrons: 44.200000  magneticMoment: [ Abs: 1.34245  Tot: +1.34240 ]
LCAOMinimize: Iter:   3  F: -155.2452864082770247  |grad|_K:  1.781e-01  alpha:  0.000e+00
LCAOMinimize: 	Wrong curvature in test step, increasing alphaT to 5.554756e-03.
	FillingsUpdate:  mu: +0.586192587  nElectrons: 44.200000  magneticMoment: [ Abs: 1.68924  Tot: +1.68923 ]
LCAOMinimize: Iter:   4  F: -163.0873887215509512  |grad|_K:  1.572e-01  alpha: -9.567e-03  linmin: -4.046e-01  cgtest:  7.612e-01  t[s]:    119.59
LCAOMinimize: 	Step increased F by 2.385626e+02, reducing alpha to 4.676884e-02.
LCAOMinimize: 	Step increased F by 3.865798e+01, reducing alpha to 4.676884e-03.
	FillingsUpdate:  mu: +0.214433675  nElectrons: 44.200000  magneticMoment: [ Abs: 2.00422  Tot: +2.00419 ]
LCAOMinimize: Iter:   5  F: -170.0876479306346596  |grad|_K:  6.580e-02  alpha:  4.677e-03  linmin:  3.894e-01  cgtest: -7.596e-01  t[s]:    157.40
LCAOMinimize: 	Bad step direction: g.d > 0.
LCAOMinimize: 	Undoing step.
LCAOMinimize: 	Step failed: resetting search direction.
	FillingsUpdate:  mu: +0.214433675  nElectrons: 44.200000  magneticMoment: [ Abs: 2.00422  Tot: +2.00419 ]
LCAOMinimize: Iter:   6  F: -170.0876479306346596  |grad|_K:  6.580e-02  alpha:  0.000e+00
	FillingsUpdate:  mu: +0.600827635  nElectrons: 44.200000  magneticMoment: [ Abs: 2.03251  Tot: +2.03249 ]
LCAOMinimize: Iter:   7  F: -171.2392263569065278  |grad|_K:  2.379e-02  alpha:  4.364e-03  linmin:  1.238e-02  cgtest: -3.062e-02  t[s]:    184.05
LCAOMinimize: 	Predicted alpha/alphaT>3.000000, increasing alphaT to 1.309145e-02.
LCAOMinimize: 	Predicted alpha/alphaT>3.000000, increasing alphaT to 3.927436e-02.
	FillingsUpdate:  mu: +1.059585707  nElectrons: 44.200000  magneticMoment: [ Abs: 1.65941  Tot: +1.65420 ]
LCAOMinimize: Iter:   8  F: -174.3414011811277078  |grad|_K:  3.459e-02  alpha:  6.937e-02  linmin: -5.695e-02  cgtest: -1.577e-01  t[s]:    211.39
	FillingsUpdate:  mu: +0.657709170  nElectrons: 44.200000  magneticMoment: [ Abs: 0.39193  Tot: +0.39017 ]
LCAOMinimize: Iter:   9  F: -184.0692196426423095  |grad|_K:  9.894e-03  alpha:  1.007e-01  linmin:  1.379e-01  cgtest:  6.261e-01  t[s]:    227.89
LCAOMinimize: Encountered beta<0, resetting CG.
	FillingsUpdate:  mu: +0.305214480  nElectrons: 44.200000  magneticMoment: [ Abs: 0.56884  Tot: +0.55386 ]
LCAOMinimize: Iter:  10  F: -184.8984512755763490  |grad|_K:  2.118e-02  alpha:  1.555e-01  linmin:  1.785e-02  cgtest: -7.932e-02  t[s]:    245.83
	FillingsUpdate:  mu: +0.048332640  nElectrons: 44.200000  magneticMoment: [ Abs: 0.64427  Tot: +0.62834 ]
LCAOMinimize: Iter:  11  F: -185.2040407934766222  |grad|_K:  1.810e-02  alpha:  9.893e-03  linmin: -2.326e-02  cgtest:  9.429e-01  t[s]:    264.18
LCAOMinimize: Encountered beta<0, resetting CG.
	FillingsUpdate:  mu: +0.392279626  nElectrons: 44.200000  magneticMoment: [ Abs: 0.63029  Tot: +0.61367 ]
LCAOMinimize: Iter:  12  F: -185.4995579150104277  |grad|_K:  4.741e-03  alpha:  1.494e-02  linmin:  2.401e-02  cgtest: -3.173e-02  t[s]:    282.05
LCAOMinimize: 	Wrong curvature in test step, increasing alphaT to 4.481874e-02.
	FillingsUpdate:  mu: +0.400108376  nElectrons: 44.200000  magneticMoment: [ Abs: 0.61788  Tot: +0.59830 ]
LCAOMinimize: Iter:  13  F: -185.5398422225864010  |grad|_K:  4.542e-03  alpha: -2.739e+00  linmin: -2.047e-01  cgtest:  9.654e-01  t[s]:    298.84
LCAOMinimize: Encountered beta<0, resetting CG.
	FillingsUpdate:  mu: +0.397066270  nElectrons: 44.200000  magneticMoment: [ Abs: 0.57087  Tot: +0.54083 ]
LCAOMinimize: Iter:  14  F: -185.6608031506459042  |grad|_K:  5.254e-03  alpha:  5.891e-02  linmin: -8.319e-02  cgtest:  3.506e-01  t[s]:    315.85
	FillingsUpdate:  mu: +0.528833035  nElectrons: 44.200000  magneticMoment: [ Abs: 0.49007  Tot: +0.44620 ]
LCAOMinimize: Iter:  15  F: -185.7905427585249640  |grad|_K:  5.090e-03  alpha:  5.289e-02  linmin:  7.098e-03  cgtest: -5.594e-01  t[s]:    334.99
	FillingsUpdate:  mu: +0.557168823  nElectrons: 44.200000  magneticMoment: [ Abs: 0.47218  Tot: +0.42617 ]
LCAOMinimize: Iter:  16  F: -185.8047053634409735  |grad|_K:  4.662e-03  alpha:  7.268e-03  linmin: -2.229e-02  cgtest:  9.857e-01  t[s]:    353.16
LCAOMinimize: Encountered beta<0, resetting CG.
LCAOMinimize: 	Predicted alpha/alphaT>3.000000, increasing alphaT to 2.180444e-02.
	FillingsUpdate:  mu: +0.523716500  nElectrons: 44.200000  magneticMoment: [ Abs: 0.47325  Tot: +0.42619 ]
LCAOMinimize: Iter:  17  F: -185.8356075204775948  |grad|_K:  2.499e-03  alpha:  2.343e-02  linmin:  1.214e-02  cgtest: -4.675e-02  t[s]:    376.11
LCAOMinimize: 	Predicted alpha/alphaT>3.000000, increasing alphaT to 7.028221e-02.
	FillingsUpdate:  mu: +0.454403102  nElectrons: 44.200000  magneticMoment: [ Abs: 0.48283  Tot: +0.43214 ]
LCAOMinimize: Iter:  18  F: -185.8738116317313143  |grad|_K:  1.618e-03  alpha:  1.067e-01  linmin:  3.167e-02  cgtest:  8.048e-02  t[s]:    399.77
	FillingsUpdate:  mu: +0.438520410  nElectrons: 44.200000  magneticMoment: [ Abs: 0.45129  Tot: +0.39742 ]
LCAOMinimize: Iter:  19  F: -185.8851366614425444  |grad|_K:  2.317e-03  alpha:  7.723e-02  linmin:  2.902e-05  cgtest:  4.065e-02  t[s]:    417.68
	FillingsUpdate:  mu: +0.474302095  nElectrons: 44.200000  magneticMoment: [ Abs: 0.41608  Tot: +0.35958 ]
LCAOMinimize: Iter:  20  F: -185.8954382234809088  |grad|_K:  4.462e-04  alpha:  3.020e-02  linmin: -1.734e-02  cgtest:  5.274e-01  t[s]:    434.22
LCAOMinimize: Encountered beta<0, resetting CG.
	FillingsUpdate:  mu: +0.466799175  nElectrons: 44.200000  magneticMoment: [ Abs: 0.40791  Tot: +0.35129 ]
LCAOMinimize: Iter:  21  F: -185.8960050910557698  |grad|_K:  5.493e-04  alpha:  4.683e-02  linmin:  2.573e-04  cgtest: -1.700e-02  t[s]:    451.57
LCAOMinimize: 	Predicted alpha/alphaT>3.000000, increasing alphaT to 1.404844e-01.
	FillingsUpdate:  mu: +0.421834821  nElectrons: 44.200000  magneticMoment: [ Abs: 0.35374  Tot: +0.29625 ]
LCAOMinimize: Iter:  22  F: -185.8983426815550786  |grad|_K:  4.664e-04  alpha:  1.247e-01  linmin:  1.050e-02  cgtest:  9.243e-02  t[s]:    474.36
	FillingsUpdate:  mu: +0.403865534  nElectrons: 44.200000  magneticMoment: [ Abs: 0.30962  Tot: +0.25171 ]
LCAOMinimize: Iter:  23  F: -185.8995218438033419  |grad|_K:  3.909e-04  alpha:  9.296e-02  linmin:  7.360e-04  cgtest:  3.089e-01  t[s]:    492.45
	FillingsUpdate:  mu: +0.404508412  nElectrons: 44.200000  magneticMoment: [ Abs: 0.30075  Tot: +0.24296 ]
LCAOMinimize: Iter:  24  F: -185.8997573279529263  |grad|_K:  2.159e-04  alpha:  2.555e-02  linmin:  1.179e-03  cgtest: -8.822e-04  t[s]:    508.78
LCAOMinimize: 	Predicted alpha/alphaT>3.000000, increasing alphaT to 7.666432e-02.
	FillingsUpdate:  mu: +0.412097535  nElectrons: 44.200000  magneticMoment: [ Abs: 0.26486  Tot: +0.20851 ]
LCAOMinimize: Iter:  25  F: -185.9001953274379559  |grad|_K:  2.357e-04  alpha:  1.572e-01  linmin:  3.831e-03  cgtest:  8.784e-03  t[s]:    532.12
	FillingsUpdate:  mu: +0.413654417  nElectrons: 44.200000  magneticMoment: [ Abs: 0.23396  Tot: +0.17916 ]
LCAOMinimize: Iter:  26  F: -185.9004819544311147  |grad|_K:  2.422e-04  alpha:  8.542e-02  linmin: -7.539e-04  cgtest:  4.869e-02  t[s]:    550.32
	FillingsUpdate:  mu: +0.414309965  nElectrons: 44.200000  magneticMoment: [ Abs: 0.22202  Tot: +0.16790 ]
LCAOMinimize: Iter:  27  F: -185.9005792125115875  |grad|_K:  7.883e-05  alpha:  2.638e-02  linmin: -7.980e-03  cgtest:  1.600e-02  t[s]:    567.96
LCAOMinimize: 	Predicted alpha/alphaT>3.000000, increasing alphaT to 7.914281e-02.
	FillingsUpdate:  mu: +0.414311848  nElectrons: 44.200000  magneticMoment: [ Abs: 0.20220  Tot: +0.15005 ]
LCAOMinimize: Iter:  28  F: -185.9006358950574054  |grad|_K:  1.069e-04  alpha:  1.475e-01  linmin:  6.735e-04  cgtest: -1.863e-02  t[s]:    590.51
	FillingsUpdate:  mu: +0.415333284  nElectrons: 44.200000  magneticMoment: [ Abs: 0.18718  Tot: +0.13653 ]
LCAOMinimize: Iter:  29  F: -185.9006670623831212  |grad|_K:  9.817e-05  alpha:  4.474e-02  linmin: -7.155e-04  cgtest:  2.771e-02  t[s]:    606.99
	FillingsUpdate:  mu: +0.417741643  nElectrons: 44.200000  magneticMoment: [ Abs: 0.16668  Tot: +0.11798 ]
LCAOMinimize: Iter:  30  F: -185.9007014056453784  |grad|_K:  3.550e-05  alpha:  5.829e-02  linmin:  1.189e-04  cgtest: -5.056e-02  t[s]:    624.47
LCAOMinimize: None of the convergence criteria satisfied after 30 iterations.
----- createFluidSolver() ----- (Fluid-side solver setup)
   Initializing fluid molecule 'H2O'
     Initializing site 'O'
       Electron density: proportional to exp(-r/0.36935)*erfc((r-0.51523)/0.36823) with norm 6.826
       Charge density: gaussian nuclear width 0.478731 with net site charge 0.826
       Polarizability: cuspless exponential with width 0.32 and norm 3.73
       Hard sphere radius: 2.57003 bohrs
       Positions in reference frame:
         [ +0.000000 +0.000000 +0.000000 ]
     Initializing site 'H'
       Electron density: proportional to exp(-r/0.34641)*erfc((r-0)/0.390882) with norm 0.587
       Charge density: gaussian nuclear width 0.377945 with net site charge -0.413
       Polarizability: cuspless exponential with width 0.39 and norm 3.3
       Positions in reference frame:
         [ +0.000000 -1.441945 +1.122523 ]
         [ +0.000000 +1.441945 +1.122523 ]
     Net charge: 0   dipole magnitude: 0.927204
     Initializing spherical shell mfKernel with radius 2.61727 Bohr
     deltaS corrections:
       site 'O': -7.54299
       site 'H': -6.83917
   Initializing fluid molecule 'Na+'
     Initializing site 'Na'
       Electron density: proportional to exp(-r/0.19682)*erfc((r-0.71491)/0.41314) with norm 8.1383
       Charge density: gaussian nuclear width 0.365347 with net site charge -1
       Hard sphere radius: 1.86327 bohrs
       Positions in reference frame:
         [ +0.000000 +0.000000 +0.000000 ]
     Net charge: -1   dipole magnitude: 0
     Initializing gaussian mfKernel with width: 1.55004 Bohr
     deltaS corrections:
       site 'Na': -22.3555
   Initializing fluid molecule 'F-'
     Initializing site 'F'
       Electron density: proportional to exp(-r/0.38886)*erfc((r-0)/0.438782) with norm 8
       Charge density: gaussian nuclear width 0.374796 with net site charge 1
       Hard sphere radius: 2.39995 bohrs
       Positions in reference frame:
         [ +0.000000 +0.000000 +0.000000 ]
     Net charge: 1   dipole magnitude: 0
     Initializing gaussian mfKernel with width: 1.59012 Bohr
     deltaS corrections:
       site 'F': -9.04335

Correction to mu due to finite nuclear width = -0.0202902
   Cavity determined by nc: 0.00142 and sigma: 0.707107
   Nonlocal vdW cavity from gaussian model electron density with norm = 8 and sigma = 0.993594 bohr
   Charge asymmetry in cavity with sensitivity pCavity = 36.5 e-bohr/Eh
   Electrostatic cavity expanded by eta = 1.46 bohrs
   Weighted density cavitation model constrained by Nbulk: 0.0049383 bohr^-3, Pvap: 3.14029 kPa, Rvdw: 2.61727 bohr and sigmaBulk: 4.62e-05 Eh/bohr^2 at T: 298 K.
   Weighted density dispersion model using vdW pair potentials with single solvent site with sqrtC6eff: 0.77 SI.


---- Citations for features of the code used in this run ----

   Software package:
      R. Sundararaman, K. Letchworth-Weaver, K.A. Schwarz, D. Gunceler, Y. Ozhabes and T.A. Arias, 'JDFTx: software for joint density-functional theory', SoftwareX 6, 278 (2017)

   gga-PBE exchange-correlation functional:
      J.P. Perdew, K. Burke and M. Ernzerhof, Phys. Rev. Lett. 77, 3865 (1996)

   Pseudopotentials:
      KF Garrity, JW Bennett, KM Rabe and D Vanderbilt, Comput. Mater. Sci. 81, 446 (2014)

   Truncated Coulomb potentials:
      R. Sundararaman and T.A. Arias, Phys. Rev. B 87, 165122 (2013)

   Van der Waals correction pair-potentials:
      S. Grimme, J. Comput. Chem. 27, 1787 (2006)

   Charge-asymmetric nonlocally-determined local-electric (CANDLE) solvation model:
      R. Sundararaman and W.A. Goddard III, J. Chem. Phys. 142, 064107 (2015)

   Total energy minimization with Auxiliary Hamiltonian:
      C. Freysoldt, S. Boeck, and J. Neugebauer, Phys. Rev. B 79, 241103(R) (2009)

This list may not be complete. Please suggest additional citations or
report any other bugs at https://github.com/shankar1729/jdftx/issues

Initialization completed successfully at t[s]:    627.93

Fluid solver invoked on fresh (partially random / LCAO) wavefunctions
Running a vacuum solve first:

-------- Initial electronic minimization -----------
	FillingsUpdate:  mu: +0.417741650  nElectrons: 44.200000  magneticMoment: [ Abs: 0.16668  Tot: +0.11798 ]
ElecMinimize: Iter:   0  F: -185.900701405644924  |grad|_K:  2.290e-04  alpha:  1.000e+00
	FillingsUpdate:  mu: +0.263124827  nElectrons: 44.200000  magneticMoment: [ Abs: 0.14206  Tot: +0.09767 ]
	SubspaceRotationAdjust: set factor to 0.998
ElecMinimize: Iter:   1  F: -186.176797411547483  |grad|_K:  1.424e-04  alpha:  3.803e-01  linmin:  4.838e-05  t[s]:    660.49
	FillingsUpdate:  mu: +0.261943920  nElectrons: 44.200000  magneticMoment: [ Abs: 0.11884  Tot: +0.08196 ]
	SubspaceRotationAdjust: set factor to 0.532
ElecMinimize: Iter:   2  F: -186.244065711260561  |grad|_K:  3.708e-04  alpha:  2.284e-01  linmin: -3.658e-05  t[s]:    680.11
	FillingsUpdate:  mu: +0.324910970  nElectrons: 44.200000  magneticMoment: [ Abs: 0.10747  Tot: +0.07581 ]
	SubspaceRotationAdjust: set factor to 0.563
ElecMinimize: Iter:   3  F: -186.310502925049889  |grad|_K:  9.165e-05  alpha:  2.479e-02  linmin: -1.222e-03  t[s]:    701.05
	FillingsUpdate:  mu: +0.304939220  nElectrons: 44.200000  magneticMoment: [ Abs: 0.10543  Tot: +0.07479 ]
	SubspaceRotationAdjust: set factor to 0.38
ElecMinimize: Iter:   4  F: -186.319598444062080  |grad|_K:  1.213e-04  alpha:  5.757e-02  linmin:  5.019e-05  t[s]:    720.34
	FillingsUpdate:  mu: +0.281723073  nElectrons: 44.200000  magneticMoment: [ Abs: 0.08342  Tot: +0.05818 ]
	SubspaceRotationAdjust: set factor to 0.204
ElecMinimize: Iter:   5  F: -186.353984066961203  |grad|_K:  2.146e-04  alpha:  1.725e-01  linmin:  6.182e-05  t[s]:    739.13
	FillingsUpdate:  mu: +0.281096650  nElectrons: 44.200000  magneticMoment: [ Abs: 0.06718  Tot: +0.04481 ]
	SubspaceRotationAdjust: set factor to 0.239
ElecMinimize: Iter:   6  F: -186.380555863900724  |grad|_K:  8.972e-05  alpha:  3.779e-02  linmin: -1.806e-04  t[s]:    757.62
	FillingsUpdate:  mu: +0.281486245  nElectrons: 44.200000  magneticMoment: [ Abs: 0.06206  Tot: +0.04023 ]
	SubspaceRotationAdjust: set factor to 0.182
ElecMinimize: Iter:   7  F: -186.388687041490414  |grad|_K:  7.286e-05  alpha:  6.547e-02  linmin:  3.419e-05  t[s]:    776.74
	FillingsUpdate:  mu: +0.218511698  nElectrons: 44.200000  magneticMoment: [ Abs: 0.05545  Tot: +0.03341 ]
	SubspaceRotationAdjust: set factor to 0.113
	SubspaceRotationAdjust: resetting CG because factor has changed by 0.112915
ElecMinimize: 	State modified externally: resetting search direction.
ElecMinimize: Iter:   8  F: -186.399711977620655  |grad|_K:  7.143e-05  alpha:  1.524e-01
	FillingsUpdate:  mu: +0.245362949  nElectrons: 44.200000  magneticMoment: [ Abs: 0.05565  Tot: +0.03387 ]
	SubspaceRotationAdjust: set factor to 0.0674
ElecMinimize: Iter:   9  F: -186.409563169242205  |grad|_K:  3.238e-05  alpha:  1.376e-01  linmin:  9.618e-05  t[s]:    826.53
ElecMinimize: 	Predicted alpha/alphaT>3.000000, increasing alphaT to 4.127368e-01.
	FillingsUpdate:  mu: +0.235738957  nElectrons: 44.200000  magneticMoment: [ Abs: 0.05377  Tot: +0.03327 ]
	SubspaceRotationAdjust: set factor to 0.072
ElecMinimize: Iter:  10  F: -186.418950816466491  |grad|_K:  1.977e-05  alpha:  6.398e-01  linmin:  1.538e-05  t[s]:    855.42
	FillingsUpdate:  mu: +0.226913900  nElectrons: 44.200000  magneticMoment: [ Abs: 0.05236  Tot: +0.03291 ]
	SubspaceRotationAdjust: set factor to 0.0821
ElecMinimize: Iter:  11  F: -186.422817361878515  |grad|_K:  1.464e-05  alpha:  7.063e-01  linmin:  1.254e-05  t[s]:    875.10
	FillingsUpdate:  mu: +0.209162648  nElectrons: 44.200000  magneticMoment: [ Abs: 0.05125  Tot: +0.03260 ]
	SubspaceRotationAdjust: set factor to 0.0894
ElecMinimize: Iter:  12  F: -186.424833157808166  |grad|_K:  1.384e-05  alpha:  6.705e-01  linmin:  2.149e-05  t[s]:    895.87
	FillingsUpdate:  mu: +0.190109201  nElectrons: 44.200000  magneticMoment: [ Abs: 0.04942  Tot: +0.03169 ]
	SubspaceRotationAdjust: set factor to 0.0674
ElecMinimize: Iter:  13  F: -186.426731757925381  |grad|_K:  1.600e-05  alpha:  7.112e-01  linmin:  8.072e-05  t[s]:    917.67
	FillingsUpdate:  mu: +0.182113246  nElectrons: 44.200000  magneticMoment: [ Abs: 0.04835  Tot: +0.03107 ]
	SubspaceRotationAdjust: set factor to 0.0553
ElecMinimize: Iter:  14  F: -186.427627663792123  |grad|_K:  9.891e-06  alpha:  2.421e-01  linmin: -1.280e-04  t[s]:    937.64
ElecMinimize: 	Predicted alpha/alphaT>3.000000, increasing alphaT to 7.263865e-01.
	FillingsUpdate:  mu: +0.172842648  nElectrons: 44.200000  magneticMoment: [ Abs: 0.04710  Tot: +0.03068 ]
	SubspaceRotationAdjust: set factor to 0.0704
ElecMinimize: Iter:  15  F: -186.428871561129569  |grad|_K:  1.145e-05  alpha:  8.752e-01  linmin:  9.329e-06  t[s]:    965.03
	FillingsUpdate:  mu: +0.166102403  nElectrons: 44.200000  magneticMoment: [ Abs: 0.04799  Tot: +0.03228 ]
	SubspaceRotationAdjust: set factor to 0.0596
ElecMinimize: Iter:  16  F: -186.429621059903837  |grad|_K:  1.047e-05  alpha:  3.965e-01  linmin: -6.286e-05  t[s]:    986.13
	FillingsUpdate:  mu: +0.122357581  nElectrons: 44.200000  magneticMoment: [ Abs: 0.06259  Tot: +0.04904 ]
	SubspaceRotationAdjust: set factor to 0.0563
ElecMinimize: Iter:  17  F: -186.430483874070063  |grad|_K:  1.325e-05  alpha:  7.461e-01  linmin:  9.706e-04  t[s]:   1005.79
	FillingsUpdate:  mu: +0.121399945  nElectrons: 44.200000  magneticMoment: [ Abs: 0.06274  Tot: +0.04922 ]
	SubspaceRotationAdjust: set factor to 0.067
ElecMinimize: Iter:  18  F: -186.430486612240969  |grad|_K:  1.317e-05  alpha:  5.159e-03  linmin: -8.872e-05  t[s]:   1025.37
ElecMinimize: 	Predicted alpha/alphaT>3.000000, increasing alphaT to 1.547613e-02.
ElecMinimize: 	Predicted alpha/alphaT>3.000000, increasing alphaT to 4.642838e-02.
	FillingsUpdate:  mu: +0.105425134  nElectrons: 44.200000  magneticMoment: [ Abs: 0.06397  Tot: +0.05099 ]
	SubspaceRotationAdjust: set factor to 0.0854
ElecMinimize: Iter:  19  F: -186.430701940129609  |grad|_K:  1.108e-05  alpha:  8.545e-02  linmin:  1.535e-04  t[s]:   1059.53
	FillingsUpdate:  mu: +0.097891996  nElectrons: 44.200000  magneticMoment: [ Abs: 0.06350  Tot: +0.05080 ]
	SubspaceRotationAdjust: set factor to 0.0808
ElecMinimize: Iter:  20  F: -186.430798306293269  |grad|_K:  1.084e-05  alpha:  6.177e-02  linmin:  4.385e-06  t[s]:   1079.28
	FillingsUpdate:  mu: +0.092408448  nElectrons: 44.200000  magneticMoment: [ Abs: 0.06217  Tot: +0.04974 ]
	SubspaceRotationAdjust: set factor to 0.0726
ElecMinimize: Iter:  21  F: -186.430905153900056  |grad|_K:  1.099e-05  alpha:  6.502e-02  linmin:  1.241e-05  t[s]:   1098.25
	FillingsUpdate:  mu: +0.088521136  nElectrons: 44.200000  magneticMoment: [ Abs: 0.05986  Tot: +0.04773 ]
	SubspaceRotationAdjust: set factor to 0.0766
ElecMinimize: Iter:  22  F: -186.431025574057827  |grad|_K:  1.193e-05  alpha:  7.173e-02  linmin:  7.686e-06  t[s]:   1118.23
	FillingsUpdate:  mu: +0.085502084  nElectrons: 44.200000  magneticMoment: [ Abs: 0.05637  Tot: +0.04450 ]
	SubspaceRotationAdjust: set factor to 0.0945
ElecMinimize: Iter:  23  F: -186.431172725385068  |grad|_K:  1.329e-05  alpha:  7.432e-02  linmin:  6.942e-06  t[s]:   1139.20
	FillingsUpdate:  mu: +0.083242425  nElectrons: 44.200000  magneticMoment: [ Abs: 0.05272  Tot: +0.04056 ]
	SubspaceRotationAdjust: set factor to 0.117
ElecMinimize: Iter:  24  F: -186.431329750624684  |grad|_K:  1.415e-05  alpha:  6.368e-02  linmin:  5.643e-06  t[s]:   1159.18
	FillingsUpdate:  mu: +0.082083880  nElectrons: 44.200000  magneticMoment: [ Abs: 0.04998  Tot: +0.03684 ]
	SubspaceRotationAdjust: set factor to 0.129
ElecMinimize: Iter:  25  F: -186.431472997328285  |grad|_K:  1.449e-05  alpha:  5.102e-02  linmin:  4.780e-06  t[s]:   1179.68
	FillingsUpdate:  mu: +0.082218714  nElectrons: 44.200000  magneticMoment: [ Abs: 0.04798  Tot: +0.03351 ]
	SubspaceRotationAdjust: set factor to 0.125
ElecMinimize: Iter:  26  F: -186.431599238756064  |grad|_K:  1.454e-05  alpha:  4.291e-02  linmin:  5.886e-06  t[s]:   1201.24
	FillingsUpdate:  mu: +0.083420144  nElectrons: 44.200000  magneticMoment: [ Abs: 0.04662  Tot: +0.03041 ]
	SubspaceRotationAdjust: set factor to 0.117
ElecMinimize: Iter:  27  F: -186.431711962388306  |grad|_K:  1.402e-05  alpha:  3.825e-02  linmin:  5.848e-06  t[s]:   1220.22
	FillingsUpdate:  mu: +0.085340762  nElectrons: 44.200000  magneticMoment: [ Abs: 0.04595  Tot: +0.02749 ]
	SubspaceRotationAdjust: set factor to 0.116
ElecMinimize: Iter:  28  F: -186.431811730756550  |grad|_K:  1.317e-05  alpha:  3.645e-02  linmin:  4.144e-06  t[s]:   1238.47
	FillingsUpdate:  mu: +0.087825831  nElectrons: 44.200000  magneticMoment: [ Abs: 0.04675  Tot: +0.02474 ]
	SubspaceRotationAdjust: set factor to 0.125
ElecMinimize: Iter:  29  F: -186.431900372957386  |grad|_K:  1.256e-05  alpha:  3.661e-02  linmin:  1.231e-06  t[s]:   1256.40
	FillingsUpdate:  mu: +0.090889856  nElectrons: 44.200000  magneticMoment: [ Abs: 0.04920  Tot: +0.02211 ]
	SubspaceRotationAdjust: set factor to 0.136
ElecMinimize: Iter:  30  F: -186.431982418558391  |grad|_K:  1.234e-05  alpha:  3.713e-02  linmin: -2.093e-06  t[s]:   1275.50
	FillingsUpdate:  mu: +0.094544684  nElectrons: 44.200000  magneticMoment: [ Abs: 0.05176  Tot: +0.01959 ]
	SubspaceRotationAdjust: set factor to 0.146
ElecMinimize: Iter:  31  F: -186.432061886955836  |grad|_K:  1.218e-05  alpha:  3.709e-02  linmin: -5.654e-06  t[s]:   1294.20
	FillingsUpdate:  mu: +0.098648066  nElectrons: 44.200000  magneticMoment: [ Abs: 0.05411  Tot: +0.01731 ]
	SubspaceRotationAdjust: set factor to 0.164
ElecMinimize: Iter:  32  F: -186.432138809005096  |grad|_K:  1.165e-05  alpha:  3.671e-02  linmin: -8.818e-06  t[s]:   1313.16
	FillingsUpdate:  mu: +0.103014707  nElectrons: 44.200000  magneticMoment: [ Abs: 0.05605  Tot: +0.01545 ]
	SubspaceRotationAdjust: set factor to 0.202
ElecMinimize: Iter:  33  F: -186.432210034333650  |grad|_K:  1.102e-05  alpha:  3.698e-02  linmin: -1.022e-05  t[s]:   1333.94
	FillingsUpdate:  mu: +0.107774223  nElectrons: 44.200000  magneticMoment: [ Abs: 0.05757  Tot: +0.01402 ]
	SubspaceRotationAdjust: set factor to 0.243
ElecMinimize: Iter:  34  F: -186.432276639416017  |grad|_K:  1.099e-05  alpha:  3.856e-02  linmin: -1.043e-05  t[s]:   1353.89
	FillingsUpdate:  mu: +0.113338998  nElectrons: 44.200000  magneticMoment: [ Abs: 0.05881  Tot: +0.01293 ]
	SubspaceRotationAdjust: set factor to 0.279
ElecMinimize: Iter:  35  F: -186.432345256669350  |grad|_K:  1.132e-05  alpha:  3.996e-02  linmin: -9.911e-06  t[s]:   1374.10
	FillingsUpdate:  mu: +0.119308862  nElectrons: 44.200000  magneticMoment: [ Abs: 0.05970  Tot: +0.01223 ]
	SubspaceRotationAdjust: set factor to 0.362
ElecMinimize: Iter:  36  F: -186.432414442238581  |grad|_K:  1.108e-05  alpha:  3.802e-02  linmin: -5.917e-06  t[s]:   1394.39
	FillingsUpdate:  mu: +0.124909763  nElectrons: 44.200000  magneticMoment: [ Abs: 0.06025  Tot: +0.01192 ]
	SubspaceRotationAdjust: set factor to 0.425
ElecMinimize: Iter:  37  F: -186.432479591032347  |grad|_K:  1.162e-05  alpha:  3.758e-02  linmin: -3.755e-06  t[s]:   1414.80
	FillingsUpdate:  mu: +0.130425069  nElectrons: 44.200000  magneticMoment: [ Abs: 0.06066  Tot: +0.01185 ]
	SubspaceRotationAdjust: set factor to 0.429
ElecMinimize: Iter:  38  F: -186.432551852801453  |grad|_K:  1.244e-05  alpha:  3.796e-02  linmin: -4.735e-06  t[s]:   1433.13
	FillingsUpdate:  mu: +0.134325652  nElectrons: 44.200000  magneticMoment: [ Abs: 0.06097  Tot: +0.01193 ]
	SubspaceRotationAdjust: set factor to 0.493
ElecMinimize: Iter:  39  F: -186.432622814938867  |grad|_K:  1.182e-05  alpha:  3.257e-02  linmin: -4.281e-06  t[s]:   1452.68
	FillingsUpdate:  mu: +0.135703648  nElectrons: 44.200000  magneticMoment: [ Abs: 0.06126  Tot: +0.01213 ]
	SubspaceRotationAdjust: set factor to 0.501
ElecMinimize: Iter:  40  F: -186.432696345183786  |grad|_K:  1.260e-05  alpha:  3.729e-02  linmin: -1.176e-05  t[s]:   1474.43
	FillingsUpdate:  mu: +0.133581522  nElectrons: 44.200000  magneticMoment: [ Abs: 0.06126  Tot: +0.01271 ]
	SubspaceRotationAdjust: set factor to 0.739
ElecMinimize: Iter:  41  F: -186.432770632459238  |grad|_K:  1.126e-05  alpha:  3.292e-02  linmin:  8.885e-06  t[s]:   1494.59
	FillingsUpdate:  mu: +0.128767772  nElectrons: 44.200000  magneticMoment: [ Abs: 0.06076  Tot: +0.01375 ]
	SubspaceRotationAdjust: set factor to 0.883
	SubspaceRotationAdjust: resetting CG because factor has changed by 7.82444
ElecMinimize: 	State modified externally: resetting search direction.
ElecMinimize: Iter:  42  F: -186.432825421536137  |grad|_K:  1.227e-05  alpha:  3.083e-02
	FillingsUpdate:  mu: +0.126379656  nElectrons: 44.200000  magneticMoment: [ Abs: 0.06099  Tot: +0.01381 ]
	SubspaceRotationAdjust: set factor to 0.484
ElecMinimize: Iter:  43  F: -186.432998903370901  |grad|_K:  2.890e-05  alpha:  8.200e-02  linmin: -8.898e-06  t[s]:   1549.17
	FillingsUpdate:  mu: +0.107403703  nElectrons: 44.200000  magneticMoment: [ Abs: 0.06297  Tot: +0.01369 ]
	SubspaceRotationAdjust: set factor to 0.367
ElecMinimize: Iter:  44  F: -186.433810530038357  |grad|_K:  1.051e-05  alpha:  6.735e-02  linmin:  1.221e-04  t[s]:   1568.50
	FillingsUpdate:  mu: +0.114816518  nElectrons: 44.200000  magneticMoment: [ Abs: 0.06304  Tot: +0.01473 ]
	SubspaceRotationAdjust: set factor to 0.205
ElecMinimize: Iter:  45  F: -186.434085598672340  |grad|_K:  1.933e-05  alpha:  1.801e-01  linmin: -8.751e-05  t[s]:   1588.13
	FillingsUpdate:  mu: +0.122636416  nElectrons: 44.200000  magneticMoment: [ Abs: 0.06370  Tot: +0.01552 ]
	SubspaceRotationAdjust: set factor to 0.0922
	SubspaceRotationAdjust: resetting CG because factor has changed by 0.104377
ElecMinimize: 	State modified externally: resetting search direction.
ElecMinimize: Iter:  46  F: -186.434449108919438  |grad|_K:  6.753e-06  alpha:  7.033e-02
ElecMinimize: 	Predicted alpha/alphaT>3.000000, increasing alphaT to 2.109991e-01.
	FillingsUpdate:  mu: +0.120629417  nElectrons: 44.200000  magneticMoment: [ Abs: 0.06384  Tot: +0.01555 ]
	SubspaceRotationAdjust: set factor to 0.0754
ElecMinimize: Iter:  47  F: -186.434648252735400  |grad|_K:  5.249e-06  alpha:  3.113e-01  linmin: -4.342e-05  t[s]:   1648.72
	FillingsUpdate:  mu: +0.119294921  nElectrons: 44.200000  magneticMoment: [ Abs: 0.06394  Tot: +0.01559 ]
	SubspaceRotationAdjust: set factor to 0.049
ElecMinimize: Iter:  48  F: -186.434732065982843  |grad|_K:  4.030e-06  alpha:  2.168e-01  linmin: -6.315e-06  t[s]:   1668.71
ElecMinimize: 	Predicted alpha/alphaT>3.000000, increasing alphaT to 6.505436e-01.
	FillingsUpdate:  mu: +0.116994238  nElectrons: 44.200000  magneticMoment: [ Abs: 0.06427  Tot: +0.01596 ]
	SubspaceRotationAdjust: set factor to 0.0588
ElecMinimize: Iter:  49  F: -186.434909293981121  |grad|_K:  3.989e-06  alpha:  7.781e-01  linmin:  3.147e-05  t[s]:   1696.13
	FillingsUpdate:  mu: +0.116196450  nElectrons: 44.200000  magneticMoment: [ Abs: 0.06449  Tot: +0.01642 ]
	SubspaceRotationAdjust: set factor to 0.0489
ElecMinimize: Iter:  50  F: -186.435037666965144  |grad|_K:  3.936e-06  alpha:  5.756e-01  linmin: -4.178e-05  t[s]:   1715.88
	FillingsUpdate:  mu: +0.116689392  nElectrons: 44.200000  magneticMoment: [ Abs: 0.06455  Tot: +0.01673 ]
	SubspaceRotationAdjust: set factor to 0.0343
ElecMinimize: Iter:  51  F: -186.435098965950516  |grad|_K:  1.892e-06  alpha:  2.821e-01  linmin: -1.635e-06  t[s]:   1736.48
	FillingsUpdate:  mu: +0.117992300  nElectrons: 44.200000  magneticMoment: [ Abs: 0.06456  Tot: +0.01699 ]
	SubspaceRotationAdjust: set factor to 0.0462
ElecMinimize: Iter:  52  F: -186.435122448791276  |grad|_K:  1.148e-06  alpha:  4.675e-01  linmin: -4.850e-05  t[s]:   1756.37
	FillingsUpdate:  mu: +0.118592488  nElectrons: 44.200000  magneticMoment: [ Abs: 0.06457  Tot: +0.01721 ]
	SubspaceRotationAdjust: set factor to 0.0427
ElecMinimize: Iter:  53  F: -186.435134073672685  |grad|_K:  1.146e-06  alpha:  6.287e-01  linmin: -1.023e-05  t[s]:   1775.67
	FillingsUpdate:  mu: +0.119191588  nElectrons: 44.200000  magneticMoment: [ Abs: 0.06463  Tot: +0.01749 ]
	SubspaceRotationAdjust: set factor to 0.037
ElecMinimize: Iter:  54  F: -186.435145005599196  |grad|_K:  1.059e-06  alpha:  5.936e-01  linmin:  1.426e-05  t[s]:   1794.59
	FillingsUpdate:  mu: +0.119798422  nElectrons: 44.200000  magneticMoment: [ Abs: 0.06477  Tot: +0.01782 ]
	SubspaceRotationAdjust: set factor to 0.043
ElecMinimize: Iter:  55  F: -186.435154960238833  |grad|_K:  7.932e-07  alpha:  6.334e-01  linmin:  4.919e-05  t[s]:   1812.92
	FillingsUpdate:  mu: +0.119820860  nElectrons: 44.200000  magneticMoment: [ Abs: 0.06493  Tot: +0.01802 ]
	SubspaceRotationAdjust: set factor to 0.0524
ElecMinimize: Iter:  56  F: -186.435160127461728  |grad|_K:  6.929e-07  alpha:  5.868e-01  linmin:  4.029e-05  t[s]:   1831.84
	FillingsUpdate:  mu: +0.119551135  nElectrons: 44.200000  magneticMoment: [ Abs: 0.06520  Tot: +0.01822 ]
	SubspaceRotationAdjust: set factor to 0.0548
ElecMinimize: Iter:  57  F: -186.435164554114635  |grad|_K:  7.804e-07  alpha:  6.594e-01  linmin:  4.837e-05  t[s]:   1851.13
	FillingsUpdate:  mu: +0.118771981  nElectrons: 44.200000  magneticMoment: [ Abs: 0.06572  Tot: +0.01856 ]
	SubspaceRotationAdjust: set factor to 0.0524
ElecMinimize: Iter:  58  F: -186.435170582382113  |grad|_K:  9.034e-07  alpha:  7.103e-01  linmin:  9.272e-05  t[s]:   1870.17
	FillingsUpdate:  mu: +0.117676304  nElectrons: 44.200000  magneticMoment: [ Abs: 0.06632  Tot: +0.01895 ]
	SubspaceRotationAdjust: set factor to 0.0531
ElecMinimize: Iter:  59  F: -186.435176542020514  |grad|_K:  7.786e-07  alpha:  5.224e-01  linmin:  3.867e-05  t[s]:   1890.49
	FillingsUpdate:  mu: +0.116834358  nElectrons: 44.200000  magneticMoment: [ Abs: 0.06692  Tot: +0.01938 ]
	SubspaceRotationAdjust: set factor to 0.0596
ElecMinimize: Iter:  60  F: -186.435181666755852  |grad|_K:  7.384e-07  alpha:  6.091e-01  linmin:  1.052e-04  t[s]:   1911.04
	FillingsUpdate:  mu: +0.116687664  nElectrons: 44.200000  magneticMoment: [ Abs: 0.06742  Tot: +0.01980 ]
	SubspaceRotationAdjust: set factor to 0.0623
ElecMinimize: Iter:  61  F: -186.435185479096560  |grad|_K:  7.376e-07  alpha:  5.062e-01  linmin: -6.040e-06  t[s]:   1930.48
	FillingsUpdate:  mu: +0.116977825  nElectrons: 44.200000  magneticMoment: [ Abs: 0.06796  Tot: +0.02029 ]
	SubspaceRotationAdjust: set factor to 0.0614
ElecMinimize: Iter:  62  F: -186.435189095795124  |grad|_K:  6.795e-07  alpha:  4.735e-01  linmin: -2.632e-05  t[s]:   1951.32
	FillingsUpdate:  mu: +0.117429975  nElectrons: 44.200000  magneticMoment: [ Abs: 0.06850  Tot: +0.02077 ]
	SubspaceRotationAdjust: set factor to 0.0671
ElecMinimize: Iter:  63  F: -186.435192112651777  |grad|_K:  5.093e-07  alpha:  4.635e-01  linmin: -2.470e-05  t[s]:   1972.13
	FillingsUpdate:  mu: +0.117849653  nElectrons: 44.200000  magneticMoment: [ Abs: 0.06891  Tot: +0.02113 ]
	SubspaceRotationAdjust: set factor to 0.0755
ElecMinimize: Iter:  64  F: -186.435193874166742  |grad|_K:  3.862e-07  alpha:  4.822e-01  linmin: -1.200e-05  t[s]:   1991.51
	FillingsUpdate:  mu: +0.118170261  nElectrons: 44.200000  magneticMoment: [ Abs: 0.06922  Tot: +0.02138 ]
	SubspaceRotationAdjust: set factor to 0.0772
ElecMinimize: Iter:  65  F: -186.435194792356867  |grad|_K:  3.261e-07  alpha:  4.380e-01  linmin: -3.949e-07  t[s]:   2010.02
	FillingsUpdate:  mu: +0.118342144  nElectrons: 44.200000  magneticMoment: [ Abs: 0.06951  Tot: +0.02158 ]
	SubspaceRotationAdjust: set factor to 0.0722
ElecMinimize: Iter:  66  F: -186.435195334037076  |grad|_K:  3.029e-07  alpha:  3.630e-01  linmin:  8.835e-07  t[s]:   2029.77
	FillingsUpdate:  mu: +0.118422715  nElectrons: 44.200000  magneticMoment: [ Abs: 0.06988  Tot: +0.02182 ]
	SubspaceRotationAdjust: set factor to 0.0791
ElecMinimize: Iter:  67  F: -186.435195829575605  |grad|_K:  2.489e-07  alpha:  3.850e-01  linmin:  8.209e-06  t[s]:   2050.48
	FillingsUpdate:  mu: +0.118399379  nElectrons: 44.200000  magneticMoment: [ Abs: 0.07042  Tot: +0.02214 ]
	SubspaceRotationAdjust: set factor to 0.102
ElecMinimize: Iter:  68  F: -186.435196321820342  |grad|_K:  2.353e-07  alpha:  5.678e-01  linmin:  1.132e-05  t[s]:   2069.85
	FillingsUpdate:  mu: +0.118304535  nElectrons: 44.200000  magneticMoment: [ Abs: 0.07107  Tot: +0.02250 ]
	SubspaceRotationAdjust: set factor to 0.135
ElecMinimize: Iter:  69  F: -186.435196759561734  |grad|_K:  2.237e-07  alpha:  5.652e-01  linmin:  1.094e-05  t[s]:   2090.26
	FillingsUpdate:  mu: +0.118139206  nElectrons: 44.200000  magneticMoment: [ Abs: 0.07194  Tot: +0.02299 ]
	SubspaceRotationAdjust: set factor to 0.167
ElecMinimize: Iter:  70  F: -186.435197191334623  |grad|_K:  2.558e-07  alpha:  6.175e-01  linmin:  2.242e-05  t[s]:   2110.50
	FillingsUpdate:  mu: +0.118067176  nElectrons: 44.200000  magneticMoment: [ Abs: 0.07276  Tot: +0.02345 ]
	SubspaceRotationAdjust: set factor to 0.121
ElecMinimize: Iter:  71  F: -186.435197509312616  |grad|_K:  3.678e-07  alpha:  3.459e-01  linmin: -4.066e-06  t[s]:   2130.46
	FillingsUpdate:  mu: +0.118046789  nElectrons: 44.200000  magneticMoment: [ Abs: 0.07356  Tot: +0.02391 ]
	SubspaceRotationAdjust: set factor to 0.104
ElecMinimize: Iter:  72  F: -186.435197791786550  |grad|_K:  2.617e-07  alpha:  1.455e-01  linmin: -2.206e-05  t[s]:   2150.28
ElecMinimize: 	Predicted alpha/alphaT>3.000000, increasing alphaT to 4.366447e-01.
	FillingsUpdate:  mu: +0.118117837  nElectrons: 44.200000  magneticMoment: [ Abs: 0.07496  Tot: +0.02472 ]
	SubspaceRotationAdjust: set factor to 0.129
ElecMinimize: Iter:  73  F: -186.435198213142172  |grad|_K:  2.506e-07  alpha:  4.333e-01  linmin:  4.744e-05  t[s]:   2177.01
	FillingsUpdate:  mu: +0.118164186  nElectrons: 44.200000  magneticMoment: [ Abs: 0.07575  Tot: +0.02519 ]
	SubspaceRotationAdjust: set factor to 0.113
ElecMinimize: Iter:  74  F: -186.435198417843480  |grad|_K:  2.626e-07  alpha:  2.350e-01  linmin: -1.089e-05  t[s]:   2196.41
	FillingsUpdate:  mu: +0.118208494  nElectrons: 44.200000  magneticMoment: [ Abs: 0.07664  Tot: +0.02571 ]
	SubspaceRotationAdjust: set factor to 0.107
ElecMinimize: Iter:  75  F: -186.435198621832939  |grad|_K:  1.933e-07  alpha:  2.094e-01  linmin:  1.336e-05  t[s]:   2216.13
	FillingsUpdate:  mu: +0.118240012  nElectrons: 44.200000  magneticMoment: [ Abs: 0.07763  Tot: +0.02629 ]
	SubspaceRotationAdjust: set factor to 0.125
ElecMinimize: Iter:  76  F: -186.435198809168526  |grad|_K:  1.863e-07  alpha:  3.613e-01  linmin:  2.129e-05  t[s]:   2235.47
	FillingsUpdate:  mu: +0.118256153  nElectrons: 44.200000  magneticMoment: [ Abs: 0.07841  Tot: +0.02675 ]
	SubspaceRotationAdjust: set factor to 0.12
ElecMinimize: Iter:  77  F: -186.435198934310336  |grad|_K:  2.003e-07  alpha:  2.592e-01  linmin: -1.669e-06  t[s]:   2257.03
	FillingsUpdate:  mu: +0.118263570  nElectrons: 44.200000  magneticMoment: [ Abs: 0.07937  Tot: +0.02730 ]
	SubspaceRotationAdjust: set factor to 0.131
ElecMinimize: Iter:  78  F: -186.435199068497354  |grad|_K:  1.699e-07  alpha:  2.382e-01  linmin: -2.487e-06  t[s]:   2276.45
	FillingsUpdate:  mu: +0.118249510  nElectrons: 44.200000  magneticMoment: [ Abs: 0.08065  Tot: +0.02804 ]
	SubspaceRotationAdjust: set factor to 0.172
ElecMinimize: Iter:  79  F: -186.435199220041966  |grad|_K:  1.625e-07  alpha:  3.739e-01  linmin: -2.301e-06  t[s]:   2295.93
	FillingsUpdate:  mu: +0.118207794  nElectrons: 44.200000  magneticMoment: [ Abs: 0.08200  Tot: +0.02881 ]
	SubspaceRotationAdjust: set factor to 0.14
ElecMinimize: Iter:  80  F: -186.435199353882581  |grad|_K:  1.897e-07  alpha:  3.609e-01  linmin:  2.686e-06  t[s]:   2316.83
	FillingsUpdate:  mu: +0.118181338  nElectrons: 44.200000  magneticMoment: [ Abs: 0.08296  Tot: +0.02936 ]
	SubspaceRotationAdjust: set factor to 0.112
ElecMinimize: Iter:  81  F: -186.435199436988455  |grad|_K:  1.851e-07  alpha:  1.645e-01  linmin: -3.059e-06  t[s]:   2336.59
	FillingsUpdate:  mu: +0.118158107  nElectrons: 44.200000  magneticMoment: [ Abs: 0.08454  Tot: +0.03026 ]
	SubspaceRotationAdjust: set factor to 0.161
ElecMinimize: Iter:  82  F: -186.435199558886268  |grad|_K:  1.519e-07  alpha:  2.539e-01  linmin:  1.736e-05  t[s]:   2356.38
	FillingsUpdate:  mu: +0.118172781  nElectrons: 44.200000  magneticMoment: [ Abs: 0.08630  Tot: +0.03126 ]
	SubspaceRotationAdjust: set factor to 0.142
ElecMinimize: Iter:  83  F: -186.435199678152401  |grad|_K:  1.943e-07  alpha:  3.729e-01  linmin:  2.029e-05  t[s]:   2377.94
	FillingsUpdate:  mu: +0.118196648  nElectrons: 44.200000  magneticMoment: [ Abs: 0.08757  Tot: +0.03198 ]
	SubspaceRotationAdjust: set factor to 0.14
ElecMinimize: Iter:  84  F: -186.435199756718845  |grad|_K:  1.846e-07  alpha:  1.494e-01  linmin:  4.997e-07  t[s]:   2397.23
	FillingsUpdate:  mu: +0.118244093  nElectrons: 44.200000  magneticMoment: [ Abs: 0.09011  Tot: +0.03340 ]
	SubspaceRotationAdjust: set factor to 0.185
ElecMinimize: Iter:  85  F: -186.435199900970048  |grad|_K:  1.850e-07  alpha:  3.026e-01  linmin:  1.646e-05  t[s]:   2416.89
	FillingsUpdate:  mu: +0.118251039  nElectrons: 44.200000  magneticMoment: [ Abs: 0.09232  Tot: +0.03463 ]
	SubspaceRotationAdjust: set factor to 0.169
ElecMinimize: Iter:  86  F: -186.435200015312461  |grad|_K:  2.495e-07  alpha:  2.407e-01  linmin:  9.041e-06  t[s]:   2438.17
	FillingsUpdate:  mu: +0.118231898  nElectrons: 44.200000  magneticMoment: [ Abs: 0.09478  Tot: +0.03599 ]
	SubspaceRotationAdjust: set factor to 0.165
ElecMinimize: Iter:  87  F: -186.435200136702775  |grad|_K:  1.947e-07  alpha:  1.396e-01  linmin:  6.393e-06  t[s]:   2457.12
	FillingsUpdate:  mu: +0.118170877  nElectrons: 44.200000  magneticMoment: [ Abs: 0.09862  Tot: +0.03807 ]
	SubspaceRotationAdjust: set factor to 0.207
ElecMinimize: Iter:  88  F: -186.435200308270623  |grad|_K:  2.163e-07  alpha:  3.270e-01  linmin:  2.442e-05  t[s]:   2475.51
	FillingsUpdate:  mu: +0.118141290  nElectrons: 44.200000  magneticMoment: [ Abs: 0.10155  Tot: +0.03964 ]
	SubspaceRotationAdjust: set factor to 0.178
ElecMinimize: Iter:  89  F: -186.435200430331435  |grad|_K:  2.756e-07  alpha:  1.889e-01  linmin:  3.516e-06  t[s]:   2496.28
	FillingsUpdate:  mu: +0.118125945  nElectrons: 44.200000  magneticMoment: [ Abs: 0.10596  Tot: +0.04198 ]
	SubspaceRotationAdjust: set factor to 0.203
ElecMinimize: Iter:  90  F: -186.435200608091293  |grad|_K:  2.312e-07  alpha:  1.673e-01  linmin:  7.245e-06  t[s]:   2515.43
	FillingsUpdate:  mu: +0.118159159  nElectrons: 44.200000  magneticMoment: [ Abs: 0.11304  Tot: +0.04568 ]
	SubspaceRotationAdjust: set factor to 0.229
ElecMinimize: Iter:  91  F: -186.435200873758475  |grad|_K:  2.589e-07  alpha:  3.576e-01  linmin:  1.241e-05  t[s]:   2534.93
	FillingsUpdate:  mu: +0.118199805  nElectrons: 44.200000  magneticMoment: [ Abs: 0.12295  Tot: +0.05077 ]
	SubspaceRotationAdjust: set factor to 0.198
ElecMinimize: Iter:  92  F: -186.435201223784105  |grad|_K:  3.433e-07  alpha:  3.775e-01  linmin:  2.001e-05  t[s]:   2556.66
	FillingsUpdate:  mu: +0.118198911  nElectrons: 44.200000  magneticMoment: [ Abs: 0.12977  Tot: +0.05422 ]
	SubspaceRotationAdjust: set factor to 0.155
ElecMinimize: Iter:  93  F: -186.435201460140888  |grad|_K:  3.907e-07  alpha:  1.421e-01  linmin: -6.893e-06  t[s]:   2576.84
	FillingsUpdate:  mu: +0.118163203  nElectrons: 44.200000  magneticMoment: [ Abs: 0.14148  Tot: +0.06007 ]
	SubspaceRotationAdjust: set factor to 0.218
ElecMinimize: Iter:  94  F: -186.435201850891673  |grad|_K:  3.251e-07  alpha:  1.833e-01  linmin:  5.521e-05  t[s]:   2595.09
	FillingsUpdate:  mu: +0.118126084  nElectrons: 44.200000  magneticMoment: [ Abs: 0.15269  Tot: +0.06559 ]
	SubspaceRotationAdjust: set factor to 0.178
ElecMinimize: Iter:  95  F: -186.435202184557681  |grad|_K:  4.315e-07  alpha:  2.452e-01  linmin:  5.909e-05  t[s]:   2613.16
	FillingsUpdate:  mu: +0.118110237  nElectrons: 44.200000  magneticMoment: [ Abs: 0.16106  Tot: +0.06964 ]
	SubspaceRotationAdjust: set factor to 0.182
ElecMinimize: Iter:  96  F: -186.435202442229098  |grad|_K:  3.884e-07  alpha:  1.009e-01  linmin: -1.187e-05  t[s]:   2631.85
	FillingsUpdate:  mu: +0.118117226  nElectrons: 44.200000  magneticMoment: [ Abs: 0.17529  Tot: +0.07640 ]
	SubspaceRotationAdjust: set factor to 0.155
ElecMinimize: Iter:  97  F: -186.435202848496345  |grad|_K:  4.674e-07  alpha:  2.052e-01  linmin:  1.835e-04  t[s]:   2650.96
	FillingsUpdate:  mu: +0.118121360  nElectrons: 44.200000  magneticMoment: [ Abs: 0.17763  Tot: +0.07749 ]
	SubspaceRotationAdjust: set factor to 0.153
ElecMinimize: Iter:  98  F: -186.435202941167915  |grad|_K:  4.252e-07  alpha:  2.262e-02  linmin: -4.720e-04  t[s]:   2671.01
ElecMinimize: 	Predicted alpha/alphaT>3.000000, increasing alphaT to 6.787309e-02.
	FillingsUpdate:  mu: +0.118151374  nElectrons: 44.200000  magneticMoment: [ Abs: 0.18585  Tot: +0.08121 ]
	SubspaceRotationAdjust: set factor to 0.111
ElecMinimize: Iter:  99  F: -186.435203290236643  |grad|_K:  5.139e-07  alpha:  9.247e-02  linmin:  9.861e-05  t[s]:   2698.14
	FillingsUpdate:  mu: +0.118173440  nElectrons: 44.200000  magneticMoment: [ Abs: 0.19231  Tot: +0.08398 ]
	SubspaceRotationAdjust: set factor to 0.078
ElecMinimize: Iter: 100  F: -186.435203462172780  |grad|_K:  5.325e-07  alpha:  4.698e-02  linmin: -4.151e-05  t[s]:   2719.08
	FillingsUpdate:  mu: +0.118195722  nElectrons: 44.200000  magneticMoment: [ Abs: 0.20093  Tot: +0.08739 ]
	SubspaceRotationAdjust: set factor to 0.062
ElecMinimize: Iter: 101  F: -186.435203681573626  |grad|_K:  4.576e-07  alpha:  5.344e-02  linmin:  6.752e-05  t[s]:   2739.07
	FillingsUpdate:  mu: +0.118207916  nElectrons: 44.200000  magneticMoment: [ Abs: 0.20778  Tot: +0.08995 ]
	SubspaceRotationAdjust: set factor to 0.0542
ElecMinimize: Iter: 102  F: -186.435203830118837  |grad|_K:  4.181e-07  alpha:  5.433e-02  linmin:  2.378e-05  t[s]:   2759.32
	FillingsUpdate:  mu: +0.118217098  nElectrons: 44.200000  magneticMoment: [ Abs: 0.21589  Tot: +0.09297 ]
	SubspaceRotationAdjust: set factor to 0.0432
ElecMinimize: Iter: 103  F: -186.435204011428652  |grad|_K:  4.443e-07  alpha:  7.631e-02  linmin:  2.145e-05  t[s]:   2781.32
	FillingsUpdate:  mu: +0.118221153  nElectrons: 44.200000  magneticMoment: [ Abs: 0.22772  Tot: +0.09735 ]
	SubspaceRotationAdjust: set factor to 0.0317
ElecMinimize: Iter: 104  F: -186.435204272481599  |grad|_K:  4.994e-07  alpha:  9.798e-02  linmin:  3.942e-05  t[s]:   2800.89
	FillingsUpdate:  mu: +0.118214871  nElectrons: 44.200000  magneticMoment: [ Abs: 0.24009  Tot: +0.10191 ]
	SubspaceRotationAdjust: set factor to 0.0251
ElecMinimize: Iter: 105  F: -186.435204551241895  |grad|_K:  4.962e-07  alpha:  8.072e-02  linmin:  2.085e-05  t[s]:   2820.96
	FillingsUpdate:  mu: +0.118204516  nElectrons: 44.200000  magneticMoment: [ Abs: 0.24951  Tot: +0.10537 ]
	SubspaceRotationAdjust: set factor to 0.0219
ElecMinimize: Iter: 106  F: -186.435204767463091  |grad|_K:  4.596e-07  alpha:  6.204e-02  linmin:  1.336e-05  t[s]:   2841.20
	FillingsUpdate:  mu: +0.118195308  nElectrons: 44.200000  magneticMoment: [ Abs: 0.25645  Tot: +0.10792 ]
	SubspaceRotationAdjust: set factor to 0.0199
ElecMinimize: Iter: 107  F: -186.435204924493121  |grad|_K:  4.223e-07  alpha:  5.318e-02  linmin:  2.401e-05  t[s]:   2860.81
	FillingsUpdate:  mu: +0.118188557  nElectrons: 44.200000  magneticMoment: [ Abs: 0.26166  Tot: +0.10982 ]
	SubspaceRotationAdjust: set factor to 0.0177
ElecMinimize: Iter: 108  F: -186.435205039731727  |grad|_K:  3.913e-07  alpha:  4.705e-02  linmin:  2.365e-05  t[s]:   2880.36
	FillingsUpdate:  mu: +0.118183647  nElectrons: 44.200000  magneticMoment: [ Abs: 0.26592  Tot: +0.11137 ]
	SubspaceRotationAdjust: set factor to 0.0152
ElecMinimize: Iter: 109  F: -186.435205133586265  |grad|_K:  3.670e-07  alpha:  4.464e-02  linmin:  2.729e-05  t[s]:   2899.92
	FillingsUpdate:  mu: +0.118179855  nElectrons: 44.200000  magneticMoment: [ Abs: 0.26964  Tot: +0.11272 ]
	SubspaceRotationAdjust: set factor to 0.0128
ElecMinimize: Iter: 110  F: -186.435205215168565  |grad|_K:  3.494e-07  alpha:  4.420e-02  linmin:  2.988e-05  t[s]:   2921.39
	FillingsUpdate:  mu: +0.118176459  nElectrons: 44.200000  magneticMoment: [ Abs: 0.27310  Tot: +0.11397 ]
	SubspaceRotationAdjust: set factor to 0.0109
	SubspaceRotationAdjust: resetting CG because factor has changed by 0.118458
ElecMinimize: 	State modified externally: resetting search direction.
ElecMinimize: Iter: 111  F: -186.435205290473476  |grad|_K:  3.236e-07  alpha:  4.504e-02
ElecMinimize: 	Predicted alpha/alphaT>3.000000, increasing alphaT to 1.351068e-01.
ElecMinimize: 	Predicted alpha/alphaT>3.000000, increasing alphaT to 4.053203e-01.
ElecMinimize: 	Predicted alpha/alphaT>3.000000, increasing alphaT to 1.215961e+00.
	FillingsUpdate:  mu: +0.118191506  nElectrons: 44.200000  magneticMoment: [ Abs: 0.27352  Tot: +0.11400 ]
	SubspaceRotationAdjust: set factor to 0.0138
ElecMinimize: Iter: 112  F: -186.435207503474800  |grad|_K:  4.849e-07  alpha:  1.477e+00  linmin: -4.140e-04  t[s]:   2987.12
	FillingsUpdate:  mu: +0.118248465  nElectrons: 44.200000  magneticMoment: [ Abs: 0.27423  Tot: +0.11406 ]
	SubspaceRotationAdjust: set factor to 0.0162
ElecMinimize: Iter: 113  F: -186.435210142670911  |grad|_K:  4.999e-07  alpha:  7.984e-01  linmin:  8.511e-05  t[s]:   3007.26
	FillingsUpdate:  mu: +0.118272142  nElectrons: 44.200000  magneticMoment: [ Abs: 0.27506  Tot: +0.11414 ]
	SubspaceRotationAdjust: set factor to 0.0181
ElecMinimize: Iter: 114  F: -186.435212531805234  |grad|_K:  3.946e-07  alpha:  6.927e-01  linmin: -1.432e-04  t[s]:   3026.75
	FillingsUpdate:  mu: +0.118261427  nElectrons: 44.200000  magneticMoment: [ Abs: 0.27585  Tot: +0.11423 ]
	SubspaceRotationAdjust: set factor to 0.0209
ElecMinimize: Iter: 115  F: -186.435214326259967  |grad|_K:  4.100e-07  alpha:  8.070e-01  linmin: -9.827e-05  t[s]:   3046.75
	FillingsUpdate:  mu: +0.118244671  nElectrons: 44.200000  magneticMoment: [ Abs: 0.27680  Tot: +0.11436 ]
	SubspaceRotationAdjust: set factor to 0.0233
ElecMinimize: Iter: 116  F: -186.435216047569554  |grad|_K:  3.757e-07  alpha:  7.213e-01  linmin: -6.070e-05  t[s]:   3068.88
	FillingsUpdate:  mu: +0.118193111  nElectrons: 44.200000  magneticMoment: [ Abs: 0.27806  Tot: +0.11454 ]
	SubspaceRotationAdjust: set factor to 0.0255
ElecMinimize: Iter: 117  F: -186.435217820466988  |grad|_K:  3.936e-07  alpha:  8.824e-01  linmin: -9.735e-05  t[s]:   3088.31
	FillingsUpdate:  mu: +0.118149215  nElectrons: 44.200000  magneticMoment: [ Abs: 0.27960  Tot: +0.11476 ]
	SubspaceRotationAdjust: set factor to 0.0274
ElecMinimize: Iter: 118  F: -186.435219523756672  |grad|_K:  3.919e-07  alpha:  7.712e-01  linmin: -3.738e-05  t[s]:   3108.76
	FillingsUpdate:  mu: +0.118105473  nElectrons: 44.200000  magneticMoment: [ Abs: 0.28138  Tot: +0.11502 ]
	SubspaceRotationAdjust: set factor to 0.0297
ElecMinimize: Iter: 119  F: -186.435221103276518  |grad|_K:  3.264e-07  alpha:  7.274e-01  linmin: -3.722e-05  t[s]:   3131.06
	FillingsUpdate:  mu: +0.118073049  nElectrons: 44.200000  magneticMoment: [ Abs: 0.28293  Tot: +0.11525 ]
	SubspaceRotationAdjust: set factor to 0.0326
ElecMinimize: Iter: 120  F: -186.435222135807379  |grad|_K:  2.898e-07  alpha:  6.858e-01  linmin: -1.171e-05  t[s]:   3150.95
	FillingsUpdate:  mu: +0.118089295  nElectrons: 44.200000  magneticMoment: [ Abs: 0.28467  Tot: +0.11550 ]
	SubspaceRotationAdjust: set factor to 0.0361
ElecMinimize: Iter: 121  F: -186.435222991024119  |grad|_K:  2.565e-07  alpha:  7.239e-01  linmin: -1.244e-05  t[s]:   3171.19
	FillingsUpdate:  mu: +0.118115857  nElectrons: 44.200000  magneticMoment: [ Abs: 0.28665  Tot: +0.11578 ]
	SubspaceRotationAdjust: set factor to 0.0396
ElecMinimize: Iter: 122  F: -186.435223711056665  |grad|_K:  2.632e-07  alpha:  7.780e-01  linmin: -6.452e-06  t[s]:   3192.36
	FillingsUpdate:  mu: +0.118167129  nElectrons: 44.200000  magneticMoment: [ Abs: 0.28926  Tot: +0.11615 ]
	SubspaceRotationAdjust: set factor to 0.0437
ElecMinimize: Iter: 123  F: -186.435224450215657  |grad|_K:  2.612e-07  alpha:  7.591e-01  linmin: -5.851e-06  t[s]:   3211.72
	FillingsUpdate:  mu: +0.118274582  nElectrons: 44.200000  magneticMoment: [ Abs: 0.29342  Tot: +0.11674 ]
	SubspaceRotationAdjust: set factor to 0.0457
ElecMinimize: Iter: 124  F: -186.435225410018518  |grad|_K:  3.064e-07  alpha:  1.000e+00  linmin: -7.320e-06  t[s]:   3231.87
	FillingsUpdate:  mu: +0.118296385  nElectrons: 44.200000  magneticMoment: [ Abs: 0.29863  Tot: +0.11748 ]
	SubspaceRotationAdjust: set factor to 0.0442
ElecMinimize: Iter: 125  F: -186.435226453978203  |grad|_K:  3.103e-07  alpha:  7.900e-01  linmin:  5.375e-07  t[s]:   3253.15
	FillingsUpdate:  mu: +0.118255074  nElectrons: 44.200000  magneticMoment: [ Abs: 0.30439  Tot: +0.11832 ]
	SubspaceRotationAdjust: set factor to 0.0405
ElecMinimize: Iter: 126  F: -186.435227469561369  |grad|_K:  3.172e-07  alpha:  7.521e-01  linmin:  6.578e-06  t[s]:   3273.60
	FillingsUpdate:  mu: +0.118150120  nElectrons: 44.200000  magneticMoment: [ Abs: 0.31053  Tot: +0.11921 ]
	SubspaceRotationAdjust: set factor to 0.0376
ElecMinimize: Iter: 127  F: -186.435228445192962  |grad|_K:  2.929e-07  alpha:  6.927e-01  linmin:  1.141e-05  t[s]:   3295.01
	FillingsUpdate:  mu: +0.118027696  nElectrons: 44.200000  magneticMoment: [ Abs: 0.31701  Tot: +0.12015 ]
	SubspaceRotationAdjust: set factor to 0.0373
ElecMinimize: Iter: 128  F: -186.435229370030555  |grad|_K:  2.712e-07  alpha:  7.734e-01  linmin:  1.994e-05  t[s]:   3319.13
	FillingsUpdate:  mu: +0.118021787  nElectrons: 44.200000  magneticMoment: [ Abs: 0.32271  Tot: +0.12097 ]
	SubspaceRotationAdjust: set factor to 0.04
ElecMinimize: Iter: 129  F: -186.435230104274524  |grad|_K:  2.654e-07  alpha:  7.165e-01  linmin:  1.051e-05  t[s]:   3339.90
	FillingsUpdate:  mu: +0.118106673  nElectrons: 44.200000  magneticMoment: [ Abs: 0.32965  Tot: +0.12197 ]
	SubspaceRotationAdjust: set factor to 0.0456
ElecMinimize: Iter: 130  F: -186.435230913001874  |grad|_K:  2.938e-07  alpha:  8.228e-01  linmin:  1.763e-05  t[s]:   3359.38
	FillingsUpdate:  mu: +0.118219107  nElectrons: 44.200000  magneticMoment: [ Abs: 0.33750  Tot: +0.12308 ]
	SubspaceRotationAdjust: set factor to 0.0519
ElecMinimize: Iter: 131  F: -186.435231754963155  |grad|_K:  2.941e-07  alpha:  6.982e-01  linmin:  1.695e-05  t[s]:   3379.77
	FillingsUpdate:  mu: +0.118352951  nElectrons: 44.200000  magneticMoment: [ Abs: 0.34822  Tot: +0.12457 ]
	SubspaceRotationAdjust: set factor to 0.0545
ElecMinimize: Iter: 132  F: -186.435232798660309  |grad|_K:  3.708e-07  alpha:  8.702e-01  linmin:  6.152e-05  t[s]:   3402.40
	FillingsUpdate:  mu: +0.118406075  nElectrons: 44.200000  magneticMoment: [ Abs: 0.36109  Tot: +0.12634 ]
	SubspaceRotationAdjust: set factor to 0.0567
ElecMinimize: Iter: 133  F: -186.435234025317044  |grad|_K:  4.006e-07  alpha:  6.183e-01  linmin: -2.573e-05  t[s]:   3422.68
	FillingsUpdate:  mu: +0.118321544  nElectrons: 44.200000  magneticMoment: [ Abs: 0.37288  Tot: +0.12792 ]
	SubspaceRotationAdjust: set factor to 0.0581
ElecMinimize: Iter: 134  F: -186.435235228974079  |grad|_K:  3.915e-07  alpha:  4.598e-01  linmin:  7.424e-05  t[s]:   3443.07
	FillingsUpdate:  mu: +0.118209922  nElectrons: 44.200000  magneticMoment: [ Abs: 0.38260  Tot: +0.12919 ]
	SubspaceRotationAdjust: set factor to 0.0412
ElecMinimize: Iter: 135  F: -186.435236065006194  |grad|_K:  4.850e-07  alpha:  3.755e-01  linmin:  2.802e-04  t[s]:   3464.48
	FillingsUpdate:  mu: +0.118083721  nElectrons: 44.200000  magneticMoment: [ Abs: 0.39525  Tot: +0.13081 ]
	SubspaceRotationAdjust: set factor to 0.0315
ElecMinimize: Iter: 136  F: -186.435237046834885  |grad|_K:  5.278e-07  alpha:  3.069e-01  linmin:  1.407e-04  t[s]:   3484.40
	FillingsUpdate:  mu: +0.117922042  nElectrons: 44.200000  magneticMoment: [ Abs: 0.41739  Tot: +0.13362 ]
	SubspaceRotationAdjust: set factor to 0.0265
ElecMinimize: Iter: 137  F: -186.435238686122403  |grad|_K:  6.540e-07  alpha:  4.450e-01  linmin:  2.210e-04  t[s]:   3503.94
	FillingsUpdate:  mu: +0.117687344  nElectrons: 44.200000  magneticMoment: [ Abs: 0.45898  Tot: +0.13876 ]
	SubspaceRotationAdjust: set factor to 0.0275
ElecMinimize: Iter: 138  F: -186.435241552204587  |grad|_K:  8.547e-07  alpha:  5.411e-01  linmin:  6.762e-04  t[s]:   3525.82
	FillingsUpdate:  mu: +0.117684718  nElectrons: 44.200000  magneticMoment: [ Abs: 0.45962  Tot: +0.13883 ]
	SubspaceRotationAdjust: set factor to 0.0278
ElecMinimize: Iter: 139  F: -186.435241621727471  |grad|_K:  8.619e-07  alpha:  4.860e-03  linmin: -1.708e-03  t[s]:   3546.12
ElecMinimize: 	Predicted alpha/alphaT>3.000000, increasing alphaT to 1.457960e-02.
ElecMinimize: 	Predicted alpha/alphaT>3.000000, increasing alphaT to 4.373881e-02.
ElecMinimize: 	Predicted alpha/alphaT>3.000000, increasing alphaT to 1.312164e-01.
	FillingsUpdate:  mu: +0.117634316  nElectrons: 44.200000  magneticMoment: [ Abs: 0.47745  Tot: +0.14102 ]
	SubspaceRotationAdjust: set factor to 0.0191
ElecMinimize: Iter: 140  F: -186.435241658090888  |grad|_K:  8.733e-07  alpha:  1.327e-01  linmin:  1.489e-02  t[s]:   3578.81
ElecMinimize: 	Bad step direction: g.d > 0.
ElecMinimize: 	Undoing step.
ElecMinimize: 	Step failed: resetting search direction.
	FillingsUpdate:  mu: +0.117634316  nElectrons: 44.200000  magneticMoment: [ Abs: 0.47745  Tot: +0.14102 ]
	SubspaceRotationAdjust: set factor to 0.0147
ElecMinimize: Iter: 141  F: -186.435241658090860  |grad|_K:  7.669e-07  alpha:  0.000e+00
ElecMinimize: 	Predicted alpha/alphaT>3.000000, increasing alphaT to 3.982130e-01.
ElecMinimize: 	Predicted alpha/alphaT>3.000000, increasing alphaT to 1.194639e+00.
	FillingsUpdate:  mu: +0.117968125  nElectrons: 44.200000  magneticMoment: [ Abs: 0.47814  Tot: +0.14105 ]
	SubspaceRotationAdjust: set factor to 0.0194
ElecMinimize: Iter: 142  F: -186.435252393441147  |grad|_K:  7.824e-07  alpha:  1.292e+00  linmin: -1.783e-03  t[s]:   3624.74
	FillingsUpdate:  mu: +0.118169927  nElectrons: 44.200000  magneticMoment: [ Abs: 0.47867  Tot: +0.14108 ]
	SubspaceRotationAdjust: set factor to 0.0235
ElecMinimize: Iter: 143  F: -186.435257022155383  |grad|_K:  6.129e-07  alpha:  5.401e-01  linmin:  8.011e-04  t[s]:   3646.43
	FillingsUpdate:  mu: +0.118294806  nElectrons: 44.200000  magneticMoment: [ Abs: 0.47936  Tot: +0.14110 ]
	SubspaceRotationAdjust: set factor to 0.0291
ElecMinimize: Iter: 144  F: -186.435260011735522  |grad|_K:  4.690e-07  alpha:  5.824e-01  linmin: -8.131e-04  t[s]:   3665.99
	FillingsUpdate:  mu: +0.118334130  nElectrons: 44.200000  magneticMoment: [ Abs: 0.48027  Tot: +0.14112 ]
	SubspaceRotationAdjust: set factor to 0.0373
ElecMinimize: Iter: 145  F: -186.435262120860813  |grad|_K:  3.394e-07  alpha:  6.508e-01  linmin: -8.711e-04  t[s]:   3684.27
	FillingsUpdate:  mu: +0.118315596  nElectrons: 44.200000  magneticMoment: [ Abs: 0.48136  Tot: +0.14114 ]
	SubspaceRotationAdjust: set factor to 0.0467
ElecMinimize: Iter: 146  F: -186.435263282139942  |grad|_K:  3.175e-07  alpha:  6.793e-01  linmin: -3.709e-04  t[s]:   3702.75
	FillingsUpdate:  mu: +0.118215792  nElectrons: 44.200000  magneticMoment: [ Abs: 0.48351  Tot: +0.14119 ]
	SubspaceRotationAdjust: set factor to 0.0555
ElecMinimize: Iter: 147  F: -186.435264562056062  |grad|_K:  3.408e-07  alpha:  8.523e-01  linmin: -3.117e-04  t[s]:   3721.91
	FillingsUpdate:  mu: +0.118089431  nElectrons: 44.200000  magneticMoment: [ Abs: 0.48740  Tot: +0.14127 ]
	SubspaceRotationAdjust: set factor to 0.0625
ElecMinimize: Iter: 148  F: -186.435266130872407  |grad|_K:  3.899e-07  alpha:  9.047e-01  linmin: -7.244e-05  t[s]:   3741.44
	FillingsUpdate:  mu: +0.118065855  nElectrons: 44.200000  magneticMoment: [ Abs: 0.49573  Tot: +0.14144 ]
	SubspaceRotationAdjust: set factor to 0.0616
ElecMinimize: Iter: 149  F: -186.435268657933506  |grad|_K:  5.423e-07  alpha:  1.146e+00  linmin: -7.234e-05  t[s]:   3762.36
	FillingsUpdate:  mu: +0.118053115  nElectrons: 44.200000  magneticMoment: [ Abs: 0.50475  Tot: +0.14158 ]
	SubspaceRotationAdjust: set factor to 0.0455
ElecMinimize: Iter: 150  F: -186.435271060733044  |grad|_K:  6.382e-07  alpha:  5.692e-01  linmin:  7.319e-06  t[s]:   3783.12
	FillingsUpdate:  mu: +0.118135802  nElectrons: 44.200000  magneticMoment: [ Abs: 0.51860  Tot: +0.14183 ]
	SubspaceRotationAdjust: set factor to 0.0338
ElecMinimize: Iter: 151  F: -186.435274371844372  |grad|_K:  6.038e-07  alpha:  5.814e-01  linmin: -1.592e-06  t[s]:   3803.45
	FillingsUpdate:  mu: +0.118169443  nElectrons: 44.200000  magneticMoment: [ Abs: 0.53503  Tot: +0.14207 ]
	SubspaceRotationAdjust: set factor to 0.0371
ElecMinimize: Iter: 152  F: -186.435278078659962  |grad|_K:  6.007e-07  alpha:  7.258e-01  linmin:  1.432e-05  t[s]:   3822.43
	FillingsUpdate:  mu: +0.118114238  nElectrons: 44.200000  magneticMoment: [ Abs: 0.54792  Tot: +0.14222 ]
	SubspaceRotationAdjust: set factor to 0.0377
ElecMinimize: Iter: 153  F: -186.435280861557175  |grad|_K:  4.597e-07  alpha:  5.509e-01  linmin:  9.261e-06  t[s]:   3842.69
	FillingsUpdate:  mu: +0.118106135  nElectrons: 44.200000  magneticMoment: [ Abs: 0.55713  Tot: +0.14231 ]
	SubspaceRotationAdjust: set factor to 0.0364
ElecMinimize: Iter: 154  F: -186.435282689711130  |grad|_K:  3.922e-07  alpha:  6.197e-01  linmin:  2.098e-05  t[s]:   3865.00
	FillingsUpdate:  mu: +0.118127465  nElectrons: 44.200000  magneticMoment: [ Abs: 0.56577  Tot: +0.14233 ]
	SubspaceRotationAdjust: set factor to 0.0404
ElecMinimize: Iter: 155  F: -186.435284234815413  |grad|_K:  4.122e-07  alpha:  7.211e-01  linmin:  9.011e-06  t[s]:   3887.39
	FillingsUpdate:  mu: +0.118136026  nElectrons: 44.200000  magneticMoment: [ Abs: 0.57806  Tot: +0.14229 ]
	SubspaceRotationAdjust: set factor to 0.0462
ElecMinimize: Iter: 156  F: -186.435286269015535  |grad|_K:  5.225e-07  alpha:  8.562e-01  linmin:  5.295e-06  t[s]:   3907.23
	FillingsUpdate:  mu: +0.118124633  nElectrons: 44.200000  magneticMoment: [ Abs: 0.60371  Tot: +0.14214 ]
	SubspaceRotationAdjust: set factor to 0.0463
ElecMinimize: Iter: 157  F: -186.435290300947997  |grad|_K:  7.941e-07  alpha:  1.057e+00  linmin:  1.153e-05  t[s]:   3926.25
	FillingsUpdate:  mu: +0.118012940  nElectrons: 44.200000  magneticMoment: [ Abs: 0.65634  Tot: +0.14153 ]
	SubspaceRotationAdjust: set factor to 0.0431
ElecMinimize: Iter: 158  F: -186.435298435895191  |grad|_K:  1.068e-06  alpha:  9.238e-01  linmin:  2.408e-05  t[s]:   3947.77
	FillingsUpdate:  mu: +0.117922226  nElectrons: 44.200000  magneticMoment: [ Abs: 0.74100  Tot: +0.14020 ]
	SubspaceRotationAdjust: set factor to 0.0437
ElecMinimize: Iter: 159  F: -186.435311409453845  |grad|_K:  1.257e-06  alpha:  8.234e-01  linmin:  5.248e-05  t[s]:   3967.71
	FillingsUpdate:  mu: +0.117884880  nElectrons: 44.200000  magneticMoment: [ Abs: 0.83977  Tot: +0.13799 ]
	SubspaceRotationAdjust: set factor to 0.0493
ElecMinimize: Iter: 160  F: -186.435326640380026  |grad|_K:  1.287e-06  alpha:  7.018e-01  linmin:  8.174e-05  t[s]:   3987.74
	FillingsUpdate:  mu: +0.118002963  nElectrons: 44.200000  magneticMoment: [ Abs: 0.91360  Tot: +0.13580 ]
	SubspaceRotationAdjust: set factor to 0.0565
ElecMinimize: Iter: 161  F: -186.435338352727257  |grad|_K:  1.164e-06  alpha:  5.077e-01  linmin:  1.556e-05  t[s]:   4007.27
	FillingsUpdate:  mu: +0.118325633  nElectrons: 44.200000  magneticMoment: [ Abs: 0.97552  Tot: +0.13356 ]
	SubspaceRotationAdjust: set factor to 0.075
ElecMinimize: Iter: 162  F: -186.435348204318075  |grad|_K:  1.197e-06  alpha:  5.231e-01  linmin:  6.585e-05  t[s]:   4029.09
	FillingsUpdate:  mu: +0.118670201  nElectrons: 44.200000  magneticMoment: [ Abs: 1.04391  Tot: +0.13046 ]
	SubspaceRotationAdjust: set factor to 0.0679
ElecMinimize: Iter: 163  F: -186.435358935399677  |grad|_K:  1.396e-06  alpha:  5.490e-01  linmin:  8.960e-06  t[s]:   4048.17
	FillingsUpdate:  mu: +0.118828000  nElectrons: 44.200000  magneticMoment: [ Abs: 1.11648  Tot: +0.12630 ]
	SubspaceRotationAdjust: set factor to 0.0745
ElecMinimize: Iter: 164  F: -186.435370705633574  |grad|_K:  1.419e-06  alpha:  4.337e-01  linmin: -2.478e-05  t[s]:   4068.47
	FillingsUpdate:  mu: +0.118868479  nElectrons: 44.200000  magneticMoment: [ Abs: 1.18081  Tot: +0.12212 ]
	SubspaceRotationAdjust: set factor to 0.101
	SubspaceRotationAdjust: resetting CG because factor has changed by 9.27871
ElecMinimize: 	State modified externally: resetting search direction.
ElecMinimize: Iter: 165  F: -186.435381421744324  |grad|_K:  1.259e-06  alpha:  3.780e-01
	FillingsUpdate:  mu: +0.118419455  nElectrons: 44.200000  magneticMoment: [ Abs: 1.18121  Tot: +0.12098 ]
	SubspaceRotationAdjust: set factor to 0.108
ElecMinimize: Iter: 166  F: -186.435394657566690  |grad|_K:  1.245e-06  alpha:  5.859e-01  linmin: -1.912e-04  t[s]:   4121.27
	FillingsUpdate:  mu: +0.117827491  nElectrons: 44.200000  magneticMoment: [ Abs: 1.18186  Tot: +0.11897 ]
	SubspaceRotationAdjust: set factor to 0.072
ElecMinimize: Iter: 167  F: -186.435405228096442  |grad|_K:  1.469e-06  alpha:  4.749e-01  linmin: -6.113e-05  t[s]:   4140.96
	FillingsUpdate:  mu: +0.117680618  nElectrons: 44.200000  magneticMoment: [ Abs: 1.18259  Tot: +0.11727 ]
	SubspaceRotationAdjust: set factor to 0.0459
ElecMinimize: Iter: 168  F: -186.435412796702536  |grad|_K:  8.627e-07  alpha:  2.504e-01  linmin:  1.648e-05  t[s]:   4162.94
	FillingsUpdate:  mu: +0.117829650  nElectrons: 44.200000  magneticMoment: [ Abs: 1.18342  Tot: +0.11506 ]
	SubspaceRotationAdjust: set factor to 0.0575
ElecMinimize: Iter: 169  F: -186.435418705633850  |grad|_K:  6.534e-07  alpha:  5.626e-01  linmin: -4.830e-05  t[s]:   4183.20
	FillingsUpdate:  mu: +0.118070642  nElectrons: 44.200000  magneticMoment: [ Abs: 1.18419  Tot: +0.11300 ]
	SubspaceRotationAdjust: set factor to 0.063
ElecMinimize: Iter: 170  F: -186.435422784686125  |grad|_K:  5.845e-07  alpha:  6.654e-01  linmin: -1.307e-05  t[s]:   4202.74
	FillingsUpdate:  mu: +0.118301818  nElectrons: 44.200000  magneticMoment: [ Abs: 1.18491  Tot: +0.11112 ]
	SubspaceRotationAdjust: set factor to 0.0524
ElecMinimize: Iter: 171  F: -186.435425510981759  |grad|_K:  5.602e-07  alpha:  5.657e-01  linmin: -3.477e-06  t[s]:   4222.84
	FillingsUpdate:  mu: +0.118328542  nElectrons: 44.200000  magneticMoment: [ Abs: 1.18572  Tot: +0.10858 ]
	SubspaceRotationAdjust: set factor to 0.0394
ElecMinimize: Iter: 172  F: -186.435428067115510  |grad|_K:  5.302e-07  alpha:  5.797e-01  linmin: -3.536e-06  t[s]:   4244.03
	FillingsUpdate:  mu: +0.118285680  nElectrons: 44.200000  magneticMoment: [ Abs: 1.18664  Tot: +0.10564 ]
	SubspaceRotationAdjust: set factor to 0.0408
ElecMinimize: Iter: 173  F: -186.435430562949875  |grad|_K:  4.724e-07  alpha:  6.311e-01  linmin: -1.397e-06  t[s]:   4263.35
	FillingsUpdate:  mu: +0.118152096  nElectrons: 44.200000  magneticMoment: [ Abs: 1.18740  Tot: +0.10296 ]
	SubspaceRotationAdjust: set factor to 0.0442
ElecMinimize: Iter: 174  F: -186.435432479903170  |grad|_K:  4.285e-07  alpha:  6.117e-01  linmin:  8.467e-07  t[s]:   4284.14
	FillingsUpdate:  mu: +0.117976449  nElectrons: 44.200000  magneticMoment: [ Abs: 1.18812  Tot: +0.10008 ]
	SubspaceRotationAdjust: set factor to 0.0388
ElecMinimize: Iter: 175  F: -186.435434188688532  |grad|_K:  3.658e-07  alpha:  6.641e-01  linmin:  4.821e-06  t[s]:   4306.21
	FillingsUpdate:  mu: +0.117947320  nElectrons: 44.200000  magneticMoment: [ Abs: 1.18870  Tot: +0.09779 ]
	SubspaceRotationAdjust: set factor to 0.0344
ElecMinimize: Iter: 176  F: -186.435435321544304  |grad|_K:  2.890e-07  alpha:  6.052e-01  linmin:  3.412e-06  t[s]:   4325.60
	FillingsUpdate:  mu: +0.117958833  nElectrons: 44.200000  magneticMoment: [ Abs: 1.18916  Tot: +0.09588 ]
	SubspaceRotationAdjust: set factor to 0.0382
ElecMinimize: Iter: 177  F: -186.435436059601557  |grad|_K:  2.516e-07  alpha:  6.316e-01  linmin:  3.942e-06  t[s]:   4345.97
	FillingsUpdate:  mu: +0.118002866  nElectrons: 44.200000  magneticMoment: [ Abs: 1.18955  Tot: +0.09433 ]
	SubspaceRotationAdjust: set factor to 0.0421
ElecMinimize: Iter: 178  F: -186.435436547764368  |grad|_K:  1.997e-07  alpha:  5.507e-01  linmin:  2.386e-06  t[s]:   4367.56
	FillingsUpdate:  mu: +0.118073390  nElectrons: 44.200000  magneticMoment: [ Abs: 1.18996  Tot: +0.09288 ]
	SubspaceRotationAdjust: set factor to 0.0454
ElecMinimize: Iter: 179  F: -186.435436893938231  |grad|_K:  1.816e-07  alpha:  6.200e-01  linmin:  2.761e-06  t[s]:   4387.34
	FillingsUpdate:  mu: +0.118142523  nElectrons: 44.200000  magneticMoment: [ Abs: 1.19058  Tot: +0.09078 ]
	SubspaceRotationAdjust: set factor to 0.0497
ElecMinimize: Iter: 180  F: -186.435437270116068  |grad|_K:  1.890e-07  alpha:  8.156e-01  linmin:  5.175e-06  t[s]:   4407.88
	FillingsUpdate:  mu: +0.118209052  nElectrons: 44.200000  magneticMoment: [ Abs: 1.19137  Tot: +0.08823 ]
	SubspaceRotationAdjust: set factor to 0.0557
ElecMinimize: Iter: 181  F: -186.435437641798472  |grad|_K:  2.064e-07  alpha:  7.433e-01  linmin:  3.277e-06  t[s]:   4429.86
	FillingsUpdate:  mu: +0.118251749  nElectrons: 44.200000  magneticMoment: [ Abs: 1.19250  Tot: +0.08465 ]
	SubspaceRotationAdjust: set factor to 0.0626
ElecMinimize: Iter: 182  F: -186.435438085458486  |grad|_K:  2.207e-07  alpha:  7.439e-01  linmin:  8.325e-06  t[s]:   4451.65
	FillingsUpdate:  mu: +0.118230991  nElectrons: 44.200000  magneticMoment: [ Abs: 1.19390  Tot: +0.08024 ]
	SubspaceRotationAdjust: set factor to 0.0673
ElecMinimize: Iter: 183  F: -186.435438566188878  |grad|_K:  2.318e-07  alpha:  7.059e-01  linmin:  2.733e-05  t[s]:   4471.62
	FillingsUpdate:  mu: +0.118206299  nElectrons: 44.200000  magneticMoment: [ Abs: 1.19501  Tot: +0.07680 ]
	SubspaceRotationAdjust: set factor to 0.0748
ElecMinimize: Iter: 184  F: -186.435438939927394  |grad|_K:  2.045e-07  alpha:  4.495e-01  linmin: -9.781e-05  t[s]:   4492.77
	FillingsUpdate:  mu: +0.118166183  nElectrons: 44.200000  magneticMoment: [ Abs: 1.19605  Tot: +0.07357 ]
	SubspaceRotationAdjust: set factor to 0.0709
ElecMinimize: Iter: 185  F: -186.435439229538844  |grad|_K:  2.110e-07  alpha:  4.738e-01  linmin:  2.312e-04  t[s]:   4513.92
	FillingsUpdate:  mu: +0.118135476  nElectrons: 44.200000  magneticMoment: [ Abs: 1.19696  Tot: +0.07074 ]
	SubspaceRotationAdjust: set factor to 0.0515
ElecMinimize: Iter: 186  F: -186.435439432281811  |grad|_K:  2.313e-07  alpha:  3.472e-01  linmin:  2.803e-05  t[s]:   4532.26
	FillingsUpdate:  mu: +0.118112973  nElectrons: 44.200000  magneticMoment: [ Abs: 1.19814  Tot: +0.06714 ]
	SubspaceRotationAdjust: set factor to 0.0459
ElecMinimize: Iter: 187  F: -186.435439685451882  |grad|_K:  2.452e-07  alpha:  3.405e-01  linmin:  1.359e-04  t[s]:   4549.99
	FillingsUpdate:  mu: +0.118098167  nElectrons: 44.200000  magneticMoment: [ Abs: 1.19942  Tot: +0.06326 ]
	SubspaceRotationAdjust: set factor to 0.0364
ElecMinimize: Iter: 188  F: -186.435439933723785  |grad|_K:  2.626e-07  alpha:  3.126e-01  linmin:  1.144e-04  t[s]:   4568.09
	FillingsUpdate:  mu: +0.118092490  nElectrons: 44.200000  magneticMoment: [ Abs: 1.20059  Tot: +0.05970 ]
	SubspaceRotationAdjust: set factor to 0.0266
ElecMinimize: Iter: 189  F: -186.435440159883001  |grad|_K:  2.498e-07  alpha:  2.413e-01  linmin:  3.454e-05  t[s]:   4588.06
	FillingsUpdate:  mu: +0.118096619  nElectrons: 44.200000  magneticMoment: [ Abs: 1.20196  Tot: +0.05555 ]
	SubspaceRotationAdjust: set factor to 0.0235
ElecMinimize: Iter: 190  F: -186.435440417975769  |grad|_K:  2.560e-07  alpha:  3.030e-01  linmin:  8.975e-05  t[s]:   4607.63
	FillingsUpdate:  mu: +0.118110154  nElectrons: 44.200000  magneticMoment: [ Abs: 1.20344  Tot: +0.05111 ]
	SubspaceRotationAdjust: set factor to 0.0189
ElecMinimize: Iter: 191  F: -186.435440684970189  |grad|_K:  2.563e-07  alpha:  3.041e-01  linmin:  8.547e-05  t[s]:   4628.30
	FillingsUpdate:  mu: +0.118132260  nElectrons: 44.200000  magneticMoment: [ Abs: 1.20488  Tot: +0.04682 ]
	SubspaceRotationAdjust: set factor to 0.0169
ElecMinimize: Iter: 192  F: -186.435440943066396  |grad|_K:  2.611e-07  alpha:  2.900e-01  linmin:  6.959e-05  t[s]:   4649.21
	FillingsUpdate:  mu: +0.118163449  nElectrons: 44.200000  magneticMoment: [ Abs: 1.20641  Tot: +0.04229 ]
	SubspaceRotationAdjust: set factor to 0.0155
ElecMinimize: Iter: 193  F: -186.435441213807906  |grad|_K:  2.680e-07  alpha:  2.933e-01  linmin:  1.108e-04  t[s]:   4669.17
	FillingsUpdate:  mu: +0.118191540  nElectrons: 44.200000  magneticMoment: [ Abs: 1.20757  Tot: +0.03888 ]
	SubspaceRotationAdjust: set factor to 0.0118
	SubspaceRotationAdjust: resetting CG because factor has changed by 0.11667
ElecMinimize: 	State modified externally: resetting search direction.
ElecMinimize: Iter: 194  F: -186.435441418918430  |grad|_K:  2.289e-07  alpha:  2.079e-01
ElecMinimize: 	Predicted alpha/alphaT>3.000000, increasing alphaT to 6.238398e-01.
	FillingsUpdate:  mu: +0.118209164  nElectrons: 44.200000  magneticMoment: [ Abs: 1.20763  Tot: +0.03882 ]
	SubspaceRotationAdjust: set factor to 0.017
[...]
	FillingsUpdate:  mu: -0.130902034  nElectrons: 44.200000  magneticMoment: [ Abs: 0.74170  Tot: -0.00016 ]
	SubspaceRotationAdjust: set factor to 0.13
ElecMinimize: Iter:   7  F: -186.475343479408338  |grad|_K:  4.174e-07  alpha:  5.412e-01  linmin:  7.380e-06  t[s]:   7243.04
	Linear fluid (dielectric constant: 78.4, screening length: 5.74355 Bohr) occupying 0.722905 of unit cell:	Completed after 11 iterations at t[s]:   7252.21
	Linear fluid (dielectric constant: 78.4, screening length: 5.74355 Bohr) occupying 0.722904 of unit cell:	Completed after 2 iterations at t[s]:   7260.85
	FillingsUpdate:  mu: -0.130791482  nElectrons: 44.200000  magneticMoment: [ Abs: 0.74197  Tot: -0.00017 ]
	SubspaceRotationAdjust: set factor to 0.127
ElecMinimize: Iter:   8  F: -186.475344734330605  |grad|_K:  2.748e-07  alpha:  5.136e-01  linmin:  3.882e-05  t[s]:   7269.18
	Linear fluid (dielectric constant: 78.4, screening length: 5.74355 Bohr) occupying 0.722914 of unit cell:	Completed after 10 iterations at t[s]:   7278.52
	Linear fluid (dielectric constant: 78.4, screening length: 5.74355 Bohr) occupying 0.722914 of unit cell:	Completed after 0 iterations at t[s]:   7285.86
	FillingsUpdate:  mu: -0.130717392  nElectrons: 44.200000  magneticMoment: [ Abs: 0.74216  Tot: -0.00016 ]
	SubspaceRotationAdjust: set factor to 0.107
ElecMinimize: Iter:   9  F: -186.475345272555614  |grad|_K:  1.886e-07  alpha:  5.088e-01  linmin: -3.538e-05  t[s]:   7292.64
	Linear fluid (dielectric constant: 78.4, screening length: 5.74355 Bohr) occupying 0.722924 of unit cell:	Completed after 9 iterations at t[s]:   7301.31
	Linear fluid (dielectric constant: 78.4, screening length: 5.74355 Bohr) occupying 0.722923 of unit cell:	Completed after 3 iterations at t[s]:   7309.98
	FillingsUpdate:  mu: -0.130638569  nElectrons: 44.200000  magneticMoment: [ Abs: 0.74231  Tot: -0.00016 ]
	SubspaceRotationAdjust: set factor to 0.0961
ElecMinimize: Iter:  10  F: -186.475345504367198  |grad|_K:  1.263e-07  alpha:  4.650e-01  linmin: -1.447e-04  t[s]:   7317.46
	Linear fluid (dielectric constant: 78.4, screening length: 5.74355 Bohr) occupying 0.722929 of unit cell:	Completed after 7 iterations at t[s]:   7325.70
	Linear fluid (dielectric constant: 78.4, screening length: 5.74355 Bohr) occupying 0.722929 of unit cell:	Completed after 0 iterations at t[s]:   7334.09
	FillingsUpdate:  mu: -0.130626675  nElectrons: 44.200000  magneticMoment: [ Abs: 0.74243  Tot: -0.00016 ]
	SubspaceRotationAdjust: set factor to 0.12
ElecMinimize: Iter:  11  F: -186.475345615334618  |grad|_K:  8.470e-08  alpha:  4.934e-01  linmin: -4.608e-04  t[s]:   7342.40
	Linear fluid (dielectric constant: 78.4, screening length: 5.74355 Bohr) occupying 0.722933 of unit cell:	Completed after 3 iterations at t[s]:   7350.75
	Linear fluid (dielectric constant: 78.4, screening length: 5.74355 Bohr) occupying 0.722934 of unit cell:	Completed after 2 iterations at t[s]:   7358.70
	FillingsUpdate:  mu: -0.130660191  nElectrons: 44.200000  magneticMoment: [ Abs: 0.74257  Tot: -0.00016 ]
	SubspaceRotationAdjust: set factor to 0.146
ElecMinimize: Iter:  12  F: -186.475345682051625  |grad|_K:  7.312e-08  alpha:  6.556e-01  linmin: -1.103e-05  t[s]:   7366.43
	Linear fluid (dielectric constant: 78.4, screening length: 5.74355 Bohr) occupying 0.722938 of unit cell:	Completed after 6 iterations at t[s]:   7374.13
	Linear fluid (dielectric constant: 78.4, screening length: 5.74355 Bohr) occupying 0.722937 of unit cell:	Completed after 3 iterations at t[s]:   7382.41
	FillingsUpdate:  mu: -0.130694792  nElectrons: 44.200000  magneticMoment: [ Abs: 0.74269  Tot: -0.00016 ]
	SubspaceRotationAdjust: set factor to 0.163
ElecMinimize: Iter:  13  F: -186.475345716641527  |grad|_K:  5.720e-08  alpha:  4.626e-01  linmin:  1.305e-04  t[s]:   7390.01
	Linear fluid (dielectric constant: 78.4, screening length: 5.74355 Bohr) occupying 0.722938 of unit cell:	Completed after 2 iterations at t[s]:   7397.97
	Linear fluid (dielectric constant: 78.4, screening length: 5.74355 Bohr) occupying 0.722939 of unit cell:	Completed after 3 iterations at t[s]:   7407.27
	FillingsUpdate:  mu: -0.130695189  nElectrons: 44.200000  magneticMoment: [ Abs: 0.74288  Tot: -0.00016 ]
	SubspaceRotationAdjust: set factor to 0.172
ElecMinimize: Iter:  14  F: -186.475345746476364  |grad|_K:  5.631e-08  alpha:  6.601e-01  linmin:  9.237e-05  t[s]:   7415.09
	Linear fluid (dielectric constant: 78.4, screening length: 5.74355 Bohr) occupying 0.722942 of unit cell:	Completed after 6 iterations at t[s]:   7423.58
	Linear fluid (dielectric constant: 78.4, screening length: 5.74355 Bohr) occupying 0.722941 of unit cell:	Completed after 2 iterations at t[s]:   7430.92
	FillingsUpdate:  mu: -0.130694653  nElectrons: 44.200000  magneticMoment: [ Abs: 0.74308  Tot: -0.00015 ]
	SubspaceRotationAdjust: set factor to 0.175
ElecMinimize: Iter:  15  F: -186.475345767057917  |grad|_K:  4.238e-08  alpha:  4.648e-01  linmin:  1.168e-04  t[s]:   7437.74
	Linear fluid (dielectric constant: 78.4, screening length: 5.74355 Bohr) occupying 0.722941 of unit cell:	Completed after 3 iterations at t[s]:   7444.55
	Linear fluid (dielectric constant: 78.4, screening length: 5.74355 Bohr) occupying 0.722942 of unit cell:	Completed after 0 iterations at t[s]:   7451.92
	FillingsUpdate:  mu: -0.130696611  nElectrons: 44.200000  magneticMoment: [ Abs: 0.74333  Tot: -0.00015 ]
	SubspaceRotationAdjust: set factor to 0.211
ElecMinimize: Iter:  16  F: -186.475345782751617  |grad|_K:  3.138e-08  alpha:  6.222e-01  linmin: -3.751e-04  t[s]:   7459.02
	Linear fluid (dielectric constant: 78.4, screening length: 5.74355 Bohr) occupying 0.722942 of unit cell:	Completed after 2 iterations at t[s]:   7465.83
	Linear fluid (dielectric constant: 78.4, screening length: 5.74355 Bohr) occupying 0.722942 of unit cell:	Completed after 0 iterations at t[s]:   7472.86
	FillingsUpdate:  mu: -0.130690790  nElectrons: 44.200000  magneticMoment: [ Abs: 0.74353  Tot: -0.00015 ]
	SubspaceRotationAdjust: set factor to 0.23
ElecMinimize: Iter:  17  F: -186.475345790633980  |grad|_K:  3.152e-08  alpha:  5.516e-01  linmin: -1.096e-04  t[s]:   7479.57
	Linear fluid (dielectric constant: 78.4, screening length: 5.74355 Bohr) occupying 0.722942 of unit cell:	Completed after 3 iterations at t[s]:   7486.25
	Linear fluid (dielectric constant: 78.4, screening length: 5.74355 Bohr) occupying 0.722942 of unit cell:	Completed after 2 iterations at t[s]:   7494.15
	FillingsUpdate:  mu: -0.130682942  nElectrons: 44.200000  magneticMoment: [ Abs: 0.74372  Tot: -0.00015 ]
	SubspaceRotationAdjust: set factor to 0.195
ElecMinimize: Iter:  18  F: -186.475345795490597  |grad|_K:  2.706e-08  alpha:  3.525e-01  linmin:  2.423e-04  t[s]:   7502.09
ElecMinimize: Converged (|Delta F|<1.000000e-08 for 2 iters).
Setting wave functions to eigenvectors of Hamiltonian

# Ionic positions in lattice coordinates:
ion C   0.666666652666667   0.333333354333333   0.566528269369686 1
ion C   0.333333319333333   0.666666687666667   0.433504143327718 1
ion Ti  -0.000000014000000   0.000000021000000   0.500014986515035 1
ion Ti   0.333333319333333   0.666666687666667   0.619182944625715 1
ion Ti   0.666666652666667   0.333333354333333   0.380839263111693 1


# Forces in Lattice coordinates:
force C   0.000000000000000  -0.000000000000000   0.023092510835805 1
force C   0.000000000000000   0.000000000000000  -0.023506203571137 1
force Ti   0.000000000000000  -0.000000000000000   0.000705657178588 1
force Ti   0.000000000000000   0.000000000000000   0.028744782093086 1
force Ti   0.000000000000000   0.000000000000000  -0.028214252605203 1

# Energy components:
   A_diel =       -0.0403159732816532
   Eewald =     1686.5176587384373761
       EH =     1851.1587658098412703
     Eloc =    -3759.5696859102563394
      Enl =       17.9004627010744599
      Exc =      -30.7674337034622667
 Exc_core =        3.9956995951994170
       KE =       44.3458607465968839
  MuShift =       -0.0040580460004420
-------------------------------------
     Etot =     -186.4630460418514986
       TS =        0.0122997536390982
-------------------------------------
        F =     -186.4753457954905969

IonicMinimize: Iter:   2  F: -186.475345795490597  |grad|_K:  3.616e-04  alpha:  1.000e+00  linmin: -9.638e-01  t[s]:   7505.09

#--- Lowdin population analysis ---
# oxidation-state C -1.116 -1.116
# magnetic-moments C -0.012 +0.012
# oxidation-state Ti +1.085 +0.834 +0.833
# magnetic-moments Ti +0.000 +0.288 -0.288

	Linear fluid (dielectric constant: 78.4, screening length: 5.74355 Bohr) occupying 0.722930 of unit cell:	Completed after 15 iterations at t[s]:   7514.89

-------- Electronic minimization -----------
	Linear fluid (dielectric constant: 78.4, screening length: 5.74355 Bohr) occupying 0.722930 of unit cell:	Completed after 0 iterations at t[s]:   7522.06
	FillingsUpdate:  mu: -0.129444265  nElectrons: 44.200000  magneticMoment: [ Abs: 0.74446  Tot: -0.00013 ]
ElecMinimize: Iter:   0  F: -186.475303903751694  |grad|_K:  2.118e-06  alpha:  1.000e+00
	Linear fluid (dielectric constant: 78.4, screening length: 5.74355 Bohr) occupying 0.722803 of unit cell:	Completed after 19 iterations at t[s]:   7540.47
	Linear fluid (dielectric constant: 78.4, screening length: 5.74355 Bohr) occupying 0.722871 of unit cell:	Completed after 19 iterations at t[s]:   7551.89
	FillingsUpdate:  mu: -0.130287043  nElectrons: 44.200000  magneticMoment: [ Abs: 0.74452  Tot: -0.00018 ]
	SubspaceRotationAdjust: set factor to 0.163
ElecMinimize: Iter:   1  F: -186.475333503659982  |grad|_K:  1.659e-06  alpha:  4.703e-01  linmin: -8.737e-06  t[s]:   7559.96
	Linear fluid (dielectric constant: 78.4, screening length: 5.74355 Bohr) occupying 0.722815 of unit cell:	Completed after 19 iterations at t[s]:   7570.40
	Linear fluid (dielectric constant: 78.4, screening length: 5.74355 Bohr) occupying 0.722841 of unit cell:	Completed after 12 iterations at t[s]:   7579.02
	FillingsUpdate:  mu: -0.130549270  nElectrons: 44.200000  magneticMoment: [ Abs: 0.74455  Tot: -0.00014 ]
	SubspaceRotationAdjust: set factor to 0.101
ElecMinimize: Iter:   2  F: -186.475343301744857  |grad|_K:  8.236e-07  alpha:  2.535e-01  linmin:  8.237e-06  t[s]:   7586.57
	Linear fluid (dielectric constant: 78.4, screening length: 5.74355 Bohr) occupying 0.722829 of unit cell:	Completed after 10 iterations at t[s]:   7595.12
	Linear fluid (dielectric constant: 78.4, screening length: 5.74355 Bohr) occupying 0.722822 of unit cell:	Completed after 10 iterations at t[s]:   7604.05
	FillingsUpdate:  mu: -0.130537728  nElectrons: 44.200000  magneticMoment: [ Abs: 0.74461  Tot: -0.00014 ]
	SubspaceRotationAdjust: set factor to 0.14
ElecMinimize: Iter:   3  F: -186.475347048676952  |grad|_K:  5.199e-07  alpha:  3.939e-01  linmin:  3.951e-05  t[s]:   7611.27
	Linear fluid (dielectric constant: 78.4, screening length: 5.74355 Bohr) occupying 0.722808 of unit cell:	Completed after 8 iterations at t[s]:   7620.29
	Linear fluid (dielectric constant: 78.4, screening length: 5.74355 Bohr) occupying 0.722795 of unit cell:	Completed after 10 iterations at t[s]:   7630.45
	FillingsUpdate:  mu: -0.130644839  nElectrons: 44.200000  magneticMoment: [ Abs: 0.74472  Tot: -0.00015 ]
	SubspaceRotationAdjust: set factor to 0.135
ElecMinimize: Iter:   4  F: -186.475349766518946  |grad|_K:  4.656e-07  alpha:  7.174e-01  linmin:  4.560e-05  t[s]:   7638.10
	Linear fluid (dielectric constant: 78.4, screening length: 5.74355 Bohr) occupying 0.722764 of unit cell:	Completed after 11 iterations at t[s]:   7647.28
	Linear fluid (dielectric constant: 78.4, screening length: 5.74355 Bohr) occupying 0.722771 of unit cell:	Completed after 8 iterations at t[s]:   7656.02
	FillingsUpdate:  mu: -0.130735152  nElectrons: 44.200000  magneticMoment: [ Abs: 0.74486  Tot: -0.00013 ]
	SubspaceRotationAdjust: set factor to 0.116
ElecMinimize: Iter:   5  F: -186.475351469136541  |grad|_K:  5.113e-07  alpha:  5.608e-01  linmin: -1.995e-05  t[s]:   7663.47
	Linear fluid (dielectric constant: 78.4, screening length: 5.74355 Bohr) occupying 0.722737 of unit cell:	Completed after 11 iterations at t[s]:   7672.46
	Linear fluid (dielectric constant: 78.4, screening length: 5.74355 Bohr) occupying 0.722736 of unit cell:	Completed after 2 iterations at t[s]:   7680.76
	FillingsUpdate:  mu: -0.130769185  nElectrons: 44.200000  magneticMoment: [ Abs: 0.74511  Tot: -0.00014 ]
	SubspaceRotationAdjust: set factor to 0.146
ElecMinimize: Iter:   6  F: -186.475353586311854  |grad|_K:  3.423e-07  alpha:  5.769e-01  linmin: -1.817e-05  t[s]:   7688.15
	Linear fluid (dielectric constant: 78.4, screening length: 5.74355 Bohr) occupying 0.722720 of unit cell:	Completed after 9 iterations at t[s]:   7697.22
	Linear fluid (dielectric constant: 78.4, screening length: 5.74355 Bohr) occupying 0.722719 of unit cell:	Completed after 3 iterations at t[s]:   7707.15
	FillingsUpdate:  mu: -0.130724508  nElectrons: 44.200000  magneticMoment: [ Abs: 0.74529  Tot: -0.00014 ]
	SubspaceRotationAdjust: set factor to 0.153
ElecMinimize: Iter:   7  F: -186.475354619658532  |grad|_K:  3.052e-07  alpha:  6.283e-01  linmin: -6.687e-05  t[s]:   7715.15
	Linear fluid (dielectric constant: 78.4, screening length: 5.74355 Bohr) occupying 0.722706 of unit cell:	Completed after 10 iterations at t[s]:   7724.90
	Linear fluid (dielectric constant: 78.4, screening length: 5.74355 Bohr) occupying 0.722710 of unit cell:	Completed after 8 iterations at t[s]:   7734.26
	FillingsUpdate:  mu: -0.130650910  nElectrons: 44.200000  magneticMoment: [ Abs: 0.74543  Tot: -0.00013 ]
	SubspaceRotationAdjust: set factor to 0.114
ElecMinimize: Iter:   8  F: -186.475355205016285  |grad|_K:  2.359e-07  alpha:  4.458e-01  linmin:  6.813e-05  t[s]:   7742.36
	Linear fluid (dielectric constant: 78.4, screening length: 5.74355 Bohr) occupying 0.722704 of unit cell:	Completed after 9 iterations at t[s]:   7750.83
	Linear fluid (dielectric constant: 78.4, screening length: 5.74355 Bohr) occupying 0.722705 of unit cell:	Completed after 3 iterations at t[s]:   7759.01
	FillingsUpdate:  mu: -0.130634531  nElectrons: 44.200000  magneticMoment: [ Abs: 0.74554  Tot: -0.00013 ]
	SubspaceRotationAdjust: set factor to 0.102
ElecMinimize: Iter:   9  F: -186.475355518832487  |grad|_K:  1.515e-07  alpha:  4.029e-01  linmin:  6.207e-05  t[s]:   7766.23
	Linear fluid (dielectric constant: 78.4, screening length: 5.74355 Bohr) occupying 0.722703 of unit cell:	Completed after 2 iterations at t[s]:   7773.38
	Linear fluid (dielectric constant: 78.4, screening length: 5.74355 Bohr) occupying 0.722702 of unit cell:	Completed after 2 iterations at t[s]:   7782.11
	FillingsUpdate:  mu: -0.130649503  nElectrons: 44.200000  magneticMoment: [ Abs: 0.74565  Tot: -0.00013 ]
	SubspaceRotationAdjust: set factor to 0.114
ElecMinimize: Iter:  10  F: -186.475355705972248  |grad|_K:  1.009e-07  alpha:  5.831e-01  linmin:  3.016e-05  t[s]:   7790.29
	Linear fluid (dielectric constant: 78.4, screening length: 5.74355 Bohr) occupying 0.722703 of unit cell:	Completed after 7 iterations at t[s]:   7799.81
	Linear fluid (dielectric constant: 78.4, screening length: 5.74355 Bohr) occupying 0.722703 of unit cell:	Completed after 3 iterations at t[s]:   7807.95
	FillingsUpdate:  mu: -0.130643717  nElectrons: 44.200000  magneticMoment: [ Abs: 0.74571  Tot: -0.00013 ]
	SubspaceRotationAdjust: set factor to 0.111
ElecMinimize: Iter:  11  F: -186.475355769837307  |grad|_K:  7.077e-08  alpha:  4.476e-01  linmin:  1.449e-04  t[s]:   7814.80
	Linear fluid (dielectric constant: 78.4, screening length: 5.74355 Bohr) occupying 0.722703 of unit cell:	Completed after 6 iterations at t[s]:   7822.69
	Linear fluid (dielectric constant: 78.4, screening length: 5.74355 Bohr) occupying 0.722703 of unit cell:	Completed after 0 iterations at t[s]:   7830.84
	FillingsUpdate:  mu: -0.130634286  nElectrons: 44.200000  magneticMoment: [ Abs: 0.74577  Tot: -0.00013 ]
	SubspaceRotationAdjust: set factor to 0.11
ElecMinimize: Iter:  12  F: -186.475355804422804  |grad|_K:  4.316e-08  alpha:  4.926e-01  linmin: -1.042e-03  t[s]:   7838.16
	Linear fluid (dielectric constant: 78.4, screening length: 5.74355 Bohr) occupying 0.722704 of unit cell:	Completed after 2 iterations at t[s]:   7845.86
	Linear fluid (dielectric constant: 78.4, screening length: 5.74355 Bohr) occupying 0.722704 of unit cell:	Completed after 0 iterations at t[s]:   7854.34
	FillingsUpdate:  mu: -0.130640460  nElectrons: 44.200000  magneticMoment: [ Abs: 0.74583  Tot: -0.00013 ]
	SubspaceRotationAdjust: set factor to 0.13
ElecMinimize: Iter:  13  F: -186.475355819209653  |grad|_K:  3.356e-08  alpha:  5.471e-01  linmin: -1.811e-04  t[s]:   7862.48
	Linear fluid (dielectric constant: 78.4, screening length: 5.74355 Bohr) occupying 0.722703 of unit cell:	Completed after 3 iterations at t[s]:   7870.44
	Linear fluid (dielectric constant: 78.4, screening length: 5.74355 Bohr) occupying 0.722703 of unit cell:	Completed after 0 iterations at t[s]:   7877.77
	FillingsUpdate:  mu: -0.130648528  nElectrons: 44.200000  magneticMoment: [ Abs: 0.74589  Tot: -0.00013 ]
	SubspaceRotationAdjust: set factor to 0.129
ElecMinimize: Iter:  14  F: -186.475355826025009  |grad|_K:  2.724e-08  alpha:  4.233e-01  linmin:  7.261e-04  t[s]:   7885.14
	Linear fluid (dielectric constant: 78.4, screening length: 5.74355 Bohr) occupying 0.722703 of unit cell:	Completed after 2 iterations at t[s]:   7892.72
	Linear fluid (dielectric constant: 78.4, screening length: 5.74355 Bohr) occupying 0.722703 of unit cell:	Completed after 0 iterations at t[s]:   7900.67
	FillingsUpdate:  mu: -0.130651028  nElectrons: 44.200000  magneticMoment: [ Abs: 0.74595  Tot: -0.00013 ]
	SubspaceRotationAdjust: set factor to 0.127
ElecMinimize: Iter:  15  F: -186.475355829722304  |grad|_K:  2.102e-08  alpha:  3.813e-01  linmin: -5.503e-04  t[s]:   7908.38
ElecMinimize: Converged (|Delta F|<1.000000e-08 for 2 iters).
Setting wave functions to eigenvectors of Hamiltonian

# Ionic positions in lattice coordinates:
ion C   0.666666652666667   0.333333354333333   0.566761154758017 1
ion C   0.333333319333333   0.666666687666667   0.433266757424369 1
ion Ti  -0.000000014000000   0.000000021000000   0.500022594341489 1
ion Ti   0.333333319333333   0.666666687666667   0.619421775451341 1
ion Ti   0.666666652666667   0.333333354333333   0.380597324974631 1


# Forces in Lattice coordinates:
force C   0.000000000000000   0.000000000000000  -0.006697750925719 1
force C   0.000000000000000   0.000000000000000   0.006259688016409 1
force Ti   0.000000000000000  -0.000000000000000  -0.003825878546174 1
force Ti   0.000000000000000  -0.000000000000000   0.001460684389813 1
force Ti   0.000000000000000  -0.000000000000000   0.002388199459068 1

# Energy components:
   A_diel =       -0.0403006979569699
   Eewald =     1685.1027655415648496
       EH =     1849.7319899522783544
     Eloc =    -3756.7218953772380701
      Enl =       17.8996723312552000
      Exc =      -30.7643114006278751
 Exc_core =        3.9957081529737177
       KE =       44.3373877142958364
  MuShift =       -0.0040580460004420
-------------------------------------
     Etot =     -186.4630418294557046
       TS =        0.0123140002666048
-------------------------------------
        F =     -186.4753558297223037

IonicMinimize: Iter:   3  F: -186.475355829722304  |grad|_K:  7.171e-05  alpha:  1.000e+00  linmin:  6.730e-01  t[s]:   7911.73
IonicMinimize: Converged (|grad|_K<1.000000e-04).

#--- Lowdin population analysis ---
# oxidation-state C -1.117 -1.117
# magnetic-moments C -0.012 +0.012
# oxidation-state Ti +1.086 +0.834 +0.834
# magnetic-moments Ti +0.000 +0.289 -0.289


Dumping 'NbTe2.fillings' ... done
Dumping 'NbTe2.wfns' ... done
Dumping 'NbTe2.fluidState' ... done
Dumping 'NbTe2.ionpos' ... done
Dumping 'NbTe2.eigenvals' ... done
End date and time: Fri Dec 25 09:29:53 2020  (Duration: 0-2:11:52.76)
Done!
