
*************** JDFTx 1.5.0  ***************

Start date and time: Fri Feb  5 20:10:13 2021
Executable jdftx_gpu with command-line: -i Charged.in -o Charged.out
Running on hosts (process indices):  amax (0-6)
Divided in process groups (process indices):  0 (0)  1 (1)  2 (2)  3 (3)  4 (4)  5 (5)  6 (6)
gpuInit: Found compatible cuda device 0 'Tesla K80'
gpuInit: Found compatible cuda device 1 'Tesla K80'
gpuInit: Found compatible cuda device 2 'Tesla K80'
gpuInit: Found compatible cuda device 3 'Tesla K80'
gpuInit: Found compatible cuda device 4 'Tesla K80'
gpuInit: Found compatible cuda device 5 'Tesla K80'
gpuInit: Found compatible cuda device 6 'Tesla K80'
gpuInit: Selected device 0
Resource initialization completed at t[s]:      3.14
Run totals: 7 processes, 24 threads, 7 GPUs


Input parsed successfully to the following command list (including defaults):

basis kpoint-dependent
cache-projectors no
coords-type Lattice
core-overlap-check none
coulomb-interaction Slab 001
coulomb-truncation-embed 0.5 0.5 0.5
davidson-band-ratio 1.1
dump End State
dump-name NbTe2.$VAR
elec-cutoff 20
elec-eigen-algo Davidson
elec-ex-corr gga-PBE
elec-initial-charge 0.000000
elec-initial-magnetization 20.000000 no
elec-smearing Gauss 0.0073499
electronic-minimize  \
	dirUpdateScheme      FletcherReeves \
	linminMethod         DirUpdateRecommended \
	nIterations          200 \
	history              15 \
	knormThreshold       0 \
	energyDiffThreshold  1e-08 \
	nEnergyDiff          2 \
	alphaTstart          1 \
	alphaTmin            1e-10 \
	updateTestStepSize   yes \
	alphaTreduceFactor   0.1 \
	alphaTincreaseFactor 3 \
	nAlphaAdjustMax      3 \
	wolfeEnergy          0.0001 \
	wolfeGradient        0.9 \
	fdTest               no
exchange-regularization WignerSeitzTruncated
fluid LinearPCM 298.000000 1.013250
fluid-anion F- 1 MeanFieldLJ \
	epsBulk 1 \
	pMol 0 \
	epsInf 1 \
	Pvap 0 \
	sigmaBulk 0 \
	Rvdw 2.24877 \
	Res 0 \
	tauNuc 343133
fluid-cation Na+ 1 MeanFieldLJ \
	epsBulk 1 \
	pMol 0 \
	epsInf 1 \
	Pvap 0 \
	sigmaBulk 0 \
	Rvdw 2.19208 \
	Res 0 \
	tauNuc 343133
fluid-ex-corr lda-TF lda-PZ
fluid-gummel-loop 10 1.000000e-05
fluid-minimize  \
	dirUpdateScheme      PolakRibiere \
	linminMethod         DirUpdateRecommended \
	nIterations          400 \
	history              15 \
	knormThreshold       1e-11 \
	energyDiffThreshold  0 \
	nEnergyDiff          2 \
	alphaTstart          1 \
	alphaTmin            1e-10 \
	updateTestStepSize   yes \
	alphaTreduceFactor   0.1 \
	alphaTincreaseFactor 3 \
	nAlphaAdjustMax      6 \
	wolfeEnergy          0.0001 \
	wolfeGradient        0.9 \
	fdTest               no
fluid-solvent H2O 55.338 ScalarEOS \
	epsBulk 78.4 \
	pMol 0.92466 \
	epsInf 1.77 \
	Pvap 1.06736e-10 \
	sigmaBulk 4.62e-05 \
	Rvdw 2.61727 \
	Res 1.42 \
	tauNuc 343133 \
	poleEl 15 7 1
forces-output-coords Positions
initial-state NbTe2.$VAR
ion W   0.083329995000000   0.166669994000003   0.500000000000000 1
ion W   0.333330003999997   0.166669994000003   0.500000000000000 1
ion W   0.583329966999997   0.166669994000003   0.500000000000000 1
ion W   0.833329949000003   0.166669994000003   0.500000000000000 1
ion W   0.083330003000000   0.416669992999999   0.500000000000000 1
ion W   0.333330011999998   0.416669992999999   0.500000000000000 1
ion W   0.583330011999998   0.416669992999999   0.500000000000000 1
ion W   0.833329994000003   0.416669992999999   0.500000000000000 1
ion W   0.083330005000000   0.666670033000003   0.500000000000000 1
ion W   0.333330023000002   0.666670033000003   0.500000000000000 1
ion W   0.583330005000001   0.666670033000003   0.500000000000000 1
ion W   0.833329986999999   0.666670033000003   0.500000000000000 1
ion W   0.083329956000000   0.916669988999999   0.500000000000000 1
ion W   0.333329974000002   0.916669988999999   0.500000000000000 1
ion W   0.583329956000000   0.916669988999999   0.500000000000000 1
ion W   0.833329937999999   0.916669988999999   0.500000000000000 1
ion Se   0.166670001999996   0.083329999000000   0.406989985999999 1
ion Se   0.166670001999996   0.083329999000000   0.593010014000001 1
ion Se   0.416669966000001   0.083329999000000   0.406989985999999 1
ion Se   0.416669966000001   0.083329999000000   0.593010014000001 1
ion Se   0.666669984000002   0.083329999000000   0.406989985999999 1
ion Se   0.666669984000002   0.083329999000000   0.593010014000001 1
ion Se   0.916670037999999   0.083329999000000   0.406989985999999 1
ion Se   0.916670037999999   0.083329999000000   0.593010014000001 1
ion Se   0.166669994999999   0.333330001999997   0.406989985999999 1
ion Se   0.166669994999999   0.333330001999997   0.593010014000001 1
ion Se   0.416669976999998   0.333330001999997   0.406989985999999 1
ion Se   0.416669976999998   0.333330001999997   0.593010014000001 1
ion Se   0.666669994999999   0.333330001999997   0.406989985999999 1
ion Se   0.666669994999999   0.333330001999997   0.593010014000001 1
ion Se   0.916670085000000   0.333330001999997   0.406989985999999 1
ion Se   0.916670085000000   0.333330001999997   0.593010014000001 1
ion Se   0.166669982000002   0.583329958999997   0.406989985999999 1
ion Se   0.166669982000002   0.583329958999997   0.593010014000001 1
ion Se   0.416669964000000   0.583329958999997   0.406989985999999 1
ion Se   0.416669964000000   0.583329958999997   0.593010014000001 1
ion Se   0.666669982000002   0.583329958999997   0.406989985999999 1
ion Se   0.666669982000002   0.583329958999997   0.593010014000001 1
ion Se   0.916670035999999   0.583329958999997   0.406989985999999 1
ion Se   0.916670035999999   0.583329958999997   0.593010014000001 1
ion Se   0.166669990000003   0.833329956999997   0.406989985999999 1
ion Se   0.166669990000003   0.833329956999997   0.593010014000001 1
ion Se   0.416669972000001   0.833329956999997   0.406989985999999 1
ion Se   0.416669972000001   0.833329956999997   0.593010014000001 1
ion Se   0.666669990000003   0.833329956999997   0.406989985999999 1
ion Se   0.666669990000003   0.833329956999997   0.593010014000001 1
ion Se   0.916670045000004   0.833329956999997   0.406989985999999 1
ion Se   0.916670045000004   0.833329956999997   0.593010014000001 1
ion-species GBRV/$ID_pbe.uspp
ion-width Ecut
ionic-minimize  \
	dirUpdateScheme      L-BFGS \
	linminMethod         DirUpdateRecommended \
	nIterations          500 \
	history              15 \
	knormThreshold       0.0001 \
	energyDiffThreshold  1e-06 \
	nEnergyDiff          2 \
	alphaTstart          1 \
	alphaTmin            1e-10 \
	updateTestStepSize   yes \
	alphaTreduceFactor   0.1 \
	alphaTincreaseFactor 3 \
	nAlphaAdjustMax      3 \
	wolfeEnergy          0.0001 \
	wolfeGradient        0.9 \
	fdTest               no
kpoint   0.000000000000   0.000000000000   0.000000000000  1.00000000000000
kpoint-folding 4 4 1 
latt-move-scale 1 1 1
latt-scale 1.88973 1.88973 1.88973 
lattice Triclinic 13.1778 13.1778 18.1461 90 90 120
lattice-minimize  \
	dirUpdateScheme      L-BFGS \
	linminMethod         DirUpdateRecommended \
	nIterations          0 \
	history              15 \
	knormThreshold       0 \
	energyDiffThreshold  1e-06 \
	nEnergyDiff          2 \
	alphaTstart          1 \
	alphaTmin            1e-10 \
	updateTestStepSize   yes \
	alphaTreduceFactor   0.1 \
	alphaTincreaseFactor 3 \
	nAlphaAdjustMax      3 \
	wolfeEnergy          0.0001 \
	wolfeGradient        0.9 \
	fdTest               no
lcao-params -1 1e-06 0.0073499
pcm-variant CANDLE
spintype z-spin
subspace-rotation-factor 1 yes
symmetries automatic
symmetry-threshold 0.0001



---------- Setting up symmetries ----------

Found 24 point-group symmetries of the bravais lattice
Found 64 space-group symmetries with basis
Applied RMS atom displacement 8.5669e-07 bohrs to make symmetries exact.

---------- Initializing the Grid ----------
R = 
[    24.9024   -12.4512          0  ]
[          0    21.5661          0  ]
[          0          0    34.2912  ]
unit cell volume = 18416
G =
[   0.252312   0.145672         -0  ]
[          0   0.291345          0  ]
[          0         -0    0.18323  ]
Minimum fftbox size, Smin = [  104  104  140  ]
Chosen fftbox size, S = [  108  108  140  ]

---------- Exchange Correlation functional ----------
Initalized PBE GGA exchange.
Initalized PBE GGA correlation.

---------- Setting up pseudopotentials ----------
Width of ionic core gaussian charges (only for fluid interactions / plotting) set to 0.397384

Reading pseudopotential file '/home/guoxy/vasp/jdftx-1.5.0/build/pseudopotentials/GBRV/w_pbe.uspp':
  Title: W.  Created by USPP 7.3.6 on 3-2-2014
  Reference state energy: -79.133630.  14 valence electrons in orbitals:
    |500>  occupation: 2  eigenvalue: -2.938934
    |510>  occupation: 6  eigenvalue: -1.620730
    |520>  occupation: 3.9  eigenvalue: -0.194511
    |600>  occupation: 2  eigenvalue: -0.234858
    |610>  occupation: 0  eigenvalue: -0.069444
  lMax: 3  lLocal: 3  QijEcut: 5
  8 projectors sampled on a log grid with 667 points:
    l: 0  eig: -2.938934  rCut: 1.45
    l: 0  eig: -0.234859  rCut: 1.45
    l: 0  eig: 0.500000  rCut: 1.45
    l: 1  eig: -1.620730  rCut: 1.5
    l: 1  eig: -0.069446  rCut: 1.5
    l: 2  eig: -0.194511  rCut: 1.7
    l: 2  eig: 0.150000  rCut: 1.7
    l: 3  eig: 0.500000  rCut: 2.3
  Partial core density with radius 1.2
  Transforming core density to a uniform radial grid of dG=0.02 with 1511 points.
  Transforming local potential to a uniform radial grid of dG=0.02 with 1511 points.
  Transforming nonlocal projectors to a uniform radial grid of dG=0.02 with 432 points.
  Transforming density augmentations to a uniform radial grid of dG=0.02 with 1511 points.
  Transforming atomic orbitals to a uniform radial grid of dG=0.02 with 432 points.
  Core radius for overlap checks: 2.30 bohrs.

Reading pseudopotential file '/home/guoxy/vasp/jdftx-1.5.0/build/pseudopotentials/GBRV/se_pbe.uspp':
  Title: Se.  Created by USPP 7.3.6 on 14-9-2013
  Reference state energy: -21.672887.  6 valence electrons in orbitals:
    |400>  occupation: 2  eigenvalue: -0.635284
    |410>  occupation: 4  eigenvalue: -0.239295
  lMax: 2  lLocal: 3  QijEcut: 5
  6 projectors sampled on a log grid with 625 points:
    l: 0  eig: -0.635278  rCut: 1.5
    l: 0  eig: 0.500000  rCut: 1.5
    l: 1  eig: -0.239295  rCut: 1.5
    l: 1  eig: 0.500000  rCut: 1.5
    l: 2  eig: 0.000000  rCut: 1.8
    l: 2  eig: 1.000000  rCut: 1.8
  Partial core density with radius 1.2
  Transforming core density to a uniform radial grid of dG=0.02 with 1511 points.
  Transforming local potential to a uniform radial grid of dG=0.02 with 1511 points.
  Transforming nonlocal projectors to a uniform radial grid of dG=0.02 with 432 points.
  Transforming density augmentations to a uniform radial grid of dG=0.02 with 1511 points.
  Transforming atomic orbitals to a uniform radial grid of dG=0.02 with 432 points.
  Core radius for overlap checks: 1.80 bohrs.

Initialized 2 species with 48 total atoms.

Folded 1 k-points by 4x4x1 to 16 k-points.

---------- Setting up k-points, bands, fillings ----------
Adding inversion symmetry to k-mesh for non-inversion-symmetric unit cell.
Reduced to 7 k-points under symmetry. 
Computing the number of bands and number of electrons
Calculating initial fillings.
nElectrons: 416.000000   nBands: 336   nStates: 14

----- Setting up reduced wavefunction bases (one per k-point) -----
average nbasis = 78679.312 , ideal nbasis = 78674.730

---------- Setting up coulomb interaction ----------
Fluid mode embedding: using embedded box, but periodic Coulomb kernel.
(Fluid response is responsible for (approximate) separation between periodic images.)
Setting up double-sized grid for truncated Coulomb potentials:
R = 
[    24.9024   -12.4512          0  ]
[          0    21.5661          0  ]
[          0          0    68.5823  ]
unit cell volume = 36832.1
G =
[   0.252312   0.145672         -0  ]
[          0   0.291345          0  ]
[          0         -0  0.0916152  ]
Chosen fftbox size, S = [  108  108  280  ]
Integer grid location selected as the embedding center:
   Grid: [  54  54  70  ]
   Lattice: [  0.5  0.5  0.5  ]
   Cartesian: [  6.22561  10.7831  17.1456  ]
Constructing Wigner-Seitz cell: 8 faces (6 quadrilaterals, 2 hexagons)
Range-separation parameter for embedded mesh potentials due to point charges: 0.624363 bohrs.

Initializing van der Waals corrections
	NOTE: vdW corrections apply only for interactions with fluid.
	 W:  C6:  815.23 Eh-a0^6  R0: 3.326 a0 (WARNING: beyond Grimme's data set)
	Se:  C6:  219.24 Eh-a0^6  R0: 3.347 a0

---------- Setting up ewald sum ----------
Optimum gaussian width for ewald sums = 6.962715 bohr.
Real space sum over 605 unit cells with max indices [  5  5  2  ]
Reciprocal space sum over 7425 terms with max indices [  7  7  16  ]

---------- Allocating electronic variables ----------
Initializing wave functions:  linear combination of atomic orbitals
W pseudo-atom occupations:   s ( 2 2 )  p ( 6 0 )  d ( 4 )
Se pseudo-atom occupations:   s ( 2 )  p ( 4 )
	FillingsUpdate:  mu: +0.368174965  nElectrons: 416.000000  magneticMoment: [ Abs: 4.07132  Tot: +1.18935 ]
LCAOMinimize: Iter:   0  F: -1399.4080059322689067  |grad|_K:  7.795e-03  alpha:  1.000e+00
LCAOMinimize: 	Step increased F by 8.384697e-01, reducing alpha to 3.617114e-02.
	FillingsUpdate:  mu: +0.250268705  nElectrons: 416.000000  magneticMoment: [ Abs: 3.59473  Tot: +0.42385 ]
LCAOMinimize: Iter:   1  F: -1402.2391581552906246  |grad|_K:  5.338e-03  alpha:  3.617e-02  linmin: -4.488e-01  cgtest:  1.067e+00  t[s]:    273.63
LCAOMinimize: Encountered beta<0, resetting CG.
LCAOMinimize: 	Predicted alpha/alphaT>3.000000, increasing alphaT to 1.085134e-01.
	FillingsUpdate:  mu: -0.050009666  nElectrons: 416.000000  magneticMoment: [ Abs: 2.70669  Tot: +0.03375 ]
LCAOMinimize: Iter:   2  F: -1405.3519636642413388  |grad|_K:  6.053e-04  alpha:  1.335e-01  linmin: -4.741e-01  cgtest:  1.084e+00  t[s]:    364.35
LCAOMinimize: Encountered beta<0, resetting CG.
	FillingsUpdate:  mu: -0.093723850  nElectrons: 416.000000  magneticMoment: [ Abs: 2.33789  Tot: +0.01543 ]
LCAOMinimize: Iter:   3  F: -1405.3997691386512088  |grad|_K:  7.564e-05  alpha:  1.635e-01  linmin: -5.353e-02  cgtest:  1.255e-01  t[s]:    433.87
LCAOMinimize: Encountered beta<0, resetting CG.
LCAOMinimize: 	Predicted alpha/alphaT>3.000000, increasing alphaT to 4.904895e-01.
	FillingsUpdate:  mu: -0.094203453  nElectrons: 416.000000  magneticMoment: [ Abs: 0.83962  Tot: +0.00075 ]
LCAOMinimize: Iter:   4  F: -1405.4040633723359406  |grad|_K:  2.771e-05  alpha:  9.306e-01  linmin: -1.673e-02  cgtest:  8.808e-02  t[s]:    524.25
	FillingsUpdate:  mu: -0.096728168  nElectrons: 416.000000  magneticMoment: [ Abs: 0.57958  Tot: +0.00034 ]
LCAOMinimize: Iter:   5  F: -1405.4042809403672436  |grad|_K:  2.389e-05  alpha:  3.519e-01  linmin:  1.659e-03  cgtest: -3.484e-02  t[s]:    593.98
	FillingsUpdate:  mu: -0.095047926  nElectrons: 416.000000  magneticMoment: [ Abs: 0.09952  Tot: -0.00020 ]
LCAOMinimize: Iter:   6  F: -1405.4045062452551065  |grad|_K:  4.155e-06  alpha:  4.993e-01  linmin:  4.514e-03  cgtest:  1.249e-01  t[s]:    663.32
	FillingsUpdate:  mu: -0.094797102  nElectrons: 416.000000  magneticMoment: [ Abs: 0.04292  Tot: -0.00005 ]
LCAOMinimize: Iter:   7  F: -1405.4045165747104420  |grad|_K:  3.406e-06  alpha:  7.532e-01  linmin:  1.024e-04  cgtest:  8.204e-04  t[s]:    733.03
	FillingsUpdate:  mu: -0.095057325  nElectrons: 416.000000  magneticMoment: [ Abs: 0.02609  Tot: -0.00001 ]
LCAOMinimize: Iter:   8  F: -1405.4045185430402398  |grad|_K:  8.866e-07  alpha:  2.136e-01  linmin:  3.864e-04  cgtest: -9.969e-04  t[s]:    802.83
LCAOMinimize: 	Predicted alpha/alphaT>3.000000, increasing alphaT to 6.406862e-01.
	FillingsUpdate:  mu: -0.095037779  nElectrons: 416.000000  magneticMoment: [ Abs: 0.00496  Tot: +0.00001 ]
LCAOMinimize: Iter:   9  F: -1405.4045191205880201  |grad|_K:  1.518e-07  alpha:  9.246e-01  linmin: -1.566e-04  cgtest:  2.658e-03  t[s]:    893.63
	FillingsUpdate:  mu: -0.095022692  nElectrons: 416.000000  magneticMoment: [ Abs: 0.00240  Tot: +0.00001 ]
LCAOMinimize: Iter:  10  F: -1405.4045191327127213  |grad|_K:  1.696e-07  alpha:  6.612e-01  linmin: -1.725e-04  cgtest:  8.226e-04  t[s]:    964.00
LCAOMinimize: Converged (|Delta F|<1.000000e-06 for 2 iters).
----- createFluidSolver() ----- (Fluid-side solver setup)
   Initializing fluid molecule 'H2O'
     Initializing site 'O'
       Electron density: proportional to exp(-r/0.36935)*erfc((r-0.51523)/0.36823) with norm 6.826
       Charge density: gaussian nuclear width 0.478731 with net site charge 0.826
       Polarizability: cuspless exponential with width 0.32 and norm 3.73
       Hard sphere radius: 2.57003 bohrs
       Positions in reference frame:
         [ +0.000000 +0.000000 +0.000000 ]
     Initializing site 'H'
       Electron density: proportional to exp(-r/0.34641)*erfc((r-0)/0.390882) with norm 0.587
       Charge density: gaussian nuclear width 0.377945 with net site charge -0.413
       Polarizability: cuspless exponential with width 0.39 and norm 3.3
       Positions in reference frame:
         [ +0.000000 -1.441945 +1.122523 ]
         [ +0.000000 +1.441945 +1.122523 ]
     Net charge: 0   dipole magnitude: 0.927204
     Initializing spherical shell mfKernel with radius 2.61727 Bohr
     deltaS corrections:
       site 'O': -7.54299
       site 'H': -6.83917
   Initializing fluid molecule 'Na+'
     Initializing site 'Na'
       Electron density: proportional to exp(-r/0.19682)*erfc((r-0.71491)/0.41314) with norm 8.1383
       Charge density: gaussian nuclear width 0.365347 with net site charge -1
       Hard sphere radius: 1.86327 bohrs
       Positions in reference frame:
         [ +0.000000 +0.000000 +0.000000 ]
     Net charge: -1   dipole magnitude: 0
     Initializing gaussian mfKernel with width: 1.55004 Bohr
     deltaS corrections:
       site 'Na': -22.3555
   Initializing fluid molecule 'F-'
     Initializing site 'F'
       Electron density: proportional to exp(-r/0.38886)*erfc((r-0)/0.438782) with norm 8
       Charge density: gaussian nuclear width 0.374796 with net site charge 1
       Hard sphere radius: 2.39995 bohrs
       Positions in reference frame:
         [ +0.000000 +0.000000 +0.000000 ]
     Net charge: 1   dipole magnitude: 0
     Initializing gaussian mfKernel with width: 1.59012 Bohr
     deltaS corrections:
       site 'F': -9.04335

Correction to mu due to finite nuclear width = -0.0112064
   Cavity determined by nc: 0.00142 and sigma: 0.707107
   Nonlocal vdW cavity from gaussian model electron density with norm = 8 and sigma = 0.993594 bohr
   Charge asymmetry in cavity with sensitivity pCavity = 36.5 e-bohr/Eh
   Electrostatic cavity expanded by eta = 1.46 bohrs
   Weighted density cavitation model constrained by Nbulk: 0.0049383 bohr^-3, Pvap: 3.14029 kPa, Rvdw: 2.61727 bohr and sigmaBulk: 4.62e-05 Eh/bohr^2 at T: 298 K.
   Weighted density dispersion model using vdW pair potentials with single solvent site with sqrtC6eff: 0.77 SI.


---- Citations for features of the code used in this run ----

   Software package:
      R. Sundararaman, K. Letchworth-Weaver, K.A. Schwarz, D. Gunceler, Y. Ozhabes and T.A. Arias, 'JDFTx: software for joint density-functional theory', SoftwareX 6, 278 (2017)

   gga-PBE exchange-correlation functional:
      J.P. Perdew, K. Burke and M. Ernzerhof, Phys. Rev. Lett. 77, 3865 (1996)

   Pseudopotentials:
      KF Garrity, JW Bennett, KM Rabe and D Vanderbilt, Comput. Mater. Sci. 81, 446 (2014)

   Truncated Coulomb potentials:
      R. Sundararaman and T.A. Arias, Phys. Rev. B 87, 165122 (2013)

   Van der Waals correction pair-potentials:
      S. Grimme, J. Comput. Chem. 27, 1787 (2006)

   Charge-asymmetric nonlocally-determined local-electric (CANDLE) solvation model:
      R. Sundararaman and W.A. Goddard III, J. Chem. Phys. 142, 064107 (2015)

   Total energy minimization with Auxiliary Hamiltonian:
      C. Freysoldt, S. Boeck, and J. Neugebauer, Phys. Rev. B 79, 241103(R) (2009)

This list may not be complete. Please suggest additional citations or
report any other bugs at https://github.com/shankar1729/jdftx/issues

Initialization completed successfully at t[s]:    975.33

Fluid solver invoked on fresh (partially random / LCAO) wavefunctions
Running a vacuum solve first:

-------- Initial electronic minimization -----------
	FillingsUpdate:  mu: -0.095022692  nElectrons: 416.000000  magneticMoment: [ Abs: 0.00240  Tot: +0.00001 ]
ElecMinimize: Iter:   0  F: -1405.404519132709765  |grad|_K:  6.219e-05  alpha:  1.000e+00
	FillingsUpdate:  mu: -0.026601567  nElectrons: 416.000000  magneticMoment: [ Abs: 0.00114  Tot: +0.00000 ]
	SubspaceRotationAdjust: set factor to 1
ElecMinimize: Iter:   1  F: -1406.530468712803668  |grad|_K:  2.871e-05  alpha:  7.868e-01  linmin: -1.377e-05  t[s]:   1133.73
	FillingsUpdate:  mu: -0.080180480  nElectrons: 416.000000  magneticMoment: [ Abs: 0.00059  Tot: +0.00000 ]
	SubspaceRotationAdjust: set factor to 0.686
ElecMinimize: Iter:   2  F: -1406.697361801330771  |grad|_K:  2.498e-05  alpha:  5.493e-01  linmin: -9.390e-06  t[s]:   1230.80
	FillingsUpdate:  mu: -0.045723817  nElectrons: 416.000000  magneticMoment: [ Abs: 0.00035  Tot: -0.00000 ]
	SubspaceRotationAdjust: set factor to 0.438
ElecMinimize: Iter:   3  F: -1406.766342550802392  |grad|_K:  1.136e-05  alpha:  2.897e-01  linmin: -6.810e-05  t[s]:   1328.20
	FillingsUpdate:  mu: -0.048599246  nElectrons: 416.000000  magneticMoment: [ Abs: 0.00024  Tot: -0.00000 ]
	SubspaceRotationAdjust: set factor to 0.528
ElecMinimize: Iter:   4  F: -1406.794993392098377  |grad|_K:  7.448e-06  alpha:  5.942e-01  linmin:  6.882e-05  t[s]:   1425.25
	FillingsUpdate:  mu: -0.056399893  nElectrons: 416.000000  magneticMoment: [ Abs: 0.00023  Tot: -0.00000 ]
	SubspaceRotationAdjust: set factor to 0.525
ElecMinimize: Iter:   5  F: -1406.805905637227625  |grad|_K:  4.594e-06  alpha:  5.352e-01  linmin:  2.286e-05  t[s]:   1522.51
	FillingsUpdate:  mu: -0.052684215  nElectrons: 416.000000  magneticMoment: [ Abs: 0.00019  Tot: -0.00000 ]
	SubspaceRotationAdjust: set factor to 0.594
ElecMinimize: Iter:   6  F: -1406.810368527501623  |grad|_K:  2.859e-06  alpha:  5.727e-01  linmin:  1.004e-05  t[s]:   1619.94
	FillingsUpdate:  mu: -0.053190348  nElectrons: 416.000000  magneticMoment: [ Abs: 0.00014  Tot: -0.00000 ]
	SubspaceRotationAdjust: set factor to 0.703
ElecMinimize: Iter:   7  F: -1406.812286580843192  |grad|_K:  1.966e-06  alpha:  6.353e-01  linmin:  6.541e-06  t[s]:   1717.44
	FillingsUpdate:  mu: -0.054321736  nElectrons: 416.000000  magneticMoment: [ Abs: 0.00009  Tot: +0.00000 ]
	SubspaceRotationAdjust: set factor to 0.746
ElecMinimize: Iter:   8  F: -1406.813021257312357  |grad|_K:  1.206e-06  alpha:  5.137e-01  linmin:  1.847e-06  t[s]:   1814.83
	FillingsUpdate:  mu: -0.053362791  nElectrons: 416.000000  magneticMoment: [ Abs: 0.00005  Tot: +0.00000 ]
	SubspaceRotationAdjust: set factor to 0.693
ElecMinimize: Iter:   9  F: -1406.813321376684826  |grad|_K:  8.574e-07  alpha:  5.573e-01  linmin:  4.754e-06  t[s]:   1912.45
	FillingsUpdate:  mu: -0.054371378  nElectrons: 416.000000  magneticMoment: [ Abs: 0.00003  Tot: +0.00000 ]
	SubspaceRotationAdjust: set factor to 0.627
ElecMinimize: Iter:  10  F: -1406.813459989343983  |grad|_K:  6.016e-07  alpha:  5.101e-01  linmin:  2.526e-06  t[s]:   2009.57
	FillingsUpdate:  mu: -0.054067821  nElectrons: 416.000000  magneticMoment: [ Abs: 0.00002  Tot: +0.00000 ]
	SubspaceRotationAdjust: set factor to 0.658
ElecMinimize: Iter:  11  F: -1406.813542062224315  |grad|_K:  4.500e-07  alpha:  6.133e-01  linmin:  2.831e-06  t[s]:   2106.94
	FillingsUpdate:  mu: -0.054080460  nElectrons: 416.000000  magneticMoment: [ Abs: 0.00002  Tot: -0.00000 ]
	SubspaceRotationAdjust: set factor to 0.749
ElecMinimize: Iter:  12  F: -1406.813590343017950  |grad|_K:  3.689e-07  alpha:  6.450e-01  linmin:  1.803e-06  t[s]:   2204.69
	FillingsUpdate:  mu: -0.054404126  nElectrons: 416.000000  magneticMoment: [ Abs: 0.00002  Tot: -0.00000 ]
	SubspaceRotationAdjust: set factor to 0.749
ElecMinimize: Iter:  13  F: -1406.813624208395368  |grad|_K:  3.205e-07  alpha:  6.725e-01  linmin:  2.086e-06  t[s]:   2302.14
	FillingsUpdate:  mu: -0.053987009  nElectrons: 416.000000  magneticMoment: [ Abs: 0.00002  Tot: -0.00000 ]
	SubspaceRotationAdjust: set factor to 0.67
ElecMinimize: Iter:  14  F: -1406.813645951355511  |grad|_K:  2.593e-07  alpha:  5.720e-01  linmin:  8.325e-07  t[s]:   2399.51
	FillingsUpdate:  mu: -0.054165133  nElectrons: 416.000000  magneticMoment: [ Abs: 0.00001  Tot: -0.00000 ]
	SubspaceRotationAdjust: set factor to 0.676
ElecMinimize: Iter:  15  F: -1406.813660228924846  |grad|_K:  1.960e-07  alpha:  5.731e-01  linmin:  9.526e-07  t[s]:   2496.60
	FillingsUpdate:  mu: -0.054125465  nElectrons: 416.000000  magneticMoment: [ Abs: 0.00001  Tot: -0.00000 ]
	SubspaceRotationAdjust: set factor to 0.795
ElecMinimize: Iter:  16  F: -1406.813669462236248  |grad|_K:  1.484e-07  alpha:  6.490e-01  linmin:  8.346e-07  t[s]:   2593.82
	FillingsUpdate:  mu: -0.054014709  nElectrons: 416.000000  magneticMoment: [ Abs: 0.00001  Tot: +0.00000 ]
	SubspaceRotationAdjust: set factor to 0.864
ElecMinimize: Iter:  17  F: -1406.813674040029809  |grad|_K:  1.101e-07  alpha:  5.610e-01  linmin:  1.371e-07  t[s]:   2691.13
	FillingsUpdate:  mu: -0.054139628  nElectrons: 416.000000  magneticMoment: [ Abs: 0.00001  Tot: +0.00000 ]
	SubspaceRotationAdjust: set factor to 0.822
ElecMinimize: Iter:  18  F: -1406.813676308666345  |grad|_K:  7.925e-08  alpha:  5.047e-01  linmin: -2.265e-08  t[s]:   2788.51
	FillingsUpdate:  mu: -0.054072408  nElectrons: 416.000000  magneticMoment: [ Abs: 0.00001  Tot: +0.00000 ]
	SubspaceRotationAdjust: set factor to 0.743
ElecMinimize: Iter:  19  F: -1406.813677352633931  |grad|_K:  5.073e-08  alpha:  4.482e-01  linmin:  1.792e-08  t[s]:   2885.82
	FillingsUpdate:  mu: -0.054113776  nElectrons: 416.000000  magneticMoment: [ Abs: 0.00000  Tot: +0.00000 ]
	SubspaceRotationAdjust: set factor to 0.768
ElecMinimize: Iter:  20  F: -1406.813677856216827  |grad|_K:  3.444e-08  alpha:  5.277e-01  linmin:  8.183e-08  t[s]:   2983.41
	FillingsUpdate:  mu: -0.054112655  nElectrons: 416.000000  magneticMoment: [ Abs: 0.00000  Tot: -0.00000 ]
	SubspaceRotationAdjust: set factor to 0.884
ElecMinimize: Iter:  21  F: -1406.813678112056095  |grad|_K:  2.455e-08  alpha:  5.818e-01  linmin:  9.756e-08  t[s]:   3080.71
	FillingsUpdate:  mu: -0.054100465  nElectrons: 416.000000  magneticMoment: [ Abs: 0.00000  Tot: -0.00000 ]
	SubspaceRotationAdjust: set factor to 0.997
ElecMinimize: Iter:  22  F: -1406.813678243663389  |grad|_K:  1.845e-08  alpha:  5.891e-01  linmin:  7.675e-08  t[s]:   3178.11
	FillingsUpdate:  mu: -0.054117078  nElectrons: 416.000000  magneticMoment: [ Abs: 0.00001  Tot: -0.00000 ]
	SubspaceRotationAdjust: set factor to 0.927
ElecMinimize: Iter:  23  F: -1406.813678307615646  |grad|_K:  1.405e-08  alpha:  5.064e-01  linmin:  5.076e-08  t[s]:   3275.79
	FillingsUpdate:  mu: -0.054098556  nElectrons: 416.000000  magneticMoment: [ Abs: 0.00001  Tot: -0.00000 ]
	SubspaceRotationAdjust: set factor to 0.742
ElecMinimize: Iter:  24  F: -1406.813678337801093  |grad|_K:  1.044e-08  alpha:  4.123e-01  linmin:  2.089e-08  t[s]:   3373.98
	FillingsUpdate:  mu: -0.054107327  nElectrons: 416.000000  magneticMoment: [ Abs: 0.00001  Tot: -0.00000 ]
	SubspaceRotationAdjust: set factor to 0.714
ElecMinimize: Iter:  25  F: -1406.813678357418667  |grad|_K:  7.459e-09  alpha:  4.857e-01  linmin:  6.810e-08  t[s]:   3471.92
	FillingsUpdate:  mu: -0.054106375  nElectrons: 416.000000  magneticMoment: [ Abs: 0.00000  Tot: -0.00000 ]
	SubspaceRotationAdjust: set factor to 0.836
ElecMinimize: Iter:  26  F: -1406.813678369933314  |grad|_K:  5.823e-09  alpha:  6.073e-01  linmin:  1.954e-08  t[s]:   3569.35
	FillingsUpdate:  mu: -0.054101785  nElectrons: 416.000000  magneticMoment: [ Abs: 0.00000  Tot: -0.00000 ]
	SubspaceRotationAdjust: set factor to 0.897
ElecMinimize: Iter:  27  F: -1406.813678377388896  |grad|_K:  4.937e-09  alpha:  5.918e-01  linmin: -4.361e-08  t[s]:   3667.04
	FillingsUpdate:  mu: -0.054107534  nElectrons: 416.000000  magneticMoment: [ Abs: 0.00000  Tot: -0.00000 ]
	SubspaceRotationAdjust: set factor to 0.812
ElecMinimize: Iter:  28  F: -1406.813678381914087  |grad|_K:  3.913e-09  alpha:  4.996e-01  linmin: -3.010e-08  t[s]:   3764.41
ElecMinimize: Converged (|Delta F|<1.000000e-08 for 2 iters).
Setting wave functions to eigenvectors of Hamiltonian
Vacuum energy after initial minimize, F = -1406.813678381914087

	Linear fluid (dielectric constant: 78.4, screening length: 5.74355 Bohr) occupying 0.743194 of unit cell:	Completed after 13 iterations at t[s]:   3787.13

-------- Electronic minimization -----------
	Linear fluid (dielectric constant: 78.4, screening length: 5.74355 Bohr) occupying 0.743194 of unit cell:	Completed after 0 iterations at t[s]:   3812.07
	FillingsUpdate:  mu: -0.151549352  nElectrons: 416.000000  magneticMoment: [ Abs: 0.00000  Tot: +0.00000 ]
ElecMinimize: Iter:   0  F: -1406.808814438996933  |grad|_K:  7.085e-07  alpha:  1.000e+00
	Linear fluid (dielectric constant: 78.4, screening length: 5.74355 Bohr) occupying 0.743799 of unit cell:	Completed after 9 iterations at t[s]:   3889.92
	Linear fluid (dielectric constant: 78.4, screening length: 5.74355 Bohr) occupying 0.743791 of unit cell:	Completed after 0 iterations at t[s]:   3922.88
	FillingsUpdate:  mu: -0.149292637  nElectrons: 416.000000  magneticMoment: [ Abs: 0.00006  Tot: -0.00000 ]
	SubspaceRotationAdjust: set factor to 0.552
ElecMinimize: Iter:   1  F: -1406.808997991986644  |grad|_K:  5.046e-07  alpha:  9.863e-01  linmin: -2.571e-06  t[s]:   3964.66
	Linear fluid (dielectric constant: 78.4, screening length: 5.74355 Bohr) occupying 0.744093 of unit cell:	Completed after 7 iterations at t[s]:   3996.40
	Linear fluid (dielectric constant: 78.4, screening length: 5.74355 Bohr) occupying 0.743871 of unit cell:	Completed after 9 iterations at t[s]:   4030.86
	FillingsUpdate:  mu: -0.150128301  nElectrons: 416.000000  magneticMoment: [ Abs: 0.00007  Tot: -0.00000 ]
	SubspaceRotationAdjust: set factor to 0.277
ElecMinimize: Iter:   2  F: -1406.809022150385090  |grad|_K:  1.783e-07  alpha:  2.561e-01  linmin:  1.334e-06  t[s]:   4074.51
	Linear fluid (dielectric constant: 78.4, screening length: 5.74355 Bohr) occupying 0.743887 of unit cell:	Completed after 2 iterations at t[s]:   4105.14
ElecMinimize: 	Predicted alpha/alphaT>3.000000, increasing alphaT to 7.683681e-01.
	Linear fluid (dielectric constant: 78.4, screening length: 5.74355 Bohr) occupying 0.743918 of unit cell:	Completed after 1 iterations at t[s]:   4136.48
	Linear fluid (dielectric constant: 78.4, screening length: 5.74355 Bohr) occupying 0.743921 of unit cell:	Completed after 0 iterations at t[s]:   4167.88
	FillingsUpdate:  mu: -0.150136490  nElectrons: 416.000000  magneticMoment: [ Abs: 0.00006  Tot: -0.00000 ]
	SubspaceRotationAdjust: set factor to 0.345
ElecMinimize: Iter:   3  F: -1406.809031620095084  |grad|_K:  1.023e-07  alpha:  8.075e-01  linmin: -3.382e-06  t[s]:   4209.54
	Linear fluid (dielectric constant: 78.4, screening length: 5.74355 Bohr) occupying 0.743945 of unit cell:	Completed after 1 iterations at t[s]:   4239.82
	Linear fluid (dielectric constant: 78.4, screening length: 5.74355 Bohr) occupying 0.743948 of unit cell:	Completed after 0 iterations at t[s]:   4271.18
	FillingsUpdate:  mu: -0.150098985  nElectrons: 416.000000  magneticMoment: [ Abs: 0.00005  Tot: -0.00000 ]
	SubspaceRotationAdjust: set factor to 0.364
ElecMinimize: Iter:   4  F: -1406.809035122723344  |grad|_K:  7.009e-08  alpha:  8.875e-01  linmin: -2.744e-06  t[s]:   4312.86
	Linear fluid (dielectric constant: 78.4, screening length: 5.74355 Bohr) occupying 0.743956 of unit cell:	Completed after 2 iterations at t[s]:   4343.52
	Linear fluid (dielectric constant: 78.4, screening length: 5.74355 Bohr) occupying 0.743953 of unit cell:	Completed after 0 iterations at t[s]:   4375.23
	FillingsUpdate:  mu: -0.150035088  nElectrons: 416.000000  magneticMoment: [ Abs: 0.00003  Tot: -0.00000 ]
	SubspaceRotationAdjust: set factor to 0.431
ElecMinimize: Iter:   5  F: -1406.809036173885943  |grad|_K:  4.569e-08  alpha:  5.703e-01  linmin:  1.779e-05  t[s]:   4416.66
	Linear fluid (dielectric constant: 78.4, screening length: 5.74355 Bohr) occupying 0.743951 of unit cell:	Completed after 0 iterations at t[s]:   4446.66
	Linear fluid (dielectric constant: 78.4, screening length: 5.74355 Bohr) occupying 0.743950 of unit cell:	Completed after 0 iterations at t[s]:   4477.58
	FillingsUpdate:  mu: -0.150033896  nElectrons: 416.000000  magneticMoment: [ Abs: 0.00002  Tot: -0.00000 ]
	SubspaceRotationAdjust: set factor to 0.557
ElecMinimize: Iter:   6  F: -1406.809036736231064  |grad|_K:  3.450e-08  alpha:  7.436e-01  linmin:  3.247e-07  t[s]:   4519.20
	Linear fluid (dielectric constant: 78.4, screening length: 5.74355 Bohr) occupying 0.743942 of unit cell:	Completed after 2 iterations at t[s]:   4549.51
	Linear fluid (dielectric constant: 78.4, screening length: 5.74355 Bohr) occupying 0.743947 of unit cell:	Completed after 0 iterations at t[s]:   4581.21
	FillingsUpdate:  mu: -0.150151752  nElectrons: 416.000000  magneticMoment: [ Abs: 0.00002  Tot: -0.00000 ]
	SubspaceRotationAdjust: set factor to 0.414
ElecMinimize: Iter:   7  F: -1406.809036794225221  |grad|_K:  5.482e-08  alpha:  2.743e-01  linmin:  2.738e-05  t[s]:   4622.65
	Linear fluid (dielectric constant: 78.4, screening length: 5.74355 Bohr) occupying 0.743939 of unit cell:	Completed after 1 iterations at t[s]:   4653.03
	Linear fluid (dielectric constant: 78.4, screening length: 5.74355 Bohr) occupying 0.743944 of unit cell:	Completed after 0 iterations at t[s]:   4684.31
	FillingsUpdate:  mu: -0.150111792  nElectrons: 416.000000  magneticMoment: [ Abs: 0.00003  Tot: +0.00000 ]
	SubspaceRotationAdjust: set factor to 0.541
ElecMinimize: Iter:   8  F: -1406.809036818100594  |grad|_K:  2.833e-08  alpha:  1.125e-01  linmin: -6.808e-06  t[s]:   4726.08
	Linear fluid (dielectric constant: 78.4, screening length: 5.74355 Bohr) occupying 0.743943 of unit cell:	Completed after 0 iterations at t[s]:   4756.11
ElecMinimize: 	Predicted alpha/alphaT>3.000000, increasing alphaT to 3.376333e-01.
	Linear fluid (dielectric constant: 78.4, screening length: 5.74355 Bohr) occupying 0.743940 of unit cell:	Completed after 0 iterations at t[s]:   4787.07
	Linear fluid (dielectric constant: 78.4, screening length: 5.74355 Bohr) occupying 0.743938 of unit cell:	Completed after 2 iterations at t[s]:   4818.65
	FillingsUpdate:  mu: -0.150048932  nElectrons: 416.000000  magneticMoment: [ Abs: 0.00007  Tot: +0.00000 ]
	SubspaceRotationAdjust: set factor to 0.41
ElecMinimize: Iter:   9  F: -1406.809036869232386  |grad|_K:  2.758e-08  alpha:  5.974e-01  linmin:  5.031e-05  t[s]:   4861.12
	Linear fluid (dielectric constant: 78.4, screening length: 5.74355 Bohr) occupying 0.743932 of unit cell:	Completed after 0 iterations at t[s]:   4891.43
	Linear fluid (dielectric constant: 78.4, screening length: 5.74355 Bohr) occupying 0.743936 of unit cell:	Completed after 0 iterations at t[s]:   4922.42
	FillingsUpdate:  mu: -0.150048215  nElectrons: 416.000000  magneticMoment: [ Abs: 0.00006  Tot: +0.00000 ]
	SubspaceRotationAdjust: set factor to 0.599
ElecMinimize: Iter:  10  F: -1406.809036881086058  |grad|_K:  2.400e-08  alpha:  1.798e-01  linmin: -1.276e-07  t[s]:   4964.28
	Linear fluid (dielectric constant: 78.4, screening length: 5.74355 Bohr) occupying 0.743935 of unit cell:	Completed after 0 iterations at t[s]:   4994.36
	Linear fluid (dielectric constant: 78.4, screening length: 5.74355 Bohr) occupying 0.743933 of unit cell:	Completed after 0 iterations at t[s]:   5025.50
	FillingsUpdate:  mu: -0.150047715  nElectrons: 416.000000  magneticMoment: [ Abs: 0.00003  Tot: +0.00000 ]
	SubspaceRotationAdjust: set factor to 0.672
ElecMinimize: Iter:  11  F: -1406.809036962879190  |grad|_K:  2.367e-08  alpha:  4.063e-01  linmin:  8.206e-06  t[s]:   5067.18
	Linear fluid (dielectric constant: 78.4, screening length: 5.74355 Bohr) occupying 0.743930 of unit cell:	Completed after 2 iterations at t[s]:   5097.69
	Linear fluid (dielectric constant: 78.4, screening length: 5.74355 Bohr) occupying 0.743932 of unit cell:	Completed after 2 iterations at t[s]:   5129.70
ElecMinimize: 	Step increased F by 3.965147e-08, reducing alpha to 7.271881e-03.
	Linear fluid (dielectric constant: 78.4, screening length: 5.74355 Bohr) occupying 0.743933 of unit cell:	Completed after 0 iterations at t[s]:   5196.06
ElecMinimize: 	Step increased F by 2.576803e-08, reducing alpha to 7.271881e-04.
	Linear fluid (dielectric constant: 78.4, screening length: 5.74355 Bohr) occupying 0.743933 of unit cell:	Completed after 0 iterations at t[s]:   5261.62
ElecMinimize: 	Step increased F by 2.455181e-08, reducing alpha to 7.271881e-05.
ElecMinimize: 	Step failed to reduce F after 3 attempts. Quitting step.
ElecMinimize: 	Undoing step.
	Linear fluid (dielectric constant: 78.4, screening length: 5.74355 Bohr) occupying 0.743933 of unit cell:	Completed after 0 iterations at t[s]:   5327.19
ElecMinimize: 	Step failed: resetting search direction.
	FillingsUpdate:  mu: -0.150083570  nElectrons: 416.000000  magneticMoment: [ Abs: 0.00003  Tot: +0.00000 ]
	SubspaceRotationAdjust: set factor to 0.623
ElecMinimize: Iter:  12  F: -1406.809036938339204  |grad|_K:  1.941e-08  alpha:  7.272e-05
	Linear fluid (dielectric constant: 78.4, screening length: 5.74355 Bohr) occupying 0.743934 of unit cell:	Completed after 0 iterations at t[s]:   5398.55
	Linear fluid (dielectric constant: 78.4, screening length: 5.74355 Bohr) occupying 0.743934 of unit cell:	Completed after 0 iterations at t[s]:   5429.53
	FillingsUpdate:  mu: -0.150083826  nElectrons: 416.000000  magneticMoment: [ Abs: 0.00013  Tot: +0.00000 ]
	SubspaceRotationAdjust: set factor to 0.835
ElecMinimize: Iter:  13  F: -1406.809037001359457  |grad|_K:  1.355e-08  alpha:  4.528e-01  linmin:  7.058e-06  t[s]:   5471.16
	Linear fluid (dielectric constant: 78.4, screening length: 5.74355 Bohr) occupying 0.743936 of unit cell:	Completed after 0 iterations at t[s]:   5501.43
	Linear fluid (dielectric constant: 78.4, screening length: 5.74355 Bohr) occupying 0.743938 of unit cell:	Completed after 2 iterations at t[s]:   5532.73
ElecMinimize: 	Step increased F by 1.268513e-07, reducing alpha to 9.830848e-02.
	Linear fluid (dielectric constant: 78.4, screening length: 5.74355 Bohr) occupying 0.743934 of unit cell:	Completed after 0 iterations at t[s]:   5599.17
ElecMinimize: 	Step increased F by 3.128889e-09, reducing alpha to 9.830848e-03.
	Linear fluid (dielectric constant: 78.4, screening length: 5.74355 Bohr) occupying 0.743934 of unit cell:	Completed after 0 iterations at t[s]:   5665.07
	FillingsUpdate:  mu: -0.150029743  nElectrons: 416.000000  magneticMoment: [ Abs: 0.00013  Tot: +0.00000 ]
	SubspaceRotationAdjust: set factor to 0.546
ElecMinimize: Iter:  14  F: -1406.809037004198672  |grad|_K:  3.459e-08  alpha:  9.831e-03  linmin:  2.202e-05  t[s]:   5706.92
	Linear fluid (dielectric constant: 78.4, screening length: 5.74355 Bohr) occupying 0.743934 of unit cell:	Completed after 0 iterations at t[s]:   5736.91
ElecMinimize: 	Predicted alpha/alphaT>3.000000, increasing alphaT to 2.949254e-02.
	Linear fluid (dielectric constant: 78.4, screening length: 5.74355 Bohr) occupying 0.743935 of unit cell:	Completed after 0 iterations at t[s]:   5767.43
	Linear fluid (dielectric constant: 78.4, screening length: 5.74355 Bohr) occupying 0.743936 of unit cell:	Completed after 0 iterations at t[s]:   5798.30
	FillingsUpdate:  mu: -0.150029832  nElectrons: 416.000000  magneticMoment: [ Abs: 0.00024  Tot: +0.00000 ]
	SubspaceRotationAdjust: set factor to 0.36
ElecMinimize: Iter:  15  F: -1406.809037019888819  |grad|_K:  2.797e-08  alpha:  6.381e-02  linmin:  1.597e-06  t[s]:   5839.79
	Linear fluid (dielectric constant: 78.4, screening length: 5.74355 Bohr) occupying 0.743936 of unit cell:	Completed after 0 iterations at t[s]:   5869.81
	Linear fluid (dielectric constant: 78.4, screening length: 5.74355 Bohr) occupying 0.743938 of unit cell:	Completed after 0 iterations at t[s]:   5901.09
	FillingsUpdate:  mu: -0.150029545  nElectrons: 416.000000  magneticMoment: [ Abs: 0.00041  Tot: +0.00000 ]
	SubspaceRotationAdjust: set factor to 0.409
ElecMinimize: Iter:  16  F: -1406.809037063320602  |grad|_K:  2.845e-08  alpha:  1.706e-01  linmin:  4.949e-06  t[s]:   5942.93
	Linear fluid (dielectric constant: 78.4, screening length: 5.74355 Bohr) occupying 0.743940 of unit cell:	Completed after 2 iterations at t[s]:   5973.44
	Linear fluid (dielectric constant: 78.4, screening length: 5.74355 Bohr) occupying 0.743938 of unit cell:	Completed after 0 iterations at t[s]:   6004.93
ElecMinimize: 	Step increased F by 6.127425e-08, reducing alpha to 2.148022e-03.
	Linear fluid (dielectric constant: 78.4, screening length: 5.74355 Bohr) occupying 0.743938 of unit cell:	Completed after 0 iterations at t[s]:   6070.72
ElecMinimize: 	Step increased F by 3.989749e-08, reducing alpha to 2.148022e-04.
	Linear fluid (dielectric constant: 78.4, screening length: 5.74355 Bohr) occupying 0.743938 of unit cell:	Completed after 0 iterations at t[s]:   6135.87
ElecMinimize: 	Step increased F by 3.779110e-08, reducing alpha to 2.148022e-05.
ElecMinimize: 	Step failed to reduce F after 3 attempts. Quitting step.
ElecMinimize: 	Undoing step.
	Linear fluid (dielectric constant: 78.4, screening length: 5.74355 Bohr) occupying 0.743938 of unit cell:	Completed after 0 iterations at t[s]:   6201.55
ElecMinimize: 	Step failed: resetting search direction.
	FillingsUpdate:  mu: -0.150113734  nElectrons: 416.000000  magneticMoment: [ Abs: 0.00041  Tot: +0.00000 ]
	SubspaceRotationAdjust: set factor to 0.288
ElecMinimize: Iter:  17  F: -1406.809037025532007  |grad|_K:  2.965e-08  alpha:  2.148e-05
	Linear fluid (dielectric constant: 78.4, screening length: 5.74355 Bohr) occupying 0.743938 of unit cell:	Completed after 2 iterations at t[s]:   6273.63
	Linear fluid (dielectric constant: 78.4, screening length: 5.74355 Bohr) occupying 0.743938 of unit cell:	Completed after 0 iterations at t[s]:   6305.19
ElecMinimize: 	Step increased F by 3.801847e-08, reducing alpha to 6.554397e-03.
	Linear fluid (dielectric constant: 78.4, screening length: 5.74355 Bohr) occupying 0.743938 of unit cell:	Completed after 0 iterations at t[s]:   6370.64
ElecMinimize: 	Step increased F by 4.555977e-08, reducing alpha to 6.554397e-04.
	Linear fluid (dielectric constant: 78.4, screening length: 5.74355 Bohr) occupying 0.743938 of unit cell:	Completed after 0 iterations at t[s]:   6435.95
ElecMinimize: 	Step increased F by 4.651133e-08, reducing alpha to 6.554397e-05.
ElecMinimize: 	Step failed to reduce F after 3 attempts. Quitting step.
ElecMinimize: 	Undoing step.
	Linear fluid (dielectric constant: 78.4, screening length: 5.74355 Bohr) occupying 0.743938 of unit cell:	Completed after 0 iterations at t[s]:   6502.06
ElecMinimize: 	Step failed along negative gradient direction.
ElecMinimize: Probably at roundoff error limit. (Stopping)
Setting wave functions to eigenvectors of Hamiltonian
Single-point solvation energy estimate, DeltaF = +0.004641402903417

# Ionic positions in lattice coordinates:
ion W   0.083329983229166   0.166669999229167   0.500000000000000 1
ion W   0.333329983229166   0.166669999229167   0.500000000000000 1
ion W   0.583329983229166   0.166669999229167   0.500000000000000 1
ion W   0.833329983229166   0.166669999229167   0.500000000000000 1
ion W   0.083329983229166   0.416669999229167   0.500000000000000 1
ion W   0.333329983229166   0.416669999229167   0.500000000000000 1
ion W   0.583329983229166   0.416669999229167   0.500000000000000 1
ion W   0.833329983229166   0.416669999229167   0.500000000000000 1
ion W   0.083329983229166   0.666669999229167   0.500000000000000 1
ion W   0.333329983229166   0.666669999229167   0.500000000000000 1
ion W   0.583329983229166   0.666669999229167   0.500000000000000 1
ion W   0.833329983229166   0.666669999229167   0.500000000000000 1
ion W   0.083329983229166   0.916669999229167   0.500000000000000 1
ion W   0.333329983229166   0.916669999229167   0.500000000000000 1
ion W   0.583329983229166   0.916669999229167   0.500000000000000 1
ion W   0.833329983229166   0.916669999229167   0.500000000000000 1
ion Se   0.166670001697918   0.083329980760415   0.406989985999999 1
ion Se   0.166670001697918   0.083329980760415   0.593010014000001 1
ion Se   0.416670001697918   0.083329980760415   0.406989985999999 1
ion Se   0.416670001697918   0.083329980760415   0.593010014000001 1
ion Se   0.666670001697918   0.083329980760415   0.406989985999999 1
ion Se   0.666670001697918   0.083329980760415   0.593010014000001 1
ion Se   0.916670001697918   0.083329980760415   0.406989985999999 1
ion Se   0.916670001697918   0.083329980760415   0.593010014000001 1
ion Se   0.166670001697918   0.333329980760415   0.406989985999999 1
ion Se   0.166670001697918   0.333329980760415   0.593010014000001 1
ion Se   0.416670001697918   0.333329980760415   0.406989985999999 1
ion Se   0.416670001697918   0.333329980760415   0.593010014000001 1
ion Se   0.666670001697918   0.333329980760415   0.406989985999999 1
ion Se   0.666670001697918   0.333329980760415   0.593010014000001 1
ion Se   0.916670001697918   0.333329980760415   0.406989985999999 1
ion Se   0.916670001697918   0.333329980760415   0.593010014000001 1
ion Se   0.166670001697918   0.583329980760415   0.406989985999999 1
ion Se   0.166670001697918   0.583329980760415   0.593010014000001 1
ion Se   0.416670001697918   0.583329980760415   0.406989985999999 1
ion Se   0.416670001697918   0.583329980760415   0.593010014000001 1
ion Se   0.666670001697918   0.583329980760415   0.406989985999999 1
ion Se   0.666670001697918   0.583329980760415   0.593010014000001 1
ion Se   0.916670001697918   0.583329980760415   0.406989985999999 1
ion Se   0.916670001697918   0.583329980760415   0.593010014000001 1
ion Se   0.166670001697918   0.833329980760415   0.406989985999999 1
ion Se   0.166670001697918   0.833329980760415   0.593010014000001 1
ion Se   0.416670001697918   0.833329980760415   0.406989985999999 1
ion Se   0.416670001697918   0.833329980760415   0.593010014000001 1
ion Se   0.666670001697918   0.833329980760415   0.406989985999999 1
ion Se   0.666670001697918   0.833329980760415   0.593010014000001 1
ion Se   0.916670001697918   0.833329980760415   0.406989985999999 1
ion Se   0.916670001697918   0.833329980760415   0.593010014000001 1


# Forces in Lattice coordinates:
force W   0.001136537391615  -0.001136537391615   0.000000000000000 1
force W   0.001136537391615  -0.001136537391615   0.000000000000000 1
force W   0.001136537391615  -0.001136537391615  -0.000000000000000 1
force W   0.001136537391615  -0.001136537391615   0.000000000000000 1
force W   0.001136537391615  -0.001136537391615  -0.000000000000000 1
force W   0.001136537391615  -0.001136537391615  -0.000000000000000 1
force W   0.001136537391615  -0.001136537391615  -0.000000000000000 1
force W   0.001136537391615  -0.001136537391615  -0.000000000000000 1
force W   0.001136537391615  -0.001136537391615  -0.000000000000000 1
force W   0.001136537391615  -0.001136537391615  -0.000000000000000 1
force W   0.001136537391615  -0.001136537391615  -0.000000000000000 1
force W   0.001136537391615  -0.001136537391615  -0.000000000000000 1
force W   0.001136537391615  -0.001136537391615   0.000000000000000 1
force W   0.001136537391615  -0.001136537391615   0.000000000000000 1
force W   0.001136537391615  -0.001136537391615  -0.000000000000000 1
force W   0.001136537391615  -0.001136537391615   0.000000000000000 1
force Se  -0.000611501801432   0.000611501801432  -0.023952342216973 1
force Se  -0.000611501801432   0.000611501801432   0.023952342216404 1
force Se  -0.000611501801432   0.000611501801432  -0.023952342217200 1
force Se  -0.000611501801432   0.000611501801432   0.023952342216745 1
force Se  -0.000611501801432   0.000611501801432  -0.023952342217200 1
force Se  -0.000611501801432   0.000611501801432   0.023952342216631 1
force Se  -0.000611501801432   0.000611501801432  -0.023952342217200 1
force Se  -0.000611501801432   0.000611501801432   0.023952342216519 1
force Se  -0.000611501801432   0.000611501801432  -0.023952342216859 1
force Se  -0.000611501801432   0.000611501801432   0.023952342216405 1
force Se  -0.000611501801432   0.000611501801432  -0.023952342216860 1
force Se  -0.000611501801432   0.000611501801432   0.023952342216745 1
force Se  -0.000611501801432   0.000611501801432  -0.023952342217086 1
force Se  -0.000611501801432   0.000611501801432   0.023952342216518 1
force Se  -0.000611501801432   0.000611501801432  -0.023952342216859 1
force Se  -0.000611501801432   0.000611501801432   0.023952342216519 1
force Se  -0.000611501801432   0.000611501801432  -0.023952342217088 1
force Se  -0.000611501801432   0.000611501801432   0.023952342216633 1
force Se  -0.000611501801432   0.000611501801432  -0.023952342217315 1
force Se  -0.000611501801432   0.000611501801432   0.023952342216745 1
force Se  -0.000611501801432   0.000611501801432  -0.023952342217315 1
force Se  -0.000611501801432   0.000611501801432   0.023952342216631 1
force Se  -0.000611501801432   0.000611501801432  -0.023952342217315 1
force Se  -0.000611501801432   0.000611501801432   0.023952342216633 1
force Se  -0.000611501801432   0.000611501801432  -0.023952342216973 1
force Se  -0.000611501801432   0.000611501801432   0.023952342216745 1
force Se  -0.000611501801432   0.000611501801432  -0.023952342216973 1
force Se  -0.000611501801432   0.000611501801432   0.023952342216631 1
force Se  -0.000611501801432   0.000611501801432  -0.023952342217086 1
force Se  -0.000611501801432   0.000611501801432   0.023952342216746 1
force Se  -0.000611501801432   0.000611501801432  -0.023952342217087 1
force Se  -0.000611501801432   0.000611501801432   0.023952342216631 1

# Energy components:
   A_diel =        0.0044196575545551
   Eewald =     7937.1064538698974502
       EH =     9076.1366002322301938
     Eloc =   -18500.2557512934654369
      Enl =     -154.7999077413897453
      Exc =     -805.7035622403953994
 Exc_core =      564.8999721433638115
       KE =      475.8029011221892688
-------------------------------------
     Etot =    -1406.8088742500153785
       TS =        0.0001627289954007
-------------------------------------
        F =    -1406.8090369790106706

IonicMinimize: Iter:   0  F: -1406.809036979010671  |grad|_K:  3.300e-04  t[s]:   6564.40

#--- Lowdin population analysis ---
# oxidation-state W -0.708 -0.708 -0.708 -0.708 -0.708 -0.708 -0.708 -0.708 -0.708 -0.708 -0.708 -0.708 -0.708 -0.708 -0.708 -0.708
# magnetic-moments W +0.000 +0.000 +0.000 +0.000 +0.000 +0.000 +0.000 +0.000 +0.000 +0.000 +0.000 +0.000 +0.000 +0.000 +0.000 +0.000
# oxidation-state Se +0.405 +0.405 +0.405 +0.405 +0.405 +0.405 +0.405 +0.405 +0.405 +0.405 +0.405 +0.405 +0.405 +0.405 +0.405 +0.405 +0.405 +0.405 +0.405 +0.405 +0.405 +0.405 +0.405 +0.405 +0.405 +0.405 +0.405 +0.405 +0.405 +0.405 +0.405 +0.405
# magnetic-moments Se -0.000 -0.000 -0.000 -0.000 -0.000 -0.000 -0.000 -0.000 -0.000 -0.000 -0.000 -0.000 -0.000 -0.000 -0.000 -0.000 -0.000 -0.000 -0.000 -0.000 -0.000 -0.000 -0.000 -0.000 -0.000 -0.000 -0.000 -0.000 -0.000 -0.000 -0.000 -0.000

	Linear fluid (dielectric constant: 78.4, screening length: 5.74355 Bohr) occupying 0.743912 of unit cell:	Completed after 2 iterations at t[s]:   6596.32

-------- Electronic minimization -----------
	Linear fluid (dielectric constant: 78.4, screening length: 5.74355 Bohr) occupying 0.743912 of unit cell:	Completed after 0 iterations at t[s]:   6620.14
	FillingsUpdate:  mu: -0.150042071  nElectrons: 416.000000  magneticMoment: [ Abs: 0.00015  Tot: +0.00000 ]
ElecMinimize: Iter:   0  F: -1406.809048711905689  |grad|_K:  5.964e-08  alpha:  1.000e+00
	Linear fluid (dielectric constant: 78.4, screening length: 5.74355 Bohr) occupying 0.743912 of unit cell:	Completed after 2 iterations at t[s]:   6696.75
	Linear fluid (dielectric constant: 78.4, screening length: 5.74355 Bohr) occupying 0.743912 of unit cell:	Completed after 0 iterations at t[s]:   6727.99
	FillingsUpdate:  mu: -0.150073273  nElectrons: 416.000000  magneticMoment: [ Abs: 0.00012  Tot: +0.00000 ]
	SubspaceRotationAdjust: set factor to 0.401
ElecMinimize: Iter:   1  F: -1406.809049812431567  |grad|_K:  5.283e-08  alpha:  8.323e-01  linmin:  1.070e-04  t[s]:   6769.81
	Linear fluid (dielectric constant: 78.4, screening length: 5.74355 Bohr) occupying 0.743913 of unit cell:	Completed after 0 iterations at t[s]:   6799.85
	Linear fluid (dielectric constant: 78.4, screening length: 5.74355 Bohr) occupying 0.743913 of unit cell:	Completed after 0 iterations at t[s]:   6830.58
	FillingsUpdate:  mu: -0.150074003  nElectrons: 416.000000  magneticMoment: [ Abs: 0.00010  Tot: +0.00000 ]
	SubspaceRotationAdjust: set factor to 0.526
ElecMinimize: Iter:   2  F: -1406.809050427031252  |grad|_K:  4.186e-08  alpha:  6.032e-01  linmin: -7.898e-06  t[s]:   6872.23
	Linear fluid (dielectric constant: 78.4, screening length: 5.74355 Bohr) occupying 0.743914 of unit cell:	Completed after 0 iterations at t[s]:   6902.46
	Linear fluid (dielectric constant: 78.4, screening length: 5.74355 Bohr) occupying 0.743914 of unit cell:	Completed after 0 iterations at t[s]:   6933.48
	FillingsUpdate:  mu: -0.150074848  nElectrons: 416.000000  magneticMoment: [ Abs: 0.00007  Tot: -0.00000 ]
	SubspaceRotationAdjust: set factor to 0.68
ElecMinimize: Iter:   3  F: -1406.809050923357972  |grad|_K:  2.253e-08  alpha:  7.612e-01  linmin: -5.825e-06  t[s]:   6975.25
	Linear fluid (dielectric constant: 78.4, screening length: 5.74355 Bohr) occupying 0.743915 of unit cell:	Completed after 0 iterations at t[s]:   7005.41
	Linear fluid (dielectric constant: 78.4, screening length: 5.74355 Bohr) occupying 0.743915 of unit cell:	Completed after 0 iterations at t[s]:   7036.36
	FillingsUpdate:  mu: -0.150075243  nElectrons: 416.000000  magneticMoment: [ Abs: 0.00006  Tot: -0.00000 ]
	SubspaceRotationAdjust: set factor to 0.765
ElecMinimize: Iter:   4  F: -1406.809051025611552  |grad|_K:  1.468e-08  alpha:  5.406e-01  linmin:  5.756e-07  t[s]:   7078.33
	Linear fluid (dielectric constant: 78.4, screening length: 5.74355 Bohr) occupying 0.743916 of unit cell:	Completed after 1 iterations at t[s]:   7108.81
	Linear fluid (dielectric constant: 78.4, screening length: 5.74355 Bohr) occupying 0.743915 of unit cell:	Completed after 0 iterations at t[s]:   7140.22
ElecMinimize: 	Step increased F by 6.383061e-09, reducing alpha to 2.521263e-02.
	Linear fluid (dielectric constant: 78.4, screening length: 5.74355 Bohr) occupying 0.743915 of unit cell:	Completed after 0 iterations at t[s]:   7205.96
ElecMinimize: 	Step increased F by 2.497950e-08, reducing alpha to 2.521263e-03.
	Linear fluid (dielectric constant: 78.4, screening length: 5.74355 Bohr) occupying 0.743915 of unit cell:	Completed after 0 iterations at t[s]:   7271.91
ElecMinimize: 	Step increased F by 2.769480e-08, reducing alpha to 2.521263e-04.
ElecMinimize: 	Step failed to reduce F after 3 attempts. Quitting step.
ElecMinimize: 	Undoing step.
	Linear fluid (dielectric constant: 78.4, screening length: 5.74355 Bohr) occupying 0.743915 of unit cell:	Completed after 0 iterations at t[s]:   7337.61
ElecMinimize: 	Step failed: resetting search direction.
	FillingsUpdate:  mu: -0.150057478  nElectrons: 416.000000  magneticMoment: [ Abs: 0.00006  Tot: -0.00000 ]
	SubspaceRotationAdjust: set factor to 0.748
ElecMinimize: Iter:   5  F: -1406.809050997859686  |grad|_K:  1.502e-08  alpha:  2.521e-04
	Linear fluid (dielectric constant: 78.4, screening length: 5.74355 Bohr) occupying 0.743915 of unit cell:	Completed after 0 iterations at t[s]:   7409.20
	Linear fluid (dielectric constant: 78.4, screening length: 5.74355 Bohr) occupying 0.743915 of unit cell:	Completed after 0 iterations at t[s]:   7439.95
	FillingsUpdate:  mu: -0.150057282  nElectrons: 416.000000  magneticMoment: [ Abs: 0.00004  Tot: +0.00000 ]
	SubspaceRotationAdjust: set factor to 0.783
ElecMinimize: Iter:   6  F: -1406.809051029207694  |grad|_K:  8.896e-09  alpha:  3.799e-01  linmin: -7.634e-06  t[s]:   7481.52
	Linear fluid (dielectric constant: 78.4, screening length: 5.74355 Bohr) occupying 0.743915 of unit cell:	Completed after 0 iterations at t[s]:   7511.55
	Linear fluid (dielectric constant: 78.4, screening length: 5.74355 Bohr) occupying 0.743915 of unit cell:	Completed after 0 iterations at t[s]:   7542.52
	FillingsUpdate:  mu: -0.150056958  nElectrons: 416.000000  magneticMoment: [ Abs: 0.00002  Tot: +0.00000 ]
	SubspaceRotationAdjust: set factor to 0.857
ElecMinimize: Iter:   7  F: -1406.809051047016510  |grad|_K:  4.149e-09  alpha:  5.525e-01  linmin: -2.698e-05  t[s]:   7583.89
	Linear fluid (dielectric constant: 78.4, screening length: 5.74355 Bohr) occupying 0.743915 of unit cell:	Completed after 0 iterations at t[s]:   7613.88
	Linear fluid (dielectric constant: 78.4, screening length: 5.74355 Bohr) occupying 0.743915 of unit cell:	Completed after 0 iterations at t[s]:   7644.77
	FillingsUpdate:  mu: -0.150056827  nElectrons: 416.000000  magneticMoment: [ Abs: 0.00004  Tot: +0.00000 ]
	SubspaceRotationAdjust: set factor to 0.947
ElecMinimize: Iter:   8  F: -1406.809051050142216  |grad|_K:  2.519e-09  alpha:  4.453e-01  linmin: -1.786e-05  t[s]:   7686.43
	Linear fluid (dielectric constant: 78.4, screening length: 5.74355 Bohr) occupying 0.743916 of unit cell:	Completed after 0 iterations at t[s]:   7716.53
	Linear fluid (dielectric constant: 78.4, screening length: 5.74355 Bohr) occupying 0.743915 of unit cell:	Completed after 0 iterations at t[s]:   7747.16
	FillingsUpdate:  mu: -0.150056751  nElectrons: 416.000000  magneticMoment: [ Abs: 0.00005  Tot: +0.00000 ]
	SubspaceRotationAdjust: set factor to 1.09
ElecMinimize: Iter:   9  F: -1406.809051051158576  |grad|_K:  1.370e-09  alpha:  3.679e-01  linmin: -2.416e-05  t[s]:   7789.00
ElecMinimize: Converged (|Delta F|<1.000000e-08 for 2 iters).
Setting wave functions to eigenvectors of Hamiltonian

# Ionic positions in lattice coordinates:
ion W   0.083331236038980   0.166668746419352   0.500000000000000 1
ion W   0.333331236038980   0.166668746419352   0.500000000000000 1
ion W   0.583331236038980   0.166668746419352   0.500000000000000 1
ion W   0.833331236038980   0.166668746419352   0.500000000000000 1
ion W   0.083331236038980   0.416668746419352   0.500000000000000 1
ion W   0.333331236038980   0.416668746419352   0.500000000000000 1
ion W   0.583331236038980   0.416668746419352   0.500000000000000 1
ion W   0.833331236038980   0.416668746419352   0.500000000000000 1
ion W   0.083331236038980   0.666668746419352   0.500000000000000 1
ion W   0.333331236038980   0.666668746419352   0.500000000000000 1
ion W   0.583331236038980   0.666668746419352   0.500000000000000 1
ion W   0.833331236038980   0.666668746419352   0.500000000000000 1
ion W   0.083331236038980   0.916668746419352   0.500000000000000 1
ion W   0.333331236038980   0.916668746419352   0.500000000000000 1
ion W   0.583331236038980   0.916668746419352   0.500000000000000 1
ion W   0.833331236038980   0.916668746419352   0.500000000000000 1
ion Se   0.166669375293010   0.083330607165322   0.406969616343216 1
ion Se   0.166669375293010   0.083330607165322   0.593030383656784 1
ion Se   0.416669375293010   0.083330607165322   0.406969616343216 1
ion Se   0.416669375293010   0.083330607165322   0.593030383656784 1
ion Se   0.666669375293010   0.083330607165322   0.406969616343216 1
ion Se   0.666669375293010   0.083330607165322   0.593030383656784 1
ion Se   0.916669375293010   0.083330607165322   0.406969616343216 1
ion Se   0.916669375293010   0.083330607165322   0.593030383656784 1
ion Se   0.166669375293010   0.333330607165322   0.406969616343216 1
ion Se   0.166669375293010   0.333330607165322   0.593030383656784 1
ion Se   0.416669375293010   0.333330607165322   0.406969616343216 1
ion Se   0.416669375293010   0.333330607165322   0.593030383656784 1
ion Se   0.666669375293010   0.333330607165322   0.406969616343216 1
ion Se   0.666669375293010   0.333330607165322   0.593030383656784 1
ion Se   0.916669375293010   0.333330607165322   0.406969616343216 1
ion Se   0.916669375293010   0.333330607165322   0.593030383656784 1
ion Se   0.166669375293010   0.583330607165322   0.406969616343216 1
ion Se   0.166669375293010   0.583330607165322   0.593030383656784 1
ion Se   0.416669375293010   0.583330607165322   0.406969616343216 1
ion Se   0.416669375293010   0.583330607165322   0.593030383656784 1
ion Se   0.666669375293010   0.583330607165322   0.406969616343216 1
ion Se   0.666669375293010   0.583330607165322   0.593030383656784 1
ion Se   0.916669375293010   0.583330607165322   0.406969616343216 1
ion Se   0.916669375293010   0.583330607165322   0.593030383656784 1
ion Se   0.166669375293010   0.833330607165322   0.406969616343216 1
ion Se   0.166669375293010   0.833330607165322   0.593030383656784 1
ion Se   0.416669375293010   0.833330607165322   0.406969616343216 1
ion Se   0.416669375293010   0.833330607165322   0.593030383656784 1
ion Se   0.666669375293010   0.833330607165322   0.406969616343216 1
ion Se   0.666669375293010   0.833330607165322   0.593030383656784 1
ion Se   0.916669375293010   0.833330607165322   0.406969616343216 1
ion Se   0.916669375293010   0.833330607165322   0.593030383656784 1


# Forces in Lattice coordinates:
force W   0.000844424030097  -0.000844424030097  -0.000000000000000 1
force W   0.000844424030097  -0.000844424030097  -0.000000000000000 1
force W   0.000844424030097  -0.000844424030097   0.000000000000000 1
force W   0.000844424030097  -0.000844424030097  -0.000000000000000 1
force W   0.000844424030097  -0.000844424030097  -0.000000000000000 1
force W   0.000844424030097  -0.000844424030097   0.000000000000000 1
force W   0.000844424030097  -0.000844424030097   0.000000000000000 1
force W   0.000844424030097  -0.000844424030097   0.000000000000000 1
force W   0.000844424030097  -0.000844424030097   0.000000000000000 1
force W   0.000844424030097  -0.000844424030097   0.000000000000000 1
force W   0.000844424030097  -0.000844424030097  -0.000000000000000 1
force W   0.000844424030097  -0.000844424030097   0.000000000000000 1
force W   0.000844424030097  -0.000844424030097  -0.000000000000000 1
force W   0.000844424030097  -0.000844424030097  -0.000000000000000 1
force W   0.000844424030097  -0.000844424030097   0.000000000000000 1
force W   0.000844424030097  -0.000844424030097   0.000000000000000 1
force Se  -0.000452205496041   0.000452205496041  -0.018723171407081 1
force Se  -0.000452205496041   0.000452205496041   0.018723171406402 1
force Se  -0.000452205496041   0.000452205496041  -0.018723171407081 1
force Se  -0.000452205496041   0.000452205496041   0.018723171406402 1
force Se  -0.000452205496041   0.000452205496041  -0.018723171407082 1
force Se  -0.000452205496041   0.000452205496041   0.018723171406401 1
force Se  -0.000452205496041   0.000452205496041  -0.018723171406968 1
force Se  -0.000452205496041   0.000452205496041   0.018723171406286 1
force Se  -0.000452205496041   0.000452205496041  -0.018723171407309 1
force Se  -0.000452205496041   0.000452205496041   0.018723171406626 1
force Se  -0.000452205496041   0.000452205496041  -0.018723171407080 1
force Se  -0.000452205496041   0.000452205496041   0.018723171406627 1
force Se  -0.000452205496041   0.000452205496041  -0.018723171407196 1
force Se  -0.000452205496041   0.000452205496041   0.018723171406627 1
force Se  -0.000452205496041   0.000452205496041  -0.018723171407081 1
force Se  -0.000452205496041   0.000452205496041   0.018723171406628 1
force Se  -0.000452205496041   0.000452205496041  -0.018723171407196 1
force Se  -0.000452205496041   0.000452205496041   0.018723171406854 1
force Se  -0.000452205496041   0.000452205496041  -0.018723171407308 1
force Se  -0.000452205496041   0.000452205496041   0.018723171406855 1
force Se  -0.000452205496041   0.000452205496041  -0.018723171407310 1
force Se  -0.000452205496041   0.000452205496041   0.018723171406741 1
force Se  -0.000452205496041   0.000452205496041  -0.018723171407195 1
force Se  -0.000452205496041   0.000452205496041   0.018723171406626 1
force Se  -0.000452205496041   0.000452205496041  -0.018723171406969 1
force Se  -0.000452205496041   0.000452205496041   0.018723171406742 1
force Se  -0.000452205496041   0.000452205496041  -0.018723171407081 1
force Se  -0.000452205496041   0.000452205496041   0.018723171406741 1
force Se  -0.000452205496041   0.000452205496041  -0.018723171406856 1
force Se  -0.000452205496041   0.000452205496041   0.018723171406743 1
force Se  -0.000452205496041   0.000452205496041  -0.018723171407084 1
force Se  -0.000452205496041   0.000452205496041   0.018723171406628 1

# Energy components:
   A_diel =        0.0044249049569980
   Eewald =     7936.6874952537482386
       EH =     9075.7163835875689983
     Eloc =   -18499.4086396256534499
      Enl =     -154.8001972169910232
      Exc =     -805.6983214473077624
 Exc_core =      564.8999667900125132
       KE =      475.7900004297399050
-------------------------------------
     Etot =    -1406.8088873239266832
       TS =        0.0001637272319998
-------------------------------------
        F =    -1406.8090510511585762

IonicMinimize: Iter:   1  F: -1406.809051051158576  |grad|_K:  2.579e-04  alpha:  1.000e+00  linmin: -1.000e+00  t[s]:   7809.81

#--- Lowdin population analysis ---
# oxidation-state W -0.708 -0.708 -0.708 -0.708 -0.708 -0.708 -0.708 -0.708 -0.708 -0.708 -0.708 -0.708 -0.708 -0.708 -0.708 -0.708
# magnetic-moments W -0.000 -0.000 -0.000 -0.000 -0.000 -0.000 -0.000 -0.000 -0.000 -0.000 -0.000 -0.000 -0.000 -0.000 -0.000 -0.000
# oxidation-state Se +0.405 +0.405 +0.405 +0.405 +0.405 +0.405 +0.405 +0.405 +0.405 +0.405 +0.405 +0.405 +0.405 +0.405 +0.405 +0.405 +0.405 +0.405 +0.405 +0.405 +0.405 +0.405 +0.405 +0.405 +0.405 +0.405 +0.405 +0.405 +0.405 +0.405 +0.405 +0.405
# magnetic-moments Se +0.000 +0.000 +0.000 +0.000 +0.000 +0.000 +0.000 +0.000 +0.000 +0.000 +0.000 +0.000 +0.000 +0.000 +0.000 +0.000 +0.000 +0.000 +0.000 +0.000 +0.000 +0.000 +0.000 +0.000 +0.000 +0.000 +0.000 +0.000 +0.000 +0.000 +0.000 +0.000

	Linear fluid (dielectric constant: 78.4, screening length: 5.74355 Bohr) occupying 0.743829 of unit cell:	Completed after 5 iterations at t[s]:   7842.18

-------- Electronic minimization -----------
	Linear fluid (dielectric constant: 78.4, screening length: 5.74355 Bohr) occupying 0.743829 of unit cell:	Completed after 0 iterations at t[s]:   7866.64
	FillingsUpdate:  mu: -0.149731354  nElectrons: 416.000000  magneticMoment: [ Abs: 0.00044  Tot: +0.00000 ]
ElecMinimize: Iter:   0  F: -1406.809044720854899  |grad|_K:  4.067e-07  alpha:  1.000e+00
	Linear fluid (dielectric constant: 78.4, screening length: 5.74355 Bohr) occupying 0.743817 of unit cell:	Completed after 8 iterations at t[s]:   7944.05
	Linear fluid (dielectric constant: 78.4, screening length: 5.74355 Bohr) occupying 0.743826 of unit cell:	Completed after 10 iterations at t[s]:   7978.55
	FillingsUpdate:  mu: -0.150495290  nElectrons: 416.000000  magneticMoment: [ Abs: 0.00033  Tot: +0.00000 ]
	SubspaceRotationAdjust: set factor to 0.674
ElecMinimize: Iter:   1  F: -1406.809060884848350  |grad|_K:  3.071e-07  alpha:  2.664e-01  linmin:  4.658e-05  t[s]:   8022.33
	Linear fluid (dielectric constant: 78.4, screening length: 5.74355 Bohr) occupying 0.743840 of unit cell:	Completed after 3 iterations at t[s]:   8052.96
	Linear fluid (dielectric constant: 78.4, screening length: 5.74355 Bohr) occupying 0.743851 of unit cell:	Completed after 3 iterations at t[s]:   8085.48
	FillingsUpdate:  mu: -0.150131195  nElectrons: 416.000000  magneticMoment: [ Abs: 0.00014  Tot: -0.00000 ]
	SubspaceRotationAdjust: set factor to 1.06
ElecMinimize: Iter:   2  F: -1406.809077226515456  |grad|_K:  6.744e-08  alpha:  4.707e-01  linmin:  5.398e-05  t[s]:   8128.11
	Linear fluid (dielectric constant: 78.4, screening length: 5.74355 Bohr) occupying 0.743853 of unit cell:	Completed after 2 iterations at t[s]:   8158.57
	Linear fluid (dielectric constant: 78.4, screening length: 5.74355 Bohr) occupying 0.743854 of unit cell:	Completed after 0 iterations at t[s]:   8189.97
	FillingsUpdate:  mu: -0.150082824  nElectrons: 416.000000  magneticMoment: [ Abs: 0.00009  Tot: -0.00000 ]
	SubspaceRotationAdjust: set factor to 1.07
ElecMinimize: Iter:   3  F: -1406.809078023763732  |grad|_K:  2.862e-08  alpha:  4.741e-01  linmin: -5.658e-04  t[s]:   8231.28
	Linear fluid (dielectric constant: 78.4, screening length: 5.74355 Bohr) occupying 0.743853 of unit cell:	Completed after 0 iterations at t[s]:   8261.34
	Linear fluid (dielectric constant: 78.4, screening length: 5.74355 Bohr) occupying 0.743852 of unit cell:	Completed after 0 iterations at t[s]:   8292.41
	FillingsUpdate:  mu: -0.150082740  nElectrons: 416.000000  magneticMoment: [ Abs: 0.00005  Tot: -0.00000 ]
	SubspaceRotationAdjust: set factor to 1.17
ElecMinimize: Iter:   4  F: -1406.809078250528046  |grad|_K:  2.088e-08  alpha:  7.314e-01  linmin:  2.136e-05  t[s]:   8334.39
	Linear fluid (dielectric constant: 78.4, screening length: 5.74355 Bohr) occupying 0.743851 of unit cell:	Completed after 2 iterations at t[s]:   8365.12
	Linear fluid (dielectric constant: 78.4, screening length: 5.74355 Bohr) occupying 0.743852 of unit cell:	Completed after 0 iterations at t[s]:   8396.57
ElecMinimize: 	Step increased F by 1.831449e-08, reducing alpha to 2.512734e-02.
	Linear fluid (dielectric constant: 78.4, screening length: 5.74355 Bohr) occupying 0.743852 of unit cell:	Completed after 0 iterations at t[s]:   8462.52
ElecMinimize: 	Step increased F by 1.739636e-08, reducing alpha to 2.512734e-03.
	Linear fluid (dielectric constant: 78.4, screening length: 5.74355 Bohr) occupying 0.743852 of unit cell:	Completed after 0 iterations at t[s]:   8527.92
ElecMinimize: 	Step increased F by 1.871877e-08, reducing alpha to 2.512734e-04.
ElecMinimize: 	Step failed to reduce F after 3 attempts. Quitting step.
ElecMinimize: 	Undoing step.
	Linear fluid (dielectric constant: 78.4, screening length: 5.74355 Bohr) occupying 0.743852 of unit cell:	Completed after 0 iterations at t[s]:   8593.99
ElecMinimize: 	Step failed: resetting search direction.
	FillingsUpdate:  mu: -0.150141478  nElectrons: 416.000000  magneticMoment: [ Abs: 0.00005  Tot: -0.00000 ]
	SubspaceRotationAdjust: set factor to 0.832
ElecMinimize: Iter:   5  F: -1406.809078231805870  |grad|_K:  4.616e-08  alpha:  2.513e-04
	Linear fluid (dielectric constant: 78.4, screening length: 5.74355 Bohr) occupying 0.743856 of unit cell:	Completed after 2 iterations at t[s]:   8665.57
	Linear fluid (dielectric constant: 78.4, screening length: 5.74355 Bohr) occupying 0.743853 of unit cell:	Completed after 2 iterations at t[s]:   8697.24
ElecMinimize: 	Step increased F by 2.513616e-08, reducing alpha to 1.384544e-02.
	Linear fluid (dielectric constant: 78.4, screening length: 5.74355 Bohr) occupying 0.743852 of unit cell:	Completed after 0 iterations at t[s]:   8763.35
	FillingsUpdate:  mu: -0.150017923  nElectrons: 416.000000  magneticMoment: [ Abs: 0.00005  Tot: -0.00000 ]
	SubspaceRotationAdjust: set factor to 0.402
ElecMinimize: Iter:   6  F: -1406.809078264518121  |grad|_K:  2.722e-08  alpha:  1.385e-02  linmin:  4.200e-04  t[s]:   8805.04
	Linear fluid (dielectric constant: 78.4, screening length: 5.74355 Bohr) occupying 0.743852 of unit cell:	Completed after 0 iterations at t[s]:   8835.22
ElecMinimize: 	Predicted alpha/alphaT>3.000000, increasing alphaT to 4.153633e-02.
	Linear fluid (dielectric constant: 78.4, screening length: 5.74355 Bohr) occupying 0.743852 of unit cell:	Completed after 0 iterations at t[s]:   8865.69
ElecMinimize: 	Predicted alpha/alphaT>3.000000, increasing alphaT to 1.246090e-01.
	Linear fluid (dielectric constant: 78.4, screening length: 5.74355 Bohr) occupying 0.743852 of unit cell:	Completed after 0 iterations at t[s]:   8896.17
	Linear fluid (dielectric constant: 78.4, screening length: 5.74355 Bohr) occupying 0.743851 of unit cell:	Completed after 0 iterations at t[s]:   8926.99
	FillingsUpdate:  mu: -0.150018249  nElectrons: 416.000000  magneticMoment: [ Abs: 0.00004  Tot: -0.00000 ]
	SubspaceRotationAdjust: set factor to 0.44
ElecMinimize: Iter:   7  F: -1406.809078339385906  |grad|_K:  1.806e-08  alpha:  3.522e-01  linmin:  9.130e-07  t[s]:   8968.57
	Linear fluid (dielectric constant: 78.4, screening length: 5.74355 Bohr) occupying 0.743850 of unit cell:	Completed after 2 iterations at t[s]:   8999.18
	Linear fluid (dielectric constant: 78.4, screening length: 5.74355 Bohr) occupying 0.743851 of unit cell:	Completed after 0 iterations at t[s]:   9030.39
ElecMinimize: 	Step increased F by 7.764265e-08, reducing alpha to 7.392101e-03.
	Linear fluid (dielectric constant: 78.4, screening length: 5.74355 Bohr) occupying 0.743851 of unit cell:	Completed after 0 iterations at t[s]:   9096.04
ElecMinimize: 	Step increased F by 7.068479e-08, reducing alpha to 7.392101e-04.
	Linear fluid (dielectric constant: 78.4, screening length: 5.74355 Bohr) occupying 0.743851 of unit cell:	Completed after 0 iterations at t[s]:   9161.70
ElecMinimize: 	Step increased F by 7.003860e-08, reducing alpha to 7.392101e-05.
ElecMinimize: 	Step failed to reduce F after 3 attempts. Quitting step.
ElecMinimize: 	Undoing step.
	Linear fluid (dielectric constant: 78.4, screening length: 5.74355 Bohr) occupying 0.743851 of unit cell:	Completed after 0 iterations at t[s]:   9227.28
ElecMinimize: 	Step failed: resetting search direction.
	FillingsUpdate:  mu: -0.150098508  nElectrons: 416.000000  magneticMoment: [ Abs: 0.00004  Tot: -0.00000 ]
	SubspaceRotationAdjust: set factor to 0.324
ElecMinimize: Iter:   8  F: -1406.809078269360725  |grad|_K:  2.424e-08  alpha:  7.392e-05
	Linear fluid (dielectric constant: 78.4, screening length: 5.74355 Bohr) occupying 0.743851 of unit cell:	Completed after 2 iterations at t[s]:   9299.17
	Linear fluid (dielectric constant: 78.4, screening length: 5.74355 Bohr) occupying 0.743851 of unit cell:	Completed after 0 iterations at t[s]:   9330.52
	FillingsUpdate:  mu: -0.150053367  nElectrons: 416.000000  magneticMoment: [ Abs: 0.00003  Tot: -0.00000 ]
	SubspaceRotationAdjust: set factor to 0.154
ElecMinimize: Iter:   9  F: -1406.809078289374156  |grad|_K:  8.411e-09  alpha:  1.891e-01  linmin:  2.046e-04  t[s]:   9372.05
	Linear fluid (dielectric constant: 78.4, screening length: 5.74355 Bohr) occupying 0.743851 of unit cell:	Completed after 0 iterations at t[s]:   9402.25
ElecMinimize: 	Predicted alpha/alphaT>3.000000, increasing alphaT to 5.672594e-01.
	Linear fluid (dielectric constant: 78.4, screening length: 5.74355 Bohr) occupying 0.743851 of unit cell:	Completed after 0 iterations at t[s]:   9432.52
	Linear fluid (dielectric constant: 78.4, screening length: 5.74355 Bohr) occupying 0.743851 of unit cell:	Completed after 0 iterations at t[s]:   9463.13
	FillingsUpdate:  mu: -0.150053386  nElectrons: 416.000000  magneticMoment: [ Abs: 0.00002  Tot: -0.00000 ]
	SubspaceRotationAdjust: set factor to 0.181
ElecMinimize: Iter:  10  F: -1406.809078310373025  |grad|_K:  1.013e-08  alpha:  8.443e-01  linmin: -1.098e-06  t[s]:   9504.70
	Linear fluid (dielectric constant: 78.4, screening length: 5.74355 Bohr) occupying 0.743850 of unit cell:	Completed after 0 iterations at t[s]:   9534.97
	Linear fluid (dielectric constant: 78.4, screening length: 5.74355 Bohr) occupying 0.743850 of unit cell:	Completed after 0 iterations at t[s]:   9566.15
	FillingsUpdate:  mu: -0.150053729  nElectrons: 416.000000  magneticMoment: [ Abs: 0.00001  Tot: +0.00000 ]
	SubspaceRotationAdjust: set factor to 0.23
ElecMinimize: Iter:  11  F: -1406.809078320413164  |grad|_K:  4.737e-09  alpha:  4.745e-01  linmin: -1.262e-04  t[s]:   9607.64
	Linear fluid (dielectric constant: 78.4, screening length: 5.74355 Bohr) occupying 0.743850 of unit cell:	Completed after 0 iterations at t[s]:   9637.56
	Linear fluid (dielectric constant: 78.4, screening length: 5.74355 Bohr) occupying 0.743850 of unit cell:	Completed after 0 iterations at t[s]:   9668.24
	FillingsUpdate:  mu: -0.150053644  nElectrons: 416.000000  magneticMoment: [ Abs: 0.00002  Tot: +0.00000 ]
	SubspaceRotationAdjust: set factor to 0.3
ElecMinimize: Iter:  12  F: -1406.809078324996108  |grad|_K:  4.171e-09  alpha:  4.492e-01  linmin: -5.556e-05  t[s]:   9709.76
	Linear fluid (dielectric constant: 78.4, screening length: 5.74355 Bohr) occupying 0.743850 of unit cell:	Completed after 0 iterations at t[s]:   9739.79
	Linear fluid (dielectric constant: 78.4, screening length: 5.74355 Bohr) occupying 0.743850 of unit cell:	Completed after 0 iterations at t[s]:   9770.77
	FillingsUpdate:  mu: -0.150053456  nElectrons: 416.000000  magneticMoment: [ Abs: 0.00004  Tot: +0.00000 ]
	SubspaceRotationAdjust: set factor to 0.395
ElecMinimize: Iter:  13  F: -1406.809078329462182  |grad|_K:  3.729e-09  alpha:  5.150e-01  linmin: -5.384e-05  t[s]:   9812.57
ElecMinimize: Converged (|Delta F|<1.000000e-08 for 2 iters).
Setting wave functions to eigenvectors of Hamiltonian

# Ionic positions in lattice coordinates:
ion W   0.083334675099593   0.166665307358739   0.500000000000000 1
ion W   0.333334675099593   0.166665307358739   0.500000000000000 1
ion W   0.583334675099593   0.166665307358739   0.500000000000000 1
ion W   0.833334675099593   0.166665307358739   0.500000000000000 1
ion W   0.083334675099593   0.416665307358739   0.500000000000000 1
ion W   0.333334675099593   0.416665307358739   0.500000000000000 1
ion W   0.583334675099593   0.416665307358739   0.500000000000000 1
ion W   0.833334675099593   0.416665307358739   0.500000000000000 1
ion W   0.083334675099593   0.666665307358739   0.500000000000000 1
ion W   0.333334675099593   0.666665307358739   0.500000000000000 1
ion W   0.583334675099593   0.666665307358739   0.500000000000000 1
ion W   0.833334675099593   0.666665307358739   0.500000000000000 1
ion W   0.083334675099593   0.916665307358739   0.500000000000000 1
ion W   0.333334675099593   0.916665307358739   0.500000000000000 1
ion W   0.583334675099593   0.916665307358739   0.500000000000000 1
ion W   0.833334675099593   0.916665307358739   0.500000000000000 1
ion Se   0.166667655762704   0.083332326695629   0.406896668529060 1
ion Se   0.166667655762704   0.083332326695629   0.593103331470940 1
ion Se   0.416667655762704   0.083332326695629   0.406896668529060 1
ion Se   0.416667655762704   0.083332326695629   0.593103331470940 1
ion Se   0.666667655762704   0.083332326695629   0.406896668529060 1
ion Se   0.666667655762704   0.083332326695629   0.593103331470940 1
ion Se   0.916667655762704   0.083332326695629   0.406896668529060 1
ion Se   0.916667655762704   0.083332326695629   0.593103331470940 1
ion Se   0.166667655762704   0.333332326695629   0.406896668529060 1
ion Se   0.166667655762704   0.333332326695629   0.593103331470940 1
ion Se   0.416667655762704   0.333332326695629   0.406896668529060 1
ion Se   0.416667655762704   0.333332326695629   0.593103331470940 1
ion Se   0.666667655762704   0.333332326695629   0.406896668529060 1
ion Se   0.666667655762704   0.333332326695629   0.593103331470940 1
ion Se   0.916667655762704   0.333332326695629   0.406896668529060 1
ion Se   0.916667655762704   0.333332326695629   0.593103331470940 1
ion Se   0.166667655762704   0.583332326695629   0.406896668529060 1
ion Se   0.166667655762704   0.583332326695629   0.593103331470940 1
ion Se   0.416667655762704   0.583332326695629   0.406896668529060 1
ion Se   0.416667655762704   0.583332326695629   0.593103331470940 1
ion Se   0.666667655762704   0.583332326695629   0.406896668529060 1
ion Se   0.666667655762704   0.583332326695629   0.593103331470940 1
ion Se   0.916667655762704   0.583332326695629   0.406896668529060 1
ion Se   0.916667655762704   0.583332326695629   0.593103331470940 1
ion Se   0.166667655762704   0.833332326695629   0.406896668529060 1
ion Se   0.166667655762704   0.833332326695629   0.593103331470940 1
ion Se   0.416667655762704   0.833332326695629   0.406896668529060 1
ion Se   0.416667655762704   0.833332326695629   0.593103331470940 1
ion Se   0.666667655762704   0.833332326695629   0.406896668529060 1
ion Se   0.666667655762704   0.833332326695629   0.593103331470940 1
ion Se   0.916667655762704   0.833332326695629   0.406896668529060 1
ion Se   0.916667655762704   0.833332326695629   0.593103331470940 1


# Forces in Lattice coordinates:
force W  -0.000035511696841   0.000035511696841   0.000000000000000 1
force W  -0.000035511696841   0.000035511696841   0.000000000000000 1
force W  -0.000035511696841   0.000035511696841   0.000000000000000 1
force W  -0.000035511696841   0.000035511696841  -0.000000000000000 1
force W  -0.000035511696841   0.000035511696841  -0.000000000000000 1
force W  -0.000035511696841   0.000035511696841  -0.000000000000000 1
force W  -0.000035511696841   0.000035511696841  -0.000000000000000 1
force W  -0.000035511696841   0.000035511696841   0.000000000000000 1
force W  -0.000035511696841   0.000035511696841   0.000000000000000 1
force W  -0.000035511696841   0.000035511696841   0.000000000000000 1
force W  -0.000035511696841   0.000035511696841  -0.000000000000000 1
force W  -0.000035511696841   0.000035511696841   0.000000000000000 1
force W  -0.000035511696841   0.000035511696841  -0.000000000000000 1
force W  -0.000035511696841   0.000035511696841   0.000000000000000 1
force W  -0.000035511696841   0.000035511696841   0.000000000000000 1
force W  -0.000035511696841   0.000035511696841  -0.000000000000000 1
force Se   0.000003687312725  -0.000003687312725  -0.003938091478870 1
force Se   0.000003687312725  -0.000003687312725   0.003938091479214 1
force Se   0.000003687312725  -0.000003687312725  -0.003938091478987 1
force Se   0.000003687312725  -0.000003687312725   0.003938091479213 1
force Se   0.000003687312725  -0.000003687312725  -0.003938091478759 1
force Se   0.000003687312725  -0.000003687312725   0.003938091479328 1
force Se   0.000003687312725  -0.000003687312725  -0.003938091478872 1
force Se   0.000003687312725  -0.000003687312725   0.003938091479213 1
force Se   0.000003687312725  -0.000003687312725  -0.003938091478872 1
force Se   0.000003687312725  -0.000003687312725   0.003938091479440 1
force Se   0.000003687312725  -0.000003687312725  -0.003938091478987 1
force Se   0.000003687312725  -0.000003687312725   0.003938091479213 1
force Se   0.000003687312725  -0.000003687312725  -0.003938091478758 1
force Se   0.000003687312725  -0.000003687312725   0.003938091479554 1
force Se   0.000003687312725  -0.000003687312725  -0.003938091478872 1
force Se   0.000003687312725  -0.000003687312725   0.003938091479439 1
force Se   0.000003687312725  -0.000003687312725  -0.003938091478757 1
force Se   0.000003687312725  -0.000003687312725   0.003938091479212 1
force Se   0.000003687312725  -0.000003687312725  -0.003938091478985 1
force Se   0.000003687312725  -0.000003687312725   0.003938091479327 1
force Se   0.000003687312725  -0.000003687312725  -0.003938091478530 1
force Se   0.000003687312725  -0.000003687312725   0.003938091479213 1
force Se   0.000003687312725  -0.000003687312725  -0.003938091478984 1
force Se   0.000003687312725  -0.000003687312725   0.003938091479325 1
force Se   0.000003687312725  -0.000003687312725  -0.003938091478870 1
force Se   0.000003687312725  -0.000003687312725   0.003938091479214 1
force Se   0.000003687312725  -0.000003687312725  -0.003938091479097 1
force Se   0.000003687312725  -0.000003687312725   0.003938091479100 1
force Se   0.000003687312725  -0.000003687312725  -0.003938091478758 1
force Se   0.000003687312725  -0.000003687312725   0.003938091479100 1
force Se   0.000003687312725  -0.000003687312725  -0.003938091478983 1
force Se   0.000003687312725  -0.000003687312725   0.003938091479213 1

# Energy components:
   A_diel =        0.0044348104991542
   Eewald =     7935.1870961856084250
       EH =     9074.2486401177848165
     Eloc =   -18496.4132622777869983
      Enl =     -154.8033194230048082
      Exc =     -805.6808782788280041
 Exc_core =      564.8999477537820439
       KE =      475.7484301331189158
-------------------------------------
     Etot =    -1406.8089109788261339
       TS =        0.0001673506360439
-------------------------------------
        F =    -1406.8090783294621815

IonicMinimize: Iter:   2  F: -1406.809078329462182  |grad|_K:  5.414e-05  alpha:  1.000e+00  linmin: -9.982e-01  t[s]:   9833.86
IonicMinimize: Converged (|grad|_K<1.000000e-04).

#--- Lowdin population analysis ---
# oxidation-state W -0.706 -0.706 -0.706 -0.706 -0.706 -0.706 -0.706 -0.706 -0.706 -0.706 -0.706 -0.706 -0.706 -0.706 -0.706 -0.706
# magnetic-moments W +0.000 +0.000 +0.000 +0.000 +0.000 +0.000 +0.000 +0.000 +0.000 +0.000 +0.000 +0.000 +0.000 +0.000 +0.000 +0.000
# oxidation-state Se +0.404 +0.404 +0.404 +0.404 +0.404 +0.404 +0.404 +0.404 +0.404 +0.404 +0.404 +0.404 +0.404 +0.404 +0.404 +0.404 +0.404 +0.404 +0.404 +0.404 +0.404 +0.404 +0.404 +0.404 +0.404 +0.404 +0.404 +0.404 +0.404 +0.404 +0.404 +0.404
# magnetic-moments Se -0.000 -0.000 -0.000 -0.000 -0.000 -0.000 -0.000 -0.000 -0.000 -0.000 -0.000 -0.000 -0.000 -0.000 -0.000 -0.000 -0.000 -0.000 -0.000 -0.000 -0.000 -0.000 -0.000 -0.000 -0.000 -0.000 -0.000 -0.000 -0.000 -0.000 -0.000 -0.000


Dumping 'NbTe2.fillings' ... done
Dumping 'NbTe2.wfns' ... done
Dumping 'NbTe2.fluidState' ... done
Dumping 'NbTe2.ionpos' ... done
Dumping 'NbTe2.eigenvals' ... done
End date and time: Fri Feb  5 22:54:20 2021  (Duration: 0-2:44:07.71)
Done!
