  COHP#  atomMU  atomNU     distance     translation      ICOHP (at) eF   for spin  1
      1     Nb7    Se29      2.60747       0   0   0           -1.15763 
      2     Nb8    Se29      2.60729       0   0   0           -1.17840 
      3    Nb11    Se29      2.60729       0   0   0           -1.15343 
      4    Se21    Se29      3.44755       0   0   0           -0.40931 
      5    Se23    Se29      3.44755       0   0   0           -0.40517 
      6    Se27    Se29      3.44755       0   0   0           -0.40413 
      7    Se29    Se30      3.36851       0   0   0           -0.68467 
      8    Se29    Se31      3.44755       0   0   0           -0.40437 
      9    Se29    Se35      3.44755       0   0   0           -0.40538 
     10    Se29    Se37      3.44755       0   0   0           -0.40952 
  COHP#  atomMU  atomNU     distance     translation      ICOHP (at) eF   for spin  2
      1     Nb7    Se29      2.60747       0   0   0           -1.15746 
      2     Nb8    Se29      2.60729       0   0   0           -1.17783 
      3    Nb11    Se29      2.60729       0   0   0           -1.15324 
      4    Se21    Se29      3.44755       0   0   0           -0.40946 
      5    Se23    Se29      3.44755       0   0   0           -0.40540 
      6    Se27    Se29      3.44755       0   0   0           -0.40478 
      7    Se29    Se30      3.36851       0   0   0           -0.68468 
      8    Se29    Se31      3.44755       0   0   0           -0.40464 
      9    Se29    Se35      3.44755       0   0   0           -0.40558 
     10    Se29    Se37      3.44755       0   0   0           -0.40957 
