
*************** JDFTx 1.5.0  ***************

Start date and time: Fri Apr  2 16:02:24 2021
Executable jdftx_gpu with command-line: -i Charged.in -o Charged.out
Running on hosts (process indices):  amax (0-6)
Divided in process groups (process indices):  0 (0)  1 (1)  2 (2)  3 (3)  4 (4)  5 (5)  6 (6)
gpuInit: Found compatible cuda device 0 'Tesla K80'
gpuInit: Found compatible cuda device 1 'Tesla K80'
gpuInit: Found compatible cuda device 2 'Tesla K80'
gpuInit: Found compatible cuda device 3 'Tesla K80'
gpuInit: Found compatible cuda device 4 'Tesla K80'
gpuInit: Found compatible cuda device 5 'Tesla K80'
gpuInit: Found compatible cuda device 6 'Tesla K80'
gpuInit: Selected device 0
Resource initialization completed at t[s]:      4.04
Run totals: 7 processes, 24 threads, 7 GPUs


Input parsed successfully to the following command list (including defaults):

basis kpoint-dependent
cache-projectors no
coords-type Lattice
core-overlap-check none
coulomb-interaction Slab 001
coulomb-truncation-embed 0.5 0.5 0.5
davidson-band-ratio 1.1
dump End State
dump-name NbTe2.$VAR
elec-cutoff 20
elec-eigen-algo Davidson
elec-ex-corr gga-PBE
elec-smearing Gauss 0.0073499
electronic-minimize  \
	dirUpdateScheme      FletcherReeves \
	linminMethod         DirUpdateRecommended \
	nIterations          200 \
	history              15 \
	knormThreshold       0 \
	energyDiffThreshold  1e-08 \
	nEnergyDiff          2 \
	alphaTstart          1 \
	alphaTmin            1e-10 \
	updateTestStepSize   yes \
	alphaTreduceFactor   0.1 \
	alphaTincreaseFactor 3 \
	nAlphaAdjustMax      3 \
	wolfeEnergy          0.0001 \
	wolfeGradient        0.9 \
	fdTest               no
exchange-regularization WignerSeitzTruncated
fluid LinearPCM 298.000000 1.013250
fluid-anion F- 1 MeanFieldLJ \
	epsBulk 1 \
	pMol 0 \
	epsInf 1 \
	Pvap 0 \
	sigmaBulk 0 \
	Rvdw 2.24877 \
	Res 0 \
	tauNuc 343133
fluid-cation Na+ 1 MeanFieldLJ \
	epsBulk 1 \
	pMol 0 \
	epsInf 1 \
	Pvap 0 \
	sigmaBulk 0 \
	Rvdw 2.19208 \
	Res 0 \
	tauNuc 343133
fluid-ex-corr lda-TF lda-PZ
fluid-gummel-loop 10 1.000000e-05
fluid-minimize  \
	dirUpdateScheme      PolakRibiere \
	linminMethod         DirUpdateRecommended \
	nIterations          400 \
	history              15 \
	knormThreshold       1e-11 \
	energyDiffThreshold  0 \
	nEnergyDiff          2 \
	alphaTstart          1 \
	alphaTmin            1e-10 \
	updateTestStepSize   yes \
	alphaTreduceFactor   0.1 \
	alphaTincreaseFactor 3 \
	nAlphaAdjustMax      6 \
	wolfeEnergy          0.0001 \
	wolfeGradient        0.9 \
	fdTest               no
fluid-solvent H2O 55.338 ScalarEOS \
	epsBulk 78.4 \
	pMol 0.92466 \
	epsInf 1.77 \
	Pvap 1.06736e-10 \
	sigmaBulk 4.62e-05 \
	Rvdw 2.61727 \
	Res 1.42 \
	tauNuc 343133 \
	poleEl 15 7 1
forces-output-coords Positions
initial-state NbTe2.$VAR
ion C   0.166678529542211   0.083430907930558   0.557191113291099 1
ion C   0.083543900925964   0.167112244755533   0.442905658666590 1
ion C   0.416665331887047   0.083423550243364   0.557194809781482 1
ion C   0.333635546578120   0.167280278483478   0.442945150427226 1
ion C   0.666525995456811   0.083482492122105   0.557406956651084 1
ion C   0.583530319701044   0.167098981476641   0.442907067083090 1
ion C   0.916830938186055   0.083454288766077   0.557403162822435 1
ion C   0.833443484303557   0.166955199274435   0.442939677560520 1
ion C   0.166762629918541   0.333586110881397   0.557340521655247 1
ion C   0.083549695197627   0.416892011602538   0.442904454111013 1
ion C   0.417169520254827   0.334435009059394   0.557486157629983 1
ion C   0.333392214317275   0.416913719920838   0.442506012413145 1
ion C   0.666701940461159   0.333651035963826   0.557346874834603 1
ion C   0.583513695300248   0.416905482800553   0.442514287640467 1
ion C   0.916834543792501   0.333817317085530   0.557405537573787 1
ion C   0.833316670128954   0.416893293895689   0.442898078243659 1
ion C   0.166678248620109   0.583690171531339   0.557184122137560 1
ion C   0.083499305179023   0.667061134736047   0.442783200638933 1
ion C   0.417154782794879   0.583166694415473   0.557463601108374 1
ion C   0.333645113252021   0.666799647160579   0.442939234331627 1
ion C   0.665921600846730   0.583168004896423   0.557488671850708 1
ion C   0.583511977781297   0.667036078286063   0.442506639548840 1
ion C   0.916920389290407   0.583660700169332   0.557173262482200 1
ion C   0.833129313042434   0.666789702340261   0.442924042649145 1
ion C   0.166742885369259   0.833593135987981   0.557310637583260 1
ion C   0.083494467887356   0.916895970264135   0.442790192215326 1
ion C   0.416665154561476   0.833685386083844   0.557181732569445 1
ion C   0.333341057199979   0.916898242672543   0.442789360143149 1
ion C   0.666705284045609   0.833499229297335   0.557333858624016 1
ion C   0.583547758741375   0.916896425363003   0.442901412204412 1
ion C   0.916904695384830   0.833687115822587   0.557172549484508 1
ion C   0.833318991612220   0.916892571488452   0.442896027878430 1
ion Ti   0.000182278875682   0.000204102181984   0.500164345569692 1
ion Ti   0.082784612108985   0.165975031485468   0.617024125380613 1
ion Ti   0.166661479128469   0.083406146234796   0.383060838265633 1
ion Ti   0.250132051336971   0.000338967744313   0.500150487409205 1
ion Ti   0.333641069859334   0.167463670581617   0.616695879291644 1
ion Ti   0.416751916347398   0.083391919159833   0.383064983762208 1
ion Ti   0.499946946908242   0.000191495937113   0.500147669579226 1
ion Ti   0.583033866892559   0.165939520720737   0.616982537707216 1
ion Ti   0.667120405665591   0.083832220967552   0.383345662039123 1
ion Ti   0.750263975338506   0.000594300102265   0.499985107106510 1
ion Ti   0.833349524431590   0.166921263902880   0.617160160592974 1
ion Ti   0.916745857657157   0.083858529988951   0.383373466516399 1
ion Ti  -0.000207781930079   0.250116076950892   0.500021078511227 1
ion Ti   0.082787800970889   0.417282897791981   0.617025944063602 1
ion Ti   0.167075521580616   0.333808500556035   0.382970337015474 1
ion Ti   0.249821971715708   0.249750413577712   0.499335579392044 1
ion Ti   0.326235902119484   0.413344404864305   0.613668037805189 1
ion Ti   0.416946303466571   0.333848187156471   0.382974671652491 1
ion Ti   0.499854028243096   0.249739825185785   0.499329140534790 1
ion Ti   0.587034823991713   0.413304627362844   0.613774233024256 1
ion Ti   0.666762438984383   0.333755556464113   0.382954642117465 1
ion Ti   0.750253031211578   0.250118602565604   0.499988924474837 1
ion Ti   0.834387416020514   0.417267751516275   0.616984296217613 1
ion Ti   0.916741967949692   0.333409176180313   0.383381940951235 1
ion Ti   0.000179180582542   0.500421237868843   0.500166811013533 1
ion Ti   0.083621575998191   0.667403253077834   0.616867641191287 1
ion Ti   0.166654643703148   0.583780204259678   0.383052856263304 1
ion Ti   0.249809868579847   0.500490253474652   0.499330599374108 1
ion Ti   0.333631380133292   0.666653520575225   0.616688011033949 1
ion Ti   0.416952636414577   0.583642107705618   0.382975386338362 1
ion Ti   0.500105752014759   0.500257993275423   0.500309705590995 1
ion Ti   0.587007839722047   0.674149392796517   0.613733137180749 1
ion Ti   0.666743233901218   0.583648358515617   0.382958329433779 1
ion Ti   0.750638479059108   0.500508573749111   0.499316399959334 1
ion Ti   0.832851062682184   0.666673076923940   0.616656426823197 1
ion Ti   0.917136511329594   0.583755050702912   0.383016060083475 1
ion Ti   0.000030862462308   0.750241156117800   0.500117776250266 1
ion Ti   0.083620833125196   0.916701371350598   0.616863012021130 1
ion Ti   0.166832513405162   0.833672282104477   0.383664497381891 1
ion Ti   0.250141420517651   0.750233122770384   0.500144558886401 1
ion Ti   0.332947078792270   0.916712734497805   0.616883477404139 1
ion Ti   0.416763200425926   0.833899518704256   0.383053724119006 1
ion Ti   0.499849580441423   0.750535049230323   0.499325260642022 1
ion Ti   0.583039210911362   0.917524279665969   0.616983301828356 1
ion Ti   0.666774784335057   0.833565517937501   0.382958546516453 1
ion Ti   0.750637331591531   0.750550734447124   0.499307070283698 1
ion Ti   0.834364432057085   0.917572550334080   0.616977846987740 1
ion Ti   0.917144193822993   0.833911982415300   0.383019824217802 1
ion O   0.000082052328068   0.000189568700125   0.659336750856486 1
ion O   0.000099814234471   0.000411826143520   0.341169033425961 1
ion O   0.250132198790584   0.000399352660937   0.659022804323952 1
ion O   0.250307989110286   0.000631548683340   0.341162177241808 1
ion O   0.499992207487129   0.000216325053232   0.659338153876296 1
ion O   0.500300659457294   0.000397831981506   0.341169660821182 1
ion O   0.750118061750536   0.000369006575214   0.659098909557272 1
ion O   0.750252247355038   0.000506879292519   0.341075226917711 1
ion O  -0.000074837429860   0.250193271074656   0.659136457329830 1
ion O   0.000025746471695   0.250254542229339   0.341095608388563 1
ion O   0.250277651221352   0.250706665737507   0.659042348389494 1
ion O   0.250045631460173   0.250025841088267   0.340916853828850 1
ion O   0.500318695655589   0.250691533529139   0.659049101206049 1
ion O   0.499996747510803   0.250009972764270   0.340906899671159 1
ion O   0.750129114565747   0.250210725521965   0.659110553910933 1
ion O   0.750250701595062   0.250222955367715   0.341075322075275 1
ion O   0.000097429602780   0.500357460315468   0.659344452961582 1
ion O   0.000089971242392   0.500161645840165   0.341165298210351 1
ion O   0.250283288287492   0.500034063490113   0.659037325307914 1
ion O   0.250039092972321   0.500490118677903   0.340917099859477 1
ion O   0.499767708084767   0.500214206402800   0.666167845106626 1
ion O   0.500184511144116   0.500325460821928   0.340914181225299 1
ion O   0.749642385621800   0.500043354289903   0.659039731154451 1
ion O   0.750464655484980   0.500467556637427   0.340882539641110 1
ion O  -0.000095532595425   0.750184997396969   0.659000274979124 1
ion O  -0.000164453624977   0.750160298799547   0.341122016709415 1
ion O   0.250138839641750   0.750189711146846   0.659020567054900 1
ion O   0.250321471784884   0.750159076612086   0.341152982686287 1
ion O   0.500324883721961   0.750072411804142   0.659034180589873 1
ion O   0.499993365492065   0.750467179735418   0.340903423476826 1
ion O   0.749613425820928   0.750041241601661   0.659026125869094 1
ion O   0.750476068551887   0.750470473026699   0.340882820156461 1
ion H   0.498378510758245   0.499913135539460   0.710524293549427 1
ion-species GBRV/$ID_pbe.uspp
ion-width Ecut
ionic-minimize  \
	dirUpdateScheme      L-BFGS \
	linminMethod         DirUpdateRecommended \
	nIterations          500 \
	history              15 \
	knormThreshold       0.0001 \
	energyDiffThreshold  1e-06 \
	nEnergyDiff          2 \
	alphaTstart          1 \
	alphaTmin            1e-10 \
	updateTestStepSize   yes \
	alphaTreduceFactor   0.1 \
	alphaTincreaseFactor 3 \
	nAlphaAdjustMax      3 \
	wolfeEnergy          0.0001 \
	wolfeGradient        0.9 \
	fdTest               no
kpoint   0.000000000000   0.000000000000   0.000000000000  1.00000000000000
kpoint-folding 3 3 1 
latt-move-scale 1 1 1
latt-scale 1.88973 1.88973 1.88973 
lattice Triclinic 12.0174 12.0182 21.9917 90 90 119.998
lattice-minimize  \
	dirUpdateScheme      L-BFGS \
	linminMethod         DirUpdateRecommended \
	nIterations          0 \
	history              15 \
	knormThreshold       0 \
	energyDiffThreshold  1e-06 \
	nEnergyDiff          2 \
	alphaTstart          1 \
	alphaTmin            1e-10 \
	updateTestStepSize   yes \
	alphaTreduceFactor   0.1 \
	alphaTincreaseFactor 3 \
	nAlphaAdjustMax      3 \
	wolfeEnergy          0.0001 \
	wolfeGradient        0.9 \
	fdTest               no
lcao-params -1 1e-06 0.0073499
pcm-variant CANDLE
spintype no-spin
subspace-rotation-factor 1 yes
symmetries automatic
symmetry-threshold 0.0001
target-mu -0.171252 no




---------- Setting up symmetries ----------

Found 24 point-group symmetries of the bravais lattice
Found 1 space-group symmetries with basis
Applied RMS atom displacement 0 bohrs to make symmetries exact.

---------- Initializing the Grid ----------
R = 
[    22.7096   -11.3548          0  ]
[          0    19.6688          0  ]
[          0          0    41.5583  ]
unit cell volume = 18562.9
G =
[   0.276675   0.159724         -0  ]
[          0   0.319449          0  ]
[          0         -0    0.15119  ]
Minimum fftbox size, Smin = [  92  92  168  ]
Chosen fftbox size, S = [  96  96  168  ]

---------- Exchange Correlation functional ----------
Initalized PBE GGA exchange.
Initalized PBE GGA correlation.

---------- Setting up pseudopotentials ----------
Width of ionic core gaussian charges (only for fluid interactions / plotting) set to 0.397384

Reading pseudopotential file '/home/guoxy/vasp/jdftx-1.5.0/build/pseudopotentials/GBRV/c_pbe.uspp':
  Title: C.  Created by USPP 7.3.6 on 3-2-2014
  Reference state energy: -5.406344.  4 valence electrons in orbitals:
    |200>  occupation: 2  eigenvalue: -0.504890
    |210>  occupation: 2  eigenvalue: -0.194356
  lMax: 1  lLocal: 2  QijEcut: 5
  4 projectors sampled on a log grid with 503 points:
    l: 0  eig: -0.504890  rCut: 1.3
    l: 0  eig: 0.000000  rCut: 1.3
    l: 1  eig: -0.194357  rCut: 1.3
    l: 1  eig: 0.000000  rCut: 1.3
  Partial core density with radius 1.1
  Transforming core density to a uniform radial grid of dG=0.02 with 1477 points.
  Transforming local potential to a uniform radial grid of dG=0.02 with 1477 points.
  Transforming nonlocal projectors to a uniform radial grid of dG=0.02 with 432 points.
  Transforming density augmentations to a uniform radial grid of dG=0.02 with 1477 points.
  Transforming atomic orbitals to a uniform radial grid of dG=0.02 with 432 points.
  Core radius for overlap checks: 1.30 bohrs.

Reading pseudopotential file '/home/guoxy/vasp/jdftx-1.5.0/build/pseudopotentials/GBRV/ti_pbe.uspp':
  Title: Ti.  Created by USPP 7.3.6 on 31-3-15
  Reference state energy: -59.020943.  12 valence electrons in orbitals:
    |300>  occupation: 2  eigenvalue: -2.777623
    |310>  occupation: 6  eigenvalue: -1.894596
    |400>  occupation: 2  eigenvalue: -0.438610
    |320>  occupation: 1  eigenvalue: -0.583119
  lMax: 2  lLocal: 3  QijEcut: 6
  6 projectors sampled on a log grid with 597 points:
    l: 0  eig: -2.777624  rCut: 1.8
    l: 0  eig: -0.438611  rCut: 1.8
    l: 1  eig: -1.894596  rCut: 1.8
    l: 1  eig: 0.500000  rCut: 1.8
    l: 2  eig: -0.583118  rCut: 1.8
    l: 2  eig: 0.150000  rCut: 1.8
  Partial core density with radius 0.8
  Transforming core density to a uniform radial grid of dG=0.02 with 1477 points.
  Transforming local potential to a uniform radial grid of dG=0.02 with 1477 points.
  Transforming nonlocal projectors to a uniform radial grid of dG=0.02 with 432 points.
  Transforming density augmentations to a uniform radial grid of dG=0.02 with 1477 points.
  Transforming atomic orbitals to a uniform radial grid of dG=0.02 with 432 points.
  Core radius for overlap checks: 1.80 bohrs.

Reading pseudopotential file '/home/guoxy/vasp/jdftx-1.5.0/build/pseudopotentials/GBRV/o_pbe.uspp':
  Title: O.  Created by USPP 7.3.6 on 3-2-2014
  Reference state energy: -15.894388.  6 valence electrons in orbitals:
    |200>  occupation: 2  eigenvalue: -0.878823
    |210>  occupation: 4  eigenvalue: -0.332131
  lMax: 2  lLocal: 2  QijEcut: 6
  5 projectors sampled on a log grid with 511 points:
    l: 0  eig: -0.878823  rCut: 1.25
    l: 0  eig: 0.000000  rCut: 1.25
    l: 1  eig: -0.332132  rCut: 1.25
    l: 1  eig: 0.000000  rCut: 1.25
    l: 2  eig: 1.000000  rCut: 1.25
  Partial core density with radius 0.7
  Transforming core density to a uniform radial grid of dG=0.02 with 1477 points.
  Transforming local potential to a uniform radial grid of dG=0.02 with 1477 points.
  Transforming nonlocal projectors to a uniform radial grid of dG=0.02 with 432 points.
  Transforming density augmentations to a uniform radial grid of dG=0.02 with 1477 points.
  Transforming atomic orbitals to a uniform radial grid of dG=0.02 with 432 points.
  Core radius for overlap checks: 1.25 bohrs.

Reading pseudopotential file '/home/guoxy/vasp/jdftx-1.5.0/build/pseudopotentials/GBRV/h_pbe.uspp':
  Title: H.  Created by USPP 7.3.6 on 2-4-15
  Reference state energy: -0.458849.  1 valence electrons in orbitals:
    |100>  occupation: 1  eigenvalue: -0.238595
  lMax: 0  lLocal: 1  QijEcut: 6
  2 projectors sampled on a log grid with 395 points:
    l: 0  eig: -0.238595  rCut: 1.2
    l: 0  eig: 1.000000  rCut: 1.2
  Transforming local potential to a uniform radial grid of dG=0.02 with 1477 points.
  Transforming nonlocal projectors to a uniform radial grid of dG=0.02 with 432 points.
  Transforming density augmentations to a uniform radial grid of dG=0.02 with 1477 points.
  Transforming atomic orbitals to a uniform radial grid of dG=0.02 with 432 points.
  Core radius for overlap checks: 1.20 bohrs.

Initialized 4 species with 113 total atoms.

Folded 1 k-points by 3x3x1 to 9 k-points.

---------- Setting up k-points, bands, fillings ----------
Adding inversion symmetry to k-mesh for non-inversion-symmetric unit cell.
Reduced to 5 k-points under symmetry. 
Computing the number of bands and number of electrons
Calculating initial fillings.
nElectrons: 897.000000   nBands: 737   nStates: 5

----- Setting up reduced wavefunction bases (one per k-point) -----
average nbasis = 79305.444 , ideal nbasis = 79302.148

---------- Setting up coulomb interaction ----------
Fluid mode embedding: using embedded box, but periodic Coulomb kernel.
(Fluid response is responsible for (approximate) separation between periodic images.)
Setting up double-sized grid for truncated Coulomb potentials:
R = 
[    22.7096   -11.3548          0  ]
[          0    19.6688          0  ]
[          0          0    83.1166  ]
unit cell volume = 37125.8
G =
[   0.276675   0.159724         -0  ]
[          0   0.319449          0  ]
[          0         -0  0.0755949  ]
Chosen fftbox size, S = [  96  96  336  ]
Integer grid location selected as the embedding center:
   Grid: [  48  48  84  ]
   Lattice: [  0.5  0.5  0.5  ]
   Cartesian: [  5.67742  9.83442  20.7791  ]
Constructing Wigner-Seitz cell: 8 faces (6 quadrilaterals, 2 hexagons)
Range-separation parameter for embedded mesh potentials due to point charges: 0.627457 bohrs.

Initializing van der Waals corrections
	NOTE: vdW corrections apply only for interactions with fluid.
	 C:  C6:   30.35 Eh-a0^6  R0: 2.744 a0
	Ti:  C6:  187.33 Eh-a0^6  R0: 2.952 a0
	 O:  C6:   12.14 Eh-a0^6  R0: 2.536 a0
	 H:  C6:    2.43 Eh-a0^6  R0: 1.892 a0

---------- Setting up ewald sum ----------
Optimum gaussian width for ewald sums = 6.052791 bohr.
Real space sum over 405 unit cells with max indices [  4  4  2  ]
Reciprocal space sum over 10125 terms with max indices [  7  7  22  ]

---------- Allocating electronic variables ----------
Initializing wave functions:  linear combination of atomic orbitals
C pseudo-atom occupations:   s ( 2 )  p ( 2 )
Ti pseudo-atom occupations:   s ( 2 0 )  p ( 6 )  d ( 4 )
O pseudo-atom occupations:   s ( 2 )  p ( 4 )
H pseudo-atom occupations:   s ( 1 )
	FillingsUpdate:  mu: -0.171251800  nElectrons: 897.000000
LCAOMinimize: Iter:   0  G: -3273.7820918910265391  |grad|_K:  6.370e-03  alpha:  1.000e+00
	FillingsUpdate:  mu: -0.171251800  nElectrons: 897.000000
LCAOMinimize: Iter:   1  G: -3280.5357219867191816  |grad|_K:  6.255e-03  alpha:  6.164e-02  linmin: -1.765e-01  cgtest:  9.293e-01  t[s]:    168.51
LCAOMinimize: 	Wrong curvature in test step, increasing alphaT to 1.849192e-01.
	FillingsUpdate:  mu: -0.171251800  nElectrons: 897.000000
LCAOMinimize: Iter:   2  G: -3287.7537115596142030  |grad|_K:  6.186e-03  alpha: -7.700e-01  linmin: -1.840e-01  cgtest:  9.127e-01  t[s]:    231.91
	FillingsUpdate:  mu: -0.171251800  nElectrons: 897.000000
LCAOMinimize: Iter:   3  G: -3295.0307450320192402  |grad|_K:  6.150e-03  alpha:  6.060e-02  linmin: -1.932e-01  cgtest:  9.000e-01  t[s]:    296.60
LCAOMinimize: 	Wrong curvature in test step, increasing alphaT to 1.817886e-01.
	FillingsUpdate:  mu: -0.171251800  nElectrons: 897.000000
LCAOMinimize: Iter:   4  G: -3302.4248056473920769  |grad|_K:  6.128e-03  alpha: -4.775e-01  linmin: -2.045e-01  cgtest:  8.864e-01  t[s]:    359.96
	FillingsUpdate:  mu: -0.171251800  nElectrons: 897.000000
LCAOMinimize: Iter:   5  G: -3310.7014457550299085  |grad|_K:  6.202e-03  alpha:  6.247e-02  linmin: -1.902e-01  cgtest:  8.472e-01  t[s]:    424.76
LCAOMinimize: 	Predicted alpha/alphaT>3.000000, increasing alphaT to 1.873970e-01.
LCAOMinimize: 	Wrong curvature in test step, increasing alphaT to 5.621910e-01.
	FillingsUpdate:  mu: -0.171251800  nElectrons: 897.000000
LCAOMinimize: Iter:   6  G: -3335.9898304508924411  |grad|_K:  4.004e-03  alpha: -1.893e+00  linmin: -4.592e-01  cgtest:  6.146e-01  t[s]:    504.75
	FillingsUpdate:  mu: -0.171251800  nElectrons: 897.000000
LCAOMinimize: Iter:   7  G: -3338.4896157589014365  |grad|_K:  3.338e-03  alpha:  5.720e-02  linmin: -4.382e-01  cgtest:  9.291e-01  t[s]:    569.50
LCAOMinimize: Encountered beta<0, resetting CG.
LCAOMinimize: 	Predicted alpha/alphaT>3.000000, increasing alphaT to 1.715984e-01.
	FillingsUpdate:  mu: -0.171251800  nElectrons: 897.000000
LCAOMinimize: Iter:   8  G: -3341.3813637723760621  |grad|_K:  2.402e-03  alpha:  2.980e-01  linmin:  4.087e-01  cgtest: -6.649e-01  t[s]:    650.76
LCAOMinimize: 	Bad step direction: g.d > 0.
LCAOMinimize: 	Undoing step.
LCAOMinimize: 	Step failed: resetting search direction.
	FillingsUpdate:  mu: -0.171251800  nElectrons: 897.000000
LCAOMinimize: Iter:   9  G: -3341.3813637723760621  |grad|_K:  2.402e-03  alpha:  0.000e+00
	FillingsUpdate:  mu: -0.171251800  nElectrons: 897.000000
LCAOMinimize: Iter:  10  G: -3342.3570426152691653  |grad|_K:  1.115e-03  alpha:  1.548e-01  linmin:  6.730e-02  cgtest: -2.989e-01  t[s]:    762.99
	FillingsUpdate:  mu: -0.171251800  nElectrons: 897.000000
LCAOMinimize: Iter:  11  G: -3342.4442233960908197  |grad|_K:  4.081e-04  alpha:  6.636e-02  linmin:  5.422e-02  cgtest:  2.493e-01  t[s]:    828.41
	FillingsUpdate:  mu: -0.171251800  nElectrons: 897.000000
LCAOMinimize: Iter:  12  G: -3342.4728303594524732  |grad|_K:  1.666e-04  alpha:  1.236e-01  linmin: -7.290e-02  cgtest:  2.318e-01  t[s]:    892.55
	FillingsUpdate:  mu: -0.171251800  nElectrons: 897.000000
LCAOMinimize: Iter:  13  G: -3342.4788736721702662  |grad|_K:  9.920e-05  alpha:  1.478e-01  linmin: -1.561e-01  cgtest:  3.894e-01  t[s]:    957.10
	FillingsUpdate:  mu: -0.171251800  nElectrons: 897.000000
LCAOMinimize: Iter:  14  G: -3342.4812044549234997  |grad|_K:  9.710e-05  alpha:  1.555e-01  linmin: -1.130e-01  cgtest:  4.015e-01  t[s]:   1021.10
	FillingsUpdate:  mu: -0.171251800  nElectrons: 897.000000
LCAOMinimize: Iter:  15  G: -3342.4835152960022242  |grad|_K:  7.499e-05  alpha:  1.436e-01  linmin: -9.498e-02  cgtest:  2.385e-02  t[s]:   1085.60
	FillingsUpdate:  mu: -0.171251800  nElectrons: 897.000000
LCAOMinimize: Iter:  16  G: -3342.4849320121529672  |grad|_K:  3.665e-05  alpha:  1.345e-01  linmin: -2.446e-01  cgtest:  2.812e-01  t[s]:   1150.84
	FillingsUpdate:  mu: -0.171251800  nElectrons: 897.000000
LCAOMinimize: Iter:  17  G: -3342.4851872889303195  |grad|_K:  3.001e-05  alpha:  1.192e-01  linmin: -2.227e-01  cgtest:  5.786e-01  t[s]:   1216.33
	FillingsUpdate:  mu: -0.171251800  nElectrons: 897.000000
LCAOMinimize: Iter:  18  G: -3342.4852994130264960  |grad|_K:  2.362e-05  alpha:  9.304e-02  linmin: -3.414e-01  cgtest:  7.494e-01  t[s]:   1280.35
	FillingsUpdate:  mu: -0.171251800  nElectrons: 897.000000
LCAOMinimize: Iter:  19  G: -3342.4853478597151479  |grad|_K:  2.103e-05  alpha:  7.595e-02  linmin: -4.225e-01  cgtest:  9.448e-01  t[s]:   1345.17
LCAOMinimize: Encountered beta<0, resetting CG.
	FillingsUpdate:  mu: -0.171251800  nElectrons: 897.000000
LCAOMinimize: Iter:  20  G: -3342.4853716382458515  |grad|_K:  1.964e-05  alpha:  5.711e-02  linmin: -4.525e-01  cgtest:  9.951e-01  t[s]:   1409.80
LCAOMinimize: Encountered beta<0, resetting CG.
	FillingsUpdate:  mu: -0.171251800  nElectrons: 897.000000
LCAOMinimize: Iter:  21  G: -3342.4853859636441484  |grad|_K:  1.874e-05  alpha:  4.188e-02  linmin: -4.546e-01  cgtest:  9.999e-01  t[s]:   1474.33
LCAOMinimize: Encountered beta<0, resetting CG.
	FillingsUpdate:  mu: -0.171251800  nElectrons: 897.000000
LCAOMinimize: Iter:  22  G: -3342.4853946338430433  |grad|_K:  1.814e-05  alpha:  2.983e-02  linmin: -4.546e-01  cgtest:  1.000e+00  t[s]:   1538.74
LCAOMinimize: Encountered beta<0, resetting CG.
	FillingsUpdate:  mu: -0.171251800  nElectrons: 897.000000
LCAOMinimize: Iter:  23  G: -3342.4854000080617880  |grad|_K:  1.772e-05  alpha:  2.082e-02  linmin: -4.545e-01  cgtest:  1.000e+00  t[s]:   1603.98
LCAOMinimize: Encountered beta<0, resetting CG.
	FillingsUpdate:  mu: -0.171251800  nElectrons: 897.000000
LCAOMinimize: Iter:  24  G: -3342.4854034066861459  |grad|_K:  1.745e-05  alpha:  1.434e-02  linmin: -4.545e-01  cgtest:  1.000e+00  t[s]:   1669.03
LCAOMinimize: Encountered beta<0, resetting CG.
	FillingsUpdate:  mu: -0.171251800  nElectrons: 897.000000
LCAOMinimize: Iter:  25  G: -3342.4854055906744179  |grad|_K:  1.726e-05  alpha:  9.781e-03  linmin: -4.545e-01  cgtest:  1.000e+00  t[s]:   1733.31
LCAOMinimize: Encountered beta<0, resetting CG.
	FillingsUpdate:  mu: -0.171251800  nElectrons: 897.000000
LCAOMinimize: Iter:  26  G: -3342.4854070113651687  |grad|_K:  1.714e-05  alpha:  6.631e-03  linmin: -4.545e-01  cgtest:  1.000e+00  t[s]:   1797.20
LCAOMinimize: Encountered beta<0, resetting CG.
	FillingsUpdate:  mu: -0.171251800  nElectrons: 897.000000
LCAOMinimize: Iter:  27  G: -3342.4854079434639971  |grad|_K:  1.705e-05  alpha:  4.476e-03  linmin: -4.545e-01  cgtest:  1.000e+00  t[s]:   1859.74
LCAOMinimize: Encountered beta<0, resetting CG.
	FillingsUpdate:  mu: -0.171251800  nElectrons: 897.000000
LCAOMinimize: Iter:  28  G: -3342.4854085589358874  |grad|_K:  1.700e-05  alpha:  3.013e-03  linmin: -4.544e-01  cgtest:  1.000e+00  t[s]:   1924.38
LCAOMinimize: Encountered beta<0, resetting CG.
LCAOMinimize: Converged (|Delta G|<1.000000e-06 for 2 iters).
----- createFluidSolver() ----- (Fluid-side solver setup)
   Initializing fluid molecule 'H2O'
     Initializing site 'O'
       Electron density: proportional to exp(-r/0.36935)*erfc((r-0.51523)/0.36823) with norm 6.826
       Charge density: gaussian nuclear width 0.478731 with net site charge 0.826
       Polarizability: cuspless exponential with width 0.32 and norm 3.73
       Hard sphere radius: 2.57003 bohrs
       Positions in reference frame:
         [ +0.000000 +0.000000 +0.000000 ]
     Initializing site 'H'
       Electron density: proportional to exp(-r/0.34641)*erfc((r-0)/0.390882) with norm 0.587
       Charge density: gaussian nuclear width 0.377945 with net site charge -0.413
       Polarizability: cuspless exponential with width 0.39 and norm 3.3
       Positions in reference frame:
         [ +0.000000 -1.441945 +1.122523 ]
         [ +0.000000 +1.441945 +1.122523 ]
     Net charge: 0   dipole magnitude: 0.927204
     Initializing spherical shell mfKernel with radius 2.61727 Bohr
     deltaS corrections:
       site 'O': -7.54299
       site 'H': -6.83917
   Initializing fluid molecule 'Na+'
     Initializing site 'Na'
       Electron density: proportional to exp(-r/0.19682)*erfc((r-0.71491)/0.41314) with norm 8.1383
       Charge density: gaussian nuclear width 0.365347 with net site charge -1
       Hard sphere radius: 1.86327 bohrs
       Positions in reference frame:
         [ +0.000000 +0.000000 +0.000000 ]
     Net charge: -1   dipole magnitude: 0
     Initializing gaussian mfKernel with width: 1.55004 Bohr
     deltaS corrections:
       site 'Na': -22.3555
   Initializing fluid molecule 'F-'
     Initializing site 'F'
       Electron density: proportional to exp(-r/0.38886)*erfc((r-0)/0.438782) with norm 8
       Charge density: gaussian nuclear width 0.374796 with net site charge 1
       Hard sphere radius: 2.39995 bohrs
       Positions in reference frame:
         [ +0.000000 +0.000000 +0.000000 ]
     Net charge: 1   dipole magnitude: 0
     Initializing gaussian mfKernel with width: 1.59012 Bohr
     deltaS corrections:
       site 'F': -9.04335

Correction to mu due to finite nuclear width = -0.0239727
   Cavity determined by nc: 0.00142 and sigma: 0.707107
   Nonlocal vdW cavity from gaussian model electron density with norm = 8 and sigma = 0.993594 bohr
   Charge asymmetry in cavity with sensitivity pCavity = 36.5 e-bohr/Eh
   Electrostatic cavity expanded by eta = 1.46 bohrs
   Weighted density cavitation model constrained by Nbulk: 0.0049383 bohr^-3, Pvap: 3.14029 kPa, Rvdw: 2.61727 bohr and sigmaBulk: 4.62e-05 Eh/bohr^2 at T: 298 K.
   Weighted density dispersion model using vdW pair potentials with single solvent site with sqrtC6eff: 0.77 SI.


---- Citations for features of the code used in this run ----

   Software package:
      R. Sundararaman, K. Letchworth-Weaver, K.A. Schwarz, D. Gunceler, Y. Ozhabes and T.A. Arias, 'JDFTx: software for joint density-functional theory', SoftwareX 6, 278 (2017)

   gga-PBE exchange-correlation functional:
      J.P. Perdew, K. Burke and M. Ernzerhof, Phys. Rev. Lett. 77, 3865 (1996)

   Pseudopotentials:
      KF Garrity, JW Bennett, KM Rabe and D Vanderbilt, Comput. Mater. Sci. 81, 446 (2014)

   Truncated Coulomb potentials:
      R. Sundararaman and T.A. Arias, Phys. Rev. B 87, 165122 (2013)

   Van der Waals correction pair-potentials:
      S. Grimme, J. Comput. Chem. 27, 1787 (2006)

   Charge-asymmetric nonlocally-determined local-electric (CANDLE) solvation model:
      R. Sundararaman and W.A. Goddard III, J. Chem. Phys. 142, 064107 (2015)

   Total energy minimization with Auxiliary Hamiltonian:
      C. Freysoldt, S. Boeck, and J. Neugebauer, Phys. Rev. B 79, 241103(R) (2009)

   Grand-canonical (fixed-potential) DFT:
      R. Sundararaman, W. A. Goddard III and T. A. Arias, J. Chem. Phys. 146, 114104 (2017)

This list may not be complete. Please suggest additional citations or
report any other bugs at https://github.com/shankar1729/jdftx/issues

Initialization completed successfully at t[s]:   1940.94

Fluid solver invoked on fresh (partially random / LCAO) wavefunctions
Running a vacuum solve first:

-------- Initial electronic minimization -----------
	FillingsUpdate:  mu: -0.017609876  nElectrons: 897.000000
ElecMinimize: Iter:   0  G: -3342.515594081134623  |grad|_K:  1.877e-04  alpha:  1.000e+00
	FillingsUpdate:  mu: -0.055873540  nElectrons: 897.000000
	SubspaceRotationAdjust: set factor to 1
ElecMinimize: Iter:   1  G: -3346.550863257836681  |grad|_K:  9.573e-05  alpha:  3.932e-01  linmin:  6.111e-05  t[s]:   2115.44
	FillingsUpdate:  mu: -0.114214780  nElectrons: 897.000000
	SubspaceRotationAdjust: set factor to 0.677
ElecMinimize: Iter:   2  G: -3347.654500526810807  |grad|_K:  7.196e-05  alpha:  4.133e-01  linmin:  1.132e-05  t[s]:   2223.29
	FillingsUpdate:  mu: -0.046481388  nElectrons: 897.000000
	SubspaceRotationAdjust: set factor to 0.494
ElecMinimize: Iter:   3  G: -3347.958894246432919  |grad|_K:  4.773e-05  alpha:  2.098e-01  linmin:  5.997e-05  t[s]:   2331.38
	FillingsUpdate:  mu: -0.063091506  nElectrons: 897.000000
	SubspaceRotationAdjust: set factor to 0.44
ElecMinimize: Iter:   4  G: -3348.126969764242858  |grad|_K:  2.277e-05  alpha:  2.549e-01  linmin: -9.852e-05  t[s]:   2439.44
	FillingsUpdate:  mu: -0.085264288  nElectrons: 897.000000
	SubspaceRotationAdjust: set factor to 0.333
ElecMinimize: Iter:   5  G: -3348.202431378180790  |grad|_K:  1.603e-05  alpha:  4.874e-01  linmin:  1.143e-04  t[s]:   2547.43
	FillingsUpdate:  mu: -0.070987176  nElectrons: 897.000000
	SubspaceRotationAdjust: set factor to 0.293
ElecMinimize: Iter:   6  G: -3348.224046543200984  |grad|_K:  9.267e-06  alpha:  2.868e-01  linmin: -2.042e-05  t[s]:   2655.88
	FillingsUpdate:  mu: -0.067141126  nElectrons: 897.000000
	SubspaceRotationAdjust: set factor to 0.271
ElecMinimize: Iter:   7  G: -3348.232913483766424  |grad|_K:  5.987e-06  alpha:  3.508e-01  linmin:  5.313e-05  t[s]:   2764.61
	FillingsUpdate:  mu: -0.071272387  nElectrons: 897.000000
	SubspaceRotationAdjust: set factor to 0.264
ElecMinimize: Iter:   8  G: -3348.236706673606022  |grad|_K:  3.762e-06  alpha:  3.624e-01  linmin:  1.289e-05  t[s]:   2872.53
	FillingsUpdate:  mu: -0.072788092  nElectrons: 897.000000
	SubspaceRotationAdjust: set factor to 0.322
ElecMinimize: Iter:   9  G: -3348.238248529002703  |grad|_K:  2.344e-06  alpha:  3.719e-01  linmin:  1.377e-06  t[s]:   2980.62
	FillingsUpdate:  mu: -0.071449992  nElectrons: 897.000000
	SubspaceRotationAdjust: set factor to 0.324
ElecMinimize: Iter:  10  G: -3348.239033933178689  |grad|_K:  2.024e-06  alpha:  4.871e-01  linmin:  2.232e-06  t[s]:   3088.72
	FillingsUpdate:  mu: -0.071105911  nElectrons: 897.000000
	SubspaceRotationAdjust: set factor to 0.307
ElecMinimize: Iter:  11  G: -3348.239422651538007  |grad|_K:  1.336e-06  alpha:  3.232e-01  linmin: -5.103e-08  t[s]:   3196.26
	FillingsUpdate:  mu: -0.071651483  nElectrons: 897.000000
	SubspaceRotationAdjust: set factor to 0.333
ElecMinimize: Iter:  12  G: -3348.239625999217424  |grad|_K:  9.580e-07  alpha:  3.883e-01  linmin:  4.715e-07  t[s]:   3304.08
	FillingsUpdate:  mu: -0.071709549  nElectrons: 897.000000
	SubspaceRotationAdjust: set factor to 0.381
ElecMinimize: Iter:  13  G: -3348.239738920771288  |grad|_K:  6.776e-07  alpha:  4.193e-01  linmin:  3.622e-07  t[s]:   3412.27
	FillingsUpdate:  mu: -0.071658149  nElectrons: 897.000000
	SubspaceRotationAdjust: set factor to 0.389
ElecMinimize: Iter:  14  G: -3348.239799600003607  |grad|_K:  5.409e-07  alpha:  4.505e-01  linmin:  9.834e-07  t[s]:   3519.75
	FillingsUpdate:  mu: -0.071751849  nElectrons: 897.000000
	SubspaceRotationAdjust: set factor to 0.294
ElecMinimize: Iter:  15  G: -3348.239823000191791  |grad|_K:  3.804e-07  alpha:  2.726e-01  linmin: -1.202e-07  t[s]:   3627.22
	FillingsUpdate:  mu: -0.071788182  nElectrons: 897.000000
	SubspaceRotationAdjust: set factor to 0.278
ElecMinimize: Iter:  16  G: -3348.239836251095767  |grad|_K:  2.272e-07  alpha:  3.119e-01  linmin:  2.629e-07  t[s]:   3734.57
	FillingsUpdate:  mu: -0.071745190  nElectrons: 897.000000
	SubspaceRotationAdjust: set factor to 0.289
ElecMinimize: Iter:  17  G: -3348.239841591946515  |grad|_K:  1.322e-07  alpha:  3.528e-01  linmin:  6.904e-08  t[s]:   3843.07
	FillingsUpdate:  mu: -0.071757033  nElectrons: 897.000000
	SubspaceRotationAdjust: set factor to 0.281
ElecMinimize: Iter:  18  G: -3348.239843721654779  |grad|_K:  1.017e-07  alpha:  4.150e-01  linmin: -1.247e-08  t[s]:   3952.43
	FillingsUpdate:  mu: -0.071778495  nElectrons: 897.000000
	SubspaceRotationAdjust: set factor to 0.248
ElecMinimize: Iter:  19  G: -3348.239844681617797  |grad|_K:  6.214e-08  alpha:  3.164e-01  linmin: -8.901e-09  t[s]:   4061.20
	FillingsUpdate:  mu: -0.071775437  nElectrons: 897.000000
	SubspaceRotationAdjust: set factor to 0.303
ElecMinimize: Iter:  20  G: -3348.239845174749462  |grad|_K:  4.614e-08  alpha:  4.349e-01  linmin:  2.907e-09  t[s]:   4169.22
	FillingsUpdate:  mu: -0.071763196  nElectrons: 897.000000
	SubspaceRotationAdjust: set factor to 0.336
ElecMinimize: Iter:  21  G: -3348.239845434767631  |grad|_K:  3.351e-08  alpha:  4.160e-01  linmin:  2.673e-08  t[s]:   4277.22
	FillingsUpdate:  mu: -0.071764008  nElectrons: 897.000000
	SubspaceRotationAdjust: set factor to 0.328
ElecMinimize: Iter:  22  G: -3348.239845557709486  |grad|_K:  2.740e-08  alpha:  3.727e-01  linmin: -1.401e-09  t[s]:   4384.71
	FillingsUpdate:  mu: -0.071765506  nElectrons: 897.000000
	SubspaceRotationAdjust: set factor to 0.343
ElecMinimize: Iter:  23  G: -3348.239845644154229  |grad|_K:  1.947e-08  alpha:  3.918e-01  linmin: -8.965e-09  t[s]:   4492.50
	FillingsUpdate:  mu: -0.071756697  nElectrons: 897.000000
	SubspaceRotationAdjust: set factor to 0.38
ElecMinimize: Iter:  24  G: -3348.239845691480241  |grad|_K:  1.439e-08  alpha:  4.253e-01  linmin:  2.182e-08  t[s]:   4600.19
	FillingsUpdate:  mu: -0.071755561  nElectrons: 897.000000
	SubspaceRotationAdjust: set factor to 0.425
ElecMinimize: Iter:  25  G: -3348.239845716940636  |grad|_K:  9.484e-09  alpha:  4.186e-01  linmin: -5.827e-09  t[s]:   4708.03
	FillingsUpdate:  mu: -0.071759075  nElectrons: 897.000000
	SubspaceRotationAdjust: set factor to 0.348
ElecMinimize: Iter:  26  G: -3348.239845725473060  |grad|_K:  7.883e-09  alpha:  3.239e-01  linmin: -2.446e-09  t[s]:   4816.82
	FillingsUpdate:  mu: -0.071759044  nElectrons: 897.000000
	SubspaceRotationAdjust: set factor to 0.276
ElecMinimize: Iter:  27  G: -3348.239845730930028  |grad|_K:  5.347e-09  alpha:  2.959e-01  linmin: -8.495e-08  t[s]:   4924.79
ElecMinimize: Converged (|Delta G|<1.000000e-08 for 2 iters).
Setting wave functions to eigenvectors of Hamiltonian
Vacuum energy after initial minimize, F = -3348.239845730930028

Shifting auxilliary hamiltonian by -0.099493 to set nElectrons=897.000000
	Linear fluid (dielectric constant: 78.4, screening length: 5.74355 Bohr) occupying 0.725208 of unit cell:	Completed after 25 iterations at t[s]:   4947.41

-------- Electronic minimization -----------
	Linear fluid (dielectric constant: 78.4, screening length: 5.74355 Bohr) occupying 0.725208 of unit cell:	Completed after 0 iterations at t[s]:   4970.94
	FillingsUpdate:  mu: -0.171251800  nElectrons: 897.000000
ElecMinimize: Iter:   0  G: -3348.243049586665165  |grad|_K:  1.827e-05  alpha:  1.000e+00
	Linear fluid (dielectric constant: 78.4, screening length: 5.74355 Bohr) occupying 0.760512 of unit cell:	Completed after 35 iterations at t[s]:   5064.02
	Linear fluid (dielectric constant: 78.4, screening length: 5.74355 Bohr) occupying 0.726653 of unit cell:	Completed after 27 iterations at t[s]:   5107.27
	FillingsUpdate:  mu: -0.171251800  nElectrons: 897.611515
	SubspaceRotationAdjust: set factor to 0.205
ElecMinimize: Iter:   1  G: -3348.257061057720875  |grad|_K:  8.063e-06  alpha:  1.315e-01  linmin: -2.243e-03  t[s]:   5157.52
	Linear fluid (dielectric constant: 78.4, screening length: 5.74355 Bohr) occupying 0.727585 of unit cell:	Completed after 16 iterations at t[s]:   5196.67
ElecMinimize: 	Predicted alpha/alphaT>3.000000, increasing alphaT to 3.946142e-01.
	Linear fluid (dielectric constant: 78.4, screening length: 5.74355 Bohr) occupying 0.730156 of unit cell:	Completed after 17 iterations at t[s]:   5233.20
	Linear fluid (dielectric constant: 78.4, screening length: 5.74355 Bohr) occupying 0.733741 of unit cell:	Completed after 20 iterations at t[s]:   5270.99
	FillingsUpdate:  mu: -0.171251800  nElectrons: 898.499495
	SubspaceRotationAdjust: set factor to 0.238
ElecMinimize: Iter:   2  G: -3348.271571712902187  |grad|_K:  6.310e-06  alpha:  6.751e-01  linmin: -7.133e-04  t[s]:   5320.32
	Linear fluid (dielectric constant: 78.4, screening length: 5.74355 Bohr) occupying 0.735235 of unit cell:	Completed after 17 iterations at t[s]:   5358.78
	Linear fluid (dielectric constant: 78.4, screening length: 5.74355 Bohr) occupying 0.734642 of unit cell:	Completed after 15 iterations at t[s]:   5396.71
	FillingsUpdate:  mu: -0.171251800  nElectrons: 898.605865
	SubspaceRotationAdjust: set factor to 0.177
ElecMinimize: Iter:   3  G: -3348.276695515637584  |grad|_K:  6.331e-06  alpha:  4.092e-01  linmin: -9.493e-07  t[s]:   5445.14
	Linear fluid (dielectric constant: 78.4, screening length: 5.74355 Bohr) occupying 0.739589 of unit cell:	Completed after 22 iterations at t[s]:   5484.71
	Linear fluid (dielectric constant: 78.4, screening length: 5.74355 Bohr) occupying 0.739014 of unit cell:	Completed after 14 iterations at t[s]:   5523.20
	FillingsUpdate:  mu: -0.171251800  nElectrons: 899.041039
	SubspaceRotationAdjust: set factor to 0.165
ElecMinimize: Iter:   4  G: -3348.280971080844211  |grad|_K:  4.040e-06  alpha:  3.616e-01  linmin:  7.582e-05  t[s]:   5571.68
	Linear fluid (dielectric constant: 78.4, screening length: 5.74355 Bohr) occupying 0.740360 of unit cell:	Completed after 17 iterations at t[s]:   5610.86
	Linear fluid (dielectric constant: 78.4, screening length: 5.74355 Bohr) occupying 0.740806 of unit cell:	Completed after 14 iterations at t[s]:   5648.08
	FillingsUpdate:  mu: -0.171251800  nElectrons: 899.239175
	SubspaceRotationAdjust: set factor to 0.161
ElecMinimize: Iter:   5  G: -3348.283254233422213  |grad|_K:  3.168e-06  alpha:  4.832e-01  linmin:  4.958e-05  t[s]:   5696.18
	Linear fluid (dielectric constant: 78.4, screening length: 5.74355 Bohr) occupying 0.740120 of unit cell:	Completed after 18 iterations at t[s]:   5735.98
	Linear fluid (dielectric constant: 78.4, screening length: 5.74355 Bohr) occupying 0.740211 of unit cell:	Completed after 13 iterations at t[s]:   5773.19
	FillingsUpdate:  mu: -0.171251800  nElectrons: 899.204538
	SubspaceRotationAdjust: set factor to 0.131
ElecMinimize: Iter:   6  G: -3348.284482892451251  |grad|_K:  2.697e-06  alpha:  4.198e-01  linmin: -4.825e-06  t[s]:   5821.19
	Linear fluid (dielectric constant: 78.4, screening length: 5.74355 Bohr) occupying 0.740742 of unit cell:	Completed after 17 iterations at t[s]:   5860.01
	Linear fluid (dielectric constant: 78.4, screening length: 5.74355 Bohr) occupying 0.740750 of unit cell:	Completed after 0 iterations at t[s]:   5894.82
	FillingsUpdate:  mu: -0.171251800  nElectrons: 899.274020
	SubspaceRotationAdjust: set factor to 0.171
ElecMinimize: Iter:   7  G: -3348.285395318555857  |grad|_K:  1.860e-06  alpha:  4.267e-01  linmin: -1.715e-05  t[s]:   5939.86
	Linear fluid (dielectric constant: 78.4, screening length: 5.74355 Bohr) occupying 0.741135 of unit cell:	Completed after 14 iterations at t[s]:   5978.02
	Linear fluid (dielectric constant: 78.4, screening length: 5.74355 Bohr) occupying 0.741240 of unit cell:	Completed after 12 iterations at t[s]:   6013.96
	FillingsUpdate:  mu: -0.171251800  nElectrons: 899.331304
	SubspaceRotationAdjust: set factor to 0.169
ElecMinimize: Iter:   8  G: -3348.285951136735548  |grad|_K:  1.679e-06  alpha:  5.452e-01  linmin:  4.409e-07  t[s]:   6061.74
	Linear fluid (dielectric constant: 78.4, screening length: 5.74355 Bohr) occupying 0.740436 of unit cell:	Completed after 17 iterations at t[s]:   6100.44
	Linear fluid (dielectric constant: 78.4, screening length: 5.74355 Bohr) occupying 0.740729 of unit cell:	Completed after 14 iterations at t[s]:   6137.30
	FillingsUpdate:  mu: -0.171251800  nElectrons: 899.287644
	SubspaceRotationAdjust: set factor to 0.142
ElecMinimize: Iter:   9  G: -3348.286239076316633  |grad|_K:  1.292e-06  alpha:  3.486e-01  linmin: -4.768e-07  t[s]:   6185.41
	Linear fluid (dielectric constant: 78.4, screening length: 5.74355 Bohr) occupying 0.740727 of unit cell:	Completed after 3 iterations at t[s]:   6222.05
	Linear fluid (dielectric constant: 78.4, screening length: 5.74355 Bohr) occupying 0.740726 of unit cell:	Completed after 2 iterations at t[s]:   6254.77
	FillingsUpdate:  mu: -0.171251800  nElectrons: 899.292084
	SubspaceRotationAdjust: set factor to 0.194
ElecMinimize: Iter:  10  G: -3348.286508066535134  |grad|_K:  9.001e-07  alpha:  5.483e-01  linmin: -1.541e-06  t[s]:   6300.41
	Linear fluid (dielectric constant: 78.4, screening length: 5.74355 Bohr) occupying 0.741107 of unit cell:	Completed after 14 iterations at t[s]:   6338.69
	Linear fluid (dielectric constant: 78.4, screening length: 5.74355 Bohr) occupying 0.741029 of unit cell:	Completed after 11 iterations at t[s]:   6374.96
	FillingsUpdate:  mu: -0.171251800  nElectrons: 899.323265
	SubspaceRotationAdjust: set factor to 0.173
ElecMinimize: Iter:  11  G: -3348.286611693169107  |grad|_K:  8.065e-07  alpha:  4.347e-01  linmin:  7.650e-06  t[s]:   6422.25
	Linear fluid (dielectric constant: 78.4, screening length: 5.74355 Bohr) occupying 0.740825 of unit cell:	Completed after 14 iterations at t[s]:   6460.94
	Linear fluid (dielectric constant: 78.4, screening length: 5.74355 Bohr) occupying 0.740843 of unit cell:	Completed after 2 iterations at t[s]:   6495.07
	FillingsUpdate:  mu: -0.171251800  nElectrons: 899.308228
	SubspaceRotationAdjust: set factor to 0.142
ElecMinimize: Iter:  12  G: -3348.286686940071831  |grad|_K:  5.004e-07  alpha:  3.951e-01  linmin:  1.301e-05  t[s]:   6540.95
	Linear fluid (dielectric constant: 78.4, screening length: 5.74355 Bohr) occupying 0.740873 of unit cell:	Completed after 3 iterations at t[s]:   6577.63
	Linear fluid (dielectric constant: 78.4, screening length: 5.74355 Bohr) occupying 0.740880 of unit cell:	Completed after 3 iterations at t[s]:   6610.08
	FillingsUpdate:  mu: -0.171251800  nElectrons: 899.313681
	SubspaceRotationAdjust: set factor to 0.16
ElecMinimize: Iter:  13  G: -3348.286722636261402  |grad|_K:  3.458e-07  alpha:  4.899e-01  linmin:  3.530e-07  t[s]:   6655.77
	Linear fluid (dielectric constant: 78.4, screening length: 5.74355 Bohr) occupying 0.740935 of unit cell:	Completed after 9 iterations at t[s]:   6693.61
	Linear fluid (dielectric constant: 78.4, screening length: 5.74355 Bohr) occupying 0.740928 of unit cell:	Completed after 0 iterations at t[s]:   6726.78
	FillingsUpdate:  mu: -0.171251800  nElectrons: 899.319463
	SubspaceRotationAdjust: set factor to 0.154
ElecMinimize: Iter:  14  G: -3348.286737639486546  |grad|_K:  2.237e-07  alpha:  4.270e-01  linmin:  1.591e-05  t[s]:   6772.18
	Linear fluid (dielectric constant: 78.4, screening length: 5.74355 Bohr) occupying 0.740867 of unit cell:	Completed after 9 iterations at t[s]:   6809.77
	Linear fluid (dielectric constant: 78.4, screening length: 5.74355 Bohr) occupying 0.740874 of unit cell:	Completed after 1 iterations at t[s]:   6843.36
	FillingsUpdate:  mu: -0.171251800  nElectrons: 899.315065
	SubspaceRotationAdjust: set factor to 0.116
ElecMinimize: Iter:  15  G: -3348.286742963255165  |grad|_K:  1.608e-07  alpha:  3.726e-01  linmin: -2.273e-06  t[s]:   6889.11
	Linear fluid (dielectric constant: 78.4, screening length: 5.74355 Bohr) occupying 0.740908 of unit cell:	Completed after 5 iterations at t[s]:   6926.16
	Linear fluid (dielectric constant: 78.4, screening length: 5.74355 Bohr) occupying 0.740905 of unit cell:	Completed after 0 iterations at t[s]:   6959.15
	FillingsUpdate:  mu: -0.171251800  nElectrons: 899.318451
	SubspaceRotationAdjust: set factor to 0.115
ElecMinimize: Iter:  16  G: -3348.286745522711499  |grad|_K:  8.626e-08  alpha:  3.382e-01  linmin: -5.308e-06  t[s]:   7004.59
	Linear fluid (dielectric constant: 78.4, screening length: 5.74355 Bohr) occupying 0.740911 of unit cell:	Completed after 1 iterations at t[s]:   7041.27
	Linear fluid (dielectric constant: 78.4, screening length: 5.74355 Bohr) occupying 0.740913 of unit cell:	Completed after 0 iterations at t[s]:   7073.18
	FillingsUpdate:  mu: -0.171251800  nElectrons: 899.319483
	SubspaceRotationAdjust: set factor to 0.137
ElecMinimize: Iter:  17  G: -3348.286746576774021  |grad|_K:  4.895e-08  alpha:  4.726e-01  linmin: -2.520e-05  t[s]:   7118.48
	Linear fluid (dielectric constant: 78.4, screening length: 5.74355 Bohr) occupying 0.740910 of unit cell:	Completed after 0 iterations at t[s]:   7154.78
	Linear fluid (dielectric constant: 78.4, screening length: 5.74355 Bohr) occupying 0.740909 of unit cell:	Completed after 0 iterations at t[s]:   7186.17
	FillingsUpdate:  mu: -0.171251800  nElectrons: 899.319233
	SubspaceRotationAdjust: set factor to 0.178
ElecMinimize: Iter:  18  G: -3348.286747043943706  |grad|_K:  3.769e-08  alpha:  6.218e-01  linmin: -7.696e-06  t[s]:   7231.45
	Linear fluid (dielectric constant: 78.4, screening length: 5.74355 Bohr) occupying 0.740895 of unit cell:	Completed after 2 iterations at t[s]:   7268.08
	Linear fluid (dielectric constant: 78.4, screening length: 5.74355 Bohr) occupying 0.740900 of unit cell:	Completed after 0 iterations at t[s]:   7299.76
	FillingsUpdate:  mu: -0.171251800  nElectrons: 899.318500
	SubspaceRotationAdjust: set factor to 0.19
ElecMinimize: Iter:  19  G: -3348.286747187290530  |grad|_K:  3.836e-08  alpha:  3.948e-01  linmin: -2.376e-06  t[s]:   7345.18
	Linear fluid (dielectric constant: 78.4, screening length: 5.74355 Bohr) occupying 0.740902 of unit cell:	Completed after 0 iterations at t[s]:   7381.19
	Linear fluid (dielectric constant: 78.4, screening length: 5.74355 Bohr) occupying 0.740902 of unit cell:	Completed after 0 iterations at t[s]:   7412.33
	FillingsUpdate:  mu: -0.171251800  nElectrons: 899.318808
	SubspaceRotationAdjust: set factor to 0.239
ElecMinimize: Iter:  20  G: -3348.286747413652392  |grad|_K:  4.443e-08  alpha:  5.132e-01  linmin:  3.426e-08  t[s]:   7457.90
	Linear fluid (dielectric constant: 78.4, screening length: 5.74355 Bohr) occupying 0.740920 of unit cell:	Completed after 4 iterations at t[s]:   7494.96
	Linear fluid (dielectric constant: 78.4, screening length: 5.74355 Bohr) occupying 0.740907 of unit cell:	Completed after 2 iterations at t[s]:   7527.51
ElecMinimize: 	Step increased G by 5.672655e-08, reducing alpha to 1.321658e-02.
	Linear fluid (dielectric constant: 78.4, screening length: 5.74355 Bohr) occupying 0.740903 of unit cell:	Completed after 1 iterations at t[s]:   7600.83
ElecMinimize: 	Step increased G by 5.480706e-08, reducing alpha to 1.321658e-03.
	Linear fluid (dielectric constant: 78.4, screening length: 5.74355 Bohr) occupying 0.740902 of unit cell:	Completed after 0 iterations at t[s]:   7673.75
ElecMinimize: 	Step increased G by 5.516858e-08, reducing alpha to 1.321658e-04.
ElecMinimize: 	Step failed to reduce G after 3 attempts. Quitting step.
ElecMinimize: 	Undoing step.
	Linear fluid (dielectric constant: 78.4, screening length: 5.74355 Bohr) occupying 0.740902 of unit cell:	Completed after 0 iterations at t[s]:   7746.64
ElecMinimize: 	Step failed: resetting search direction.
	FillingsUpdate:  mu: -0.171251800  nElectrons: 899.318812
	SubspaceRotationAdjust: set factor to 0.213
ElecMinimize: Iter:  21  G: -3348.286747358427419  |grad|_K:  5.421e-08  alpha:  1.322e-04
	Linear fluid (dielectric constant: 78.4, screening length: 5.74355 Bohr) occupying 0.740862 of unit cell:	Completed after 5 iterations at t[s]:   7829.37
	Linear fluid (dielectric constant: 78.4, screening length: 5.74355 Bohr) occupying 0.740889 of unit cell:	Completed after 3 iterations at t[s]:   7862.26
	FillingsUpdate:  mu: -0.171251800  nElectrons: 899.317525
	SubspaceRotationAdjust: set factor to 0.136
ElecMinimize: Iter:  22  G: -3348.286747433003711  |grad|_K:  4.667e-08  alpha:  1.720e-01  linmin:  8.550e-05  t[s]:   7907.78
	Linear fluid (dielectric constant: 78.4, screening length: 5.74355 Bohr) occupying 0.740891 of unit cell:	Completed after 0 iterations at t[s]:   7943.99
	Linear fluid (dielectric constant: 78.4, screening length: 5.74355 Bohr) occupying 0.740893 of unit cell:	Completed after 0 iterations at t[s]:   7975.89
	FillingsUpdate:  mu: -0.171251800  nElectrons: 899.317910
	SubspaceRotationAdjust: set factor to 0.155
ElecMinimize: Iter:  23  G: -3348.286747578750237  |grad|_K:  4.843e-08  alpha:  3.022e-01  linmin:  7.412e-09  t[s]:   8021.41
	Linear fluid (dielectric constant: 78.4, screening length: 5.74355 Bohr) occupying 0.740911 of unit cell:	Completed after 3 iterations at t[s]:   8058.19
	Linear fluid (dielectric constant: 78.4, screening length: 5.74355 Bohr) occupying 0.740898 of unit cell:	Completed after 2 iterations at t[s]:   8091.43
ElecMinimize: 	Step increased G by 5.689935e-08, reducing alpha to 9.248811e-03.
	Linear fluid (dielectric constant: 78.4, screening length: 5.74355 Bohr) occupying 0.740893 of unit cell:	Completed after 0 iterations at t[s]:   8165.48
ElecMinimize: 	Step increased G by 2.139541e-08, reducing alpha to 9.248811e-04.
	Linear fluid (dielectric constant: 78.4, screening length: 5.74355 Bohr) occupying 0.740893 of unit cell:	Completed after 0 iterations at t[s]:   8238.23
ElecMinimize: 	Step increased G by 1.739409e-08, reducing alpha to 9.248811e-05.
ElecMinimize: 	Step failed to reduce G after 3 attempts. Quitting step.
ElecMinimize: 	Undoing step.
	Linear fluid (dielectric constant: 78.4, screening length: 5.74355 Bohr) occupying 0.740893 of unit cell:	Completed after 0 iterations at t[s]:   8310.38
ElecMinimize: 	Step failed: resetting search direction.
	FillingsUpdate:  mu: -0.171251800  nElectrons: 899.317915
	SubspaceRotationAdjust: set factor to 0.116
ElecMinimize: Iter:  24  G: -3348.286747561296124  |grad|_K:  4.476e-08  alpha:  9.249e-05
	Linear fluid (dielectric constant: 78.4, screening length: 5.74355 Bohr) occupying 0.740880 of unit cell:	Completed after 2 iterations at t[s]:   8391.92
	Linear fluid (dielectric constant: 78.4, screening length: 5.74355 Bohr) occupying 0.740887 of unit cell:	Completed after 0 iterations at t[s]:   8423.62
	FillingsUpdate:  mu: -0.171251800  nElectrons: 899.317396
	SubspaceRotationAdjust: set factor to 0.0707
ElecMinimize: Iter:  25  G: -3348.286747583358647  |grad|_K:  3.299e-08  alpha:  1.345e-01  linmin:  5.949e-05  t[s]:   8469.66
	Linear fluid (dielectric constant: 78.4, screening length: 5.74355 Bohr) occupying 0.740890 of unit cell:	Completed after 0 iterations at t[s]:   8506.03
	Linear fluid (dielectric constant: 78.4, screening length: 5.74355 Bohr) occupying 0.740890 of unit cell:	Completed after 0 iterations at t[s]:   8537.45
	FillingsUpdate:  mu: -0.171251800  nElectrons: 899.317631
	SubspaceRotationAdjust: set factor to 0.0503
ElecMinimize: Iter:  26  G: -3348.286747615984950  |grad|_K:  2.343e-08  alpha:  1.256e-01  linmin: -1.126e-04  t[s]:   8582.99
	Linear fluid (dielectric constant: 78.4, screening length: 5.74355 Bohr) occupying 0.740894 of unit cell:	Completed after 0 iterations at t[s]:   8619.14
	Linear fluid (dielectric constant: 78.4, screening length: 5.74355 Bohr) occupying 0.740896 of unit cell:	Completed after 2 iterations at t[s]:   8651.16
ElecMinimize: 	Step increased G by 1.213220e-08, reducing alpha to 1.991176e-02.
	Linear fluid (dielectric constant: 78.4, screening length: 5.74355 Bohr) occupying 0.740890 of unit cell:	Completed after 0 iterations at t[s]:   8724.59
ElecMinimize: 	Step increased G by 1.501940e-08, reducing alpha to 1.991176e-03.
	Linear fluid (dielectric constant: 78.4, screening length: 5.74355 Bohr) occupying 0.740890 of unit cell:	Completed after 0 iterations at t[s]:   8797.32
ElecMinimize: 	Step increased G by 1.620947e-08, reducing alpha to 1.991176e-04.
ElecMinimize: 	Step failed to reduce G after 3 attempts. Quitting step.
ElecMinimize: 	Undoing step.
	Linear fluid (dielectric constant: 78.4, screening length: 5.74355 Bohr) occupying 0.740890 of unit cell:	Completed after 0 iterations at t[s]:   8870.62
ElecMinimize: 	Step failed: resetting search direction.
	FillingsUpdate:  mu: -0.171251800  nElectrons: 899.317637
	SubspaceRotationAdjust: set factor to 0.0601
ElecMinimize: Iter:  27  G: -3348.286747599854607  |grad|_K:  1.036e-08  alpha:  1.991e-04
	Linear fluid (dielectric constant: 78.4, screening length: 5.74355 Bohr) occupying 0.740889 of unit cell:	Completed after 0 iterations at t[s]:   8951.37
ElecMinimize: 	Predicted alpha/alphaT>3.000000, increasing alphaT to 3.766581e-01.
	Linear fluid (dielectric constant: 78.4, screening length: 5.74355 Bohr) occupying 0.740889 of unit cell:	Completed after 0 iterations at t[s]:   8982.01
	Linear fluid (dielectric constant: 78.4, screening length: 5.74355 Bohr) occupying 0.740888 of unit cell:	Completed after 0 iterations at t[s]:   9013.11
	FillingsUpdate:  mu: -0.171251800  nElectrons: 899.317499
	SubspaceRotationAdjust: set factor to 0.0742
ElecMinimize: Iter:  28  G: -3348.286747619250036  |grad|_K:  1.274e-08  alpha:  6.257e-01  linmin:  1.712e-06  t[s]:   9058.59
	Linear fluid (dielectric constant: 78.4, screening length: 5.74355 Bohr) occupying 0.740884 of unit cell:	Completed after 0 iterations at t[s]:   9094.82
	Linear fluid (dielectric constant: 78.4, screening length: 5.74355 Bohr) occupying 0.740881 of unit cell:	Completed after 0 iterations at t[s]:   9126.24
	FillingsUpdate:  mu: -0.171251800  nElectrons: 899.316822
	SubspaceRotationAdjust: set factor to 0.0937
ElecMinimize: Iter:  29  G: -3348.286747669187207  |grad|_K:  1.305e-08  alpha:  1.063e+00  linmin: -9.057e-08  t[s]:   9171.56
	Linear fluid (dielectric constant: 78.4, screening length: 5.74355 Bohr) occupying 0.740866 of unit cell:	Completed after 1 iterations at t[s]:   9208.52
	Linear fluid (dielectric constant: 78.4, screening length: 5.74355 Bohr) occupying 0.740877 of unit cell:	Completed after 0 iterations at t[s]:   9240.14
ElecMinimize: 	Step increased G by 5.649463e-08, reducing alpha to 2.752086e-02.
	Linear fluid (dielectric constant: 78.4, screening length: 5.74355 Bohr) occupying 0.740880 of unit cell:	Completed after 0 iterations at t[s]:   9312.85
ElecMinimize: 	Step increased G by 5.010588e-08, reducing alpha to 2.752086e-03.
	Linear fluid (dielectric constant: 78.4, screening length: 5.74355 Bohr) occupying 0.740881 of unit cell:	Completed after 0 iterations at t[s]:   9385.51
ElecMinimize: 	Step increased G by 4.965568e-08, reducing alpha to 2.752086e-04.
ElecMinimize: 	Step failed to reduce G after 3 attempts. Quitting step.
ElecMinimize: 	Undoing step.
	Linear fluid (dielectric constant: 78.4, screening length: 5.74355 Bohr) occupying 0.740881 of unit cell:	Completed after 0 iterations at t[s]:   9457.93
ElecMinimize: 	Step failed: resetting search direction.
	FillingsUpdate:  mu: -0.171251800  nElectrons: 899.316819
	SubspaceRotationAdjust: set factor to 0.0883
ElecMinimize: Iter:  30  G: -3348.286747619546531  |grad|_K:  2.544e-08  alpha:  2.752e-04
	Linear fluid (dielectric constant: 78.4, screening length: 5.74355 Bohr) occupying 0.740910 of unit cell:	Completed after 3 iterations at t[s]:   9539.75
	Linear fluid (dielectric constant: 78.4, screening length: 5.74355 Bohr) occupying 0.740892 of unit cell:	Completed after 1 iterations at t[s]:   9572.45
	FillingsUpdate:  mu: -0.171251800  nElectrons: 899.317834
	SubspaceRotationAdjust: set factor to 0.0589
ElecMinimize: Iter:  31  G: -3348.286747681255292  |grad|_K:  1.919e-08  alpha:  3.909e-01  linmin:  1.251e-04  t[s]:   9617.90
	Linear fluid (dielectric constant: 78.4, screening length: 5.74355 Bohr) occupying 0.740891 of unit cell:	Completed after 0 iterations at t[s]:   9654.45
	Linear fluid (dielectric constant: 78.4, screening length: 5.74355 Bohr) occupying 0.740891 of unit cell:	Completed after 0 iterations at t[s]:   9686.23
	FillingsUpdate:  mu: -0.171251800  nElectrons: 899.317742
	SubspaceRotationAdjust: set factor to 0.0569
ElecMinimize: Iter:  32  G: -3348.286747705376911  |grad|_K:  1.376e-08  alpha:  3.878e-01  linmin: -5.312e-05  t[s]:   9731.70
	Linear fluid (dielectric constant: 78.4, screening length: 5.74355 Bohr) occupying 0.740886 of unit cell:	Completed after 2 iterations at t[s]:   9768.88
	Linear fluid (dielectric constant: 78.4, screening length: 5.74355 Bohr) occupying 0.740889 of unit cell:	Completed after 0 iterations at t[s]:   9801.84
ElecMinimize: 	Step increased G by 1.505305e-08, reducing alpha to 1.125923e-02.
	Linear fluid (dielectric constant: 78.4, screening length: 5.74355 Bohr) occupying 0.740891 of unit cell:	Completed after 0 iterations at t[s]:   9872.98
ElecMinimize: 	Step increased G by 7.411018e-09, reducing alpha to 1.125923e-03.
	Linear fluid (dielectric constant: 78.4, screening length: 5.74355 Bohr) occupying 0.740891 of unit cell:	Completed after 0 iterations at t[s]:   9944.49
ElecMinimize: 	Step increased G by 6.690698e-09, reducing alpha to 1.125923e-04.
ElecMinimize: 	Step failed to reduce G after 3 attempts. Quitting step.
ElecMinimize: 	Undoing step.
	Linear fluid (dielectric constant: 78.4, screening length: 5.74355 Bohr) occupying 0.740891 of unit cell:	Completed after 0 iterations at t[s]:  10016.64
ElecMinimize: 	Step failed: resetting search direction.
	FillingsUpdate:  mu: -0.171251800  nElectrons: 899.317740
	SubspaceRotationAdjust: set factor to 0.042
ElecMinimize: Iter:  33  G: -3348.286747698681665  |grad|_K:  1.350e-08  alpha:  1.126e-04
	Linear fluid (dielectric constant: 78.4, screening length: 5.74355 Bohr) occupying 0.740895 of unit cell:	Completed after 0 iterations at t[s]:  10098.05
	Linear fluid (dielectric constant: 78.4, screening length: 5.74355 Bohr) occupying 0.740902 of unit cell:	Completed after 2 iterations at t[s]:  10129.69
ElecMinimize: 	Step increased G by 1.340563e-07, reducing alpha to 1.124447e-01.
	Linear fluid (dielectric constant: 78.4, screening length: 5.74355 Bohr) occupying 0.740892 of unit cell:	Completed after 2 iterations at t[s]:  10203.00
ElecMinimize: 	Step increased G by 6.660684e-09, reducing alpha to 1.124447e-02.
	Linear fluid (dielectric constant: 78.4, screening length: 5.74355 Bohr) occupying 0.740891 of unit cell:	Completed after 0 iterations at t[s]:  10275.81
ElecMinimize: 	Step increased G by 2.998149e-09, reducing alpha to 1.124447e-03.
ElecMinimize: 	Step failed to reduce G after 3 attempts. Quitting step.
ElecMinimize: 	Undoing step.
	Linear fluid (dielectric constant: 78.4, screening length: 5.74355 Bohr) occupying 0.740891 of unit cell:	Completed after 0 iterations at t[s]:  10347.80
ElecMinimize: 	Step failed along negative gradient direction.
ElecMinimize: Probably at roundoff error limit. (Stopping)
Setting wave functions to eigenvectors of Hamiltonian
Single-point solvation energy estimate, DeltaG = -0.046901964717108

# Ionic positions in lattice coordinates:
ion C   0.166678529542211   0.083430907930558   0.557191113291099 1
ion C   0.083543900925964   0.167112244755533   0.442905658666590 1
ion C   0.416665331887047   0.083423550243364   0.557194809781482 1
ion C   0.333635546578120   0.167280278483478   0.442945150427226 1
ion C   0.666525995456811   0.083482492122105   0.557406956651084 1
ion C   0.583530319701044   0.167098981476641   0.442907067083090 1
ion C   0.916830938186055   0.083454288766077   0.557403162822435 1
ion C   0.833443484303557   0.166955199274435   0.442939677560520 1
ion C   0.166762629918541   0.333586110881397   0.557340521655247 1
ion C   0.083549695197627   0.416892011602538   0.442904454111013 1
ion C   0.417169520254827   0.334435009059394   0.557486157629983 1
ion C   0.333392214317275   0.416913719920838   0.442506012413145 1
ion C   0.666701940461159   0.333651035963826   0.557346874834603 1
ion C   0.583513695300248   0.416905482800553   0.442514287640467 1
ion C   0.916834543792501   0.333817317085530   0.557405537573787 1
ion C   0.833316670128954   0.416893293895689   0.442898078243659 1
ion C   0.166678248620109   0.583690171531339   0.557184122137560 1
ion C   0.083499305179023   0.667061134736047   0.442783200638933 1
ion C   0.417154782794879   0.583166694415473   0.557463601108374 1
ion C   0.333645113252021   0.666799647160579   0.442939234331627 1
ion C   0.665921600846730   0.583168004896423   0.557488671850708 1
ion C   0.583511977781297   0.667036078286063   0.442506639548840 1
ion C   0.916920389290407   0.583660700169332   0.557173262482200 1
ion C   0.833129313042434   0.666789702340261   0.442924042649145 1
ion C   0.166742885369259   0.833593135987981   0.557310637583260 1
ion C   0.083494467887356   0.916895970264135   0.442790192215326 1
ion C   0.416665154561476   0.833685386083844   0.557181732569445 1
ion C   0.333341057199979   0.916898242672543   0.442789360143149 1
ion C   0.666705284045609   0.833499229297335   0.557333858624016 1
ion C   0.583547758741375   0.916896425363003   0.442901412204412 1
ion C   0.916904695384830   0.833687115822587   0.557172549484508 1
ion C   0.833318991612220   0.916892571488452   0.442896027878430 1
ion Ti   0.000182278875682   0.000204102181984   0.500164345569692 1
ion Ti   0.082784612108985   0.165975031485468   0.617024125380613 1
ion Ti   0.166661479128469   0.083406146234796   0.383060838265633 1
ion Ti   0.250132051336971   0.000338967744313   0.500150487409205 1
ion Ti   0.333641069859334   0.167463670581617   0.616695879291644 1
ion Ti   0.416751916347398   0.083391919159833   0.383064983762208 1
ion Ti   0.499946946908242   0.000191495937113   0.500147669579226 1
ion Ti   0.583033866892559   0.165939520720737   0.616982537707216 1
ion Ti   0.667120405665591   0.083832220967552   0.383345662039123 1
ion Ti   0.750263975338506   0.000594300102265   0.499985107106510 1
ion Ti   0.833349524431590   0.166921263902880   0.617160160592974 1
ion Ti   0.916745857657157   0.083858529988951   0.383373466516399 1
ion Ti  -0.000207781930079   0.250116076950892   0.500021078511227 1
ion Ti   0.082787800970889   0.417282897791981   0.617025944063602 1
ion Ti   0.167075521580616   0.333808500556035   0.382970337015474 1
ion Ti   0.249821971715708   0.249750413577712   0.499335579392044 1
ion Ti   0.326235902119484   0.413344404864305   0.613668037805189 1
ion Ti   0.416946303466571   0.333848187156471   0.382974671652491 1
ion Ti   0.499854028243096   0.249739825185785   0.499329140534790 1
ion Ti   0.587034823991713   0.413304627362844   0.613774233024256 1
ion Ti   0.666762438984383   0.333755556464113   0.382954642117465 1
ion Ti   0.750253031211578   0.250118602565604   0.499988924474837 1
ion Ti   0.834387416020514   0.417267751516275   0.616984296217613 1
ion Ti   0.916741967949692   0.333409176180313   0.383381940951235 1
ion Ti   0.000179180582542   0.500421237868843   0.500166811013533 1
ion Ti   0.083621575998191   0.667403253077834   0.616867641191287 1
ion Ti   0.166654643703148   0.583780204259678   0.383052856263304 1
ion Ti   0.249809868579847   0.500490253474652   0.499330599374108 1
ion Ti   0.333631380133292   0.666653520575225   0.616688011033949 1
ion Ti   0.416952636414577   0.583642107705618   0.382975386338362 1
ion Ti   0.500105752014759   0.500257993275423   0.500309705590995 1
ion Ti   0.587007839722047   0.674149392796517   0.613733137180749 1
ion Ti   0.666743233901218   0.583648358515617   0.382958329433779 1
ion Ti   0.750638479059108   0.500508573749111   0.499316399959334 1
ion Ti   0.832851062682184   0.666673076923940   0.616656426823197 1
ion Ti   0.917136511329594   0.583755050702912   0.383016060083475 1
ion Ti   0.000030862462308   0.750241156117800   0.500117776250266 1
ion Ti   0.083620833125196   0.916701371350598   0.616863012021130 1
ion Ti   0.166832513405162   0.833672282104477   0.383664497381891 1
ion Ti   0.250141420517651   0.750233122770384   0.500144558886401 1
ion Ti   0.332947078792270   0.916712734497805   0.616883477404139 1
ion Ti   0.416763200425926   0.833899518704256   0.383053724119006 1
ion Ti   0.499849580441423   0.750535049230323   0.499325260642022 1
ion Ti   0.583039210911362   0.917524279665969   0.616983301828356 1
ion Ti   0.666774784335057   0.833565517937501   0.382958546516453 1
ion Ti   0.750637331591531   0.750550734447124   0.499307070283698 1
ion Ti   0.834364432057085   0.917572550334080   0.616977846987740 1
ion Ti   0.917144193822993   0.833911982415300   0.383019824217802 1
ion O   0.000082052328068   0.000189568700125   0.659336750856486 1
ion O   0.000099814234471   0.000411826143520   0.341169033425961 1
ion O   0.250132198790584   0.000399352660937   0.659022804323952 1
ion O   0.250307989110286   0.000631548683340   0.341162177241808 1
ion O   0.499992207487129   0.000216325053232   0.659338153876296 1
ion O   0.500300659457294   0.000397831981506   0.341169660821182 1
ion O   0.750118061750536   0.000369006575214   0.659098909557272 1
ion O   0.750252247355038   0.000506879292519   0.341075226917711 1
ion O  -0.000074837429860   0.250193271074656   0.659136457329830 1
ion O   0.000025746471695   0.250254542229339   0.341095608388563 1
ion O   0.250277651221352   0.250706665737507   0.659042348389494 1
ion O   0.250045631460173   0.250025841088267   0.340916853828850 1
ion O   0.500318695655589   0.250691533529139   0.659049101206049 1
ion O   0.499996747510803   0.250009972764270   0.340906899671159 1
ion O   0.750129114565747   0.250210725521965   0.659110553910933 1
ion O   0.750250701595062   0.250222955367715   0.341075322075275 1
ion O   0.000097429602780   0.500357460315468   0.659344452961582 1
ion O   0.000089971242392   0.500161645840165   0.341165298210351 1
ion O   0.250283288287492   0.500034063490113   0.659037325307914 1
ion O   0.250039092972321   0.500490118677903   0.340917099859477 1
ion O   0.499767708084767   0.500214206402800   0.666167845106626 1
ion O   0.500184511144116   0.500325460821928   0.340914181225299 1
ion O   0.749642385621800   0.500043354289903   0.659039731154451 1
ion O   0.750464655484980   0.500467556637427   0.340882539641110 1
ion O  -0.000095532595425   0.750184997396969   0.659000274979124 1
ion O  -0.000164453624977   0.750160298799547   0.341122016709415 1
ion O   0.250138839641750   0.750189711146846   0.659020567054900 1
ion O   0.250321471784884   0.750159076612086   0.341152982686287 1
ion O   0.500324883721961   0.750072411804142   0.659034180589873 1
ion O   0.499993365492065   0.750467179735418   0.340903423476826 1
ion O   0.749613425820928   0.750041241601661   0.659026125869094 1
ion O   0.750476068551887   0.750470473026699   0.340882820156461 1
ion H   0.498378510758245   0.499913135539460   0.710524293549427 1


# Forces in Lattice coordinates:
force C  -0.005302941170576   0.001366285168287   0.180552474334172 1
force C  -0.003891672817789  -0.003136227961502  -0.201708679249440 1
force C   0.004537505366023  -0.003614138271798   0.178004157078081 1
force C  -0.001165611779911  -0.007285891386910  -0.217265882011785 1
force C   0.008255001912533   0.000741663909661   0.165135715528134 1
force C   0.003648291490297  -0.006424013198251  -0.205847275339121 1
force C  -0.007417646765236   0.010123510682641   0.169266495253154 1
force C   0.001213477430427   0.000318087230342  -0.217538860396931 1
force C  -0.021911968074993   0.001419718204868   0.119589802441574 1
force C  -0.007662543847350   0.003304847489002  -0.202011457091525 1
force C   0.000566090503710  -0.020719980707575   0.107904734192453 1
force C  -0.000704739438495   0.000574721884697  -0.190916954255290 1
force C   0.022286392161116  -0.022518079525215   0.120954003809670 1
force C  -0.000011527494572   0.000458268091739  -0.194446666583228 1
force C   0.001841905048866  -0.008901694956410   0.169640817764344 1
force C   0.007377049427699  -0.004346586495469  -0.204313209309525 1
force C  -0.004076675395256  -0.001006162810772   0.181833969542615 1
force C   0.000701874333642  -0.003402823868177  -0.183839779031508 1
force C  -0.020122772961292   0.021045124583917   0.108807991447327 1
force C  -0.009595201032154   0.008410803916339  -0.217463251774290 1
force C   0.018956854629966   0.000639330235375   0.110353241911324 1
force C  -0.000248308015493   0.001251282352350  -0.193725765232055 1
force C   0.003768917770172  -0.002846421133588   0.179960481762648 1
force C   0.008307551747764   0.000195053044927  -0.218688911605585 1
force C   0.000457182861176   0.000220254766475   0.190506604919443 1
force C  -0.002433561834678   0.003300928466934  -0.184564381706085 1
force C   0.000810463975582   0.003544823608679   0.179962586107429 1
force C   0.003847794648196   0.000041302521318  -0.182443531583193 1
force C  -0.000611209989312   0.023450965230601   0.119608963239428 1
force C  -0.003779717374873   0.006783303638963  -0.205406294404300 1
force C   0.000914173192646   0.003820406958459   0.179187394123985 1
force C   0.003146577460783   0.003807046565149  -0.204389771687294 1
force Ti   0.002692183564753  -0.003896924553677   0.000145330189965 1
force Ti   0.016881248382825   0.004517305433548  -0.590406046027540 1
force Ti   0.002157917735743   0.005781711935521   0.632157940040951 1
force Ti   0.000657730769870  -0.002576215031222   0.004176922281548 1
force Ti   0.001910412494674   0.016900336009556  -0.549403906005869 1
force Ti  -0.003228121034600   0.008447904807866   0.630601792043311 1
force Ti  -0.002112372082059  -0.001315506760690   0.004097995111747 1
force Ti  -0.017161053414142   0.022250335908503  -0.586166261986917 1
force Ti  -0.001677350327333  -0.001241348303098   0.616887548379006 1
force Ti   0.000143056495100  -0.014295136787762   0.049113980340588 1
force Ti   0.002135897174935  -0.002336299683539  -0.610541518604521 1
force Ti   0.001063589603797  -0.003274782030025   0.613785775359820 1
force Ti   0.011370644093295  -0.001073989366300   0.044887889640087 1
force Ti   0.024281678480246  -0.008113614668072  -0.591009013709072 1
force Ti  -0.005629034116594  -0.001977237117415   0.615357673090923 1
force Ti   0.006961773566356   0.006619062152725   0.008900705321479 1
force Ti   0.101799881117124   0.000590136338365  -0.245427019081706 1
force Ti  -0.000012980783569  -0.008948752709988   0.627481215700406 1
force Ti  -0.006039799227241   0.014697875727720   0.012556361523256 1
force Ti  -0.105301351919731   0.106064156729606  -0.247781899383634 1
force Ti   0.003726552949964  -0.004858785394272   0.616375315033910 1
force Ti  -0.012134659975593   0.010924028558771   0.048986718093214 1
force Ti  -0.024349995617402   0.018210207798490  -0.586583154267185 1
force Ti  -0.001744617785214   0.001042019970787   0.611931321837434 1
force Ti   0.000268477513455   0.002024882095030  -0.000532992494877 1
force Ti  -0.000056005718263  -0.001681574937787  -0.605576114895030 1
force Ti   0.009467712305023  -0.008595082330972   0.632998708700462 1
force Ti   0.015201381805413  -0.007670408031153   0.008816870483371 1
force Ti   0.019990471387415  -0.019767413986941  -0.548138846842904 1
force Ti  -0.007346744157163   0.005372261921895   0.627385919518686 1
force Ti   0.000813571657120  -0.000761897360840   0.020191705630413 1
force Ti   0.000476244804767  -0.104883654264373  -0.248418791909925 1
force Ti   0.006210367215783  -0.001948948184332   0.628981797446531 1
force Ti  -0.016089848082476   0.006547177204933   0.012024606263243 1
force Ti  -0.018139130484730  -0.001881182286890  -0.542849628349990 1
force Ti  -0.010104073451289   0.002012211383102   0.636141723984913 1
force Ti   0.001507791362281  -0.001586336974081   0.006072060806837 1
force Ti  -0.000393453068435  -0.000860173215755  -0.603602585808108 1
force Ti  -0.000048127350274  -0.000908642144284   0.560872016666414 1
force Ti  -0.001581627566606   0.000587531971806   0.003803774384664 1
force Ti   0.001188591541721  -0.001417332103245  -0.606028461897040 1
force Ti   0.006794400497262  -0.011652944434793   0.632160522473179 1
force Ti   0.009576184880189  -0.015304459164124   0.010811728941502 1
force Ti   0.005689393056555  -0.023906504037982  -0.587361143121363 1
force Ti   0.000666643873933   0.000775109010117   0.615962389925260 1
force Ti  -0.009543199187145  -0.006747359652338   0.012297200071197 1
force Ti  -0.004650882332156  -0.019922031503731  -0.587927322240616 1
force Ti  -0.007082752974857  -0.004494667417479   0.635363176102201 1
force O   0.004118431441045  -0.002597616856528   0.486692212869013 1
force O   0.000609700760054  -0.000249915033096  -0.504426441921867 1
force O  -0.000256624002742  -0.000342105598901   0.485410262790008 1
force O  -0.000036504351846  -0.008210010782008  -0.500943919380532 1
force O  -0.004058413667199   0.000458344566705   0.486129913374491 1
force O  -0.000877932927126   0.000212362720055  -0.504343590390185 1
force O  -0.000092628479165   0.003615555237220   0.489248941767778 1
force O   0.000306744502947  -0.004868420727626  -0.491802569617203 1
force O  -0.002489786887934   0.000521052131632   0.484010593644960 1
force O   0.004250797612997   0.000407262183990  -0.493201848753799 1
force O  -0.017313291529240  -0.016011047033321   0.412653930064010 1
force O  -0.002744844923757   0.003490047942016  -0.492405049272088 1
force O   0.015350958150175  -0.032069106775070   0.414457410519658 1
force O   0.002391347679910   0.001103497887072  -0.491034767932604 1
force O   0.002873638619015  -0.002851732129803   0.487696758972106 1
force O  -0.005077515749782   0.005931430970734  -0.491042961464665 1
force O   0.001094538484593   0.003491668384358   0.485824602223714 1
force O   0.000187468341536   0.001090793309384  -0.503810900280765 1
force O  -0.033738343851418   0.017034914335656   0.412409385785079 1
force O   0.000501148083953  -0.002456576292010  -0.493192264325376 1
force O   0.003095045811052  -0.001284950354172  -0.375293100750611 1
force O  -0.000768995886202   0.000624336506236  -0.499803445826869 1
force O   0.033262597575518  -0.016346800458325   0.414014191088819 1
force O  -0.001385670084096  -0.001705822777326  -0.489080876589293 1
force O   0.001569637686419   0.000460831514497   0.486311063208790 1
force O   0.008747692600502   0.000354097576335  -0.497096894947838 1
force O  -0.001026938842670   0.001308378283358   0.485526305696517 1
force O  -0.009111033083252   0.009255776054075  -0.500193787003544 1
force O  -0.017962308906159   0.033441048650626   0.414619317960288 1
force O   0.003536623483793  -0.000450890520635  -0.490846819881554 1
force O   0.016871846036346   0.017545389762911   0.414434296640817 1
force O  -0.004060488830341   0.003126199716576  -0.488895010801674 1
force H   0.005555992218423  -0.001742040385927   0.466142178334778 1

# Energy components:
   A_diel =       -0.5207197021989598
   Eewald =    48891.7161471384752076
       EH =    52017.2078818974623573
     Eloc =  -105168.8585301151179010
      Enl =      356.6819292862678594
      Exc =     -609.9765370217702412
 Exc_core =       66.0157823814028006
       KE =      945.5408255467068557
  MuShift =       -0.0555626134293484
-------------------------------------
     Etot =    -3502.2487832021911345
       TS =        0.0477479433582393
-------------------------------------
        F =    -3502.2965311455495794
      muN =     -154.0097834499022724
-------------------------------------
        G =    -3348.2867476956471364

IonicMinimize: Iter:   0  G: -3348.286747695647136  |grad|_K:  5.773e-03  t[s]:  10421.98

#--- Lowdin population analysis ---
# oxidation-state C -1.124 -1.122 -1.124 -1.121 -1.122 -1.122 -1.122 -1.122 -1.111 -1.122 -1.132 -1.124 -1.111 -1.124 -1.122 -1.122 -1.124 -1.123 -1.132 -1.121 -1.133 -1.124 -1.124 -1.121 -1.121 -1.123 -1.124 -1.123 -1.111 -1.122 -1.124 -1.122
# oxidation-state Ti +1.176 +1.364 +1.366 +1.176 +1.366 +1.366 +1.176 +1.364 +1.364 +1.173 +1.368 +1.364 +1.173 +1.364 +1.367 +1.173 +1.335 +1.366 +1.173 +1.336 +1.367 +1.173 +1.364 +1.364 +1.176 +1.364 +1.366 +1.173 +1.366 +1.366 +1.176 +1.336 +1.366 +1.173 +1.366 +1.366 +1.176 +1.364 +1.362 +1.176 +1.365 +1.366 +1.173 +1.364 +1.367 +1.173 +1.364 +1.366
# oxidation-state O -0.772 -0.772 -0.777 -0.774 -0.772 -0.772 -0.777 -0.775 -0.777 -0.775 -0.775 -0.775 -0.775 -0.775 -0.777 -0.775 -0.772 -0.772 -0.776 -0.775 -0.807 -0.772 -0.775 -0.776 -0.776 -0.774 -0.776 -0.774 -0.775 -0.775 -0.775 -0.776
# oxidation-state H +0.471

Shifting auxilliary hamiltonian by -0.000024 to set nElectrons=899.317750
	Linear fluid (dielectric constant: 78.4, screening length: 5.74355 Bohr) occupying 0.740668 of unit cell:	Completed after 17 iterations at t[s]:  10463.68

-------- Electronic minimization -----------
	Linear fluid (dielectric constant: 78.4, screening length: 5.74355 Bohr) occupying 0.740668 of unit cell:	Completed after 0 iterations at t[s]:  10486.43
	FillingsUpdate:  mu: -0.171251800  nElectrons: 899.317750
ElecMinimize: Iter:   0  G: -3348.290673748229892  |grad|_K:  3.520e-06  alpha:  1.000e+00
	Linear fluid (dielectric constant: 78.4, screening length: 5.74355 Bohr) occupying 0.742707 of unit cell:	Completed after 19 iterations at t[s]:  10577.88
	Linear fluid (dielectric constant: 78.4, screening length: 5.74355 Bohr) occupying 0.741661 of unit cell:	Completed after 18 iterations at t[s]:  10615.65
	FillingsUpdate:  mu: -0.171251800  nElectrons: 899.413863
	SubspaceRotationAdjust: set factor to 0.0554
[...]
ElecMinimize: 	Step increased G by 1.114859e-08, reducing alpha to 1.604925e-03.
	Linear fluid (dielectric constant: 78.4, screening length: 5.74355 Bohr) occupying 0.745915 of unit cell:	Completed after 0 iterations at t[s]:  50032.09
ElecMinimize: 	Step increased G by 1.068020e-08, reducing alpha to 1.604925e-04.
ElecMinimize: 	Step failed to reduce G after 3 attempts. Quitting step.
ElecMinimize: 	Undoing step.
	Linear fluid (dielectric constant: 78.4, screening length: 5.74355 Bohr) occupying 0.745915 of unit cell:	Completed after 0 iterations at t[s]:  50105.17
ElecMinimize: 	Step failed: resetting search direction.
	FillingsUpdate:  mu: -0.171251800  nElectrons: 900.067010
	SubspaceRotationAdjust: set factor to 0.0994
ElecMinimize: Iter:  20  G: -3348.307104980342046  |grad|_K:  2.011e-08  alpha:  1.605e-04
	Linear fluid (dielectric constant: 78.4, screening length: 5.74355 Bohr) occupying 0.745915 of unit cell:	Completed after 0 iterations at t[s]:  50186.46
	Linear fluid (dielectric constant: 78.4, screening length: 5.74355 Bohr) occupying 0.745915 of unit cell:	Completed after 0 iterations at t[s]:  50217.85
ElecMinimize: 	Step increased G by 2.011348e-09, reducing alpha to 8.711845e-03.
	Linear fluid (dielectric constant: 78.4, screening length: 5.74355 Bohr) occupying 0.745915 of unit cell:	Completed after 0 iterations at t[s]:  50290.30
ElecMinimize: 	Step increased G by 5.820766e-11, reducing alpha to 8.711845e-04.
	Linear fluid (dielectric constant: 78.4, screening length: 5.74355 Bohr) occupying 0.745915 of unit cell:	Completed after 0 iterations at t[s]:  50362.70
ElecMinimize: 	Step increased G by 3.183231e-11, reducing alpha to 8.711845e-05.
ElecMinimize: 	Step failed to reduce G after 3 attempts. Quitting step.
ElecMinimize: 	Undoing step.
	Linear fluid (dielectric constant: 78.4, screening length: 5.74355 Bohr) occupying 0.745915 of unit cell:	Completed after 0 iterations at t[s]:  50434.73
ElecMinimize: 	Step failed along negative gradient direction.
ElecMinimize: Probably at roundoff error limit. (Stopping)
Setting wave functions to eigenvectors of Hamiltonian

# Ionic positions in lattice coordinates:
ion C   0.166686246836993   0.083445670439293   0.557680646982315 1
ion C   0.083489096821264   0.167002174388740   0.442306606474314 1
ion C   0.416679434451426   0.083452183283149   0.557686616743712 1
ion C   0.333552974946656   0.167151408861626   0.442295572428640 1
ion C   0.666696113386456   0.083581475858333   0.557792303760591 1
ion C   0.583460217262688   0.167004069073964   0.442311551757145 1
ion C   0.916784954891012   0.083573090925642   0.557787042077609 1
ion C   0.833445035838907   0.166956634022229   0.442279259102223 1
ion C   0.166614783775001   0.333539422778741   0.557747037245420 1
ion C   0.083486060974872   0.416949563191966   0.442305135181715 1
ion C   0.417038763241596   0.334173745600939   0.558091557329747 1
ion C   0.333433347094119   0.416948178216383   0.442138931011100 1
ion C   0.666808229174790   0.333566960581852   0.557777452273612 1
ion C   0.583465983045846   0.416949802934608   0.442146964595018 1
ion C   0.916783283430473   0.333673484766043   0.557789824321725 1
ion C   0.833403430822647   0.416950815534171   0.442312240676797 1
ion C   0.166682607480027   0.583698991138260   0.557679175654959 1
ion C   0.083468945374084   0.666991590641375   0.442256247949945 1
ion C   0.417033278378478   0.583336728802715   0.558079954508640 1
ion C   0.333550752945831   0.666862837876140   0.442290274465149 1
ion C   0.666182782949022   0.583325853407742   0.558111288165206 1
ion C   0.583467319083257   0.666981527503844   0.442140724504466 1
ion C   0.916920330537287   0.583697646065992   0.557687930232689 1
ion C   0.833257595011757   0.666860088110718   0.442298226638397 1
ion C   0.166761364641728   0.833609619008159   0.557788673583811 1
ion C   0.083471424009411   0.916940769186018   0.442256844150943 1
ion C   0.416674203292291   0.833686836282909   0.557681910634642 1
ion C   0.333419539147549   0.916940416591032   0.442256529741271 1
ion C   0.666815019877582   0.833722772290566   0.557762223648436 1
ion C   0.583462043449920   0.916922457684870   0.442306767255186 1
ion C   0.916922118716931   0.833684901708732   0.557683759883365 1
ion C   0.833407380982313   0.916919452507860   0.442308058192080 1
ion Ti   0.000196942603321   0.000164440120674   0.500032289537181 1
ion Ti   0.082714479538830   0.166009168470146   0.616281956704019 1
ion Ti   0.166691827009595   0.083516952902669   0.383642052123142 1
ion Ti   0.250114318689052   0.000286632778402   0.500048948293909 1
ion Ti   0.333553417831146   0.167223144726045   0.616031742207071 1
ion Ti   0.416804377958727   0.083518277205555   0.383643537781973 1
ion Ti   0.499907743697652   0.000163873708247   0.500034974128460 1
ion Ti   0.583173867748952   0.166013206901678   0.616289125126867 1
ion Ti   0.666981656370432   0.083729720858477   0.383857145386445 1
ion Ti   0.750187462222039   0.000440417993748   0.500073210401538 1
ion Ti   0.833403917971789   0.166929738646016   0.616528015318225 1
ion Ti   0.916720114940372   0.083726944952466   0.383858421973544 1
ion Ti  -0.000087676991424   0.250169206285096   0.500071476660236 1
ion Ti   0.082721530525646   0.417150496426418   0.616280353593634 1
ion Ti   0.166849704755817   0.333665057291483   0.383555267923256 1
ion Ti   0.249993621714168   0.249966402404456   0.499493967573620 1
ion Ti   0.326618174388948   0.413553110639809   0.614357338444919 1
ion Ti   0.416863738386745   0.333746425837385   0.383647245643487 1
ion Ti   0.499908004690026   0.249973951656579   0.499505074115540 1
ion Ti   0.586796126674440   0.413562763714299   0.614413251720404 1
ion Ti   0.666789247972053   0.333667124660826   0.383560754092581 1
ion Ti   0.750181169086592   0.250172341566765   0.500080098165379 1
ion Ti   0.834335758128392   0.417165614914201   0.616289435830459 1
ion Ti   0.916713135066874   0.333463464625878   0.383858701541916 1
ion Ti   0.000193098352375   0.500453936515182   0.500033346995031 1
ion Ti   0.083614664921624   0.667346128031996   0.616248676806018 1
ion Ti   0.166684865160189   0.583646722037927   0.383640042585404 1
ion Ti   0.249994653132146   0.500454839465641   0.499487921677714 1
ion Ti   0.333542913369046   0.666787699736673   0.616027065879181 1
ion Ti   0.416863738812744   0.583592625209103   0.383643383497113 1
ion Ti   0.500094240741704   0.500257316782515   0.500671971153119 1
ion Ti   0.586799537547673   0.673729198393351   0.614384137771339 1
ion Ti   0.666708995223639   0.583594080433764   0.383645897516586 1
ion Ti   0.750392076408486   0.500458832833476   0.499506415607954 1
ion Ti   0.833120599219795   0.666796527445005   0.616038734188788 1
ion Ti   0.916937615654623   0.583652003678253   0.383642665196399 1
ion Ti   0.000071333207710   0.750248568181010   0.500048615031104 1
ion Ti   0.083624649105190   0.916729068445367   0.616246689638478 1
ion Ti   0.166810003906242   0.833642134914869   0.383831693926763 1
ion Ti   0.250111125836723   0.750246553706282   0.500046800013668 1
ion Ti   0.332998959972674   0.916717698582062   0.616251376191620 1
ion Ti   0.416803101332552   0.833760964012581   0.383640480112687 1
ion Ti   0.499907737480678   0.750363445589432   0.499494022164384 1
ion Ti   0.583186623783486   0.917618642862318   0.616286783513922 1
ion Ti   0.666792211163134   0.833604602335671   0.383554574350751 1
ion Ti   0.750393655370541   0.750364504600888   0.499495281059464 1
ion Ti   0.834338151227138   0.917632375866369   0.616277541651974 1
ion Ti   0.916942290555289   0.833766537247949   0.383640620169674 1
ion O   0.000051226759499   0.000324612937330   0.661010775895557 1
ion O   0.000135974049076   0.000324703062424   0.339200679488205 1
ion O   0.250104010418719   0.000321626668798   0.660853762371595 1
ion O   0.250184421489396   0.000400943830710   0.339201455214623 1
ion O   0.500157774032127   0.000325049419480   0.661013982823361 1
ion O   0.500154470668101   0.000323033088250   0.339200493626038 1
ion O   0.750201595203660   0.000517811096309   0.660915618098230 1
ion O   0.750135734118332   0.000302183455720   0.339195489510258 1
ion O  -0.000141002511725   0.250176376935640   0.660913265991099 1
ion O   0.000157026243065   0.250323816118233   0.339197072540386 1
ion O   0.249819723345822   0.250415689360450   0.660757445190332 1
ion O   0.250044590723244   0.250174774331367   0.339097095693066 1
ion O   0.500455030420992   0.250423814449625   0.660778968161677 1
ion O   0.500100391224455   0.250173862438425   0.339098287465085 1
ion O   0.750203363500205   0.250178486581704   0.660919318758211 1
ion O   0.750131576420994   0.250324946654995   0.339197034171847 1
ion O   0.000058130970304   0.500221395915047   0.661012731209855 1
ion O   0.000130788839800   0.500299192258265   0.339201225387700 1
ion O   0.249823702959394   0.499906431643429   0.660759902058042 1
ion O   0.250042453503280   0.500356715055255   0.339095166850727 1
ion O   0.499855584195037   0.500247688758337   0.666647305520265 1
ion O   0.500143461863121   0.500314606002397   0.339130447100179 1
ion O   0.749954940939611   0.499916664649251   0.660780788043472 1
ion O   0.750283918637154   0.500357620241528   0.339097298623509 1
ion O   0.000056826311940   0.750277010816542   0.660856647614107 1
ion O   0.000056169921651   0.750272832923035   0.339200584776645 1
ion O   0.250101713253322   0.750271326363408   0.660855260536418 1
ion O   0.250182202979080   0.750272468339710   0.339199697077214 1
ion O   0.500454615139433   0.750542116437137   0.660769815686835 1
ion O   0.500102043829965   0.750416760755208   0.339094228304601 1
ion O   0.749951727593349   0.750546300743245   0.660770483051173 1
ion O   0.750287028149491   0.750417155673315   0.339094530110146 1
ion H   0.499105920470300   0.500096212535782   0.711536126891774 1


# Forces in Lattice coordinates:
force C  -0.000081746748437   0.000874662867893  -0.002760923575311 1
force C   0.000148420109284  -0.000156155394662  -0.001000184518373 1
force C   0.000018232567389   0.000693850310344  -0.002945293164292 1
force C  -0.000084497919429   0.000157787966945  -0.000069306266419 1
force C  -0.000395574325673  -0.000218165096785  -0.003900114920876 1
force C  -0.000192396876987   0.000075470839877  -0.001291549573636 1
force C   0.000531831286370  -0.000502485356181  -0.003719712373156 1
force C   0.000073052950227  -0.000226205901731  -0.001149740501868 1
force C   0.000958868697388  -0.000160551277438   0.000852249438962 1
force C   0.000192264778344  -0.000273038036879  -0.000985872346400 1
force C   0.000022225743992   0.000072117728249   0.004469174937707 1
force C   0.000091430474968  -0.000202171084456   0.003608817457162 1
force C  -0.000795529718435   0.000619377382525  -0.000013847058889 1
force C  -0.000103761163038  -0.000071471039195   0.003338778908734 1
force C   0.000183030414638   0.000180579122240  -0.003809604867201 1
force C  -0.000235067223477   0.000013227868105  -0.001238493444687 1
force C   0.000929669238018  -0.001104864151957  -0.002736043367536 1
force C  -0.000005072743521  -0.000100135612599  -0.001706727766778 1
force C   0.000308693796184  -0.000421517716592   0.004802935911984 1
force C   0.000283641611277  -0.000552479239870   0.000056145214232 1
force C  -0.000211309918382  -0.000136524761654   0.004000719177641 1
force C   0.000010243661356  -0.000319141082599   0.003470886128734 1
force C  -0.000797395454452  -0.000149517466649  -0.003072949652957 1
force C  -0.000279678613143  -0.000191531614970  -0.000274026294050 1
force C   0.000092906139918  -0.000128239396874  -0.005328166728520 1
force C   0.000123555766568  -0.000343162414681  -0.001739138449670 1
force C   0.000961172722844  -0.001021946761303  -0.002599995440380 1
force C  -0.000052348716364  -0.000204039484933  -0.001572888839937 1
force C  -0.000051301308479  -0.000917129785700   0.000544870886222 1
force C   0.000055324123543  -0.000459103503398  -0.001116061408316 1
force C  -0.000851326140374  -0.000062916390163  -0.003057843244704 1
force C  -0.000030208754113  -0.000407161953473  -0.001193812016783 1
force Ti  -0.000123985905129  -0.000120289595351  -0.004624351505101 1
force Ti  -0.000205294653346  -0.000814536980501  -0.000156146076348 1
force Ti  -0.000132768009303   0.000058258996656   0.002632381075204 1
force Ti   0.000165038772335  -0.000539684783420  -0.003715838979779 1
force Ti   0.000427399708488  -0.001171098547749   0.001486891997391 1
force Ti  -0.000243347471345  -0.000012504739283   0.002762390228613 1
force Ti   0.000053456448625  -0.000148838866016  -0.004512970454003 1
force Ti   0.000629589011527  -0.001057333673184  -0.000161130217905 1
force Ti  -0.000145155432023  -0.000131915030624   0.003152287394326 1
force Ti  -0.000004857188023   0.000181521818485  -0.003588839840533 1
force Ti   0.000048675613739  -0.000039790842710  -0.003372891852652 1
force Ti  -0.000201687873890  -0.000055922124609   0.003140105988930 1
force Ti  -0.000545816279018  -0.000237976348563  -0.003900290158440 1
force Ti  -0.000872231790532   0.000504128867106  -0.000253283816302 1
force Ti  -0.000186094662589  -0.000336424539979   0.003967516053083 1
force Ti   0.000744606841085  -0.000101282276652   0.001937746601136 1
force Ti  -0.000002031922880  -0.000104340543394   0.011160615277821 1
force Ti  -0.000335616483908   0.000040457791518   0.008492296277139 1
force Ti  -0.000585185362890   0.000506737690786   0.002241658217315 1
force Ti   0.000273248296217  -0.000212719887543   0.010605243430524 1
force Ti  -0.000164652304553  -0.000284837775388   0.004429311322813 1
force Ti   0.000348459631909  -0.000499660276505  -0.003536966754651 1
force Ti   0.001105820072440  -0.000570988507002   0.000256358218695 1
force Ti  -0.000115498562191  -0.000286062808731   0.003285512538899 1
force Ti  -0.000032213955968  -0.000256475630011  -0.004464164916474 1
force Ti   0.000189111885469   0.000243985405735  -0.000106330272573 1
force Ti   0.000108460443832  -0.000282284604225   0.002576745725981 1
force Ti   0.000863649555559  -0.000251210869629   0.002040166899820 1
force Ti  -0.000812416948877   0.000854620436756   0.001423715811002 1
force Ti  -0.000123994508196  -0.000284390541649   0.008549525888403 1
force Ti   0.000002101464285  -0.000161481521528   0.008836522647995 1
force Ti   0.000458234786052  -0.000109076321883   0.010899543250069 1
force Ti  -0.000550115272082  -0.000112761489955   0.008953547922447 1
force Ti  -0.000717809138557   0.000335365771416   0.002361943065249 1
force Ti   0.001149147606542  -0.000157933587661   0.001994085672912 1
force Ti  -0.000446500281445  -0.000162302015445   0.002934448738726 1
force Ti   0.000355368136332  -0.000246663069451  -0.003211115937734 1
force Ti   0.000727341726356  -0.000750433907639  -0.000012084377752 1
force Ti  -0.000033562828929  -0.000204544648900   0.001696813924821 1
force Ti  -0.000286202583948   0.000107525320906  -0.003762593208807 1
force Ti  -0.000414588498393  -0.000013510396459  -0.000195209652333 1
force Ti  -0.000104561844261  -0.000281464631225   0.002721598828966 1
force Ti   0.000159022720798  -0.001016493817092   0.002241988278700 1
force Ti  -0.000192560283132   0.000788810257213  -0.000107052851884 1
force Ti  -0.000244513741738  -0.000202368670796   0.004306608791495 1
force Ti  -0.000179599386772  -0.000725668409790   0.002552565428913 1
force Ti   0.000818114351049   0.000030025272849   0.000157268464309 1
force Ti  -0.000481932980428  -0.000115990603118   0.002946550666683 1
force O   0.000701389398041  -0.000647227047808  -0.004847221906058 1
force O  -0.000224774125865  -0.000199528944929  -0.001247179676424 1
force O   0.000109122829582  -0.000526777257380  -0.005587734283097 1
force O  -0.000042891234032   0.000647791769154  -0.001739695832626 1
force O  -0.000494574862568  -0.000173724196115  -0.004615966048767 1
force O   0.000148900507875  -0.000213517449464  -0.001282695031183 1
force O   0.000069583698700   0.000304915527785  -0.005013715170641 1
force O  -0.000109896258545  -0.000948362911943  -0.001073254972152 1
force O  -0.000260889654035  -0.000192032066832  -0.005008691050563 1
force O   0.000470072951000  -0.000229385859968  -0.001092223803740 1
force O  -0.000440181087965  -0.001342569150436  -0.000923546037257 1
force O   0.000728860144807   0.000104554556829  -0.000396720467362 1
force O   0.000615658775111  -0.001856964351846  -0.001619705973217 1
force O  -0.000768797619091   0.000963364223801  -0.000340613301148 1
force O   0.000531817463316  -0.000620614176673  -0.005215085426189 1
force O  -0.000794109370991   0.000452532453230  -0.001066481725079 1
force O   0.000139546819236   0.000369438545889  -0.004856907966392 1
force O  -0.000193970590949  -0.000293986712395  -0.001338359820373 1
force O  -0.001636174609323   0.001113592557108  -0.001050266904917 1
force O   0.001029235241437  -0.000575257355089  -0.000416926289526 1
force O   0.001212258951536  -0.000474583599558   0.030696098703842 1
force O   0.000059503585061  -0.000245694284050   0.002954443922235 1
force O   0.001755437345609  -0.000708251658139  -0.001744836916188 1
force O  -0.001241008171388   0.000559102864755  -0.000166356931789 1
force O   0.000589417923234  -0.000139133517980  -0.005758147824928 1
force O  -0.001029456338098  -0.000252492176913  -0.001642470824759 1
force O  -0.000244914144580   0.000284104529154  -0.005539147783988 1
force O   0.000848900189381  -0.001134931347660  -0.001672674834307 1
force O  -0.001095608172846   0.001644300823095  -0.001159175535371 1
force O   0.000381113102296  -0.001430458346729  -0.000243658460219 1
force O   0.001213035419423   0.000456685660929  -0.001424605092792 1
force O  -0.000401549536426  -0.001109267609636  -0.000090495879729 1
force H   0.004945974012935  -0.001567105662316   0.007965901653421 1

# Energy components:
   A_diel =       -0.7980833357726720
   Eewald =    48807.8995331775804516
       EH =    51991.8145511307957349
     Eloc =  -105058.6045129241101677
      Enl =      356.5107709095876771
      Exc =     -609.8092762899923400
 Exc_core =       66.0149168698095536
       KE =      944.6483706280016577
  MuShift =       -0.0735243666299056
-------------------------------------
     Etot =    -3502.3972542007290940
       TS =        0.0479463801190732
-------------------------------------
        F =    -3502.4452005808479953
      muN =     -154.1380956005116047
-------------------------------------
        G =    -3348.3071049803365895

IonicMinimize: Iter:   9  G: -3348.307104980336590  |grad|_K:  6.915e-05  alpha:  1.000e+00  linmin: -1.632e-01  t[s]:  50508.90
IonicMinimize: Converged (|grad|_K<1.000000e-04).

#--- Lowdin population analysis ---
# oxidation-state C -1.126 -1.125 -1.126 -1.124 -1.124 -1.125 -1.124 -1.125 -1.114 -1.125 -1.135 -1.126 -1.114 -1.126 -1.124 -1.125 -1.126 -1.126 -1.135 -1.124 -1.135 -1.126 -1.126 -1.124 -1.123 -1.125 -1.126 -1.126 -1.114 -1.125 -1.126 -1.125
# oxidation-state Ti +1.172 +1.361 +1.364 +1.172 +1.362 +1.364 +1.172 +1.361 +1.363 +1.169 +1.366 +1.363 +1.169 +1.361 +1.365 +1.170 +1.340 +1.364 +1.170 +1.340 +1.365 +1.169 +1.361 +1.363 +1.172 +1.363 +1.364 +1.170 +1.362 +1.365 +1.173 +1.340 +1.365 +1.170 +1.362 +1.364 +1.172 +1.363 +1.363 +1.172 +1.363 +1.364 +1.170 +1.361 +1.365 +1.170 +1.361 +1.364
# oxidation-state O -0.787 -0.789 -0.792 -0.789 -0.787 -0.789 -0.792 -0.790 -0.792 -0.790 -0.790 -0.790 -0.790 -0.790 -0.792 -0.790 -0.787 -0.789 -0.790 -0.790 -0.799 -0.788 -0.790 -0.790 -0.792 -0.789 -0.792 -0.789 -0.790 -0.790 -0.790 -0.790
# oxidation-state H +0.473


Dumping 'NbTe2.fillings' ... done
Dumping 'NbTe2.wfns' ... done
Dumping 'NbTe2.fluidState' ... done
Dumping 'NbTe2.ionpos' ... done
Dumping 'NbTe2.eigenvals' ... done
End date and time: Sat Apr  3 06:04:29 2021  (Duration: 0-14:02:05.02)
Done!
