
*************** JDFTx 1.5.0  ***************

Start date and time: Tue Jun 30 08:46:55 2020
Executable jdftx_gpu with command-line: -i Neutral.in -o Neutral.out
Running on hosts (process indices):  amax (0)
Divided in process groups (process indices):  0 (0)
gpuInit: Found compatible cuda device 0 'Tesla K80'
gpuInit: Selected device 0
Resource initialization completed at t[s]:     10.74
Run totals: 1 processes, 24 threads, 1 GPUs


Input parsed successfully to the following command list (including defaults):

basis kpoint-dependent
cache-projectors no
coords-type Lattice
core-overlap-check none
coulomb-interaction Slab 001
coulomb-truncation-embed 0 0 0.5
davidson-band-ratio 1.1
dump End State
dump-name NbTe2.$VAR
elec-cutoff 20 100
elec-eigen-algo Davidson
elec-ex-corr gga-PBE
elec-smearing Gauss 0.0073499
electronic-minimize  \
	dirUpdateScheme      FletcherReeves \
	linminMethod         DirUpdateRecommended \
	nIterations          500 \
	history              15 \
	knormThreshold       0 \
	energyDiffThreshold  1e-08 \
	nEnergyDiff          2 \
	alphaTstart          1 \
	alphaTmin            1e-10 \
	updateTestStepSize   yes \
	alphaTreduceFactor   0.1 \
	alphaTincreaseFactor 3 \
	nAlphaAdjustMax      3 \
	wolfeEnergy          0.0001 \
	wolfeGradient        0.9 \
	fdTest               no
exchange-regularization WignerSeitzTruncated
fluid LinearPCM 298.000000 1.013250
fluid-anion F- 1 MeanFieldLJ \
	epsBulk 1 \
	pMol 0 \
	epsInf 1 \
	Pvap 0 \
	sigmaBulk 0 \
	Rvdw 2.24877 \
	Res 0 \
	tauNuc 343133
fluid-cation Na+ 1 MeanFieldLJ \
	epsBulk 1 \
	pMol 0 \
	epsInf 1 \
	Pvap 0 \
	sigmaBulk 0 \
	Rvdw 2.19208 \
	Res 0 \
	tauNuc 343133
fluid-ex-corr lda-TF lda-PZ
fluid-gummel-loop 10 1.000000e-05
fluid-minimize  \
	dirUpdateScheme      PolakRibiere \
	linminMethod         DirUpdateRecommended \
	nIterations          400 \
	history              15 \
	knormThreshold       1e-11 \
	energyDiffThreshold  0 \
	nEnergyDiff          2 \
	alphaTstart          1 \
	alphaTmin            1e-10 \
	updateTestStepSize   yes \
	alphaTreduceFactor   0.1 \
	alphaTincreaseFactor 3 \
	nAlphaAdjustMax      6 \
	wolfeEnergy          0.0001 \
	wolfeGradient        0.9 \
	fdTest               no
fluid-solvent H2O 55.338 ScalarEOS \
	epsBulk 78.4 \
	pMol 0.92466 \
	epsInf 1.77 \
	Pvap 1.06736e-10 \
	sigmaBulk 4.62e-05 \
	Rvdw 2.61727 \
	Res 1.42 \
	tauNuc 343133 \
	poleEl 15 7 1
forces-output-coords Positions
initial-state NbTe2.$VAR
ion Zr   0.166666678685885   0.000000021949560   0.599810799835274 0
ion Zr   0.500000012019221   0.000000021949560   0.599810799835274 0
ion Zr   0.833333345352550   0.000000021949560   0.599810799835274 0
ion Zr   0.166666678685885   0.333333355282889   0.599810799835274 0
ion Zr   0.500000012019221   0.333333355282889   0.599810799835274 0
ion Zr   0.833333345352550   0.333333355282889   0.599810799835274 0
ion Zr   0.166666678685885   0.666666688616225   0.599810799835274 0
ion Zr   0.500000012019221   0.666666688616225   0.599810799835274 0
ion Zr   0.833333345352550   0.666666688616225   0.599810799835274 0
ion Zr   0.999999964297601   0.166666631219094   0.400189842729874 0
ion Zr   0.333333297630929   0.166666631219094   0.400189842729874 0
ion Zr   0.666666630964265   0.166666631219094   0.400189842729874 0
ion Zr   0.999999964297601   0.499999964552430   0.400189842729874 0
ion Zr   0.333333297630929   0.499999964552430   0.400189842729874 0
ion Zr   0.666666630964265   0.499999964552430   0.400189842729874 0
ion Zr   0.999999964297601   0.833333297885758   0.400189842729874 0
ion Zr   0.333333297630929   0.833333297885758   0.400189842729874 0
ion Zr   0.666666630964265   0.833333297885758   0.400189842729874 0
ion Si   0.000000013555734   0.000000004625257   0.499999963632277 0
ion Si   0.333333346889070   0.000000004625257   0.499999963632277 0
ion Si   0.666666680222399   0.000000004625257   0.499999963632277 0
ion Si   0.000000013555734   0.333333337958585   0.499999963632277 0
ion Si   0.333333346889070   0.333333337958585   0.499999963632277 0
ion Si   0.666666680222399   0.333333337958585   0.499999963632277 0
ion Si   0.000000013555734   0.666666671291921   0.499999963632277 0
ion Si   0.333333346889070   0.666666671291921   0.499999963632277 0
ion Si   0.666666680222399   0.666666671291921   0.499999963632277 0
ion Si   0.166666658665868   0.166666673648386   0.499999955136332 0
ion Si   0.499999991999203   0.166666673648386   0.499999955136332 0
ion Si   0.833333325332539   0.166666673648386   0.499999955136332 0
ion Si   0.166666658665868   0.500000006981722   0.499999955136332 0
ion Si   0.499999991999203   0.500000006981722   0.499999955136332 0
ion Si   0.833333325332539   0.500000006981722   0.499999955136332 0
ion Si   0.166666658665868   0.833333340315058   0.499999955136332 0
ion Si   0.499999991999203   0.833333340315058   0.499999955136332 0
ion Si   0.833333325332539   0.833333340315058   0.499999955136332 0
ion Se   0.000000010130655   0.166666668868295   0.654416590594292 0
ion Se   0.333333343463991   0.166666668868295   0.654416590594292 0
ion Se   0.666666676797320   0.166666668868295   0.654416590594292 0
ion Se   0.000000010130655   0.500000002201631   0.654416590594292 0
ion Se   0.333333343463991   0.500000002201631   0.654416590594292 0
ion Se   0.666666676797320   0.500000002201631   0.654416590594292 0
ion Se   0.000000010130655   0.833333335534967   0.654416590594292 0
ion Se   0.333333343463991   0.833333335534967   0.654416590594292 0
ion Se   0.666666676797320   0.833333335534967   0.654416590594292 0
ion Se   0.166666674664256   0.999999999689408   0.345583409405708 0
ion Se   0.500000007997592   0.999999999689408   0.345583409405708 0
ion Se   0.833333341330921   0.999999999689408   0.345583409405708 0
ion Se   0.166666674664256   0.333333333022743   0.345583409405708 0
ion Se   0.500000007997592   0.333333333022743   0.345583409405708 0
ion Se   0.833333341330921   0.333333333022743   0.345583409405708 0
ion Se   0.166666674664256   0.666666666356072   0.345583409405708 0
ion Se   0.500000007997592   0.666666666356072   0.345583409405708 0
ion Se   0.833333341330921   0.666666666356072   0.345583409405708 0
ion-species GBRV/$ID_pbe.uspp
ion-width Ecut
ionic-minimize  \
	dirUpdateScheme      L-BFGS \
	linminMethod         DirUpdateRecommended \
	nIterations          0 \
	history              15 \
	knormThreshold       0.0001 \
	energyDiffThreshold  1e-06 \
	nEnergyDiff          2 \
	alphaTstart          1 \
	alphaTmin            1e-10 \
	updateTestStepSize   yes \
	alphaTreduceFactor   0.1 \
	alphaTincreaseFactor 3 \
	nAlphaAdjustMax      3 \
	wolfeEnergy          0.0001 \
	wolfeGradient        0.9 \
	fdTest               no
kpoint   0.000000000000   0.000000000000   0.000000000000  1.00000000000000
kpoint-folding 3 3 1 
latt-move-scale 1 1 1
latt-scale 1 1 1 
lattice Triclinic 19.9565 19.9565 41.0178 90 90 90
lattice-minimize  \
	dirUpdateScheme      L-BFGS \
	linminMethod         DirUpdateRecommended \
	nIterations          0 \
	history              15 \
	knormThreshold       0 \
	energyDiffThreshold  1e-06 \
	nEnergyDiff          2 \
	alphaTstart          1 \
	alphaTmin            1e-10 \
	updateTestStepSize   yes \
	alphaTreduceFactor   0.1 \
	alphaTincreaseFactor 3 \
	nAlphaAdjustMax      3 \
	wolfeEnergy          0.0001 \
	wolfeGradient        0.9 \
	fdTest               no
lcao-params -1 1e-06 0.0073499
pcm-variant CANDLE
spintype no-spin
subspace-rotation-factor 1 yes
symmetries automatic
symmetry-threshold 0.0001



---------- Setting up symmetries ----------

Found 16 point-group symmetries of the bravais lattice
Found 144 space-group symmetries with basis
Applied RMS atom displacement 6.65888e-06 bohrs to make symmetries exact.

---------- Initializing the Grid ----------
R = 
[    19.9565          0          0  ]
[          0    19.9565          0  ]
[          0          0    41.0178  ]
unit cell volume = 16335.8
G =
[   0.314844          0          0  ]
[          0   0.314844          0  ]
[          0          0   0.153182  ]
Minimum fftbox size, Smin = [  92  92  188  ]
Chosen fftbox size, S = [  96  96  192  ]

---------- Initializing tighter grid for wavefunction operations ----------
R = 
[    19.9565          0          0  ]
[          0    19.9565          0  ]
[          0          0    41.0178  ]
unit cell volume = 16335.8
G =
[   0.314844          0          0  ]
[          0   0.314844          0  ]
[          0          0   0.153182  ]
Minimum fftbox size, Smin = [  84  84  168  ]
Chosen fftbox size, S = [  84  84  168  ]

---------- Exchange Correlation functional ----------
Initalized PBE GGA exchange.
Initalized PBE GGA correlation.

---------- Setting up pseudopotentials ----------
Width of ionic core gaussian charges (only for fluid interactions / plotting) set to 0.397384

Reading pseudopotential file '/home/guoxy/vasp/jdftx-1.5.0/build/pseudopotentials/GBRV/zr_pbe.uspp':
  Title: Zr.  Created by USPP 7.3.6 on 14-9-2013
  Reference state energy: -49.308156.  12 valence electrons in orbitals:
    |400>  occupation: 2  eigenvalue: -2.002953
    |410>  occupation: 6  eigenvalue: -1.192957
    |420>  occupation: 2  eigenvalue: -0.132269
    |500>  occupation: 2  eigenvalue: -0.163143
    |510>  occupation: 0  eigenvalue: -0.053997
  lMax: 2  lLocal: 3  QijEcut: 5
  6 projectors sampled on a log grid with 625 points:
    l: 0  eig: -2.002953  rCut: 1.8
    l: 0  eig: -0.132269  rCut: 1.8
    l: 1  eig: -1.192956  rCut: 2
    l: 1  eig: 0.150000  rCut: 2
    l: 2  eig: -0.163145  rCut: 2.2
    l: 2  eig: 0.150000  rCut: 2.2
  Partial core density with radius 1.2
  Transforming core density to a uniform radial grid of dG=0.02 with 1303 points.
  Transforming local potential to a uniform radial grid of dG=0.02 with 1303 points.
  Transforming nonlocal projectors to a uniform radial grid of dG=0.02 with 432 points.
  Transforming density augmentations to a uniform radial grid of dG=0.02 with 1303 points.
  Transforming atomic orbitals to a uniform radial grid of dG=0.02 with 432 points.
  Core radius for overlap checks: 2.20 bohrs.

Reading pseudopotential file '/home/guoxy/vasp/jdftx-1.5.0/build/pseudopotentials/GBRV/si_pbe.uspp':
  Title: Si.  Created by USPP 7.3.6 on 14-9-2013
  Reference state energy: -4.599342.  4 valence electrons in orbitals:
    |300>  occupation: 2  eigenvalue: -0.397366
    |310>  occupation: 2  eigenvalue: -0.149981
  lMax: 2  lLocal: 3  QijEcut: 5
  6 projectors sampled on a log grid with 627 points:
    l: 0  eig: -0.397364  rCut: 1.6
    l: 0  eig: 1.000000  rCut: 1.6
    l: 1  eig: -0.149982  rCut: 1.6
    l: 1  eig: 1.000000  rCut: 1.6
    l: 2  eig: -0.100000  rCut: 1.7
    l: 2  eig: 0.100000  rCut: 1.7
  Partial core density with radius 1.45
  Transforming core density to a uniform radial grid of dG=0.02 with 1303 points.
  Transforming local potential to a uniform radial grid of dG=0.02 with 1303 points.
  Transforming nonlocal projectors to a uniform radial grid of dG=0.02 with 432 points.
  Transforming density augmentations to a uniform radial grid of dG=0.02 with 1303 points.
  Transforming atomic orbitals to a uniform radial grid of dG=0.02 with 432 points.
  Core radius for overlap checks: 1.70 bohrs.

Reading pseudopotential file '/home/guoxy/vasp/jdftx-1.5.0/build/pseudopotentials/GBRV/se_pbe.uspp':
  Title: Se.  Created by USPP 7.3.6 on 14-9-2013
  Reference state energy: -21.672887.  6 valence electrons in orbitals:
    |400>  occupation: 2  eigenvalue: -0.635284
    |410>  occupation: 4  eigenvalue: -0.239295
  lMax: 2  lLocal: 3  QijEcut: 5
  6 projectors sampled on a log grid with 625 points:
    l: 0  eig: -0.635278  rCut: 1.5
    l: 0  eig: 0.500000  rCut: 1.5
    l: 1  eig: -0.239295  rCut: 1.5
    l: 1  eig: 0.500000  rCut: 1.5
    l: 2  eig: 0.000000  rCut: 1.8
    l: 2  eig: 1.000000  rCut: 1.8
  Partial core density with radius 1.2
  Transforming core density to a uniform radial grid of dG=0.02 with 1303 points.
  Transforming local potential to a uniform radial grid of dG=0.02 with 1303 points.
  Transforming nonlocal projectors to a uniform radial grid of dG=0.02 with 432 points.
  Transforming density augmentations to a uniform radial grid of dG=0.02 with 1303 points.
  Transforming atomic orbitals to a uniform radial grid of dG=0.02 with 432 points.
  Core radius for overlap checks: 1.80 bohrs.

Initialized 3 species with 54 total atoms.

Folded 1 k-points by 3x3x1 to 9 k-points.

---------- Setting up k-points, bands, fillings ----------
Reduced to 3 k-points under symmetry. 
Computing the number of bands and number of electrons
Calculating initial fillings.
nElectrons: 396.000000   nBands: 378   nStates: 3

----- Setting up reduced wavefunction bases (one per k-point) -----
average nbasis = 69771.889 , ideal nbasis = 69787.863

---------- Setting up coulomb interaction ----------
Fluid mode embedding: using embedded box, but periodic Coulomb kernel.
(Fluid response is responsible for (approximate) separation between periodic images.)
Setting up double-sized grid for truncated Coulomb potentials:
R = 
[    19.9565          0          0  ]
[          0    19.9565          0  ]
[          0          0    82.0357  ]
unit cell volume = 32671.6
G =
[   0.314844          0          0  ]
[          0   0.314844          0  ]
[          0          0  0.0765909  ]
Chosen fftbox size, S = [  96  96  384  ]
Integer grid location selected as the embedding center:
   Grid: [  0  0  96  ]
   Lattice: [  0  0  0.5  ]
   Cartesian: [  0  0  20.5089  ]
Constructing Wigner-Seitz cell: 6 faces (6 quadrilaterals, 0 hexagons)
Range-separation parameter for embedded mesh potentials due to point charges: 0.583104 bohrs.

Initializing van der Waals corrections
	NOTE: vdW corrections apply only for interactions with fluid.
	Zr:  C6:  427.91 Eh-a0^6  R0: 3.097 a0
	Si:  C6:  160.10 Eh-a0^6  R0: 3.243 a0
	Se:  C6:  219.24 Eh-a0^6  R0: 3.347 a0

---------- Setting up ewald sum ----------
Optimum gaussian width for ewald sums = 6.559963 bohr.
Real space sum over 605 unit cells with max indices [  5  5  2  ]
Reciprocal space sum over 6929 terms with max indices [  6  6  20  ]

---------- Allocating electronic variables ----------
Initializing wave functions:  linear combination of atomic orbitals
Zr pseudo-atom occupations:   s ( 2 2 )  p ( 6 0 )  d ( 2 )
Si pseudo-atom occupations:   s ( 2 )  p ( 2 )
Se pseudo-atom occupations:   s ( 2 )  p ( 4 )
	FillingsUpdate:  mu: -0.035298290  nElectrons: 396.000000
LCAOMinimize: Iter:   0  F: -1094.2788255837865563  |grad|_K:  2.322e-03  alpha:  1.000e+00
	FillingsUpdate:  mu: -0.082933821  nElectrons: 396.000000
LCAOMinimize: Iter:   1  F: -1094.4997665819039412  |grad|_K:  5.113e-04  alpha:  1.708e-01  linmin: -1.789e-01  cgtest:  4.522e-01  t[s]:     72.52
LCAOMinimize: Encountered beta<0, resetting CG.
	FillingsUpdate:  mu: -0.070707095  nElectrons: 396.000000
LCAOMinimize: Iter:   2  F: -1094.5162916989361293  |grad|_K:  1.672e-04  alpha:  2.974e-01  linmin:  4.383e-02  cgtest: -8.920e-02  t[s]:     93.93
	FillingsUpdate:  mu: -0.078951446  nElectrons: 396.000000
LCAOMinimize: Iter:   3  F: -1094.5193915307947918  |grad|_K:  1.016e-04  alpha:  5.367e-01  linmin:  3.256e-03  cgtest:  8.240e-02  t[s]:    115.99
	FillingsUpdate:  mu: -0.076760309  nElectrons: 396.000000
LCAOMinimize: Iter:   4  F: -1094.5198442200633053  |grad|_K:  1.907e-05  alpha:  2.044e-01  linmin: -2.326e-03  cgtest:  1.888e-02  t[s]:    138.96
	FillingsUpdate:  mu: -0.077304213  nElectrons: 396.000000
LCAOMinimize: Iter:   5  F: -1094.5198882363008579  |grad|_K:  1.165e-05  alpha:  5.606e-01  linmin: -9.257e-04  cgtest: -4.108e-04  t[s]:    160.43
	FillingsUpdate:  mu: -0.076830417  nElectrons: 396.000000
LCAOMinimize: Iter:   6  F: -1094.5198967222029296  |grad|_K:  2.657e-06  alpha:  2.893e-01  linmin: -3.445e-04  cgtest: -6.108e-03  t[s]:    181.85
	FillingsUpdate:  mu: -0.076890480  nElectrons: 396.000000
LCAOMinimize: Iter:   7  F: -1094.5198970195406218  |grad|_K:  5.665e-07  alpha:  1.953e-01  linmin: -1.200e-05  cgtest: -1.347e-03  t[s]:    204.21
LCAOMinimize: 	Predicted alpha/alphaT>3.000000, increasing alphaT to 5.859912e-01.
	FillingsUpdate:  mu: -0.076878220  nElectrons: 396.000000
LCAOMinimize: Iter:   8  F: -1094.5198970659155293  |grad|_K:  2.488e-07  alpha:  6.702e-01  linmin: -6.349e-04  cgtest:  1.956e-03  t[s]:    233.43
LCAOMinimize: Converged (|Delta F|<1.000000e-06 for 2 iters).
----- createFluidSolver() ----- (Fluid-side solver setup)
   Initializing fluid molecule 'H2O'
     Initializing site 'O'
       Electron density: proportional to exp(-r/0.36935)*erfc((r-0.51523)/0.36823) with norm 6.826
       Charge density: gaussian nuclear width 0.478731 with net site charge 0.826
       Polarizability: cuspless exponential with width 0.32 and norm 3.73
       Hard sphere radius: 2.57003 bohrs
       Positions in reference frame:
         [ +0.000000 +0.000000 +0.000000 ]
     Initializing site 'H'
       Electron density: proportional to exp(-r/0.34641)*erfc((r-0)/0.390882) with norm 0.587
       Charge density: gaussian nuclear width 0.377945 with net site charge -0.413
       Polarizability: cuspless exponential with width 0.39 and norm 3.3
       Positions in reference frame:
         [ +0.000000 -1.441945 +1.122523 ]
         [ +0.000000 +1.441945 +1.122523 ]
     Net charge: 0   dipole magnitude: 0.927204
     Initializing spherical shell mfKernel with radius 2.61727 Bohr
     deltaS corrections:
       site 'O': -7.54299
       site 'H': -6.83917
   Initializing fluid molecule 'Na+'
     Initializing site 'Na'
       Electron density: proportional to exp(-r/0.19682)*erfc((r-0.71491)/0.41314) with norm 8.1383
       Charge density: gaussian nuclear width 0.365347 with net site charge -1
       Hard sphere radius: 1.86327 bohrs
       Positions in reference frame:
         [ +0.000000 +0.000000 +0.000000 ]
     Net charge: -1   dipole magnitude: 0
     Initializing gaussian mfKernel with width: 1.55004 Bohr
     deltaS corrections:
       site 'Na': -22.3555
   Initializing fluid molecule 'F-'
     Initializing site 'F'
       Electron density: proportional to exp(-r/0.38886)*erfc((r-0)/0.438782) with norm 8
       Charge density: gaussian nuclear width 0.374796 with net site charge 1
       Hard sphere radius: 2.39995 bohrs
       Positions in reference frame:
         [ +0.000000 +0.000000 +0.000000 ]
     Net charge: 1   dipole magnitude: 0
     Initializing gaussian mfKernel with width: 1.59012 Bohr
     deltaS corrections:
       site 'F': -9.04335

Correction to mu due to finite nuclear width = -0.0120261
   Cavity determined by nc: 0.00142 and sigma: 0.707107
   Nonlocal vdW cavity from gaussian model electron density with norm = 8 and sigma = 0.993594 bohr
   Charge asymmetry in cavity with sensitivity pCavity = 36.5 e-bohr/Eh
   Electrostatic cavity expanded by eta = 1.46 bohrs
   Weighted density cavitation model constrained by Nbulk: 0.0049383 bohr^-3, Pvap: 3.14029 kPa, Rvdw: 2.61727 bohr and sigmaBulk: 4.62e-05 Eh/bohr^2 at T: 298 K.
   Weighted density dispersion model using vdW pair potentials with single solvent site with sqrtC6eff: 0.77 SI.


---- Citations for features of the code used in this run ----

   Software package:
      R. Sundararaman, K. Letchworth-Weaver, K.A. Schwarz, D. Gunceler, Y. Ozhabes and T.A. Arias, 'JDFTx: software for joint density-functional theory', SoftwareX 6, 278 (2017)

   gga-PBE exchange-correlation functional:
      J.P. Perdew, K. Burke and M. Ernzerhof, Phys. Rev. Lett. 77, 3865 (1996)

   Pseudopotentials:
      KF Garrity, JW Bennett, KM Rabe and D Vanderbilt, Comput. Mater. Sci. 81, 446 (2014)

   Truncated Coulomb potentials:
      R. Sundararaman and T.A. Arias, Phys. Rev. B 87, 165122 (2013)

   Van der Waals correction pair-potentials:
      S. Grimme, J. Comput. Chem. 27, 1787 (2006)

   Charge-asymmetric nonlocally-determined local-electric (CANDLE) solvation model:
      R. Sundararaman and W.A. Goddard III, J. Chem. Phys. 142, 064107 (2015)

   Total energy minimization with Auxiliary Hamiltonian:
      C. Freysoldt, S. Boeck, and J. Neugebauer, Phys. Rev. B 79, 241103(R) (2009)

This list may not be complete. Please suggest additional citations or
report any other bugs at https://github.com/shankar1729/jdftx/issues

Initialization completed successfully at t[s]:    239.42

Fluid solver invoked on fresh (partially random / LCAO) wavefunctions
Running a vacuum solve first:

-------- Initial electronic minimization -----------
	FillingsUpdate:  mu: -0.076878220  nElectrons: 396.000000
ElecMinimize: Iter:   0  F: -1094.519897065916666  |grad|_K:  1.106e-04  alpha:  1.000e+00
	FillingsUpdate:  mu: -0.019615236  nElectrons: 396.000000
	SubspaceRotationAdjust: set factor to 1
ElecMinimize: Iter:   1  F: -1095.486598978051234  |grad|_K:  5.510e-05  alpha:  9.965e-01  linmin: -9.010e-05  t[s]:    296.42
	FillingsUpdate:  mu: -0.073063411  nElectrons: 396.000000
	SubspaceRotationAdjust: set factor to 0.676
ElecMinimize: Iter:   2  F: -1095.568412235930055  |grad|_K:  4.731e-05  alpha:  3.393e-01  linmin: -1.662e-05  t[s]:    333.84
	FillingsUpdate:  mu: -0.048652292  nElectrons: 396.000000
	SubspaceRotationAdjust: set factor to 0.396
ElecMinimize: Iter:   3  F: -1095.651455843545364  |grad|_K:  1.844e-05  alpha:  4.752e-01  linmin:  4.357e-04  t[s]:    369.61
	FillingsUpdate:  mu: -0.052063513  nElectrons: 396.000000
	SubspaceRotationAdjust: set factor to 0.297
ElecMinimize: Iter:   4  F: -1095.670328518077667  |grad|_K:  1.020e-05  alpha:  7.450e-01  linmin:  1.202e-04  t[s]:    421.98
	FillingsUpdate:  mu: -0.045489839  nElectrons: 396.000000
	SubspaceRotationAdjust: set factor to 0.274
ElecMinimize: Iter:   5  F: -1095.676601854545652  |grad|_K:  6.050e-06  alpha:  7.728e-01  linmin:  5.298e-05  t[s]:    491.26
	FillingsUpdate:  mu: -0.049814191  nElectrons: 396.000000
	SubspaceRotationAdjust: set factor to 0.312
ElecMinimize: Iter:   6  F: -1095.679004922217246  |grad|_K:  3.407e-06  alpha:  8.369e-01  linmin:  1.880e-05  t[s]:    527.69
	FillingsUpdate:  mu: -0.049906134  nElectrons: 396.000000
	SubspaceRotationAdjust: set factor to 0.402
ElecMinimize: Iter:   7  F: -1095.679886397606424  |grad|_K:  2.406e-06  alpha:  9.625e-01  linmin:  1.708e-05  t[s]:    563.66
	FillingsUpdate:  mu: -0.048803156  nElectrons: 396.000000
	SubspaceRotationAdjust: set factor to 0.473
ElecMinimize: Iter:   8  F: -1095.680253630163179  |grad|_K:  1.684e-06  alpha:  8.031e-01  linmin:  5.481e-06  t[s]:    599.87
	FillingsUpdate:  mu: -0.049585631  nElectrons: 396.000000
	SubspaceRotationAdjust: set factor to 0.485
ElecMinimize: Iter:   9  F: -1095.680434414025285  |grad|_K:  1.146e-06  alpha:  8.059e-01  linmin:  5.301e-06  t[s]:    636.75
	FillingsUpdate:  mu: -0.048984775  nElectrons: 396.000000
	SubspaceRotationAdjust: set factor to 0.434
ElecMinimize: Iter:  10  F: -1095.680506306712914  |grad|_K:  7.281e-07  alpha:  6.931e-01  linmin:  2.178e-06  t[s]:    673.34
	FillingsUpdate:  mu: -0.049428472  nElectrons: 396.000000
	SubspaceRotationAdjust: set factor to 0.425
ElecMinimize: Iter:  11  F: -1095.680539759176327  |grad|_K:  5.506e-07  alpha:  7.985e-01  linmin:  1.642e-06  t[s]:    709.20
	FillingsUpdate:  mu: -0.049159329  nElectrons: 396.000000
	SubspaceRotationAdjust: set factor to 0.481
ElecMinimize: Iter:  12  F: -1095.680560424417536  |grad|_K:  4.539e-07  alpha:  8.627e-01  linmin:  1.569e-06  t[s]:    746.65
	FillingsUpdate:  mu: -0.049239444  nElectrons: 396.000000
	SubspaceRotationAdjust: set factor to 0.566
ElecMinimize: Iter:  13  F: -1095.680575508476977  |grad|_K:  3.735e-07  alpha:  9.281e-01  linmin:  4.584e-06  t[s]:    782.98
	FillingsUpdate:  mu: -0.049242771  nElectrons: 396.000000
	SubspaceRotationAdjust: set factor to 0.638
ElecMinimize: Iter:  14  F: -1095.680585270697065  |grad|_K:  2.966e-07  alpha:  8.929e-01  linmin:  3.906e-06  t[s]:    819.27
	FillingsUpdate:  mu: -0.049113812  nElectrons: 396.000000
	SubspaceRotationAdjust: set factor to 0.665
ElecMinimize: Iter:  15  F: -1095.680590691511952  |grad|_K:  2.553e-07  alpha:  7.841e-01  linmin:  1.263e-06  t[s]:    855.46
	FillingsUpdate:  mu: -0.049316587  nElectrons: 396.000000
	SubspaceRotationAdjust: set factor to 0.639
ElecMinimize: Iter:  16  F: -1095.680593813095811  |grad|_K:  2.216e-07  alpha:  6.057e-01  linmin:  5.016e-08  t[s]:    892.06
	FillingsUpdate:  mu: -0.049172657  nElectrons: 396.000000
	SubspaceRotationAdjust: set factor to 0.668
ElecMinimize: Iter:  17  F: -1095.680595969826527  |grad|_K:  1.571e-07  alpha:  5.536e-01  linmin:  3.344e-07  t[s]:    929.34
	FillingsUpdate:  mu: -0.049226073  nElectrons: 396.000000
	SubspaceRotationAdjust: set factor to 0.821
ElecMinimize: Iter:  18  F: -1095.680597306393565  |grad|_K:  1.069e-07  alpha:  6.841e-01  linmin:  5.162e-08  t[s]:    965.11
	FillingsUpdate:  mu: -0.049218398  nElectrons: 396.000000
	SubspaceRotationAdjust: set factor to 1
ElecMinimize: Iter:  19  F: -1095.680597947243086  |grad|_K:  7.404e-08  alpha:  7.078e-01  linmin:  7.153e-08  t[s]:   1002.01
	FillingsUpdate:  mu: -0.049224717  nElectrons: 396.000000
	SubspaceRotationAdjust: set factor to 1.23
ElecMinimize: Iter:  20  F: -1095.680598252893105  |grad|_K:  5.093e-08  alpha:  7.034e-01  linmin:  1.185e-07  t[s]:   1038.91
	FillingsUpdate:  mu: -0.049216111  nElectrons: 396.000000
	SubspaceRotationAdjust: set factor to 1.49
ElecMinimize: Iter:  21  F: -1095.680598386328029  |grad|_K:  3.642e-08  alpha:  6.492e-01  linmin:  8.536e-08  t[s]:   1075.21
	FillingsUpdate:  mu: -0.049238891  nElectrons: 396.000000
	SubspaceRotationAdjust: set factor to 1.04
ElecMinimize: Iter:  22  F: -1095.680598435888214  |grad|_K:  3.931e-08  alpha:  4.715e-01  linmin:  3.983e-09  t[s]:   1111.75
	FillingsUpdate:  mu: -0.049214216  nElectrons: 396.000000
	SubspaceRotationAdjust: set factor to 0.752
ElecMinimize: Iter:  23  F: -1095.680598458339318  |grad|_K:  2.235e-08  alpha:  1.830e-01  linmin: -1.977e-08  t[s]:   1149.71
ElecMinimize: 	Predicted alpha/alphaT>3.000000, increasing alphaT to 5.489979e-01.
	FillingsUpdate:  mu: -0.049214250  nElectrons: 396.000000
	SubspaceRotationAdjust: set factor to 1.06
ElecMinimize: Iter:  24  F: -1095.680598480849085  |grad|_K:  1.534e-08  alpha:  5.678e-01  linmin: -3.111e-08  t[s]:   1197.16
	FillingsUpdate:  mu: -0.049227199  nElectrons: 396.000000
	SubspaceRotationAdjust: set factor to 0.799
ElecMinimize: Iter:  25  F: -1095.680598490754392  |grad|_K:  1.702e-08  alpha:  5.313e-01  linmin:  6.654e-09  t[s]:   1233.47
	FillingsUpdate:  mu: -0.049217552  nElectrons: 396.000000
	SubspaceRotationAdjust: set factor to 0.729
ElecMinimize: Iter:  26  F: -1095.680598497690653  |grad|_K:  1.094e-08  alpha:  3.019e-01  linmin:  1.854e-08  t[s]:   1270.66
ElecMinimize: Converged (|Delta F|<1.000000e-08 for 2 iters).
Setting wave functions to eigenvectors of Hamiltonian
Vacuum energy after initial minimize, F = -1095.680598497690653

	Linear fluid (dielectric constant: 78.4, screening length: 5.74355 Bohr) occupying 0.711851 of unit cell:	Completed after 17 iterations at t[s]:   1279.92

-------- Electronic minimization -----------
	Linear fluid (dielectric constant: 78.4, screening length: 5.74355 Bohr) occupying 0.711851 of unit cell:	Completed after 0 iterations at t[s]:   1287.32
	FillingsUpdate:  mu: -0.166707075  nElectrons: 396.000000
ElecMinimize: Iter:   0  F: -1095.674741324768320  |grad|_K:  1.243e-06  alpha:  1.000e+00
	Linear fluid (dielectric constant: 78.4, screening length: 5.74355 Bohr) occupying 0.712226 of unit cell:	Completed after 8 iterations at t[s]:   1317.21
	Linear fluid (dielectric constant: 78.4, screening length: 5.74355 Bohr) occupying 0.712269 of unit cell:	Completed after 3 iterations at t[s]:   1328.40
	FillingsUpdate:  mu: -0.165761905  nElectrons: 396.000000
	SubspaceRotationAdjust: set factor to 0.723
ElecMinimize: Iter:   1  F: -1095.674878630333524  |grad|_K:  4.978e-07  alpha:  1.118e+00  linmin: -2.427e-06  t[s]:   1342.08
	Linear fluid (dielectric constant: 78.4, screening length: 5.74355 Bohr) occupying 0.712363 of unit cell:	Completed after 6 iterations at t[s]:   1355.71
	Linear fluid (dielectric constant: 78.4, screening length: 5.74355 Bohr) occupying 0.712310 of unit cell:	Completed after 5 iterations at t[s]:   1367.84
	FillingsUpdate:  mu: -0.165956135  nElectrons: 396.000000
	SubspaceRotationAdjust: set factor to 0.484
ElecMinimize: Iter:   2  F: -1095.674888424951860  |grad|_K:  3.389e-07  alpha:  4.885e-01  linmin:  2.322e-07  t[s]:   1382.37
	Linear fluid (dielectric constant: 78.4, screening length: 5.74355 Bohr) occupying 0.712337 of unit cell:	Completed after 6 iterations at t[s]:   1396.04
	Linear fluid (dielectric constant: 78.4, screening length: 5.74355 Bohr) occupying 0.712330 of unit cell:	Completed after 2 iterations at t[s]:   1407.99
	FillingsUpdate:  mu: -0.165583680  nElectrons: 396.000000
	SubspaceRotationAdjust: set factor to 0.298
ElecMinimize: Iter:   3  F: -1095.674891633013203  |grad|_K:  1.823e-07  alpha:  3.601e-01  linmin:  9.226e-07  t[s]:   1421.73
	Linear fluid (dielectric constant: 78.4, screening length: 5.74355 Bohr) occupying 0.712333 of unit cell:	Completed after 2 iterations at t[s]:   1434.43
	Linear fluid (dielectric constant: 78.4, screening length: 5.74355 Bohr) occupying 0.712335 of unit cell:	Completed after 3 iterations at t[s]:   1445.87
	FillingsUpdate:  mu: -0.165736565  nElectrons: 396.000000
	SubspaceRotationAdjust: set factor to 0.324
ElecMinimize: Iter:   4  F: -1095.674893182362439  |grad|_K:  9.446e-08  alpha:  5.946e-01  linmin: -3.917e-06  t[s]:   1459.89
	Linear fluid (dielectric constant: 78.4, screening length: 5.74355 Bohr) occupying 0.712337 of unit cell:	Completed after 2 iterations at t[s]:   1473.22
	Linear fluid (dielectric constant: 78.4, screening length: 5.74355 Bohr) occupying 0.712337 of unit cell:	Completed after 0 iterations at t[s]:   1485.21
	FillingsUpdate:  mu: -0.165792714  nElectrons: 396.000000
	SubspaceRotationAdjust: set factor to 0.345
ElecMinimize: Iter:   5  F: -1095.674893694974344  |grad|_K:  5.444e-08  alpha:  6.925e-01  linmin: -1.021e-04  t[s]:   1499.33
	Linear fluid (dielectric constant: 78.4, screening length: 5.74355 Bohr) occupying 0.712337 of unit cell:	Completed after 0 iterations at t[s]:   1511.81
	Linear fluid (dielectric constant: 78.4, screening length: 5.74355 Bohr) occupying 0.712337 of unit cell:	Completed after 2 iterations at t[s]:   1523.17
	FillingsUpdate:  mu: -0.165760523  nElectrons: 396.000000
	SubspaceRotationAdjust: set factor to 0.331
ElecMinimize: Iter:   6  F: -1095.674893887744020  |grad|_K:  4.740e-08  alpha:  1.203e+00  linmin:  7.986e-05  t[s]:   1536.88
	Linear fluid (dielectric constant: 78.4, screening length: 5.74355 Bohr) occupying 0.712335 of unit cell:	Completed after 0 iterations at t[s]:   1549.70
	Linear fluid (dielectric constant: 78.4, screening length: 5.74355 Bohr) occupying 0.712336 of unit cell:	Completed after 0 iterations at t[s]:   1561.10
	FillingsUpdate:  mu: -0.165758152  nElectrons: 396.000000
	SubspaceRotationAdjust: set factor to 0.371
ElecMinimize: Iter:   7  F: -1095.674893943451480  |grad|_K:  3.335e-08  alpha:  6.232e-01  linmin: -2.233e-06  t[s]:   1574.92
	Linear fluid (dielectric constant: 78.4, screening length: 5.74355 Bohr) occupying 0.712335 of unit cell:	Completed after 0 iterations at t[s]:   1587.95
	Linear fluid (dielectric constant: 78.4, screening length: 5.74355 Bohr) occupying 0.712335 of unit cell:	Completed after 0 iterations at t[s]:   1598.93
	FillingsUpdate:  mu: -0.165758433  nElectrons: 396.000000
	SubspaceRotationAdjust: set factor to 0.465
ElecMinimize: Iter:   8  F: -1095.674894000221229  |grad|_K:  2.224e-08  alpha:  6.322e-01  linmin:  7.012e-08  t[s]:   1612.75
	Linear fluid (dielectric constant: 78.4, screening length: 5.74355 Bohr) occupying 0.712334 of unit cell:	Completed after 0 iterations at t[s]:   1625.37
	Linear fluid (dielectric constant: 78.4, screening length: 5.74355 Bohr) occupying 0.712334 of unit cell:	Completed after 1 iterations at t[s]:   1636.84
ElecMinimize: 	Step increased F by 2.613024e-08, reducing alpha to 8.400063e-02.
	Linear fluid (dielectric constant: 78.4, screening length: 5.74355 Bohr) occupying 0.712334 of unit cell:	Completed after 0 iterations at t[s]:   1662.02
ElecMinimize: 	Step increased F by 1.745798e-08, reducing alpha to 8.400063e-03.
	Linear fluid (dielectric constant: 78.4, screening length: 5.74355 Bohr) occupying 0.712334 of unit cell:	Completed after 0 iterations at t[s]:   1686.44
ElecMinimize: 	Step increased F by 1.869125e-08, reducing alpha to 8.400063e-04.
ElecMinimize: 	Step failed to reduce F after 3 attempts. Quitting step.
ElecMinimize: 	Undoing step.
	Linear fluid (dielectric constant: 78.4, screening length: 5.74355 Bohr) occupying 0.712335 of unit cell:	Completed after 0 iterations at t[s]:   1710.19
ElecMinimize: 	Step failed: resetting search direction.
	FillingsUpdate:  mu: -0.165770938  nElectrons: 396.000000
	SubspaceRotationAdjust: set factor to 0.451
ElecMinimize: Iter:   9  F: -1095.674893981500873  |grad|_K:  2.540e-08  alpha:  8.400e-04
	Linear fluid (dielectric constant: 78.4, screening length: 5.74355 Bohr) occupying 0.712335 of unit cell:	Completed after 0 iterations at t[s]:   1736.13
	Linear fluid (dielectric constant: 78.4, screening length: 5.74355 Bohr) occupying 0.712335 of unit cell:	Completed after 0 iterations at t[s]:   1747.35
	FillingsUpdate:  mu: -0.165770660  nElectrons: 396.000000
	SubspaceRotationAdjust: set factor to 0.563
ElecMinimize: Iter:  10  F: -1095.674894028380777  |grad|_K:  1.324e-08  alpha:  9.161e-01  linmin: -8.237e-08  t[s]:   1762.21
	Linear fluid (dielectric constant: 78.4, screening length: 5.74355 Bohr) occupying 0.712334 of unit cell:	Completed after 0 iterations at t[s]:   1774.80
	Linear fluid (dielectric constant: 78.4, screening length: 5.74355 Bohr) occupying 0.712334 of unit cell:	Completed after 0 iterations at t[s]:   1785.99
	FillingsUpdate:  mu: -0.165770827  nElectrons: 396.000000
	SubspaceRotationAdjust: set factor to 0.643
ElecMinimize: Iter:  11  F: -1095.674894044408802  |grad|_K:  9.327e-09  alpha:  1.154e+00  linmin: -2.205e-08  t[s]:   1799.98
	Linear fluid (dielectric constant: 78.4, screening length: 5.74355 Bohr) occupying 0.712334 of unit cell:	Completed after 2 iterations at t[s]:   1813.26
	Linear fluid (dielectric constant: 78.4, screening length: 5.74355 Bohr) occupying 0.712334 of unit cell:	Completed after 0 iterations at t[s]:   1824.12
ElecMinimize: 	Step increased F by 6.332175e-08, reducing alpha to 8.209589e-03.
	Linear fluid (dielectric constant: 78.4, screening length: 5.74355 Bohr) occupying 0.712334 of unit cell:	Completed after 0 iterations at t[s]:   1847.24
ElecMinimize: 	Step increased F by 6.190157e-08, reducing alpha to 8.209589e-04.
	Linear fluid (dielectric constant: 78.4, screening length: 5.74355 Bohr) occupying 0.712334 of unit cell:	Completed after 0 iterations at t[s]:   1871.58
ElecMinimize: 	Step increased F by 6.178198e-08, reducing alpha to 8.209589e-05.
ElecMinimize: 	Step failed to reduce F after 3 attempts. Quitting step.
ElecMinimize: 	Undoing step.
	Linear fluid (dielectric constant: 78.4, screening length: 5.74355 Bohr) occupying 0.712334 of unit cell:	Completed after 0 iterations at t[s]:   1895.97
ElecMinimize: 	Step failed: resetting search direction.
	FillingsUpdate:  mu: -0.165744328  nElectrons: 396.000000
	SubspaceRotationAdjust: set factor to 0.454
ElecMinimize: Iter:  12  F: -1095.674893982624781  |grad|_K:  4.807e-08  alpha:  8.210e-05
	Linear fluid (dielectric constant: 78.4, screening length: 5.74355 Bohr) occupying 0.712332 of unit cell:	Completed after 3 iterations at t[s]:   1923.03
	Linear fluid (dielectric constant: 78.4, screening length: 5.74355 Bohr) occupying 0.712334 of unit cell:	Completed after 1 iterations at t[s]:   1934.35
	FillingsUpdate:  mu: -0.165795009  nElectrons: 396.000000
	SubspaceRotationAdjust: set factor to 0.179
ElecMinimize: Iter:  13  F: -1095.674894034586259  |grad|_K:  1.240e-08  alpha:  3.289e-01  linmin:  2.913e-04  t[s]:   1948.39
	Linear fluid (dielectric constant: 78.4, screening length: 5.74355 Bohr) occupying 0.712334 of unit cell:	Completed after 0 iterations at t[s]:   1960.66
ElecMinimize: 	Predicted alpha/alphaT>3.000000, increasing alphaT to 9.867688e-01.
	Linear fluid (dielectric constant: 78.4, screening length: 5.74355 Bohr) occupying 0.712334 of unit cell:	Completed after 0 iterations at t[s]:   1971.26
	Linear fluid (dielectric constant: 78.4, screening length: 5.74355 Bohr) occupying 0.712335 of unit cell:	Completed after 0 iterations at t[s]:   1982.33
	FillingsUpdate:  mu: -0.165795331  nElectrons: 396.000000
	SubspaceRotationAdjust: set factor to 0.264
ElecMinimize: Iter:  14  F: -1095.674894053730895  |grad|_K:  1.174e-08  alpha:  1.924e+00  linmin:  1.102e-07  t[s]:   1996.69
	Linear fluid (dielectric constant: 78.4, screening length: 5.74355 Bohr) occupying 0.712336 of unit cell:	Completed after 2 iterations at t[s]:   2009.61
	Linear fluid (dielectric constant: 78.4, screening length: 5.74355 Bohr) occupying 0.712335 of unit cell:	Completed after 0 iterations at t[s]:   2021.11
ElecMinimize: 	Step increased F by 3.140485e-08, reducing alpha to 1.090057e-02.
	Linear fluid (dielectric constant: 78.4, screening length: 5.74355 Bohr) occupying 0.712335 of unit cell:	Completed after 0 iterations at t[s]:   2044.88
ElecMinimize: 	Step increased F by 1.761123e-08, reducing alpha to 1.090057e-03.
	Linear fluid (dielectric constant: 78.4, screening length: 5.74355 Bohr) occupying 0.712335 of unit cell:	Completed after 0 iterations at t[s]:   2068.50
ElecMinimize: 	Step increased F by 1.625017e-08, reducing alpha to 1.090057e-04.
ElecMinimize: 	Step failed to reduce F after 3 attempts. Quitting step.
ElecMinimize: 	Undoing step.
	Linear fluid (dielectric constant: 78.4, screening length: 5.74355 Bohr) occupying 0.712335 of unit cell:	Completed after 0 iterations at t[s]:   2092.15
ElecMinimize: 	Step failed: resetting search direction.
	FillingsUpdate:  mu: -0.165664985  nElectrons: 396.000000
	SubspaceRotationAdjust: set factor to 0.177
ElecMinimize: Iter:  15  F: -1095.674894037486865  |grad|_K:  8.104e-08  alpha:  1.090e-04
	Linear fluid (dielectric constant: 78.4, screening length: 5.74355 Bohr) occupying 0.712333 of unit cell:	Completed after 6 iterations at t[s]:   2120.49
	Linear fluid (dielectric constant: 78.4, screening length: 5.74355 Bohr) occupying 0.712335 of unit cell:	Completed after 3 iterations at t[s]:   2132.02
	FillingsUpdate:  mu: -0.165894712  nElectrons: 396.000000
	SubspaceRotationAdjust: set factor to 0.0742
	SubspaceRotationAdjust: resetting CG because factor has changed by 0.10173
	Linear fluid (dielectric constant: 78.4, screening length: 5.74355 Bohr) occupying 0.712335 of unit cell:	Completed after 0 iterations at t[s]:   2151.45
ElecMinimize: 	State modified externally: resetting search direction.
ElecMinimize: Iter:  16  F: -1095.674894094113370  |grad|_K:  2.875e-08  alpha:  3.669e-01
	Linear fluid (dielectric constant: 78.4, screening length: 5.74355 Bohr) occupying 0.712335 of unit cell:	Completed after 0 iterations at t[s]:   2177.39
ElecMinimize: 	Predicted alpha/alphaT>3.000000, increasing alphaT to 1.100618e+00.
	Linear fluid (dielectric constant: 78.4, screening length: 5.74355 Bohr) occupying 0.712335 of unit cell:	Completed after 3 iterations at t[s]:   2189.01
	Linear fluid (dielectric constant: 78.4, screening length: 5.74355 Bohr) occupying 0.712335 of unit cell:	Completed after 0 iterations at t[s]:   2200.44
ElecMinimize: 	Step increased F by 1.062131e-08, reducing alpha to 3.752302e-02.
	Linear fluid (dielectric constant: 78.4, screening length: 5.74355 Bohr) occupying 0.712335 of unit cell:	Completed after 0 iterations at t[s]:   2224.70
	FillingsUpdate:  mu: -0.165769442  nElectrons: 396.000000
	SubspaceRotationAdjust: set factor to 0.179
ElecMinimize: Iter:  17  F: -1095.674894099829771  |grad|_K:  1.552e-08  alpha:  3.752e-02  linmin:  6.164e-04  t[s]:   2238.36
	Linear fluid (dielectric constant: 78.4, screening length: 5.74355 Bohr) occupying 0.712335 of unit cell:	Completed after 0 iterations at t[s]:   2250.89
ElecMinimize: 	Predicted alpha/alphaT>3.000000, increasing alphaT to 1.125690e-01.
	Linear fluid (dielectric constant: 78.4, screening length: 5.74355 Bohr) occupying 0.712335 of unit cell:	Completed after 0 iterations at t[s]:   2261.43
ElecMinimize: 	Predicted alpha/alphaT>3.000000, increasing alphaT to 3.377071e-01.
	Linear fluid (dielectric constant: 78.4, screening length: 5.74355 Bohr) occupying 0.712335 of unit cell:	Completed after 0 iterations at t[s]:   2272.57
ElecMinimize: 	Predicted alpha/alphaT>3.000000, increasing alphaT to 1.013121e+00.
	Linear fluid (dielectric constant: 78.4, screening length: 5.74355 Bohr) occupying 0.712335 of unit cell:	Completed after 0 iterations at t[s]:   2283.18
	FillingsUpdate:  mu: -0.165769681  nElectrons: 396.000000
	SubspaceRotationAdjust: set factor to 0.208
ElecMinimize: Iter:  18  F: -1095.674894116284349  |grad|_K:  1.319e-08  alpha:  1.254e+00  linmin:  1.086e-05  t[s]:   2296.90
	Linear fluid (dielectric constant: 78.4, screening length: 5.74355 Bohr) occupying 0.712335 of unit cell:	Completed after 1 iterations at t[s]:   2309.44
	Linear fluid (dielectric constant: 78.4, screening length: 5.74355 Bohr) occupying 0.712335 of unit cell:	Completed after 0 iterations at t[s]:   2320.23
ElecMinimize: 	Step increased F by 9.430414e-08, reducing alpha to 9.404785e-03.
	Linear fluid (dielectric constant: 78.4, screening length: 5.74355 Bohr) occupying 0.712335 of unit cell:	Completed after 0 iterations at t[s]:   2344.28
ElecMinimize: 	Step increased F by 8.820712e-08, reducing alpha to 9.404785e-04.
	Linear fluid (dielectric constant: 78.4, screening length: 5.74355 Bohr) occupying 0.712335 of unit cell:	Completed after 0 iterations at t[s]:   2368.40
ElecMinimize: 	Step increased F by 8.759844e-08, reducing alpha to 9.404785e-05.
ElecMinimize: 	Step failed to reduce F after 3 attempts. Quitting step.
ElecMinimize: 	Undoing step.
	Linear fluid (dielectric constant: 78.4, screening length: 5.74355 Bohr) occupying 0.712335 of unit cell:	Completed after 0 iterations at t[s]:   2392.66
ElecMinimize: 	Step failed: resetting search direction.
	FillingsUpdate:  mu: -0.165816755  nElectrons: 396.000000
	SubspaceRotationAdjust: set factor to 0.189
ElecMinimize: Iter:  19  F: -1095.674894028717290  |grad|_K:  3.611e-08  alpha:  9.405e-05
	Linear fluid (dielectric constant: 78.4, screening length: 5.74355 Bohr) occupying 0.712335 of unit cell:	Completed after 2 iterations at t[s]:   2419.28
	Linear fluid (dielectric constant: 78.4, screening length: 5.74355 Bohr) occupying 0.712335 of unit cell:	Completed after 0 iterations at t[s]:   2430.44
	FillingsUpdate:  mu: -0.165759574  nElectrons: 396.000000
	SubspaceRotationAdjust: set factor to 0.134
ElecMinimize: Iter:  20  F: -1095.674894082864057  |grad|_K:  2.677e-08  alpha:  4.532e-01  linmin:  4.217e-04  t[s]:   2444.31
	Linear fluid (dielectric constant: 78.4, screening length: 5.74355 Bohr) occupying 0.712335 of unit cell:	Completed after 0 iterations at t[s]:   2456.95
ElecMinimize: 	Predicted alpha/alphaT>3.000000, increasing alphaT to 1.359650e+00.
	Linear fluid (dielectric constant: 78.4, screening length: 5.74355 Bohr) occupying 0.712335 of unit cell:	Completed after 1 iterations at t[s]:   2468.54
	Linear fluid (dielectric constant: 78.4, screening length: 5.74355 Bohr) occupying 0.712335 of unit cell:	Completed after 0 iterations at t[s]:   2479.64
ElecMinimize: 	Step increased F by 3.706282e-08, reducing alpha to 3.295786e-02.
	Linear fluid (dielectric constant: 78.4, screening length: 5.74355 Bohr) occupying 0.712335 of unit cell:	Completed after 0 iterations at t[s]:   2519.01
ElecMinimize: 	Step increased F by 3.745640e-08, reducing alpha to 3.295786e-03.
	Linear fluid (dielectric constant: 78.4, screening length: 5.74355 Bohr) occupying 0.712335 of unit cell:	Completed after 0 iterations at t[s]:   2542.36
ElecMinimize: 	Step increased F by 3.762148e-08, reducing alpha to 3.295786e-04.
ElecMinimize: 	Step failed to reduce F after 3 attempts. Quitting step.
ElecMinimize: 	Undoing step.
	Linear fluid (dielectric constant: 78.4, screening length: 5.74355 Bohr) occupying 0.712335 of unit cell:	Completed after 0 iterations at t[s]:   2565.27
ElecMinimize: 	Step failed: resetting search direction.
	FillingsUpdate:  mu: -0.165767339  nElectrons: 396.000000
	SubspaceRotationAdjust: set factor to 0.201
ElecMinimize: Iter:  21  F: -1095.674894045230985  |grad|_K:  7.958e-09  alpha:  3.296e-04
	Linear fluid (dielectric constant: 78.4, screening length: 5.74355 Bohr) occupying 0.712335 of unit cell:	Completed after 0 iterations at t[s]:   2600.90
	Linear fluid (dielectric constant: 78.4, screening length: 5.74355 Bohr) occupying 0.712335 of unit cell:	Completed after 0 iterations at t[s]:   2611.91
	FillingsUpdate:  mu: -0.165767481  nElectrons: 396.000000
	SubspaceRotationAdjust: set factor to 0.258
ElecMinimize: Iter:  22  F: -1095.674894050895318  |grad|_K:  5.313e-09  alpha:  1.079e+00  linmin: -9.324e-06  t[s]:   2626.06
	Linear fluid (dielectric constant: 78.4, screening length: 5.74355 Bohr) occupying 0.712335 of unit cell:	Completed after 0 iterations at t[s]:   2638.52
	Linear fluid (dielectric constant: 78.4, screening length: 5.74355 Bohr) occupying 0.712334 of unit cell:	Completed after 0 iterations at t[s]:   2649.52
	FillingsUpdate:  mu: -0.165767585  nElectrons: 396.000000
	SubspaceRotationAdjust: set factor to 0.342
ElecMinimize: Iter:  23  F: -1095.674894054495326  |grad|_K:  5.136e-09  alpha:  1.527e+00  linmin: -7.330e-07  t[s]:   2663.14
ElecMinimize: Converged (|Delta F|<1.000000e-08 for 2 iters).
Setting wave functions to eigenvectors of Hamiltonian
Single-point solvation energy estimate, DeltaF = +0.005704443195327

# Ionic positions in lattice coordinates:
ion Zr   0.166666666666667   0.000000000000000   0.599810572108326 0
ion Zr   0.500000000000000   0.000000000000000   0.599810572108326 0
ion Zr   0.833333333333333   0.000000000000000   0.599810572108326 0
ion Zr   0.166666666666667   0.333333333333333   0.599810572108326 0
ion Zr   0.500000000000000   0.333333333333333   0.599810572108326 0
ion Zr   0.833333333333333   0.333333333333333   0.599810572108326 0
ion Zr   0.166666666666667   0.666666666666667   0.599810572108326 0
ion Zr   0.500000000000000   0.666666666666667   0.599810572108326 0
ion Zr   0.833333333333333   0.666666666666667   0.599810572108326 0
ion Zr   1.000000000000000   0.166666666666667   0.400189615002926 0
ion Zr   0.333333333333333   0.166666666666667   0.400189615002926 0
ion Zr   0.666666666666667   0.166666666666667   0.400189615002926 0
ion Zr   1.000000000000000   0.500000000000000   0.400189615002926 0
ion Zr   0.333333333333333   0.500000000000000   0.400189615002926 0
ion Zr   0.666666666666667   0.500000000000000   0.400189615002926 0
ion Zr   1.000000000000000   0.833333333333333   0.400189615002926 0
ion Zr   0.333333333333333   0.833333333333333   0.400189615002926 0
ion Zr   0.666666666666667   0.833333333333333   0.400189615002926 0
ion Si   0.000000000000000  -0.000000000000000   0.500000093555626 0
ion Si   0.333333333333333  -0.000000000000000   0.500000093555626 0
ion Si   0.666666666666667  -0.000000000000000   0.500000093555626 0
ion Si   0.000000000000000   0.333333333333333   0.500000093555626 0
ion Si   0.333333333333333   0.333333333333333   0.500000093555626 0
ion Si   0.666666666666667   0.333333333333333   0.500000093555626 0
ion Si   0.000000000000000   0.666666666666667   0.500000093555626 0
ion Si   0.333333333333333   0.666666666666667   0.500000093555626 0
ion Si   0.666666666666667   0.666666666666667   0.500000093555626 0
ion Si   0.166666666666667   0.166666666666667   0.500000093555626 0
ion Si   0.500000000000000   0.166666666666667   0.500000093555626 0
ion Si   0.833333333333333   0.166666666666667   0.500000093555626 0
ion Si   0.166666666666667   0.500000000000000   0.500000093555626 0
ion Si   0.500000000000000   0.500000000000000   0.500000093555626 0
ion Si   0.833333333333333   0.500000000000000   0.500000093555626 0
ion Si   0.166666666666667   0.833333333333333   0.500000093555626 0
ion Si   0.500000000000000   0.833333333333333   0.500000093555626 0
ion Si   0.833333333333333   0.833333333333333   0.500000093555626 0
ion Se  -0.000000000000000   0.166666666666667   0.654416684149918 0
ion Se   0.333333333333333   0.166666666666667   0.654416684149918 0
ion Se   0.666666666666667   0.166666666666667   0.654416684149918 0
ion Se  -0.000000000000000   0.500000000000000   0.654416684149918 0
ion Se   0.333333333333333   0.500000000000000   0.654416684149918 0
ion Se   0.666666666666667   0.500000000000000   0.654416684149918 0
ion Se  -0.000000000000000   0.833333333333333   0.654416684149918 0
ion Se   0.333333333333333   0.833333333333333   0.654416684149918 0
ion Se   0.666666666666667   0.833333333333333   0.654416684149918 0
ion Se   0.166666666666667   1.000000000000000   0.345583502961334 0
ion Se   0.500000000000000   1.000000000000000   0.345583502961334 0
ion Se   0.833333333333333   1.000000000000000   0.345583502961334 0
ion Se   0.166666666666667   0.333333333333333   0.345583502961334 0
ion Se   0.500000000000000   0.333333333333333   0.345583502961334 0
ion Se   0.833333333333333   0.333333333333333   0.345583502961334 0
ion Se   0.166666666666667   0.666666666666667   0.345583502961334 0
ion Se   0.500000000000000   0.666666666666667   0.345583502961334 0
ion Se   0.833333333333333   0.666666666666667   0.345583502961334 0


# Forces in Lattice coordinates:
force Zr   0.000000000000000   0.000000000000000   0.119486400062518 0
force Zr   0.000000000000000  -0.000000000000000   0.119486400062518 0
force Zr  -0.000000000000000  -0.000000000000000   0.119486400062291 0
force Zr  -0.000000000000000   0.000000000000000   0.119486400062518 0
force Zr  -0.000000000000000   0.000000000000000   0.119486400062518 0
force Zr   0.000000000000000  -0.000000000000000   0.119486400062291 0
force Zr   0.000000000000000   0.000000000000000   0.119486400062518 0
force Zr  -0.000000000000000   0.000000000000000   0.119486400062291 0
force Zr  -0.000000000000000   0.000000000000000   0.119486400062518 0
force Zr  -0.000000000000000   0.000000000000000  -0.119486400062291 0
force Zr   0.000000000000000   0.000000000000000  -0.119486400062518 0
force Zr  -0.000000000000000  -0.000000000000000  -0.119486400062291 0
force Zr  -0.000000000000000  -0.000000000000000  -0.119486400062291 0
force Zr   0.000000000000000  -0.000000000000000  -0.119486400062291 0
force Zr   0.000000000000000   0.000000000000000  -0.119486400062291 0
force Zr   0.000000000000000  -0.000000000000000  -0.119486400062063 0
force Zr   0.000000000000000  -0.000000000000000  -0.119486400062518 0
force Zr  -0.000000000000000  -0.000000000000000  -0.119486400062291 0
force Si  -0.000000000000000  -0.000000000000000   0.000000000000000 0
force Si  -0.000000000000000  -0.000000000000000   0.000000000000000 0
force Si  -0.000000000000000  -0.000000000000000  -0.000000000000000 0
force Si  -0.000000000000000   0.000000000000000  -0.000000000000000 0
force Si   0.000000000000000   0.000000000000000  -0.000000000000000 0
force Si  -0.000000000000000   0.000000000000000  -0.000000000000000 0
force Si  -0.000000000000000  -0.000000000000000   0.000000000000000 0
force Si   0.000000000000000  -0.000000000000000  -0.000000000000000 0
force Si   0.000000000000000  -0.000000000000000  -0.000000000000000 0
force Si  -0.000000000000000   0.000000000000000   0.000000000000000 0
force Si   0.000000000000000   0.000000000000000  -0.000000000000000 0
force Si  -0.000000000000000   0.000000000000000  -0.000000000000000 0
force Si  -0.000000000000000  -0.000000000000000  -0.000000000000000 0
force Si   0.000000000000000   0.000000000000000  -0.000000000000000 0
force Si  -0.000000000000000   0.000000000000000  -0.000000000000000 0
force Si  -0.000000000000000  -0.000000000000000  -0.000000000000000 0
force Si   0.000000000000000  -0.000000000000000   0.000000000000000 0
force Si  -0.000000000000000  -0.000000000000000   0.000000000000000 0
force Se  -0.000000000000000  -0.000000000000000   0.010152247770669 0
force Se   0.000000000000000  -0.000000000000000   0.010152247770441 0
force Se   0.000000000000000   0.000000000000000   0.010152247770441 0
force Se  -0.000000000000000   0.000000000000000   0.010152247770441 0
force Se   0.000000000000000   0.000000000000000   0.010152247770669 0
force Se   0.000000000000000  -0.000000000000000   0.010152247770671 0
force Se   0.000000000000000  -0.000000000000000   0.010152247770214 0
force Se  -0.000000000000000   0.000000000000000   0.010152247770442 0
force Se   0.000000000000000   0.000000000000000   0.010152247770442 0
force Se  -0.000000000000000  -0.000000000000000  -0.010152247769874 0
force Se  -0.000000000000000   0.000000000000000  -0.010152247769987 0
force Se   0.000000000000000   0.000000000000000  -0.010152247769873 0
force Se   0.000000000000000  -0.000000000000000  -0.010152247769986 0
force Se   0.000000000000000   0.000000000000000  -0.010152247769986 0
force Se   0.000000000000000  -0.000000000000000  -0.010152247769873 0
force Se   0.000000000000000   0.000000000000000  -0.010152247769988 0
force Se  -0.000000000000000  -0.000000000000000  -0.010152247769986 0
force Se  -0.000000000000000  -0.000000000000000  -0.010152247769873 0

# Energy components:
   A_diel =        0.0055510486805322
   Eewald =    10178.0990953566015378
       EH =    11079.4843885260543175
     Eloc =   -22660.1036156681511784
      Enl =      161.2768677860503885
      Exc =     -467.7299690581500045
 Exc_core =      277.6390560507056762
       KE =      335.6917609149960526
-------------------------------------
     Etot =    -1095.6368650432150389
       TS =        0.0380290112802393
-------------------------------------
        F =    -1095.6748940544953257

IonicMinimize: Iter:   0  F: -1095.674894054495326  |grad|_K:  0.000e+00  t[s]:   2672.78
IonicMinimize: Converged (|grad|_K<1.000000e-04).

#--- Lowdin population analysis ---
# oxidation-state Zr -0.452 -0.452 -0.452 -0.452 -0.452 -0.452 -0.452 -0.452 -0.452 -0.452 -0.452 -0.452 -0.452 -0.452 -0.452 -0.452 -0.452 -0.452
# oxidation-state Si +0.320 +0.320 +0.320 +0.320 +0.320 +0.320 +0.320 +0.320 +0.320 +0.320 +0.320 +0.320 +0.320 +0.320 +0.320 +0.320 +0.320 +0.320
# oxidation-state Se +0.211 +0.211 +0.211 +0.211 +0.211 +0.211 +0.211 +0.211 +0.211 +0.211 +0.211 +0.211 +0.211 +0.211 +0.211 +0.211 +0.211 +0.211


Dumping 'NbTe2.fillings' ... done
Dumping 'NbTe2.wfns' ... done
Dumping 'NbTe2.fluidState' ... done
Dumping 'NbTe2.eigenvals' ... done
End date and time: Tue Jun 30 09:31:35 2020  (Duration: 0-0:44:40.28)
Done!
