
*************** JDFTx 1.5.0  ***************

Start date and time: Fri Feb 12 09:20:02 2021
Executable jdftx_gpu with command-line: -i Charged.in -o Charged.out
Running on hosts (process indices):  amax (0-6)
Divided in process groups (process indices):  0 (0)  1 (1)  2 (2)  3 (3)  4 (4)  5 (5)  6 (6)
gpuInit: Found compatible cuda device 0 'Tesla K80'
gpuInit: Found compatible cuda device 1 'Tesla K80'
gpuInit: Found compatible cuda device 2 'Tesla K80'
gpuInit: Found compatible cuda device 3 'Tesla K80'
gpuInit: Found compatible cuda device 4 'Tesla K80'
gpuInit: Found compatible cuda device 5 'Tesla K80'
gpuInit: Found compatible cuda device 6 'Tesla K80'
gpuInit: Selected device 0
Resource initialization completed at t[s]:      3.57
Run totals: 7 processes, 24 threads, 7 GPUs


Input parsed successfully to the following command list (including defaults):

basis kpoint-dependent
cache-projectors no
coords-type Lattice
core-overlap-check none
coulomb-interaction Slab 001
coulomb-truncation-embed 0.5 0.5 0.5
davidson-band-ratio 1.1
dump End State
dump-name NbTe2.$VAR
elec-cutoff 20
elec-eigen-algo Davidson
elec-ex-corr gga-PBE
elec-initial-magnetization 20.000000 no
elec-smearing Gauss 0.0073499
electronic-minimize  \
	dirUpdateScheme      FletcherReeves \
	linminMethod         DirUpdateRecommended \
	nIterations          200 \
	history              15 \
	knormThreshold       0 \
	energyDiffThreshold  1e-08 \
	nEnergyDiff          2 \
	alphaTstart          1 \
	alphaTmin            1e-10 \
	updateTestStepSize   yes \
	alphaTreduceFactor   0.1 \
	alphaTincreaseFactor 3 \
	nAlphaAdjustMax      3 \
	wolfeEnergy          0.0001 \
	wolfeGradient        0.9 \
	fdTest               no
exchange-regularization WignerSeitzTruncated
fluid LinearPCM 298.000000 1.013250
fluid-anion F- 1 MeanFieldLJ \
	epsBulk 1 \
	pMol 0 \
	epsInf 1 \
	Pvap 0 \
	sigmaBulk 0 \
	Rvdw 2.24877 \
	Res 0 \
	tauNuc 343133
fluid-cation Na+ 1 MeanFieldLJ \
	epsBulk 1 \
	pMol 0 \
	epsInf 1 \
	Pvap 0 \
	sigmaBulk 0 \
	Rvdw 2.19208 \
	Res 0 \
	tauNuc 343133
fluid-ex-corr lda-TF lda-PZ
fluid-gummel-loop 10 1.000000e-05
fluid-minimize  \
	dirUpdateScheme      PolakRibiere \
	linminMethod         DirUpdateRecommended \
	nIterations          400 \
	history              15 \
	knormThreshold       1e-11 \
	energyDiffThreshold  0 \
	nEnergyDiff          2 \
	alphaTstart          1 \
	alphaTmin            1e-10 \
	updateTestStepSize   yes \
	alphaTreduceFactor   0.1 \
	alphaTincreaseFactor 3 \
	nAlphaAdjustMax      6 \
	wolfeEnergy          0.0001 \
	wolfeGradient        0.9 \
	fdTest               no
fluid-solvent H2O 55.338 ScalarEOS \
	epsBulk 78.4 \
	pMol 0.92466 \
	epsInf 1.77 \
	Pvap 1.06736e-10 \
	sigmaBulk 4.62e-05 \
	Rvdw 2.61727 \
	Res 1.42 \
	tauNuc 343133 \
	poleEl 15 7 1
forces-output-coords Positions
initial-state NbTe2.$VAR
ion W   0.083334675099593   0.166665307358739   0.500000000000000 1
ion W   0.333334675099593   0.166665307358739   0.500000000000000 1
ion W   0.583334675099593   0.166665307358739   0.500000000000000 1
ion W   0.833334675099593   0.166665307358739   0.500000000000000 1
ion W   0.083334675099593   0.416665307358739   0.500000000000000 1
ion W   0.333334675099593   0.416665307358739   0.500000000000000 1
ion W   0.583334675099593   0.416665307358739   0.500000000000000 1
ion W   0.833334675099593   0.416665307358739   0.500000000000000 1
ion W   0.083334675099593   0.666665307358739   0.500000000000000 1
ion W   0.333334675099593   0.666665307358739   0.500000000000000 1
ion W   0.583334675099593   0.666665307358739   0.500000000000000 1
ion W   0.833334675099593   0.666665307358739   0.500000000000000 1
ion W   0.083334675099593   0.916665307358739   0.500000000000000 1
ion W   0.333334675099593   0.916665307358739   0.500000000000000 1
ion W   0.583334675099593   0.916665307358739   0.500000000000000 1
ion W   0.833334675099593   0.916665307358739   0.500000000000000 1
ion Se   0.166667655762704   0.083332326695629   0.406896668529060 1
ion Se   0.166667655762704   0.083332326695629   0.593103331470940 1
ion Se   0.416667655762704   0.083332326695629   0.406896668529060 1
ion Se   0.416667655762704   0.083332326695629   0.593103331470940 1
ion Se   0.666667655762704   0.083332326695629   0.406896668529060 1
ion Se   0.666667655762704   0.083332326695629   0.593103331470940 1
ion Se   0.916667655762704   0.083332326695629   0.406896668529060 1
ion Se   0.916667655762704   0.083332326695629   0.593103331470940 1
ion Se   0.166667655762704   0.333332326695629   0.406896668529060 1
ion Se   0.166667655762704   0.333332326695629   0.593103331470940 1
ion Se   0.416667655762704   0.333332326695629   0.406896668529060 1
ion Se   0.416667655762704   0.333332326695629   0.593103331470940 1
ion Se   0.666667655762704   0.333332326695629   0.406896668529060 1
ion Se   0.666667655762704   0.333332326695629   0.593103331470940 1
ion Se   0.916667655762704   0.333332326695629   0.406896668529060 1
ion Se   0.916667655762704   0.333332326695629   0.593103331470940 1
ion Se   0.166667655762704   0.583332326695629   0.406896668529060 1
ion Se   0.166667655762704   0.583332326695629   0.593103331470940 1
ion Se   0.416667655762704   0.583332326695629   0.406896668529060 1
ion Se   0.416667655762704   0.583332326695629   0.593103331470940 1
ion Se   0.666667655762704   0.583332326695629   0.406896668529060 1
ion Se   0.666667655762704   0.583332326695629   0.593103331470940 1
ion Se   0.916667655762704   0.583332326695629   0.406896668529060 1
ion Se   0.916667655762704   0.583332326695629   0.593103331470940 1
ion Se   0.166667655762704   0.833332326695629   0.406896668529060 1
ion Se   0.166667655762704   0.833332326695629   0.593103331470940 1
ion Se   0.416667655762704   0.833332326695629   0.406896668529060 1
ion Se   0.416667655762704   0.833332326695629   0.593103331470940 1
ion Se   0.666667655762704   0.833332326695629   0.406896668529060 1
ion Se   0.666667655762704   0.833332326695629   0.593103331470940 1
ion Se   0.916667655762704   0.833332326695629   0.406896668529060 1
ion Se   0.916667655762704   0.833332326695629   0.593103331470940 1
ion-species GBRV/$ID_pbe.uspp
ion-width Ecut
ionic-minimize  \
	dirUpdateScheme      L-BFGS \
	linminMethod         DirUpdateRecommended \
	nIterations          500 \
	history              15 \
	knormThreshold       0.0001 \
	energyDiffThreshold  1e-06 \
	nEnergyDiff          2 \
	alphaTstart          1 \
	alphaTmin            1e-10 \
	updateTestStepSize   yes \
	alphaTreduceFactor   0.1 \
	alphaTincreaseFactor 3 \
	nAlphaAdjustMax      3 \
	wolfeEnergy          0.0001 \
	wolfeGradient        0.9 \
	fdTest               no
kpoint   0.000000000000   0.000000000000   0.000000000000  1.00000000000000
kpoint-folding 3 3 1 
latt-move-scale 1 1 1
latt-scale 1.88973 1.88973 1.88973 
lattice Triclinic 13.1778 13.1778 18.1461 90 90 120
lattice-minimize  \
	dirUpdateScheme      L-BFGS \
	linminMethod         DirUpdateRecommended \
	nIterations          0 \
	history              15 \
	knormThreshold       0 \
	energyDiffThreshold  1e-06 \
	nEnergyDiff          2 \
	alphaTstart          1 \
	alphaTmin            1e-10 \
	updateTestStepSize   yes \
	alphaTreduceFactor   0.1 \
	alphaTincreaseFactor 3 \
	nAlphaAdjustMax      3 \
	wolfeEnergy          0.0001 \
	wolfeGradient        0.9 \
	fdTest               no
lcao-params -1 1e-06 0.0073499
pcm-variant CANDLE
spintype z-spin
subspace-rotation-factor 1 yes
symmetries automatic
symmetry-threshold 0.0001
target-mu -0.171252 no




---------- Setting up symmetries ----------

Found 24 point-group symmetries of the bravais lattice
Found 192 space-group symmetries with basis
Applied RMS atom displacement 7.17076e-06 bohrs to make symmetries exact.

---------- Initializing the Grid ----------
R = 
[    24.9024   -12.4512          0  ]
[          0    21.5661          0  ]
[          0          0    34.2912  ]
unit cell volume = 18416
G =
[   0.252312   0.145672         -0  ]
[          0   0.291345          0  ]
[          0         -0    0.18323  ]
Minimum fftbox size, Smin = [  104  104  140  ]
Chosen fftbox size, S = [  108  108  140  ]

---------- Exchange Correlation functional ----------
Initalized PBE GGA exchange.
Initalized PBE GGA correlation.

---------- Setting up pseudopotentials ----------
Width of ionic core gaussian charges (only for fluid interactions / plotting) set to 0.397384

Reading pseudopotential file '/home/guoxy/vasp/jdftx-1.5.0/build/pseudopotentials/GBRV/w_pbe.uspp':
  Title: W.  Created by USPP 7.3.6 on 3-2-2014
  Reference state energy: -79.133630.  14 valence electrons in orbitals:
    |500>  occupation: 2  eigenvalue: -2.938934
    |510>  occupation: 6  eigenvalue: -1.620730
    |520>  occupation: 3.9  eigenvalue: -0.194511
    |600>  occupation: 2  eigenvalue: -0.234858
    |610>  occupation: 0  eigenvalue: -0.069444
  lMax: 3  lLocal: 3  QijEcut: 5
  8 projectors sampled on a log grid with 667 points:
    l: 0  eig: -2.938934  rCut: 1.45
    l: 0  eig: -0.234859  rCut: 1.45
    l: 0  eig: 0.500000  rCut: 1.45
    l: 1  eig: -1.620730  rCut: 1.5
    l: 1  eig: -0.069446  rCut: 1.5
    l: 2  eig: -0.194511  rCut: 1.7
    l: 2  eig: 0.150000  rCut: 1.7
    l: 3  eig: 0.500000  rCut: 2.3
  Partial core density with radius 1.2
  Transforming core density to a uniform radial grid of dG=0.02 with 1511 points.
  Transforming local potential to a uniform radial grid of dG=0.02 with 1511 points.
  Transforming nonlocal projectors to a uniform radial grid of dG=0.02 with 432 points.
  Transforming density augmentations to a uniform radial grid of dG=0.02 with 1511 points.
  Transforming atomic orbitals to a uniform radial grid of dG=0.02 with 432 points.
  Core radius for overlap checks: 2.30 bohrs.

Reading pseudopotential file '/home/guoxy/vasp/jdftx-1.5.0/build/pseudopotentials/GBRV/se_pbe.uspp':
  Title: Se.  Created by USPP 7.3.6 on 14-9-2013
  Reference state energy: -21.672887.  6 valence electrons in orbitals:
    |400>  occupation: 2  eigenvalue: -0.635284
    |410>  occupation: 4  eigenvalue: -0.239295
  lMax: 2  lLocal: 3  QijEcut: 5
  6 projectors sampled on a log grid with 625 points:
    l: 0  eig: -0.635278  rCut: 1.5
    l: 0  eig: 0.500000  rCut: 1.5
    l: 1  eig: -0.239295  rCut: 1.5
    l: 1  eig: 0.500000  rCut: 1.5
    l: 2  eig: 0.000000  rCut: 1.8
    l: 2  eig: 1.000000  rCut: 1.8
  Partial core density with radius 1.2
  Transforming core density to a uniform radial grid of dG=0.02 with 1511 points.
  Transforming local potential to a uniform radial grid of dG=0.02 with 1511 points.
  Transforming nonlocal projectors to a uniform radial grid of dG=0.02 with 432 points.
  Transforming density augmentations to a uniform radial grid of dG=0.02 with 1511 points.
  Transforming atomic orbitals to a uniform radial grid of dG=0.02 with 432 points.
  Core radius for overlap checks: 1.80 bohrs.

Initialized 2 species with 48 total atoms.

Folded 1 k-points by 3x3x1 to 9 k-points.

---------- Setting up k-points, bands, fillings ----------
Adding inversion symmetry to k-mesh for non-inversion-symmetric unit cell.
Reduced to 3 k-points under symmetry. 
Computing the number of bands and number of electrons
Calculating initial fillings.
nElectrons: 416.000000   nBands: 336   nStates: 6

----- Setting up reduced wavefunction bases (one per k-point) -----
average nbasis = 78686.333 , ideal nbasis = 78674.730

---------- Setting up coulomb interaction ----------
Fluid mode embedding: using embedded box, but periodic Coulomb kernel.
(Fluid response is responsible for (approximate) separation between periodic images.)
Setting up double-sized grid for truncated Coulomb potentials:
R = 
[    24.9024   -12.4512          0  ]
[          0    21.5661          0  ]
[          0          0    68.5823  ]
unit cell volume = 36832.1
G =
[   0.252312   0.145672         -0  ]
[          0   0.291345          0  ]
[          0         -0  0.0916152  ]
Chosen fftbox size, S = [  108  108  280  ]
Integer grid location selected as the embedding center:
   Grid: [  54  54  70  ]
   Lattice: [  0.5  0.5  0.5  ]
   Cartesian: [  6.22561  10.7831  17.1456  ]
Constructing Wigner-Seitz cell: 8 faces (6 quadrilaterals, 2 hexagons)
Range-separation parameter for embedded mesh potentials due to point charges: 0.624363 bohrs.

Initializing van der Waals corrections
	NOTE: vdW corrections apply only for interactions with fluid.
	 W:  C6:  815.23 Eh-a0^6  R0: 3.326 a0 (WARNING: beyond Grimme's data set)
	Se:  C6:  219.24 Eh-a0^6  R0: 3.347 a0

---------- Setting up ewald sum ----------
Optimum gaussian width for ewald sums = 6.962715 bohr.
Real space sum over 605 unit cells with max indices [  5  5  2  ]
Reciprocal space sum over 7425 terms with max indices [  7  7  16  ]

---------- Allocating electronic variables ----------
Initializing wave functions:  linear combination of atomic orbitals
W pseudo-atom occupations:   s ( 2 2 )  p ( 6 0 )  d ( 4 )
Se pseudo-atom occupations:   s ( 2 )  p ( 4 )
	FillingsUpdate:  mu: -0.171251800  nElectrons: 416.000000  magneticMoment: [ Abs: 4.11227  Tot: +1.15279 ]
LCAOMinimize: Iter:   0  G: -1328.2299708253704011  |grad|_K:  1.184e-02  alpha:  1.000e+00
LCAOMinimize: 	Step increased G by 7.555827e-01, reducing alpha to 3.607823e-02.
	FillingsUpdate:  mu: -0.171251800  nElectrons: 416.000000  magneticMoment: [ Abs: 3.64063  Tot: +0.40769 ]
LCAOMinimize: Iter:   1  G: -1331.0278904453418818  |grad|_K:  8.118e-03  alpha:  3.608e-02  linmin: -4.141e-01  cgtest:  1.066e+00  t[s]:    169.78
LCAOMinimize: Encountered beta<0, resetting CG.
LCAOMinimize: 	Predicted alpha/alphaT>3.000000, increasing alphaT to 1.082347e-01.
	FillingsUpdate:  mu: -0.171251800  nElectrons: 416.000000  magneticMoment: [ Abs: 2.74711  Tot: +0.03350 ]
LCAOMinimize: Iter:   2  G: -1334.1162990224775058  |grad|_K:  9.048e-04  alpha:  1.336e-01  linmin: -4.311e-01  cgtest:  1.081e+00  t[s]:    223.96
LCAOMinimize: Encountered beta<0, resetting CG.
	FillingsUpdate:  mu: -0.171251800  nElectrons: 416.000000  magneticMoment: [ Abs: 2.37490  Tot: +0.01567 ]
LCAOMinimize: Iter:   3  G: -1334.1620277424735832  |grad|_K:  1.187e-04  alpha:  1.633e-01  linmin: -5.018e-02  cgtest:  1.283e-01  t[s]:    265.54
LCAOMinimize: 	Predicted alpha/alphaT>3.000000, increasing alphaT to 4.898639e-01.
	FillingsUpdate:  mu: -0.171251800  nElectrons: 416.000000  magneticMoment: [ Abs: 0.92913  Tot: +0.00106 ]
LCAOMinimize: Iter:   4  G: -1334.1664211593135860  |grad|_K:  4.267e-05  alpha:  8.841e-01  linmin: -3.633e-02  cgtest:  1.814e-01  t[s]:    320.42
	FillingsUpdate:  mu: -0.171251800  nElectrons: 416.000000  magneticMoment: [ Abs: 0.65974  Tot: +0.00057 ]
LCAOMinimize: Iter:   5  G: -1334.1666500493495278  |grad|_K:  3.835e-05  alpha:  3.634e-01  linmin: -2.981e-04  cgtest: -3.662e-02  t[s]:    362.05
	FillingsUpdate:  mu: -0.171251800  nElectrons: 416.000000  magneticMoment: [ Abs: 0.12195  Tot: -0.00016 ]
LCAOMinimize: Iter:   6  G: -1334.1669032592103576  |grad|_K:  7.301e-06  alpha:  5.031e-01  linmin: -1.493e-02  cgtest:  1.924e-01  t[s]:    403.38
LCAOMinimize: Encountered beta<0, resetting CG.
	FillingsUpdate:  mu: -0.171251800  nElectrons: 416.000000  magneticMoment: [ Abs: 0.06564  Tot: -0.00004 ]
LCAOMinimize: Iter:   7  G: -1334.1669156995483263  |grad|_K:  6.074e-06  alpha:  6.860e-01  linmin:  3.180e-03  cgtest: -1.026e-02  t[s]:    444.87
	FillingsUpdate:  mu: -0.171251800  nElectrons: 416.000000  magneticMoment: [ Abs: 0.04291  Tot: -0.00001 ]
LCAOMinimize: Iter:   8  G: -1334.1669184619681801  |grad|_K:  1.826e-06  alpha:  2.237e-01  linmin: -1.965e-03  cgtest:  4.355e-02  t[s]:    486.72
LCAOMinimize: 	Predicted alpha/alphaT>3.000000, increasing alphaT to 6.710872e-01.
	FillingsUpdate:  mu: -0.171251800  nElectrons: 416.000000  magneticMoment: [ Abs: 0.00679  Tot: +0.00002 ]
LCAOMinimize: Iter:   9  G: -1334.1669195970405326  |grad|_K:  2.947e-07  alpha:  9.848e-01  linmin: -9.298e-02  cgtest:  2.054e-01  t[s]:    542.03
LCAOMinimize: Encountered beta<0, resetting CG.
	FillingsUpdate:  mu: -0.171251800  nElectrons: 416.000000  magneticMoment: [ Abs: 0.00327  Tot: +0.00000 ]
LCAOMinimize: Iter:  10  G: -1334.1669196221616858  |grad|_K:  4.301e-07  alpha:  8.015e-01  linmin:  3.432e-02  cgtest: -1.861e-01  t[s]:    584.05
	FillingsUpdate:  mu: -0.171251800  nElectrons: 416.000000  magneticMoment: [ Abs: 0.00187  Tot: -0.00001 ]
LCAOMinimize: Iter:  11  G: -1334.1669196322161497  |grad|_K:  2.319e-07  alpha:  2.131e-01  linmin:  5.754e-03  cgtest:  8.777e-01  t[s]:    625.04
LCAOMinimize: Encountered beta<0, resetting CG.
LCAOMinimize: Converged (|Delta G|<1.000000e-06 for 2 iters).
----- createFluidSolver() ----- (Fluid-side solver setup)
   Initializing fluid molecule 'H2O'
     Initializing site 'O'
       Electron density: proportional to exp(-r/0.36935)*erfc((r-0.51523)/0.36823) with norm 6.826
       Charge density: gaussian nuclear width 0.478731 with net site charge 0.826
       Polarizability: cuspless exponential with width 0.32 and norm 3.73
       Hard sphere radius: 2.57003 bohrs
       Positions in reference frame:
         [ +0.000000 +0.000000 +0.000000 ]
     Initializing site 'H'
       Electron density: proportional to exp(-r/0.34641)*erfc((r-0)/0.390882) with norm 0.587
       Charge density: gaussian nuclear width 0.377945 with net site charge -0.413
       Polarizability: cuspless exponential with width 0.39 and norm 3.3
       Positions in reference frame:
         [ +0.000000 -1.441945 +1.122523 ]
         [ +0.000000 +1.441945 +1.122523 ]
     Net charge: 0   dipole magnitude: 0.927204
     Initializing spherical shell mfKernel with radius 2.61727 Bohr
     deltaS corrections:
       site 'O': -7.54299
       site 'H': -6.83917
   Initializing fluid molecule 'Na+'
     Initializing site 'Na'
       Electron density: proportional to exp(-r/0.19682)*erfc((r-0.71491)/0.41314) with norm 8.1383
       Charge density: gaussian nuclear width 0.365347 with net site charge -1
       Hard sphere radius: 1.86327 bohrs
       Positions in reference frame:
         [ +0.000000 +0.000000 +0.000000 ]
     Net charge: -1   dipole magnitude: 0
     Initializing gaussian mfKernel with width: 1.55004 Bohr
     deltaS corrections:
       site 'Na': -22.3555
   Initializing fluid molecule 'F-'
     Initializing site 'F'
       Electron density: proportional to exp(-r/0.38886)*erfc((r-0)/0.438782) with norm 8
       Charge density: gaussian nuclear width 0.374796 with net site charge 1
       Hard sphere radius: 2.39995 bohrs
       Positions in reference frame:
         [ +0.000000 +0.000000 +0.000000 ]
     Net charge: 1   dipole magnitude: 0
     Initializing gaussian mfKernel with width: 1.59012 Bohr
     deltaS corrections:
       site 'F': -9.04335

Correction to mu due to finite nuclear width = -0.0112064
   Cavity determined by nc: 0.00142 and sigma: 0.707107
   Nonlocal vdW cavity from gaussian model electron density with norm = 8 and sigma = 0.993594 bohr
   Charge asymmetry in cavity with sensitivity pCavity = 36.5 e-bohr/Eh
   Electrostatic cavity expanded by eta = 1.46 bohrs
   Weighted density cavitation model constrained by Nbulk: 0.0049383 bohr^-3, Pvap: 3.14029 kPa, Rvdw: 2.61727 bohr and sigmaBulk: 4.62e-05 Eh/bohr^2 at T: 298 K.
   Weighted density dispersion model using vdW pair potentials with single solvent site with sqrtC6eff: 0.77 SI.


---- Citations for features of the code used in this run ----

   Software package:
      R. Sundararaman, K. Letchworth-Weaver, K.A. Schwarz, D. Gunceler, Y. Ozhabes and T.A. Arias, 'JDFTx: software for joint density-functional theory', SoftwareX 6, 278 (2017)

   gga-PBE exchange-correlation functional:
      J.P. Perdew, K. Burke and M. Ernzerhof, Phys. Rev. Lett. 77, 3865 (1996)

   Pseudopotentials:
      KF Garrity, JW Bennett, KM Rabe and D Vanderbilt, Comput. Mater. Sci. 81, 446 (2014)

   Truncated Coulomb potentials:
      R. Sundararaman and T.A. Arias, Phys. Rev. B 87, 165122 (2013)

   Van der Waals correction pair-potentials:
      S. Grimme, J. Comput. Chem. 27, 1787 (2006)

   Charge-asymmetric nonlocally-determined local-electric (CANDLE) solvation model:
      R. Sundararaman and W.A. Goddard III, J. Chem. Phys. 142, 064107 (2015)

   Total energy minimization with Auxiliary Hamiltonian:
      C. Freysoldt, S. Boeck, and J. Neugebauer, Phys. Rev. B 79, 241103(R) (2009)

   Grand-canonical (fixed-potential) DFT:
      R. Sundararaman, W. A. Goddard III and T. A. Arias, J. Chem. Phys. 146, 114104 (2017)

This list may not be complete. Please suggest additional citations or
report any other bugs at https://github.com/shankar1729/jdftx/issues

Initialization completed successfully at t[s]:    632.55

Fluid solver invoked on fresh (partially random / LCAO) wavefunctions
Running a vacuum solve first:

-------- Initial electronic minimization -----------
	FillingsUpdate:  mu: -0.095025099  nElectrons: 416.000000  magneticMoment: [ Abs: 0.00187  Tot: -0.00001 ]
ElecMinimize: Iter:   0  G: -1334.166898945452203  |grad|_K:  9.485e-05  alpha:  1.000e+00
	FillingsUpdate:  mu: -0.026532738  nElectrons: 416.000000  magneticMoment: [ Abs: 0.00121  Tot: -0.00000 ]
	SubspaceRotationAdjust: set factor to 1
ElecMinimize: Iter:   1  G: -1335.290361263331306  |grad|_K:  4.381e-05  alpha:  7.873e-01  linmin: -1.259e-05  t[s]:    722.90
	FillingsUpdate:  mu: -0.080353452  nElectrons: 416.000000  magneticMoment: [ Abs: 0.00085  Tot: -0.00000 ]
	SubspaceRotationAdjust: set factor to 0.684
ElecMinimize: Iter:   2  G: -1335.456425468290263  |grad|_K:  3.825e-05  alpha:  5.474e-01  linmin: -8.222e-06  t[s]:    778.37
	FillingsUpdate:  mu: -0.045742080  nElectrons: 416.000000  magneticMoment: [ Abs: 0.00062  Tot: +0.00000 ]
	SubspaceRotationAdjust: set factor to 0.438
ElecMinimize: Iter:   3  G: -1335.525681758458632  |grad|_K:  1.734e-05  alpha:  2.896e-01  linmin: -6.094e-05  t[s]:    834.31
	FillingsUpdate:  mu: -0.048545327  nElectrons: 416.000000  magneticMoment: [ Abs: 0.00039  Tot: +0.00000 ]
	SubspaceRotationAdjust: set factor to 0.528
ElecMinimize: Iter:   4  G: -1335.554311491683393  |grad|_K:  1.137e-05  alpha:  5.948e-01  linmin:  6.244e-05  t[s]:    889.71
	FillingsUpdate:  mu: -0.056360107  nElectrons: 416.000000  magneticMoment: [ Abs: 0.00024  Tot: +0.00000 ]
	SubspaceRotationAdjust: set factor to 0.524
ElecMinimize: Iter:   5  G: -1335.565222532625739  |grad|_K:  7.015e-06  alpha:  5.357e-01  linmin:  2.080e-05  t[s]:    945.67
	FillingsUpdate:  mu: -0.052625020  nElectrons: 416.000000  magneticMoment: [ Abs: 0.00016  Tot: +0.00000 ]
	SubspaceRotationAdjust: set factor to 0.593
ElecMinimize: Iter:   6  G: -1335.569685858082721  |grad|_K:  4.366e-06  alpha:  5.730e-01  linmin:  9.149e-06  t[s]:   1002.00
	FillingsUpdate:  mu: -0.053144198  nElectrons: 416.000000  magneticMoment: [ Abs: 0.00012  Tot: +0.00000 ]
	SubspaceRotationAdjust: set factor to 0.7
ElecMinimize: Iter:   7  G: -1335.571605915513373  |grad|_K:  3.003e-06  alpha:  6.362e-01  linmin:  5.939e-06  t[s]:   1057.27
	FillingsUpdate:  mu: -0.054268724  nElectrons: 416.000000  magneticMoment: [ Abs: 0.00009  Tot: -0.00000 ]
	SubspaceRotationAdjust: set factor to 0.743
ElecMinimize: Iter:   8  G: -1335.572341676537462  |grad|_K:  1.843e-06  alpha:  5.144e-01  linmin:  1.662e-06  t[s]:   1112.61
	FillingsUpdate:  mu: -0.053305824  nElectrons: 416.000000  magneticMoment: [ Abs: 0.00007  Tot: -0.00000 ]
	SubspaceRotationAdjust: set factor to 0.69
ElecMinimize: Iter:   9  G: -1335.572643263094278  |grad|_K:  1.313e-06  alpha:  5.592e-01  linmin:  4.326e-06  t[s]:   1169.07
	FillingsUpdate:  mu: -0.054321480  nElectrons: 416.000000  magneticMoment: [ Abs: 0.00005  Tot: -0.00000 ]
	SubspaceRotationAdjust: set factor to 0.624
ElecMinimize: Iter:  10  G: -1335.572783093022736  |grad|_K:  9.244e-07  alpha:  5.121e-01  linmin:  2.197e-06  t[s]:   1224.73
	FillingsUpdate:  mu: -0.054011724  nElectrons: 416.000000  magneticMoment: [ Abs: 0.00003  Tot: -0.00000 ]
	SubspaceRotationAdjust: set factor to 0.654
ElecMinimize: Iter:  11  G: -1335.572866453059305  |grad|_K:  6.926e-07  alpha:  6.154e-01  linmin:  2.474e-06  t[s]:   1280.81
	FillingsUpdate:  mu: -0.054027310  nElectrons: 416.000000  magneticMoment: [ Abs: 0.00002  Tot: -0.00000 ]
	SubspaceRotationAdjust: set factor to 0.744
ElecMinimize: Iter:  12  G: -1335.572915611429835  |grad|_K:  5.677e-07  alpha:  6.464e-01  linmin:  1.627e-06  t[s]:   1336.68
	FillingsUpdate:  mu: -0.054355593  nElectrons: 416.000000  magneticMoment: [ Abs: 0.00002  Tot: +0.00000 ]
	SubspaceRotationAdjust: set factor to 0.744
ElecMinimize: Iter:  13  G: -1335.572949933101199  |grad|_K:  4.906e-07  alpha:  6.713e-01  linmin:  1.957e-06  t[s]:   1391.56
	FillingsUpdate:  mu: -0.053939277  nElectrons: 416.000000  magneticMoment: [ Abs: 0.00001  Tot: +0.00000 ]
	SubspaceRotationAdjust: set factor to 0.664
ElecMinimize: Iter:  14  G: -1335.572971743183416  |grad|_K:  3.946e-07  alpha:  5.711e-01  linmin:  7.308e-07  t[s]:   1446.63
	FillingsUpdate:  mu: -0.054119247  nElectrons: 416.000000  magneticMoment: [ Abs: 0.00001  Tot: +0.00000 ]
	SubspaceRotationAdjust: set factor to 0.669
ElecMinimize: Iter:  15  G: -1335.572985895183365  |grad|_K:  2.972e-07  alpha:  5.722e-01  linmin:  8.029e-07  t[s]:   1502.65
	FillingsUpdate:  mu: -0.054080735  nElectrons: 416.000000  magneticMoment: [ Abs: 0.00001  Tot: +0.00000 ]
	SubspaceRotationAdjust: set factor to 0.787
ElecMinimize: Iter:  16  G: -1335.572994994942292  |grad|_K:  2.245e-07  alpha:  6.489e-01  linmin:  6.918e-07  t[s]:   1558.98
	FillingsUpdate:  mu: -0.053968690  nElectrons: 416.000000  magneticMoment: [ Abs: 0.00001  Tot: -0.00000 ]
	SubspaceRotationAdjust: set factor to 0.85
ElecMinimize: Iter:  17  G: -1335.572999504592190  |grad|_K:  1.671e-07  alpha:  5.632e-01  linmin:  1.151e-07  t[s]:   1614.74
	FillingsUpdate:  mu: -0.054092579  nElectrons: 416.000000  magneticMoment: [ Abs: 0.00001  Tot: -0.00000 ]
	SubspaceRotationAdjust: set factor to 0.806
ElecMinimize: Iter:  18  G: -1335.573001764612854  |grad|_K:  1.206e-07  alpha:  5.095e-01  linmin: -1.584e-08  t[s]:   1670.81
	FillingsUpdate:  mu: -0.054025430  nElectrons: 416.000000  magneticMoment: [ Abs: 0.00000  Tot: -0.00000 ]
	SubspaceRotationAdjust: set factor to 0.732
ElecMinimize: Iter:  19  G: -1335.573002820636248  |grad|_K:  7.794e-08  alpha:  4.567e-01  linmin:  1.903e-08  t[s]:   1726.63
	FillingsUpdate:  mu: -0.054065631  nElectrons: 416.000000  magneticMoment: [ Abs: 0.00000  Tot: -0.00000 ]
	SubspaceRotationAdjust: set factor to 0.76
ElecMinimize: Iter:  20  G: -1335.573003341169851  |grad|_K:  5.362e-08  alpha:  5.391e-01  linmin:  9.227e-08  t[s]:   1783.03
	FillingsUpdate:  mu: -0.054065860  nElectrons: 416.000000  magneticMoment: [ Abs: 0.00001  Tot: -0.00000 ]
	SubspaceRotationAdjust: set factor to 0.872
ElecMinimize: Iter:  21  G: -1335.573003610374599  |grad|_K:  3.872e-08  alpha:  5.893e-01  linmin:  8.363e-08  t[s]:   1839.23
	FillingsUpdate:  mu: -0.054051658  nElectrons: 416.000000  magneticMoment: [ Abs: 0.00001  Tot: -0.00000 ]
	SubspaceRotationAdjust: set factor to 0.969
ElecMinimize: Iter:  22  G: -1335.573003751193710  |grad|_K:  2.938e-08  alpha:  5.912e-01  linmin:  6.208e-08  t[s]:   1894.98
	FillingsUpdate:  mu: -0.054069619  nElectrons: 416.000000  magneticMoment: [ Abs: 0.00001  Tot: -0.00000 ]
	SubspaceRotationAdjust: set factor to 0.888
ElecMinimize: Iter:  23  G: -1335.573003820374652  |grad|_K:  2.232e-08  alpha:  5.041e-01  linmin:  3.537e-08  t[s]:   1951.34
	FillingsUpdate:  mu: -0.054050502  nElectrons: 416.000000  magneticMoment: [ Abs: 0.00001  Tot: -0.00000 ]
	SubspaceRotationAdjust: set factor to 0.719
ElecMinimize: Iter:  24  G: -1335.573003854041872  |grad|_K:  1.640e-08  alpha:  4.253e-01  linmin:  1.144e-08  t[s]:   2007.29
	FillingsUpdate:  mu: -0.054059019  nElectrons: 416.000000  magneticMoment: [ Abs: 0.00001  Tot: -0.00000 ]
	SubspaceRotationAdjust: set factor to 0.707
ElecMinimize: Iter:  25  G: -1335.573003875561653  |grad|_K:  1.172e-08  alpha:  5.031e-01  linmin: -3.233e-09  t[s]:   2063.21
	FillingsUpdate:  mu: -0.054058257  nElectrons: 416.000000  magneticMoment: [ Abs: 0.00001  Tot: -0.00000 ]
	SubspaceRotationAdjust: set factor to 0.824
ElecMinimize: Iter:  26  G: -1335.573003888845960  |grad|_K:  9.001e-09  alpha:  6.077e-01  linmin: -2.847e-08  t[s]:   2118.69
	FillingsUpdate:  mu: -0.054053564  nElectrons: 416.000000  magneticMoment: [ Abs: 0.00001  Tot: -0.00000 ]
	SubspaceRotationAdjust: set factor to 0.876
ElecMinimize: Iter:  27  G: -1335.573003896462296  |grad|_K:  7.451e-09  alpha:  5.907e-01  linmin:  1.735e-08  t[s]:   2174.80
	FillingsUpdate:  mu: -0.054059199  nElectrons: 416.000000  magneticMoment: [ Abs: 0.00001  Tot: -0.00000 ]
	SubspaceRotationAdjust: set factor to 0.784
ElecMinimize: Iter:  28  G: -1335.573003900836284  |grad|_K:  5.751e-09  alpha:  4.967e-01  linmin: -5.497e-09  t[s]:   2230.68
ElecMinimize: Converged (|Delta G|<1.000000e-08 for 2 iters).
Setting wave functions to eigenvectors of Hamiltonian
Vacuum energy after initial minimize, F = -1335.573003900836284

Shifting auxilliary hamiltonian by -0.117193 to set nElectrons=416.000000
	Linear fluid (dielectric constant: 78.4, screening length: 5.74355 Bohr) occupying 0.743110 of unit cell:	Completed after 13 iterations at t[s]:   2245.59

-------- Electronic minimization -----------
	Linear fluid (dielectric constant: 78.4, screening length: 5.74355 Bohr) occupying 0.743110 of unit cell:	Completed after 0 iterations at t[s]:   2262.28
	FillingsUpdate:  mu: -0.171251800  nElectrons: 416.000000  magneticMoment: [ Abs: 0.00000  Tot: -0.00000 ]
ElecMinimize: Iter:   0  G: -1335.568126798847516  |grad|_K:  1.656e-06  alpha:  1.000e+00
	Linear fluid (dielectric constant: 78.4, screening length: 5.74355 Bohr) occupying 0.743708 of unit cell:	Completed after 9 iterations at t[s]:   2307.67
ElecMinimize: 	Wrong curvature in test step, increasing alphaT to 3.000000e+00.
	Linear fluid (dielectric constant: 78.4, screening length: 5.74355 Bohr) occupying 0.743708 of unit cell:	Completed after 0 iterations at t[s]:   2325.53
	FillingsUpdate:  mu: -0.171251800  nElectrons: 415.859936  magneticMoment: [ Abs: 0.00025  Tot: +0.00000 ]
	SubspaceRotationAdjust: set factor to 0.468
ElecMinimize: Iter:   1  G: -1335.569246661636953  |grad|_K:  2.283e-06  alpha: -1.755e+00  linmin:  2.610e-04  t[s]:   2351.46
	Linear fluid (dielectric constant: 78.4, screening length: 5.74355 Bohr) occupying 0.745993 of unit cell:	Completed after 13 iterations at t[s]:   2370.53
	Linear fluid (dielectric constant: 78.4, screening length: 5.74355 Bohr) occupying 0.743708 of unit cell:	Completed after 14 iterations at t[s]:   2395.21
	FillingsUpdate:  mu: -0.171251800  nElectrons: 415.859708  magneticMoment: [ Abs: 0.00026  Tot: +0.00000 ]
	SubspaceRotationAdjust: set factor to 0.31
ElecMinimize: Iter:   2  G: -1335.569246944845872  |grad|_K:  1.861e-06  alpha:  2.690e-04  linmin: -4.769e-04  t[s]:   2423.47
	Linear fluid (dielectric constant: 78.4, screening length: 5.74355 Bohr) occupying 0.743709 of unit cell:	Completed after 0 iterations at t[s]:   2439.40
ElecMinimize: 	Predicted alpha/alphaT>3.000000, increasing alphaT to 8.068934e-04.
	Linear fluid (dielectric constant: 78.4, screening length: 5.74355 Bohr) occupying 0.743709 of unit cell:	Completed after 0 iterations at t[s]:   2458.82
ElecMinimize: 	Predicted alpha/alphaT>3.000000, increasing alphaT to 2.420680e-03.
	Linear fluid (dielectric constant: 78.4, screening length: 5.74355 Bohr) occupying 0.743712 of unit cell:	Completed after 0 iterations at t[s]:   2478.50
ElecMinimize: 	Predicted alpha/alphaT>3.000000, increasing alphaT to 7.262041e-03.
	Linear fluid (dielectric constant: 78.4, screening length: 5.74355 Bohr) occupying 0.743883 of unit cell:	Completed after 7 iterations at t[s]:   2499.83
	FillingsUpdate:  mu: -0.171251800  nElectrons: 415.778594  magneticMoment: [ Abs: 0.00032  Tot: +0.00000 ]
	SubspaceRotationAdjust: set factor to 0.212
ElecMinimize: Iter:   3  G: -1335.569269854998538  |grad|_K:  1.927e-06  alpha:  1.214e-01  linmin:  1.213e-03  t[s]:   2526.64
ElecMinimize: 	Bad step direction: g.d > 0.
ElecMinimize: 	Undoing step.
	Linear fluid (dielectric constant: 78.4, screening length: 5.74355 Bohr) occupying 0.743883 of unit cell:	Completed after 0 iterations at t[s]:   2543.01
ElecMinimize: 	Step failed: resetting search direction.
	FillingsUpdate:  mu: -0.171251800  nElectrons: 415.778594  magneticMoment: [ Abs: 0.00032  Tot: +0.00000 ]
	SubspaceRotationAdjust: set factor to 0.163
ElecMinimize: Iter:   4  G: -1335.569269854993536  |grad|_K:  1.690e-06  alpha:  0.000e+00
	Linear fluid (dielectric constant: 78.4, screening length: 5.74355 Bohr) occupying 0.743906 of unit cell:	Completed after 8 iterations at t[s]:   2585.89
ElecMinimize: 	Predicted alpha/alphaT>3.000000, increasing alphaT to 3.641425e-01.
	Linear fluid (dielectric constant: 78.4, screening length: 5.74355 Bohr) occupying 0.743953 of unit cell:	Completed after 9 iterations at t[s]:   2608.56
	Linear fluid (dielectric constant: 78.4, screening length: 5.74355 Bohr) occupying 0.743990 of unit cell:	Completed after 9 iterations at t[s]:   2632.42
	FillingsUpdate:  mu: -0.171251800  nElectrons: 415.805633  magneticMoment: [ Abs: 0.00026  Tot: +0.00000 ]
	SubspaceRotationAdjust: set factor to 0.151
ElecMinimize: Iter:   5  G: -1335.569524221285519  |grad|_K:  5.742e-07  alpha:  5.575e-01  linmin: -2.667e-04  t[s]:   2659.51
	Linear fluid (dielectric constant: 78.4, screening length: 5.74355 Bohr) occupying 0.744064 of unit cell:	Completed after 7 iterations at t[s]:   2677.27
	Linear fluid (dielectric constant: 78.4, screening length: 5.74355 Bohr) occupying 0.744104 of unit cell:	Completed after 7 iterations at t[s]:   2699.47
	FillingsUpdate:  mu: -0.171251800  nElectrons: 415.812097  magneticMoment: [ Abs: 0.00018  Tot: +0.00000 ]
	SubspaceRotationAdjust: set factor to 0.181
ElecMinimize: Iter:   6  G: -1335.569570314179828  |grad|_K:  3.542e-07  alpha:  8.680e-01  linmin: -9.592e-06  t[s]:   2726.34
	Linear fluid (dielectric constant: 78.4, screening length: 5.74355 Bohr) occupying 0.744201 of unit cell:	Completed after 7 iterations at t[s]:   2744.01
	Linear fluid (dielectric constant: 78.4, screening length: 5.74355 Bohr) occupying 0.744184 of unit cell:	Completed after 2 iterations at t[s]:   2765.51
	FillingsUpdate:  mu: -0.171251800  nElectrons: 415.813625  magneticMoment: [ Abs: 0.00012  Tot: +0.00000 ]
	SubspaceRotationAdjust: set factor to 0.214
ElecMinimize: Iter:   7  G: -1335.569584601093766  |grad|_K:  2.374e-07  alpha:  7.183e-01  linmin:  2.469e-05  t[s]:   2791.41
	Linear fluid (dielectric constant: 78.4, screening length: 5.74355 Bohr) occupying 0.744239 of unit cell:	Completed after 3 iterations at t[s]:   2808.08
	Linear fluid (dielectric constant: 78.4, screening length: 5.74355 Bohr) occupying 0.744241 of unit cell:	Completed after 0 iterations at t[s]:   2828.40
	FillingsUpdate:  mu: -0.171251800  nElectrons: 415.812742  magneticMoment: [ Abs: 0.00010  Tot: +0.00000 ]
	SubspaceRotationAdjust: set factor to 0.27
ElecMinimize: Iter:   8  G: -1335.569591239553574  |grad|_K:  1.812e-07  alpha:  7.435e-01  linmin: -6.313e-06  t[s]:   2854.03
	Linear fluid (dielectric constant: 78.4, screening length: 5.74355 Bohr) occupying 0.744279 of unit cell:	Completed after 0 iterations at t[s]:   2870.24
	Linear fluid (dielectric constant: 78.4, screening length: 5.74355 Bohr) occupying 0.744278 of unit cell:	Completed after 0 iterations at t[s]:   2889.24
	FillingsUpdate:  mu: -0.171251800  nElectrons: 415.810655  magneticMoment: [ Abs: 0.00013  Tot: +0.00001 ]
	SubspaceRotationAdjust: set factor to 0.342
ElecMinimize: Iter:   9  G: -1335.569595032843154  |grad|_K:  1.456e-07  alpha:  7.249e-01  linmin:  9.809e-07  t[s]:   2914.42
	Linear fluid (dielectric constant: 78.4, screening length: 5.74355 Bohr) occupying 0.744301 of unit cell:	Completed after 2 iterations at t[s]:   2930.97
	Linear fluid (dielectric constant: 78.4, screening length: 5.74355 Bohr) occupying 0.744299 of unit cell:	Completed after 0 iterations at t[s]:   2950.95
	FillingsUpdate:  mu: -0.171251800  nElectrons: 415.807992  magneticMoment: [ Abs: 0.00019  Tot: +0.00000 ]
	SubspaceRotationAdjust: set factor to 0.417
ElecMinimize: Iter:  10  G: -1335.569597200631733  |grad|_K:  1.109e-07  alpha:  6.502e-01  linmin: -2.662e-05  t[s]:   2976.24
	Linear fluid (dielectric constant: 78.4, screening length: 5.74355 Bohr) occupying 0.744311 of unit cell:	Completed after 2 iterations at t[s]:   2992.89
	Linear fluid (dielectric constant: 78.4, screening length: 5.74355 Bohr) occupying 0.744311 of unit cell:	Completed after 0 iterations at t[s]:   3012.70
	FillingsUpdate:  mu: -0.171251800  nElectrons: 415.805724  magneticMoment: [ Abs: 0.00012  Tot: +0.00000 ]
	SubspaceRotationAdjust: set factor to 0.473
ElecMinimize: Iter:  11  G: -1335.569598479840124  |grad|_K:  7.679e-08  alpha:  6.296e-01  linmin:  6.361e-07  t[s]:   3038.39
	Linear fluid (dielectric constant: 78.4, screening length: 5.74355 Bohr) occupying 0.744318 of unit cell:	Completed after 0 iterations at t[s]:   3054.57
	Linear fluid (dielectric constant: 78.4, screening length: 5.74355 Bohr) occupying 0.744317 of unit cell:	Completed after 0 iterations at t[s]:   3074.17
	FillingsUpdate:  mu: -0.171251800  nElectrons: 415.804024  magneticMoment: [ Abs: 0.00008  Tot: +0.00000 ]
	SubspaceRotationAdjust: set factor to 0.505
ElecMinimize: Iter:  12  G: -1335.569599012905883  |grad|_K:  4.797e-08  alpha:  5.695e-01  linmin: -1.348e-07  t[s]:   3099.59
	Linear fluid (dielectric constant: 78.4, screening length: 5.74355 Bohr) occupying 0.744320 of unit cell:	Completed after 0 iterations at t[s]:   3115.57
	Linear fluid (dielectric constant: 78.4, screening length: 5.74355 Bohr) occupying 0.744320 of unit cell:	Completed after 0 iterations at t[s]:   3135.10
	FillingsUpdate:  mu: -0.171251800  nElectrons: 415.802998  magneticMoment: [ Abs: 0.00008  Tot: +0.00000 ]
	SubspaceRotationAdjust: set factor to 0.52
ElecMinimize: Iter:  13  G: -1335.569599222214038  |grad|_K:  3.144e-08  alpha:  5.719e-01  linmin:  1.771e-07  t[s]:   3160.43
	Linear fluid (dielectric constant: 78.4, screening length: 5.74355 Bohr) occupying 0.744321 of unit cell:	Completed after 3 iterations at t[s]:   3177.09
	Linear fluid (dielectric constant: 78.4, screening length: 5.74355 Bohr) occupying 0.744320 of unit cell:	Completed after 0 iterations at t[s]:   3197.30
ElecMinimize: 	Step increased G by 1.509216e-08, reducing alpha to 2.406505e-02.
	Linear fluid (dielectric constant: 78.4, screening length: 5.74355 Bohr) occupying 0.744320 of unit cell:	Completed after 0 iterations at t[s]:   3235.80
ElecMinimize: 	Step increased G by 3.425976e-08, reducing alpha to 2.406505e-03.
	Linear fluid (dielectric constant: 78.4, screening length: 5.74355 Bohr) occupying 0.744320 of unit cell:	Completed after 0 iterations at t[s]:   3274.27
ElecMinimize: 	Step increased G by 3.755258e-08, reducing alpha to 2.406505e-04.
ElecMinimize: 	Step failed to reduce G after 3 attempts. Quitting step.
ElecMinimize: 	Undoing step.
	Linear fluid (dielectric constant: 78.4, screening length: 5.74355 Bohr) occupying 0.744320 of unit cell:	Completed after 0 iterations at t[s]:   3312.57
ElecMinimize: 	Step failed: resetting search direction.
	FillingsUpdate:  mu: -0.171251800  nElectrons: 415.802996  magneticMoment: [ Abs: 0.00009  Tot: +0.00000 ]
	SubspaceRotationAdjust: set factor to 0.497
ElecMinimize: Iter:  14  G: -1335.569599184610070  |grad|_K:  4.983e-08  alpha:  2.407e-04
	Linear fluid (dielectric constant: 78.4, screening length: 5.74355 Bohr) occupying 0.744321 of unit cell:	Completed after 1 iterations at t[s]:   3354.08
	Linear fluid (dielectric constant: 78.4, screening length: 5.74355 Bohr) occupying 0.744320 of unit cell:	Completed after 1 iterations at t[s]:   3374.53
	FillingsUpdate:  mu: -0.171251800  nElectrons: 415.803330  magneticMoment: [ Abs: 0.00006  Tot: +0.00000 ]
	SubspaceRotationAdjust: set factor to 0.305
ElecMinimize: Iter:  15  G: -1335.569599262199290  |grad|_K:  4.778e-08  alpha:  2.324e-01  linmin:  2.426e-04  t[s]:   3400.18
	Linear fluid (dielectric constant: 78.4, screening length: 5.74355 Bohr) occupying 0.744320 of unit cell:	Completed after 0 iterations at t[s]:   3416.47
	Linear fluid (dielectric constant: 78.4, screening length: 5.74355 Bohr) occupying 0.744320 of unit cell:	Completed after 0 iterations at t[s]:   3436.00
	FillingsUpdate:  mu: -0.171251800  nElectrons: 415.803443  magneticMoment: [ Abs: 0.00008  Tot: +0.00000 ]
	SubspaceRotationAdjust: set factor to 0.312
ElecMinimize: Iter:  16  G: -1335.569599304945086  |grad|_K:  3.851e-08  alpha:  2.213e-01  linmin: -6.857e-05  t[s]:   3461.20
	Linear fluid (dielectric constant: 78.4, screening length: 5.74355 Bohr) occupying 0.744319 of unit cell:	Completed after 1 iterations at t[s]:   3477.47
	Linear fluid (dielectric constant: 78.4, screening length: 5.74355 Bohr) occupying 0.744320 of unit cell:	Completed after 0 iterations at t[s]:   3497.27
ElecMinimize: 	Step increased G by 1.166018e-08, reducing alpha to 9.663122e-03.
	Linear fluid (dielectric constant: 78.4, screening length: 5.74355 Bohr) occupying 0.744320 of unit cell:	Completed after 0 iterations at t[s]:   3535.18
ElecMinimize: 	Step increased G by 1.189323e-08, reducing alpha to 9.663122e-04.
	Linear fluid (dielectric constant: 78.4, screening length: 5.74355 Bohr) occupying 0.744320 of unit cell:	Completed after 0 iterations at t[s]:   3573.89
ElecMinimize: 	Step increased G by 1.215085e-08, reducing alpha to 9.663122e-05.
ElecMinimize: 	Step failed to reduce G after 3 attempts. Quitting step.
ElecMinimize: 	Undoing step.
	Linear fluid (dielectric constant: 78.4, screening length: 5.74355 Bohr) occupying 0.744320 of unit cell:	Completed after 0 iterations at t[s]:   3612.28
ElecMinimize: 	Step failed: resetting search direction.
	FillingsUpdate:  mu: -0.171251800  nElectrons: 415.803443  magneticMoment: [ Abs: 0.00008  Tot: +0.00000 ]
	SubspaceRotationAdjust: set factor to 0.199
ElecMinimize: Iter:  17  G: -1335.569599292796738  |grad|_K:  2.124e-08  alpha:  9.663e-05
	Linear fluid (dielectric constant: 78.4, screening length: 5.74355 Bohr) occupying 0.744320 of unit cell:	Completed after 0 iterations at t[s]:   3653.82
	Linear fluid (dielectric constant: 78.4, screening length: 5.74355 Bohr) occupying 0.744320 of unit cell:	Completed after 0 iterations at t[s]:   3673.40
	FillingsUpdate:  mu: -0.171251800  nElectrons: 415.803571  magneticMoment: [ Abs: 0.00006  Tot: +0.00000 ]
	SubspaceRotationAdjust: set factor to 0.253
ElecMinimize: Iter:  18  G: -1335.569599329571247  |grad|_K:  1.868e-08  alpha:  5.126e-01  linmin:  3.302e-07  t[s]:   3698.67
	Linear fluid (dielectric constant: 78.4, screening length: 5.74355 Bohr) occupying 0.744319 of unit cell:	Completed after 2 iterations at t[s]:   3715.17
	Linear fluid (dielectric constant: 78.4, screening length: 5.74355 Bohr) occupying 0.744320 of unit cell:	Completed after 0 iterations at t[s]:   3735.12
ElecMinimize: 	Step increased G by 5.275524e-08, reducing alpha to 1.021133e-02.
	Linear fluid (dielectric constant: 78.4, screening length: 5.74355 Bohr) occupying 0.744320 of unit cell:	Completed after 0 iterations at t[s]:   3773.29
ElecMinimize: 	Step increased G by 4.776507e-08, reducing alpha to 1.021133e-03.
	Linear fluid (dielectric constant: 78.4, screening length: 5.74355 Bohr) occupying 0.744320 of unit cell:	Completed after 0 iterations at t[s]:   3811.88
ElecMinimize: 	Step increased G by 4.733738e-08, reducing alpha to 1.021133e-04.
ElecMinimize: 	Step failed to reduce G after 3 attempts. Quitting step.
ElecMinimize: 	Undoing step.
	Linear fluid (dielectric constant: 78.4, screening length: 5.74355 Bohr) occupying 0.744320 of unit cell:	Completed after 0 iterations at t[s]:   3850.21
ElecMinimize: 	Step failed: resetting search direction.
	FillingsUpdate:  mu: -0.171251800  nElectrons: 415.803571  magneticMoment: [ Abs: 0.00006  Tot: +0.00000 ]
	SubspaceRotationAdjust: set factor to 0.227
ElecMinimize: Iter:  19  G: -1335.569599282230911  |grad|_K:  3.507e-08  alpha:  1.021e-04
	Linear fluid (dielectric constant: 78.4, screening length: 5.74355 Bohr) occupying 0.744319 of unit cell:	Completed after 2 iterations at t[s]:   3892.24
	Linear fluid (dielectric constant: 78.4, screening length: 5.74355 Bohr) occupying 0.744319 of unit cell:	Completed after 0 iterations at t[s]:   3912.13
	FillingsUpdate:  mu: -0.171251800  nElectrons: 415.803457  magneticMoment: [ Abs: 0.00005  Tot: +0.00000 ]
	SubspaceRotationAdjust: set factor to 0.111
ElecMinimize: Iter:  20  G: -1335.569599325983972  |grad|_K:  1.420e-08  alpha:  2.671e-01  linmin:  4.203e-04  t[s]:   3937.30
	Linear fluid (dielectric constant: 78.4, screening length: 5.74355 Bohr) occupying 0.744319 of unit cell:	Completed after 0 iterations at t[s]:   3953.50
ElecMinimize: 	Predicted alpha/alphaT>3.000000, increasing alphaT to 8.013165e-01.
	Linear fluid (dielectric constant: 78.4, screening length: 5.74355 Bohr) occupying 0.744319 of unit cell:	Completed after 0 iterations at t[s]:   3972.93
	Linear fluid (dielectric constant: 78.4, screening length: 5.74355 Bohr) occupying 0.744318 of unit cell:	Completed after 0 iterations at t[s]:   3992.50
	FillingsUpdate:  mu: -0.171251800  nElectrons: 415.803671  magneticMoment: [ Abs: 0.00010  Tot: +0.00000 ]
	SubspaceRotationAdjust: set factor to 0.143
ElecMinimize: Iter:  21  G: -1335.569599366818920  |grad|_K:  1.599e-08  alpha:  1.665e+00  linmin:  6.694e-07  t[s]:   4017.81
	Linear fluid (dielectric constant: 78.4, screening length: 5.74355 Bohr) occupying 0.744315 of unit cell:	Completed after 2 iterations at t[s]:   4034.35
	Linear fluid (dielectric constant: 78.4, screening length: 5.74355 Bohr) occupying 0.744318 of unit cell:	Completed after 0 iterations at t[s]:   4054.51
ElecMinimize: 	Step increased G by 3.041009e-08, reducing alpha to 2.311603e-02.
	Linear fluid (dielectric constant: 78.4, screening length: 5.74355 Bohr) occupying 0.744318 of unit cell:	Completed after 1 iterations at t[s]:   4093.08
ElecMinimize: 	Step increased G by 5.117568e-08, reducing alpha to 2.311603e-03.
	Linear fluid (dielectric constant: 78.4, screening length: 5.74355 Bohr) occupying 0.744318 of unit cell:	Completed after 0 iterations at t[s]:   4132.35
ElecMinimize: 	Step increased G by 5.010588e-08, reducing alpha to 2.311603e-04.
ElecMinimize: 	Step failed to reduce G after 3 attempts. Quitting step.
ElecMinimize: 	Undoing step.
	Linear fluid (dielectric constant: 78.4, screening length: 5.74355 Bohr) occupying 0.744318 of unit cell:	Completed after 0 iterations at t[s]:   4170.06
ElecMinimize: 	Step failed: resetting search direction.
	FillingsUpdate:  mu: -0.171251800  nElectrons: 415.803672  magneticMoment: [ Abs: 0.00010  Tot: +0.00000 ]
	SubspaceRotationAdjust: set factor to 0.134
ElecMinimize: Iter:  22  G: -1335.569599316742369  |grad|_K:  3.832e-08  alpha:  2.312e-04
	Linear fluid (dielectric constant: 78.4, screening length: 5.74355 Bohr) occupying 0.744317 of unit cell:	Completed after 3 iterations at t[s]:   4212.48
	Linear fluid (dielectric constant: 78.4, screening length: 5.74355 Bohr) occupying 0.744318 of unit cell:	Completed after 1 iterations at t[s]:   4232.79
	FillingsUpdate:  mu: -0.171251800  nElectrons: 415.803556  magneticMoment: [ Abs: 0.00014  Tot: +0.00000 ]
	SubspaceRotationAdjust: set factor to 0.0694
	SubspaceRotationAdjust: resetting CG because factor has changed by 0.0884361
	Linear fluid (dielectric constant: 78.4, screening length: 5.74355 Bohr) occupying 0.744318 of unit cell:	Completed after 0 iterations at t[s]:   4268.12
ElecMinimize: 	State modified externally: resetting search direction.
ElecMinimize: Iter:  23  G: -1335.569599336481133  |grad|_K:  9.744e-09  alpha:  3.642e-01
	Linear fluid (dielectric constant: 78.4, screening length: 5.74355 Bohr) occupying 0.744318 of unit cell:	Completed after 0 iterations at t[s]:   4309.21
	Linear fluid (dielectric constant: 78.4, screening length: 5.74355 Bohr) occupying 0.744317 of unit cell:	Completed after 0 iterations at t[s]:   4329.06
	FillingsUpdate:  mu: -0.171251800  nElectrons: 415.803589  magneticMoment: [ Abs: 0.00013  Tot: +0.00000 ]
	SubspaceRotationAdjust: set factor to 0.03
ElecMinimize: Iter:  24  G: -1335.569599343572236  |grad|_K:  7.657e-09  alpha:  4.700e-01  linmin:  7.295e-06  t[s]:   4354.32
	Linear fluid (dielectric constant: 78.4, screening length: 5.74355 Bohr) occupying 0.744317 of unit cell:	Completed after 0 iterations at t[s]:   4370.50
	Linear fluid (dielectric constant: 78.4, screening length: 5.74355 Bohr) occupying 0.744317 of unit cell:	Completed after 0 iterations at t[s]:   4390.04
	FillingsUpdate:  mu: -0.171251800  nElectrons: 415.803707  magneticMoment: [ Abs: 0.00011  Tot: +0.00000 ]
	SubspaceRotationAdjust: set factor to 0.0362
ElecMinimize: Iter:  25  G: -1335.569599353307240  |grad|_K:  7.009e-09  alpha:  1.087e+00  linmin:  1.160e-05  t[s]:   4415.42
ElecMinimize: Converged (|Delta G|<1.000000e-08 for 2 iters).
Setting wave functions to eigenvectors of Hamiltonian
Single-point solvation energy estimate, DeltaG = +0.003404547529044

# Ionic positions in lattice coordinates:
ion W   0.083334439986111   0.166665542472221   0.500000000000000 1
ion W   0.333334439986111   0.166665542472221   0.500000000000000 1
ion W   0.583334439986111   0.166665542472221   0.500000000000000 1
ion W   0.833334439986111   0.166665542472221   0.500000000000000 1
ion W   0.083334439986111   0.416665542472221   0.500000000000000 1
ion W   0.333334439986111   0.416665542472221   0.500000000000000 1
ion W   0.583334439986111   0.416665542472221   0.500000000000000 1
ion W   0.833334439986111   0.416665542472221   0.500000000000000 1
ion W   0.083334439986111   0.666665542472221   0.500000000000000 1
ion W   0.333334439986111   0.666665542472221   0.500000000000000 1
ion W   0.583334439986111   0.666665542472221   0.500000000000000 1
ion W   0.833334439986111   0.666665542472221   0.500000000000000 1
ion W   0.083334439986111   0.916665542472221   0.500000000000000 1
ion W   0.333334439986111   0.916665542472221   0.500000000000000 1
ion W   0.583334439986111   0.916665542472221   0.500000000000000 1
ion W   0.833334439986111   0.916665542472221   0.500000000000000 1
ion Se   0.166667773319445   0.083332209138888   0.406896668529060 1
ion Se   0.166667773319445   0.083332209138888   0.593103331470940 1
ion Se   0.416667773319445   0.083332209138888   0.406896668529060 1
ion Se   0.416667773319445   0.083332209138888   0.593103331470940 1
ion Se   0.666667773319445   0.083332209138888   0.406896668529060 1
ion Se   0.666667773319445   0.083332209138888   0.593103331470940 1
ion Se   0.916667773319445   0.083332209138888   0.406896668529060 1
ion Se   0.916667773319445   0.083332209138888   0.593103331470940 1
ion Se   0.166667773319445   0.333332209138888   0.406896668529060 1
ion Se   0.166667773319445   0.333332209138888   0.593103331470940 1
ion Se   0.416667773319445   0.333332209138888   0.406896668529060 1
ion Se   0.416667773319445   0.333332209138888   0.593103331470940 1
ion Se   0.666667773319445   0.333332209138888   0.406896668529060 1
ion Se   0.666667773319445   0.333332209138888   0.593103331470940 1
ion Se   0.916667773319445   0.333332209138888   0.406896668529060 1
ion Se   0.916667773319445   0.333332209138888   0.593103331470940 1
ion Se   0.166667773319445   0.583332209138888   0.406896668529060 1
ion Se   0.166667773319445   0.583332209138888   0.593103331470940 1
ion Se   0.416667773319445   0.583332209138888   0.406896668529060 1
ion Se   0.416667773319445   0.583332209138888   0.593103331470940 1
ion Se   0.666667773319445   0.583332209138888   0.406896668529060 1
ion Se   0.666667773319445   0.583332209138888   0.593103331470940 1
ion Se   0.916667773319445   0.583332209138888   0.406896668529060 1
ion Se   0.916667773319445   0.583332209138888   0.593103331470940 1
ion Se   0.166667773319445   0.833332209138888   0.406896668529060 1
ion Se   0.166667773319445   0.833332209138888   0.593103331470940 1
ion Se   0.416667773319445   0.833332209138888   0.406896668529060 1
ion Se   0.416667773319445   0.833332209138888   0.593103331470940 1
ion Se   0.666667773319445   0.833332209138888   0.406896668529060 1
ion Se   0.666667773319445   0.833332209138888   0.593103331470940 1
ion Se   0.916667773319445   0.833332209138888   0.406896668529060 1
ion Se   0.916667773319445   0.833332209138888   0.593103331470940 1


# Forces in Lattice coordinates:
force W  -0.000000000000000   0.000000000000000   0.000000000000000 1
force W   0.000000000000000   0.000000000000000  -0.000000000000000 1
force W   0.000000000000000   0.000000000000000   0.000000000000000 1
force W  -0.000000000000000   0.000000000000000  -0.000000000000000 1
force W  -0.000000000000000   0.000000000000000  -0.000000000000000 1
force W  -0.000000000000000   0.000000000000000  -0.000000000000000 1
force W   0.000000000000000   0.000000000000000  -0.000000000000000 1
force W   0.000000000000000   0.000000000000000  -0.000000000000000 1
force W   0.000000000000000   0.000000000000000   0.000000000000000 1
force W   0.000000000000000   0.000000000000000  -0.000000000000000 1
force W  -0.000000000000000   0.000000000000000   0.000000000000000 1
force W  -0.000000000000000   0.000000000000000   0.000000000000000 1
force W  -0.000000000000000   0.000000000000000  -0.000000000000000 1
force W  -0.000000000000000   0.000000000000000   0.000000000000000 1
force W  -0.000000000000000   0.000000000000000   0.000000000000000 1
force W   0.000000000000000   0.000000000000000  -0.000000000000000 1
force Se   0.000000000000000  -0.000000000000000  -0.011616584591226 1
force Se   0.000000000000000  -0.000000000000000   0.011616584591456 1
force Se  -0.000000000000000  -0.000000000000000  -0.011616584591567 1
force Se  -0.000000000000000   0.000000000000000   0.011616584591454 1
force Se  -0.000000000000000   0.000000000000000  -0.011616584591454 1
force Se   0.000000000000000   0.000000000000000   0.011616584591568 1
force Se  -0.000000000000000  -0.000000000000000  -0.011616584591340 1
force Se   0.000000000000000   0.000000000000000   0.011616584591568 1
force Se  -0.000000000000000   0.000000000000000  -0.011616584591567 1
force Se   0.000000000000000   0.000000000000000   0.011616584591454 1
force Se  -0.000000000000000  -0.000000000000000  -0.011616584591568 1
force Se   0.000000000000000   0.000000000000000   0.011616584591341 1
force Se  -0.000000000000000   0.000000000000000  -0.011616584591341 1
force Se   0.000000000000000   0.000000000000000   0.011616584591454 1
force Se  -0.000000000000000   0.000000000000000  -0.011616584591454 1
force Se   0.000000000000000   0.000000000000000   0.011616584591341 1
force Se  -0.000000000000000   0.000000000000000  -0.011616584591454 1
force Se   0.000000000000000   0.000000000000000   0.011616584591456 1
force Se  -0.000000000000000  -0.000000000000000  -0.011616584591681 1
force Se   0.000000000000000   0.000000000000000   0.011616584591454 1
force Se  -0.000000000000000   0.000000000000000  -0.011616584591454 1
force Se   0.000000000000000   0.000000000000000   0.011616584591454 1
force Se  -0.000000000000000   0.000000000000000  -0.011616584591454 1
force Se   0.000000000000000   0.000000000000000   0.011616584591456 1
force Se  -0.000000000000000   0.000000000000000  -0.011616584591454 1
force Se   0.000000000000000   0.000000000000000   0.011616584591229 1
force Se  -0.000000000000000  -0.000000000000000  -0.011616584591567 1
force Se   0.000000000000000   0.000000000000000   0.011616584591568 1
force Se  -0.000000000000000   0.000000000000000  -0.011616584591681 1
force Se   0.000000000000000   0.000000000000000   0.011616584591454 1
force Se  -0.000000000000000   0.000000000000000  -0.011616584591454 1
force Se   0.000000000000000   0.000000000000000   0.011616584591454 1

# Energy components:
   A_diel =        0.0199180303154428
   Eewald =     7935.1870961835611524
       EH =     9067.9014603574414650
     Eloc =   -18490.0516846401696966
      Enl =     -154.8115133451572660
      Exc =     -805.6261963927427132
 Exc_core =      564.8999477537579423
       KE =      475.7063933357829342
  MuShift =        0.0021997357126853
-------------------------------------
     Etot =    -1406.7723789815001965
       TS =        0.0043537171220408
-------------------------------------
        F =    -1406.7767326986222542
      muN =      -71.2071333453149578
-------------------------------------
        G =    -1335.5695993533072397

IonicMinimize: Iter:   0  G: -1335.569599353307240  |grad|_K:  1.597e-04  t[s]:   4430.37

#--- Lowdin population analysis ---
# oxidation-state W -0.706 -0.706 -0.706 -0.706 -0.706 -0.706 -0.706 -0.706 -0.706 -0.706 -0.706 -0.706 -0.706 -0.706 -0.706 -0.706
# magnetic-moments W +0.000 +0.000 +0.000 +0.000 +0.000 +0.000 +0.000 +0.000 +0.000 +0.000 +0.000 +0.000 +0.000 +0.000 +0.000 +0.000
# oxidation-state Se +0.410 +0.410 +0.410 +0.410 +0.410 +0.410 +0.410 +0.410 +0.410 +0.410 +0.410 +0.410 +0.410 +0.410 +0.410 +0.410 +0.410 +0.410 +0.410 +0.410 +0.410 +0.410 +0.410 +0.410 +0.410 +0.410 +0.410 +0.410 +0.410 +0.410 +0.410 +0.410
# magnetic-moments Se -0.000 -0.000 -0.000 -0.000 -0.000 -0.000 -0.000 -0.000 -0.000 -0.000 -0.000 -0.000 -0.000 -0.000 -0.000 -0.000 -0.000 -0.000 -0.000 -0.000 -0.000 -0.000 -0.000 -0.000 -0.000 -0.000 -0.000 -0.000 -0.000 -0.000 -0.000 -0.000

Shifting auxilliary hamiltonian by 0.000021 to set nElectrons=415.803707
	Linear fluid (dielectric constant: 78.4, screening length: 5.74355 Bohr) occupying 0.744306 of unit cell:	Completed after 2 iterations at t[s]:   4448.30

-------- Electronic minimization -----------
	Linear fluid (dielectric constant: 78.4, screening length: 5.74355 Bohr) occupying 0.744306 of unit cell:	Completed after 0 iterations at t[s]:   4464.55
	FillingsUpdate:  mu: -0.171251800  nElectrons: 415.803707  magneticMoment: [ Abs: 0.00008  Tot: +0.00000 ]
ElecMinimize: Iter:   0  G: -1335.569601281230007  |grad|_K:  5.190e-08  alpha:  1.000e+00
	Linear fluid (dielectric constant: 78.4, screening length: 5.74355 Bohr) occupying 0.744307 of unit cell:	Completed after 2 iterations at t[s]:   4508.45
	Linear fluid (dielectric constant: 78.4, screening length: 5.74355 Bohr) occupying 0.744307 of unit cell:	Completed after 0 iterations at t[s]:   4528.67
	FillingsUpdate:  mu: -0.171251800  nElectrons: 415.803577  magneticMoment: [ Abs: 0.00006  Tot: +0.00000 ]
	SubspaceRotationAdjust: set factor to 0.0488
ElecMinimize: Iter:   1  G: -1335.569601654614871  |grad|_K:  3.265e-08  alpha:  8.453e-01  linmin:  7.655e-04  t[s]:   4554.41
	Linear fluid (dielectric constant: 78.4, screening length: 5.74355 Bohr) occupying 0.744307 of unit cell:	Completed after 0 iterations at t[s]:   4570.61
	Linear fluid (dielectric constant: 78.4, screening length: 5.74355 Bohr) occupying 0.744307 of unit cell:	Completed after 0 iterations at t[s]:   4589.78
	FillingsUpdate:  mu: -0.171251800  nElectrons: 415.803461  magneticMoment: [ Abs: 0.00006  Tot: +0.00000 ]
	SubspaceRotationAdjust: set factor to 0.0588
ElecMinimize: Iter:   2  G: -1335.569601774704779  |grad|_K:  3.248e-08  alpha:  7.996e-01  linmin:  1.011e-06  t[s]:   4614.92
	Linear fluid (dielectric constant: 78.4, screening length: 5.74355 Bohr) occupying 0.744307 of unit cell:	Completed after 2 iterations at t[s]:   4631.83
	Linear fluid (dielectric constant: 78.4, screening length: 5.74355 Bohr) occupying 0.744307 of unit cell:	Completed after 0 iterations at t[s]:   4651.71
	FillingsUpdate:  mu: -0.171251800  nElectrons: 415.803364  magneticMoment: [ Abs: 0.00006  Tot: +0.00000 ]
	SubspaceRotationAdjust: set factor to 0.069
ElecMinimize: Iter:   3  G: -1335.569601812160727  |grad|_K:  3.017e-08  alpha:  3.898e-01  linmin:  2.674e-05  t[s]:   4676.89
	Linear fluid (dielectric constant: 78.4, screening length: 5.74355 Bohr) occupying 0.744306 of unit cell:	Completed after 0 iterations at t[s]:   4693.14
	Linear fluid (dielectric constant: 78.4, screening length: 5.74355 Bohr) occupying 0.744306 of unit cell:	Completed after 0 iterations at t[s]:   4712.72
	FillingsUpdate:  mu: -0.171251800  nElectrons: 415.803250  magneticMoment: [ Abs: 0.00005  Tot: +0.00000 ]
	SubspaceRotationAdjust: set factor to 0.0755
ElecMinimize: Iter:   4  G: -1335.569601891842012  |grad|_K:  3.761e-08  alpha:  5.627e-01  linmin:  1.798e-07  t[s]:   4738.26
	Linear fluid (dielectric constant: 78.4, screening length: 5.74355 Bohr) occupying 0.744304 of unit cell:	Completed after 2 iterations at t[s]:   4754.99
	Linear fluid (dielectric constant: 78.4, screening length: 5.74355 Bohr) occupying 0.744305 of unit cell:	Completed after 0 iterations at t[s]:   4775.26
	FillingsUpdate:  mu: -0.171251800  nElectrons: 415.803159  magneticMoment: [ Abs: 0.00004  Tot: +0.00000 ]
	SubspaceRotationAdjust: set factor to 0.0819
ElecMinimize: Iter:   5  G: -1335.569601943661837  |grad|_K:  3.599e-08  alpha:  3.143e-01  linmin: -2.206e-05  t[s]:   4800.63
	Linear fluid (dielectric constant: 78.4, screening length: 5.74355 Bohr) occupying 0.744304 of unit cell:	Completed after 0 iterations at t[s]:   4816.68
	Linear fluid (dielectric constant: 78.4, screening length: 5.74355 Bohr) occupying 0.744304 of unit cell:	Completed after 0 iterations at t[s]:   4836.06
	FillingsUpdate:  mu: -0.171251800  nElectrons: 415.803101  magneticMoment: [ Abs: 0.00008  Tot: +0.00000 ]
	SubspaceRotationAdjust: set factor to 0.0889
ElecMinimize: Iter:   6  G: -1335.569602012126325  |grad|_K:  3.391e-08  alpha:  3.160e-01  linmin: -2.243e-05  t[s]:   4861.44
	Linear fluid (dielectric constant: 78.4, screening length: 5.74355 Bohr) occupying 0.744304 of unit cell:	Completed after 0 iterations at t[s]:   4877.34
	Linear fluid (dielectric constant: 78.4, screening length: 5.74355 Bohr) occupying 0.744304 of unit cell:	Completed after 0 iterations at t[s]:   4896.71
	FillingsUpdate:  mu: -0.171251800  nElectrons: 415.803076  magneticMoment: [ Abs: 0.00022  Tot: +0.00000 ]
	SubspaceRotationAdjust: set factor to 0.0967
ElecMinimize: Iter:   7  G: -1335.569602084560984  |grad|_K:  3.053e-08  alpha:  3.675e-01  linmin: -2.234e-05  t[s]:   4921.87
	Linear fluid (dielectric constant: 78.4, screening length: 5.74355 Bohr) occupying 0.744304 of unit cell:	Completed after 0 iterations at t[s]:   4938.02
	Linear fluid (dielectric constant: 78.4, screening length: 5.74355 Bohr) occupying 0.744304 of unit cell:	Completed after 0 iterations at t[s]:   4957.39
	FillingsUpdate:  mu: -0.171251800  nElectrons: 415.803090  magneticMoment: [ Abs: 0.00030  Tot: +0.00000 ]
	SubspaceRotationAdjust: set factor to 0.107
ElecMinimize: Iter:   8  G: -1335.569602131073452  |grad|_K:  2.496e-08  alpha:  2.927e-01  linmin: -1.085e-05  t[s]:   4982.94
	Linear fluid (dielectric constant: 78.4, screening length: 5.74355 Bohr) occupying 0.744304 of unit cell:	Completed after 0 iterations at t[s]:   4998.76
	Linear fluid (dielectric constant: 78.4, screening length: 5.74355 Bohr) occupying 0.744304 of unit cell:	Completed after 0 iterations at t[s]:   5018.49
	FillingsUpdate:  mu: -0.171251800  nElectrons: 415.803142  magneticMoment: [ Abs: 0.00033  Tot: +0.00000 ]
	SubspaceRotationAdjust: set factor to 0.118
ElecMinimize: Iter:   9  G: -1335.569602168932533  |grad|_K:  2.332e-08  alpha:  3.594e-01  linmin: -8.753e-06  t[s]:   5043.87
	Linear fluid (dielectric constant: 78.4, screening length: 5.74355 Bohr) occupying 0.744305 of unit cell:	Completed after 0 iterations at t[s]:   5059.76
	Linear fluid (dielectric constant: 78.4, screening length: 5.74355 Bohr) occupying 0.744305 of unit cell:	Completed after 0 iterations at t[s]:   5079.49
	FillingsUpdate:  mu: -0.171251800  nElectrons: 415.803217  magneticMoment: [ Abs: 0.00035  Tot: +0.00000 ]
	SubspaceRotationAdjust: set factor to 0.133
ElecMinimize: Iter:  10  G: -1335.569602196767846  |grad|_K:  1.908e-08  alpha:  3.048e-01  linmin: -3.409e-06  t[s]:   5104.68
	Linear fluid (dielectric constant: 78.4, screening length: 5.74355 Bohr) occupying 0.744306 of unit cell:	Completed after 0 iterations at t[s]:   5120.50
	Linear fluid (dielectric constant: 78.4, screening length: 5.74355 Bohr) occupying 0.744306 of unit cell:	Completed after 0 iterations at t[s]:   5139.96
	FillingsUpdate:  mu: -0.171251800  nElectrons: 415.803320  magneticMoment: [ Abs: 0.00036  Tot: +0.00000 ]
	SubspaceRotationAdjust: set factor to 0.147
ElecMinimize: Iter:  11  G: -1335.569602218398813  |grad|_K:  1.886e-08  alpha:  3.609e-01  linmin: -1.871e-06  t[s]:   5165.25
	Linear fluid (dielectric constant: 78.4, screening length: 5.74355 Bohr) occupying 0.744308 of unit cell:	Completed after 0 iterations at t[s]:   5181.46
	Linear fluid (dielectric constant: 78.4, screening length: 5.74355 Bohr) occupying 0.744307 of unit cell:	Completed after 0 iterations at t[s]:   5201.03
ElecMinimize: 	Step increased G by 6.934897e-10, reducing alpha to 1.909741e-02.
	Linear fluid (dielectric constant: 78.4, screening length: 5.74355 Bohr) occupying 0.744306 of unit cell:	Completed after 0 iterations at t[s]:   5239.53
ElecMinimize: 	Step increased G by 1.384365e-08, reducing alpha to 1.909741e-03.
	Linear fluid (dielectric constant: 78.4, screening length: 5.74355 Bohr) occupying 0.744306 of unit cell:	Completed after 0 iterations at t[s]:   5277.80
ElecMinimize: 	Step increased G by 1.574062e-08, reducing alpha to 1.909741e-04.
ElecMinimize: 	Step failed to reduce G after 3 attempts. Quitting step.
ElecMinimize: 	Undoing step.
	Linear fluid (dielectric constant: 78.4, screening length: 5.74355 Bohr) occupying 0.744306 of unit cell:	Completed after 0 iterations at t[s]:   5315.87
ElecMinimize: 	Step failed: resetting search direction.
	FillingsUpdate:  mu: -0.171251800  nElectrons: 415.803321  magneticMoment: [ Abs: 0.00036  Tot: +0.00000 ]
	SubspaceRotationAdjust: set factor to 0.161
ElecMinimize: Iter:  12  G: -1335.569602202631359  |grad|_K:  1.910e-08  alpha:  1.910e-04
	Linear fluid (dielectric constant: 78.4, screening length: 5.74355 Bohr) occupying 0.744307 of unit cell:	Completed after 0 iterations at t[s]:   5357.05
	Linear fluid (dielectric constant: 78.4, screening length: 5.74355 Bohr) occupying 0.744307 of unit cell:	Completed after 0 iterations at t[s]:   5376.42
	FillingsUpdate:  mu: -0.171251800  nElectrons: 415.803368  magneticMoment: [ Abs: 0.00035  Tot: +0.00000 ]
	SubspaceRotationAdjust: set factor to 0.199
ElecMinimize: Iter:  13  G: -1335.569602225162498  |grad|_K:  1.294e-08  alpha:  3.892e-01  linmin:  7.579e-06  t[s]:   5401.83
	Linear fluid (dielectric constant: 78.4, screening length: 5.74355 Bohr) occupying 0.744307 of unit cell:	Completed after 0 iterations at t[s]:   5417.92
	Linear fluid (dielectric constant: 78.4, screening length: 5.74355 Bohr) occupying 0.744307 of unit cell:	Completed after 0 iterations at t[s]:   5437.07
	FillingsUpdate:  mu: -0.171251800  nElectrons: 415.803521  magneticMoment: [ Abs: 0.00034  Tot: +0.00000 ]
	SubspaceRotationAdjust: set factor to 0.244
ElecMinimize: Iter:  14  G: -1335.569602244967427  |grad|_K:  1.236e-08  alpha:  8.288e-01  linmin:  1.055e-05  t[s]:   5462.64
	Linear fluid (dielectric constant: 78.4, screening length: 5.74355 Bohr) occupying 0.744308 of unit cell:	Completed after 0 iterations at t[s]:   5478.39
	Linear fluid (dielectric constant: 78.4, screening length: 5.74355 Bohr) occupying 0.744308 of unit cell:	Completed after 0 iterations at t[s]:   5498.19
	FillingsUpdate:  mu: -0.171251800  nElectrons: 415.803763  magneticMoment: [ Abs: 0.00037  Tot: +0.00000 ]
	SubspaceRotationAdjust: set factor to 0.298
	SubspaceRotationAdjust: resetting CG because factor has changed by 8.22596
	Linear fluid (dielectric constant: 78.4, screening length: 5.74355 Bohr) occupying 0.744308 of unit cell:	Completed after 0 iterations at t[s]:   5532.66
ElecMinimize: 	State modified externally: resetting search direction.
ElecMinimize: Iter:  15  G: -1335.569602261916543  |grad|_K:  1.050e-08  alpha:  8.130e-01
	Linear fluid (dielectric constant: 78.4, screening length: 5.74355 Bohr) occupying 0.744308 of unit cell:	Completed after 0 iterations at t[s]:   5574.19
	Linear fluid (dielectric constant: 78.4, screening length: 5.74355 Bohr) occupying 0.744308 of unit cell:	Completed after 0 iterations at t[s]:   5593.85
	FillingsUpdate:  mu: -0.171251800  nElectrons: 415.803837  magneticMoment: [ Abs: 0.00040  Tot: +0.00001 ]
	SubspaceRotationAdjust: set factor to 0.385
ElecMinimize: Iter:  16  G: -1335.569602272030806  |grad|_K:  8.372e-09  alpha:  5.758e-01  linmin:  4.764e-07  t[s]:   5619.10
	Linear fluid (dielectric constant: 78.4, screening length: 5.74355 Bohr) occupying 0.744308 of unit cell:	Completed after 0 iterations at t[s]:   5635.12
	Linear fluid (dielectric constant: 78.4, screening length: 5.74355 Bohr) occupying 0.744308 of unit cell:	Completed after 0 iterations at t[s]:   5654.53
	FillingsUpdate:  mu: -0.171251800  nElectrons: 415.803935  magneticMoment: [ Abs: 0.00044  Tot: +0.00001 ]
	SubspaceRotationAdjust: set factor to 0.462
ElecMinimize: Iter:  17  G: -1335.569602277726972  |grad|_K:  5.566e-09  alpha:  5.167e-01  linmin: -4.758e-06  t[s]:   5679.78
	Linear fluid (dielectric constant: 78.4, screening length: 5.74355 Bohr) occupying 0.744308 of unit cell:	Completed after 0 iterations at t[s]:   5695.62
	Linear fluid (dielectric constant: 78.4, screening length: 5.74355 Bohr) occupying 0.744308 of unit cell:	Completed after 0 iterations at t[s]:   5715.19
ElecMinimize: 	Step increased G by 1.189665e-08, reducing alpha to 8.367372e-03.
	Linear fluid (dielectric constant: 78.4, screening length: 5.74355 Bohr) occupying 0.744308 of unit cell:	Completed after 0 iterations at t[s]:   5753.36
ElecMinimize: 	Step increased G by 1.220906e-08, reducing alpha to 8.367372e-04.
	Linear fluid (dielectric constant: 78.4, screening length: 5.74355 Bohr) occupying 0.744308 of unit cell:	Completed after 0 iterations at t[s]:   5791.77
ElecMinimize: 	Step increased G by 1.227522e-08, reducing alpha to 8.367372e-05.
ElecMinimize: 	Step failed to reduce G after 3 attempts. Quitting step.
ElecMinimize: 	Undoing step.
	Linear fluid (dielectric constant: 78.4, screening length: 5.74355 Bohr) occupying 0.744308 of unit cell:	Completed after 0 iterations at t[s]:   5830.25
ElecMinimize: 	Step failed: resetting search direction.
	FillingsUpdate:  mu: -0.171251800  nElectrons: 415.803935  magneticMoment: [ Abs: 0.00044  Tot: +0.00001 ]
	SubspaceRotationAdjust: set factor to 0.576
ElecMinimize: Iter:  18  G: -1335.569602265477670  |grad|_K:  5.200e-09  alpha:  8.367e-05
	Linear fluid (dielectric constant: 78.4, screening length: 5.74355 Bohr) occupying 0.744308 of unit cell:	Completed after 0 iterations at t[s]:   5871.28
	Linear fluid (dielectric constant: 78.4, screening length: 5.74355 Bohr) occupying 0.744308 of unit cell:	Completed after 0 iterations at t[s]:   5890.89
	FillingsUpdate:  mu: -0.171251800  nElectrons: 415.803944  magneticMoment: [ Abs: 0.00045  Tot: +0.00001 ]
	SubspaceRotationAdjust: set factor to 0.788
ElecMinimize: Iter:  19  G: -1335.569602267334858  |grad|_K:  3.459e-09  alpha:  4.356e-01  linmin: -1.345e-06  t[s]:   5915.97
	Linear fluid (dielectric constant: 78.4, screening length: 5.74355 Bohr) occupying 0.744308 of unit cell:	Completed after 0 iterations at t[s]:   5932.06
	Linear fluid (dielectric constant: 78.4, screening length: 5.74355 Bohr) occupying 0.744308 of unit cell:	Completed after 0 iterations at t[s]:   5951.23
	FillingsUpdate:  mu: -0.171251800  nElectrons: 415.803964  magneticMoment: [ Abs: 0.00047  Tot: +0.00000 ]
	SubspaceRotationAdjust: set factor to 1.1
ElecMinimize: Iter:  20  G: -1335.569602268455355  |grad|_K:  2.629e-09  alpha:  5.948e-01  linmin:  1.511e-06  t[s]:   5976.58
ElecMinimize: Converged (|Delta G|<1.000000e-08 for 2 iters).
Setting wave functions to eigenvectors of Hamiltonian

# Ionic positions in lattice coordinates:
ion W   0.083334439986111   0.166665542472221   0.500000000000000 1
ion W   0.333334439986111   0.166665542472221   0.500000000000000 1
ion W   0.583334439986111   0.166665542472221   0.500000000000000 1
ion W   0.833334439986111   0.166665542472221   0.500000000000000 1
ion W   0.083334439986111   0.416665542472221   0.500000000000000 1
ion W   0.333334439986111   0.416665542472221   0.500000000000000 1
ion W   0.583334439986111   0.416665542472221   0.500000000000000 1
ion W   0.833334439986111   0.416665542472221   0.500000000000000 1
ion W   0.083334439986111   0.666665542472221   0.500000000000000 1
ion W   0.333334439986111   0.666665542472221   0.500000000000000 1
ion W   0.583334439986111   0.666665542472221   0.500000000000000 1
ion W   0.833334439986111   0.666665542472221   0.500000000000000 1
ion W   0.083334439986111   0.916665542472221   0.500000000000000 1
ion W   0.333334439986111   0.916665542472221   0.500000000000000 1
ion W   0.583334439986111   0.916665542472221   0.500000000000000 1
ion W   0.833334439986111   0.916665542472221   0.500000000000000 1
ion Se   0.166667773319445   0.083332209138888   0.406886789501824 1
ion Se   0.166667773319445   0.083332209138888   0.593113210498176 1
ion Se   0.416667773319445   0.083332209138888   0.406886789501824 1
ion Se   0.416667773319445   0.083332209138888   0.593113210498176 1
ion Se   0.666667773319445   0.083332209138888   0.406886789501824 1
ion Se   0.666667773319445   0.083332209138888   0.593113210498176 1
ion Se   0.916667773319445   0.083332209138888   0.406886789501824 1
ion Se   0.916667773319445   0.083332209138888   0.593113210498176 1
ion Se   0.166667773319445   0.333332209138888   0.406886789501824 1
ion Se   0.166667773319445   0.333332209138888   0.593113210498176 1
ion Se   0.416667773319445   0.333332209138888   0.406886789501824 1
ion Se   0.416667773319445   0.333332209138888   0.593113210498176 1
ion Se   0.666667773319445   0.333332209138888   0.406886789501824 1
ion Se   0.666667773319445   0.333332209138888   0.593113210498176 1
ion Se   0.916667773319445   0.333332209138888   0.406886789501824 1
ion Se   0.916667773319445   0.333332209138888   0.593113210498176 1
ion Se   0.166667773319445   0.583332209138888   0.406886789501824 1
ion Se   0.166667773319445   0.583332209138888   0.593113210498176 1
ion Se   0.416667773319445   0.583332209138888   0.406886789501824 1
ion Se   0.416667773319445   0.583332209138888   0.593113210498176 1
ion Se   0.666667773319445   0.583332209138888   0.406886789501824 1
ion Se   0.666667773319445   0.583332209138888   0.593113210498176 1
ion Se   0.916667773319445   0.583332209138888   0.406886789501824 1
ion Se   0.916667773319445   0.583332209138888   0.593113210498176 1
ion Se   0.166667773319445   0.833332209138888   0.406886789501824 1
ion Se   0.166667773319445   0.833332209138888   0.593113210498176 1
ion Se   0.416667773319445   0.833332209138888   0.406886789501824 1
ion Se   0.416667773319445   0.833332209138888   0.593113210498176 1
ion Se   0.666667773319445   0.833332209138888   0.406886789501824 1
ion Se   0.666667773319445   0.833332209138888   0.593113210498176 1
ion Se   0.916667773319445   0.833332209138888   0.406886789501824 1
ion Se   0.916667773319445   0.833332209138888   0.593113210498176 1


# Forces in Lattice coordinates:
force W  -0.000000000000000  -0.000000000000000  -0.000000000000000 1
force W   0.000000000000000  -0.000000000000000   0.000000000000000 1
force W   0.000000000000000  -0.000000000000000  -0.000000000000000 1
force W  -0.000000000000000  -0.000000000000000   0.000000000000000 1
force W  -0.000000000000000  -0.000000000000000   0.000000000000000 1
force W  -0.000000000000000  -0.000000000000000  -0.000000000000000 1
force W   0.000000000000000  -0.000000000000000   0.000000000000000 1
force W   0.000000000000000  -0.000000000000000   0.000000000000000 1
force W   0.000000000000000  -0.000000000000000  -0.000000000000000 1
force W  -0.000000000000000  -0.000000000000000  -0.000000000000000 1
force W   0.000000000000000  -0.000000000000000  -0.000000000000000 1
force W   0.000000000000000  -0.000000000000000   0.000000000000000 1
force W  -0.000000000000000  -0.000000000000000   0.000000000000000 1
force W  -0.000000000000000  -0.000000000000000  -0.000000000000000 1
force W  -0.000000000000000  -0.000000000000000  -0.000000000000000 1
force W   0.000000000000000  -0.000000000000000  -0.000000000000000 1
force Se  -0.000000000000000  -0.000000000000000  -0.007284642797853 1
force Se   0.000000000000000  -0.000000000000000   0.007284642797965 1
force Se  -0.000000000000000  -0.000000000000000  -0.007284642798080 1
force Se   0.000000000000000   0.000000000000000   0.007284642797852 1
force Se  -0.000000000000000  -0.000000000000000  -0.007284642798079 1
force Se   0.000000000000000  -0.000000000000000   0.007284642797853 1
force Se  -0.000000000000000  -0.000000000000000  -0.007284642797854 1
force Se   0.000000000000000  -0.000000000000000   0.007284642797966 1
force Se  -0.000000000000000  -0.000000000000000  -0.007284642797855 1
force Se   0.000000000000000  -0.000000000000000   0.007284642797966 1
force Se  -0.000000000000000  -0.000000000000000  -0.007284642798080 1
force Se   0.000000000000000  -0.000000000000000   0.007284642797852 1
force Se  -0.000000000000000   0.000000000000000  -0.007284642797968 1
force Se  -0.000000000000000  -0.000000000000000   0.007284642797852 1
force Se  -0.000000000000000  -0.000000000000000  -0.007284642797854 1
force Se   0.000000000000000  -0.000000000000000   0.007284642797851 1
force Se  -0.000000000000000  -0.000000000000000  -0.007284642797966 1
force Se   0.000000000000000  -0.000000000000000   0.007284642797853 1
force Se  -0.000000000000000  -0.000000000000000  -0.007284642797852 1
force Se   0.000000000000000  -0.000000000000000   0.007284642797625 1
force Se  -0.000000000000000  -0.000000000000000  -0.007284642797968 1
force Se  -0.000000000000000  -0.000000000000000   0.007284642797851 1
force Se   0.000000000000000  -0.000000000000000  -0.007284642797968 1
force Se  -0.000000000000000  -0.000000000000000   0.007284642797739 1
force Se  -0.000000000000000  -0.000000000000000  -0.007284642797966 1
force Se   0.000000000000000  -0.000000000000000   0.007284642797968 1
force Se  -0.000000000000000  -0.000000000000000  -0.007284642798082 1
force Se   0.000000000000000  -0.000000000000000   0.007284642797853 1
force Se   0.000000000000000  -0.000000000000000  -0.007284642797853 1
force Se   0.000000000000000   0.000000000000000   0.007284642797853 1
force Se  -0.000000000000000  -0.000000000000000  -0.007284642797854 1
force Se   0.000000000000000  -0.000000000000000   0.007284642798078 1

# Energy components:
   A_diel =        0.0198997753947556
   Eewald =     7934.9839002282133151
       EH =     9067.7143775022705086
     Eloc =   -18489.6583184938135673
      Enl =     -154.8116340792922188
      Exc =     -805.6240987246114855
 Exc_core =      564.8999451871434303
       KE =      475.7013006535667046
  MuShift =        0.0021968551977976
-------------------------------------
     Etot =    -1406.7724310959313243
       TS =        0.0043485366804580
-------------------------------------
        F =    -1406.7767796326118059
      muN =      -71.2071773641564647
-------------------------------------
        G =    -1335.5696022684553554

IonicMinimize: Iter:   1  G: -1335.569602268455355  |grad|_K:  1.001e-04  alpha:  1.000e+00  linmin: -1.000e+00  t[s]:   5992.44

#--- Lowdin population analysis ---
# oxidation-state W -0.705 -0.705 -0.705 -0.705 -0.705 -0.705 -0.705 -0.705 -0.705 -0.705 -0.705 -0.705 -0.705 -0.705 -0.705 -0.705
# magnetic-moments W +0.000 +0.000 +0.000 +0.000 +0.000 +0.000 +0.000 +0.000 +0.000 +0.000 +0.000 +0.000 +0.000 +0.000 +0.000 +0.000
# oxidation-state Se +0.410 +0.410 +0.410 +0.410 +0.410 +0.410 +0.410 +0.410 +0.410 +0.410 +0.410 +0.410 +0.410 +0.410 +0.410 +0.410 +0.410 +0.410 +0.410 +0.410 +0.410 +0.410 +0.410 +0.410 +0.410 +0.410 +0.410 +0.410 +0.410 +0.410 +0.410 +0.410
# magnetic-moments Se -0.000 -0.000 -0.000 -0.000 -0.000 -0.000 -0.000 -0.000 -0.000 -0.000 -0.000 -0.000 -0.000 -0.000 -0.000 -0.000 -0.000 -0.000 -0.000 -0.000 -0.000 -0.000 -0.000 -0.000 -0.000 -0.000 -0.000 -0.000 -0.000 -0.000 -0.000 -0.000

Shifting auxilliary hamiltonian by 0.000001 to set nElectrons=415.803964
	Linear fluid (dielectric constant: 78.4, screening length: 5.74355 Bohr) occupying 0.744288 of unit cell:	Completed after 2 iterations at t[s]:   6010.17

-------- Electronic minimization -----------
	Linear fluid (dielectric constant: 78.4, screening length: 5.74355 Bohr) occupying 0.744288 of unit cell:	Completed after 0 iterations at t[s]:   6026.38
	FillingsUpdate:  mu: -0.171251800  nElectrons: 415.803964  magneticMoment: [ Abs: 0.00279  Tot: +0.00000 ]
ElecMinimize: Iter:   0  G: -1335.569603532823749  |grad|_K:  1.574e-07  alpha:  1.000e+00
	Linear fluid (dielectric constant: 78.4, screening length: 5.74355 Bohr) occupying 0.744285 of unit cell:	Completed after 5 iterations at t[s]:   6071.09
	Linear fluid (dielectric constant: 78.4, screening length: 5.74355 Bohr) occupying 0.744287 of unit cell:	Completed after 6 iterations at t[s]:   6092.52
	FillingsUpdate:  mu: -0.171251800  nElectrons: 415.802836  magneticMoment: [ Abs: 0.00228  Tot: +0.00001 ]
	SubspaceRotationAdjust: set factor to 0.708
ElecMinimize: Iter:   1  G: -1335.569604613358933  |grad|_K:  1.193e-07  alpha:  2.361e-01  linmin: -2.366e-04  t[s]:   6119.31
	Linear fluid (dielectric constant: 78.4, screening length: 5.74355 Bohr) occupying 0.744290 of unit cell:	Completed after 0 iterations at t[s]:   6135.31
	Linear fluid (dielectric constant: 78.4, screening length: 5.74355 Bohr) occupying 0.744295 of unit cell:	Completed after 2 iterations at t[s]:   6155.35
	FillingsUpdate:  mu: -0.171251800  nElectrons: 415.804618  magneticMoment: [ Abs: 0.00081  Tot: +0.00001 ]
	SubspaceRotationAdjust: set factor to 0.313
ElecMinimize: Iter:   2  G: -1335.569605574026127  |grad|_K:  4.245e-08  alpha:  5.620e-01  linmin:  1.809e-03  t[s]:   6181.37
	Linear fluid (dielectric constant: 78.4, screening length: 5.74355 Bohr) occupying 0.744295 of unit cell:	Completed after 2 iterations at t[s]:   6197.87
	Linear fluid (dielectric constant: 78.4, screening length: 5.74355 Bohr) occupying 0.744295 of unit cell:	Completed after 0 iterations at t[s]:   6218.14
	FillingsUpdate:  mu: -0.171251800  nElectrons: 415.804238  magneticMoment: [ Abs: 0.00058  Tot: +0.00001 ]
	SubspaceRotationAdjust: set factor to 0.265
ElecMinimize: Iter:   3  G: -1335.569605623702500  |grad|_K:  2.670e-08  alpha:  3.372e-01  linmin: -9.729e-05  t[s]:   6243.02
	Linear fluid (dielectric constant: 78.4, screening length: 5.74355 Bohr) occupying 0.744295 of unit cell:	Completed after 0 iterations at t[s]:   6258.99
	Linear fluid (dielectric constant: 78.4, screening length: 5.74355 Bohr) occupying 0.744294 of unit cell:	Completed after 0 iterations at t[s]:   6278.40
	FillingsUpdate:  mu: -0.171251800  nElectrons: 415.804010  magneticMoment: [ Abs: 0.00055  Tot: +0.00001 ]
	SubspaceRotationAdjust: set factor to 0.236
ElecMinimize: Iter:   4  G: -1335.569605680285122  |grad|_K:  1.933e-08  alpha:  4.506e-01  linmin: -2.345e-04  t[s]:   6303.78
	Linear fluid (dielectric constant: 78.4, screening length: 5.74355 Bohr) occupying 0.744294 of unit cell:	Completed after 2 iterations at t[s]:   6320.26
	Linear fluid (dielectric constant: 78.4, screening length: 5.74355 Bohr) occupying 0.744294 of unit cell:	Completed after 0 iterations at t[s]:   6340.48
ElecMinimize: 	Step increased G by 1.955323e-08, reducing alpha to 1.290769e-02.
	Linear fluid (dielectric constant: 78.4, screening length: 5.74355 Bohr) occupying 0.744294 of unit cell:	Completed after 0 iterations at t[s]:   6378.79
ElecMinimize: 	Step increased G by 1.304238e-08, reducing alpha to 1.290769e-03.
	Linear fluid (dielectric constant: 78.4, screening length: 5.74355 Bohr) occupying 0.744294 of unit cell:	Completed after 0 iterations at t[s]:   6416.73
ElecMinimize: 	Step increased G by 1.248532e-08, reducing alpha to 1.290769e-04.
ElecMinimize: 	Step failed to reduce G after 3 attempts. Quitting step.
ElecMinimize: 	Undoing step.
	Linear fluid (dielectric constant: 78.4, screening length: 5.74355 Bohr) occupying 0.744294 of unit cell:	Completed after 0 iterations at t[s]:   6455.07
ElecMinimize: 	Step failed: resetting search direction.
	FillingsUpdate:  mu: -0.171251800  nElectrons: 415.804009  magneticMoment: [ Abs: 0.00055  Tot: +0.00001 ]
	SubspaceRotationAdjust: set factor to 0.191
ElecMinimize: Iter:   5  G: -1335.569605667791620  |grad|_K:  1.850e-08  alpha:  1.291e-04
	Linear fluid (dielectric constant: 78.4, screening length: 5.74355 Bohr) occupying 0.744294 of unit cell:	Completed after 0 iterations at t[s]:   6496.11
	Linear fluid (dielectric constant: 78.4, screening length: 5.74355 Bohr) occupying 0.744294 of unit cell:	Completed after 0 iterations at t[s]:   6515.59
	FillingsUpdate:  mu: -0.171251800  nElectrons: 415.803808  magneticMoment: [ Abs: 0.00045  Tot: +0.00001 ]
	SubspaceRotationAdjust: set factor to 0.138
	SubspaceRotationAdjust: resetting CG because factor has changed by 0.124945
	Linear fluid (dielectric constant: 78.4, screening length: 5.74355 Bohr) occupying 0.744294 of unit cell:	Completed after 0 iterations at t[s]:   6550.44
ElecMinimize: 	State modified externally: resetting search direction.
ElecMinimize: Iter:   6  G: -1335.569605696046210  |grad|_K:  1.026e-08  alpha:  4.849e-01
	Linear fluid (dielectric constant: 78.4, screening length: 5.74355 Bohr) occupying 0.744294 of unit cell:	Completed after 0 iterations at t[s]:   6592.01
ElecMinimize: 	Predicted alpha/alphaT>3.000000, increasing alphaT to 1.454696e+00.
	Linear fluid (dielectric constant: 78.4, screening length: 5.74355 Bohr) occupying 0.744294 of unit cell:	Completed after 1 iterations at t[s]:   6611.29
	Linear fluid (dielectric constant: 78.4, screening length: 5.74355 Bohr) occupying 0.744294 of unit cell:	Completed after 0 iterations at t[s]:   6631.73
ElecMinimize: 	Step increased G by 3.106084e-08, reducing alpha to 2.651390e-02.
	Linear fluid (dielectric constant: 78.4, screening length: 5.74355 Bohr) occupying 0.744294 of unit cell:	Completed after 0 iterations at t[s]:   6669.78
ElecMinimize: 	Step increased G by 2.293314e-08, reducing alpha to 2.651390e-03.
	Linear fluid (dielectric constant: 78.4, screening length: 5.74355 Bohr) occupying 0.744294 of unit cell:	Completed after 0 iterations at t[s]:   6707.86
ElecMinimize: 	Step increased G by 2.215938e-08, reducing alpha to 2.651390e-04.
ElecMinimize: 	Step failed to reduce G after 3 attempts. Quitting step.
ElecMinimize: 	Undoing step.
	Linear fluid (dielectric constant: 78.4, screening length: 5.74355 Bohr) occupying 0.744294 of unit cell:	Completed after 0 iterations at t[s]:   6745.92
ElecMinimize: 	Step failed along negative gradient direction.
ElecMinimize: Probably at roundoff error limit. (Stopping)
Setting wave functions to eigenvectors of Hamiltonian

# Ionic positions in lattice coordinates:
ion W   0.083334439986111   0.166665542472221   0.500000000000000 1
ion W   0.333334439986111   0.166665542472221   0.500000000000000 1
ion W   0.583334439986111   0.166665542472221   0.500000000000000 1
ion W   0.833334439986111   0.166665542472221   0.500000000000000 1
ion W   0.083334439986111   0.416665542472221   0.500000000000000 1
ion W   0.333334439986111   0.416665542472221   0.500000000000000 1
ion W   0.583334439986111   0.416665542472221   0.500000000000000 1
ion W   0.833334439986111   0.416665542472221   0.500000000000000 1
ion W   0.083334439986111   0.666665542472221   0.500000000000000 1
ion W   0.333334439986111   0.666665542472221   0.500000000000000 1
ion W   0.583334439986111   0.666665542472221   0.500000000000000 1
ion W   0.833334439986111   0.666665542472221   0.500000000000000 1
ion W   0.083334439986111   0.916665542472221   0.500000000000000 1
ion W   0.333334439986111   0.916665542472221   0.500000000000000 1
ion W   0.583334439986111   0.916665542472221   0.500000000000000 1
ion W   0.833334439986111   0.916665542472221   0.500000000000000 1
ion Se   0.166667773319445   0.083332209138888   0.406870176816790 1
ion Se   0.166667773319445   0.083332209138888   0.593129823183210 1
ion Se   0.416667773319445   0.083332209138888   0.406870176816790 1
ion Se   0.416667773319445   0.083332209138888   0.593129823183210 1
ion Se   0.666667773319445   0.083332209138888   0.406870176816790 1
ion Se   0.666667773319445   0.083332209138888   0.593129823183210 1
ion Se   0.916667773319445   0.083332209138888   0.406870176816790 1
ion Se   0.916667773319445   0.083332209138888   0.593129823183210 1
ion Se   0.166667773319445   0.333332209138888   0.406870176816790 1
ion Se   0.166667773319445   0.333332209138888   0.593129823183210 1
ion Se   0.416667773319445   0.333332209138888   0.406870176816790 1
ion Se   0.416667773319445   0.333332209138888   0.593129823183210 1
ion Se   0.666667773319445   0.333332209138888   0.406870176816790 1
ion Se   0.666667773319445   0.333332209138888   0.593129823183210 1
ion Se   0.916667773319445   0.333332209138888   0.406870176816790 1
ion Se   0.916667773319445   0.333332209138888   0.593129823183210 1
ion Se   0.166667773319445   0.583332209138888   0.406870176816790 1
ion Se   0.166667773319445   0.583332209138888   0.593129823183210 1
ion Se   0.416667773319445   0.583332209138888   0.406870176816790 1
ion Se   0.416667773319445   0.583332209138888   0.593129823183210 1
ion Se   0.666667773319445   0.583332209138888   0.406870176816790 1
ion Se   0.666667773319445   0.583332209138888   0.593129823183210 1
ion Se   0.916667773319445   0.583332209138888   0.406870176816790 1
ion Se   0.916667773319445   0.583332209138888   0.593129823183210 1
ion Se   0.166667773319445   0.833332209138888   0.406870176816790 1
ion Se   0.166667773319445   0.833332209138888   0.593129823183210 1
ion Se   0.416667773319445   0.833332209138888   0.406870176816790 1
ion Se   0.416667773319445   0.833332209138888   0.593129823183210 1
ion Se   0.666667773319445   0.833332209138888   0.406870176816790 1
ion Se   0.666667773319445   0.833332209138888   0.593129823183210 1
ion Se   0.916667773319445   0.833332209138888   0.406870176816790 1
ion Se   0.916667773319445   0.833332209138888   0.593129823183210 1


# Forces in Lattice coordinates:
force W   0.000000000000000  -0.000000000000000  -0.000000000000000 1
force W   0.000000000000000  -0.000000000000000  -0.000000000000000 1
force W   0.000000000000000  -0.000000000000000   0.000000000000000 1
force W  -0.000000000000000  -0.000000000000000  -0.000000000000000 1
force W  -0.000000000000000  -0.000000000000000  -0.000000000000000 1
force W   0.000000000000000  -0.000000000000000  -0.000000000000000 1
force W   0.000000000000000  -0.000000000000000  -0.000000000000000 1
force W   0.000000000000000  -0.000000000000000   0.000000000000000 1
force W  -0.000000000000000  -0.000000000000000   0.000000000000000 1
force W  -0.000000000000000  -0.000000000000000  -0.000000000000000 1
force W   0.000000000000000  -0.000000000000000   0.000000000000000 1
force W  -0.000000000000000  -0.000000000000000  -0.000000000000000 1
force W  -0.000000000000000  -0.000000000000000  -0.000000000000000 1
force W   0.000000000000000  -0.000000000000000  -0.000000000000000 1
force W   0.000000000000000  -0.000000000000000  -0.000000000000000 1
force W   0.000000000000000  -0.000000000000000  -0.000000000000000 1
force Se   0.000000000000000  -0.000000000000000  -0.006513165667220 1
force Se  -0.000000000000000  -0.000000000000000   0.006513165667339 1
force Se   0.000000000000000   0.000000000000000  -0.006513165667449 1
force Se  -0.000000000000000  -0.000000000000000   0.006513165667341 1
force Se   0.000000000000000   0.000000000000000  -0.006513165667449 1
force Se  -0.000000000000000  -0.000000000000000   0.006513165667339 1
force Se   0.000000000000000   0.000000000000000  -0.006513165667450 1
force Se  -0.000000000000000  -0.000000000000000   0.006513165667339 1
force Se   0.000000000000000   0.000000000000000  -0.006513165667335 1
force Se   0.000000000000000  -0.000000000000000   0.006513165667225 1
force Se   0.000000000000000   0.000000000000000  -0.006513165667221 1
force Se  -0.000000000000000  -0.000000000000000   0.006513165667225 1
force Se   0.000000000000000   0.000000000000000  -0.006513165667338 1
force Se  -0.000000000000000  -0.000000000000000   0.006513165667225 1
force Se   0.000000000000000   0.000000000000000  -0.006513165667449 1
force Se  -0.000000000000000  -0.000000000000000   0.006513165667339 1
force Se   0.000000000000000  -0.000000000000000  -0.006513165667450 1
force Se  -0.000000000000000  -0.000000000000000   0.006513165667225 1
force Se   0.000000000000000   0.000000000000000  -0.006513165667220 1
force Se  -0.000000000000000  -0.000000000000000   0.006513165667225 1
force Se   0.000000000000000  -0.000000000000000  -0.006513165667221 1
force Se   0.000000000000000  -0.000000000000000   0.006513165667339 1
force Se  -0.000000000000000  -0.000000000000000  -0.006513165667449 1
force Se  -0.000000000000000  -0.000000000000000   0.006513165667452 1
force Se   0.000000000000000  -0.000000000000000  -0.006513165667334 1
force Se  -0.000000000000000   0.000000000000000   0.006513165667339 1
force Se   0.000000000000000  -0.000000000000000  -0.006513165667449 1
force Se  -0.000000000000000  -0.000000000000000   0.006513165667453 1
force Se  -0.000000000000000   0.000000000000000  -0.006513165667450 1
force Se  -0.000000000000000   0.000000000000000   0.006513165667339 1
force Se   0.000000000000000  -0.000000000000000  -0.006513165667338 1
force Se  -0.000000000000000  -0.000000000000000   0.006513165667452 1

# Energy components:
   A_diel =        0.0199142303672769
   Eewald =     7934.6422019667888890
       EH =     9067.3582015236770530
     Eloc =   -18488.9533594531167182
      Enl =     -154.8105666021541253
      Exc =     -805.6194502007074334
 Exc_core =      564.8999408751474220
       KE =      475.6885136118353330
  MuShift =        0.0021986155971016
-------------------------------------
     Etot =    -1406.7724054325667566
       TS =        0.0043507037992019
-------------------------------------
        F =    -1406.7767561363659752
      muN =      -71.2071504624597367
-------------------------------------
        G =    -1335.5696056739061532

IonicMinimize: Iter:   2  G: -1335.569605673906153  |grad|_K:  8.954e-05  alpha:  1.000e+00  linmin: -1.000e+00  t[s]:   6786.65
IonicMinimize: Converged (|grad|_K<1.000000e-04).

#--- Lowdin population analysis ---
# oxidation-state W -0.706 -0.706 -0.706 -0.706 -0.706 -0.706 -0.706 -0.706 -0.706 -0.706 -0.706 -0.706 -0.706 -0.706 -0.706 -0.706
# magnetic-moments W -0.000 -0.000 -0.000 -0.000 -0.000 -0.000 -0.000 -0.000 -0.000 -0.000 -0.000 -0.000 -0.000 -0.000 -0.000 -0.000
# oxidation-state Se +0.410 +0.410 +0.410 +0.410 +0.410 +0.410 +0.410 +0.410 +0.410 +0.410 +0.410 +0.410 +0.410 +0.410 +0.410 +0.410 +0.410 +0.410 +0.410 +0.410 +0.410 +0.410 +0.410 +0.410 +0.410 +0.410 +0.410 +0.410 +0.410 +0.410 +0.410 +0.410
# magnetic-moments Se +0.000 +0.000 +0.000 +0.000 +0.000 +0.000 +0.000 +0.000 +0.000 +0.000 +0.000 +0.000 +0.000 +0.000 +0.000 +0.000 +0.000 +0.000 +0.000 +0.000 +0.000 +0.000 +0.000 +0.000 +0.000 +0.000 +0.000 +0.000 +0.000 +0.000 +0.000 +0.000


Dumping 'NbTe2.fillings' ... done
Dumping 'NbTe2.wfns' ... done
Dumping 'NbTe2.fluidState' ... done
Dumping 'NbTe2.ionpos' ... done
Dumping 'NbTe2.eigenvals' ... done
End date and time: Fri Feb 12 11:13:16 2021  (Duration: 0-1:53:13.07)
Done!
