
*************** JDFTx 1.5.0  ***************

Start date and time: Thu Jul 16 10:32:08 2020
Executable jdftx_gpu with command-line: -i Charged.in -o Charged.out
Running on hosts (process indices):  amax (0-5)
Divided in process groups (process indices):  0 (0)  1 (1)  2 (2)  3 (3)  4 (4)  5 (5)
gpuInit: Found compatible cuda device 0 'Tesla K80'
gpuInit: Found compatible cuda device 1 'Tesla K80'
gpuInit: Found compatible cuda device 2 'Tesla K80'
gpuInit: Found compatible cuda device 3 'Tesla K80'
gpuInit: Found compatible cuda device 4 'Tesla K80'
gpuInit: Found compatible cuda device 5 'Tesla K80'
gpuInit: Selected device 0
Resource initialization completed at t[s]:     18.91
Run totals: 6 processes, 24 threads, 6 GPUs


Input parsed successfully to the following command list (including defaults):

basis kpoint-dependent
cache-projectors no
coords-type Lattice
core-overlap-check none
coulomb-interaction Slab 001
coulomb-truncation-embed 0 0 0.5
davidson-band-ratio 1.1
dump End State
dump-name NbTe2.$VAR
elec-cutoff 20 100
elec-eigen-algo Davidson
elec-ex-corr gga-PBE
elec-initial-magnetization 25.000000 no
elec-smearing Gauss 0.0073499
electronic-minimize  \
	dirUpdateScheme      HestenesStiefel \
	linminMethod         DirUpdateRecommended \
	nIterations          500 \
	history              15 \
	knormThreshold       0 \
	energyDiffThreshold  1e-08 \
	nEnergyDiff          2 \
	alphaTstart          1 \
	alphaTmin            1e-10 \
	updateTestStepSize   yes \
	alphaTreduceFactor   0.1 \
	alphaTincreaseFactor 3 \
	nAlphaAdjustMax      3 \
	wolfeEnergy          0.0001 \
	wolfeGradient        0.9 \
	fdTest               no
exchange-regularization WignerSeitzTruncated
fluid LinearPCM 298.000000 1.013250
fluid-anion F- 1 MeanFieldLJ \
	epsBulk 1 \
	pMol 0 \
	epsInf 1 \
	Pvap 0 \
	sigmaBulk 0 \
	Rvdw 2.24877 \
	Res 0 \
	tauNuc 343133
fluid-cation Na+ 1 MeanFieldLJ \
	epsBulk 1 \
	pMol 0 \
	epsInf 1 \
	Pvap 0 \
	sigmaBulk 0 \
	Rvdw 2.19208 \
	Res 0 \
	tauNuc 343133
fluid-ex-corr lda-TF lda-PZ
fluid-gummel-loop 10 1.000000e-05
fluid-minimize  \
	dirUpdateScheme      PolakRibiere \
	linminMethod         DirUpdateRecommended \
	nIterations          400 \
	history              15 \
	knormThreshold       1e-11 \
	energyDiffThreshold  0 \
	nEnergyDiff          2 \
	alphaTstart          1 \
	alphaTmin            1e-10 \
	updateTestStepSize   yes \
	alphaTreduceFactor   0.1 \
	alphaTincreaseFactor 3 \
	nAlphaAdjustMax      6 \
	wolfeEnergy          0.0001 \
	wolfeGradient        0.9 \
	fdTest               no
fluid-solvent H2O 55.338 ScalarEOS \
	epsBulk 78.4 \
	pMol 0.92466 \
	epsInf 1.77 \
	Pvap 1.06736e-10 \
	sigmaBulk 4.62e-05 \
	Rvdw 2.61727 \
	Res 1.42 \
	tauNuc 343133 \
	poleEl 15 7 1
forces-output-coords Positions
initial-state NbTe2.$VAR
ion Mn   0.333333812385853   0.333333672326837   0.326662948576489 0
ion Mn   0.833333812385852   0.333333672326837   0.326662948576489 0
ion Mn   0.333333812385853   0.833333672326837   0.326662948576489 0
ion Mn   0.833333812385852   0.833333672326837   0.326662948576489 0
ion In   0.999999918572925   0.999999869598710   0.484786287994845 0
ion In   0.499999918572925   0.999999869598710   0.484786287994845 0
ion In   0.999999918572925   0.499999869598710   0.484786287994845 0
ion In   0.499999918572925   0.499999869598710   0.484786287994845 0
ion In   0.166666254186865   0.166666359316146   0.652915091306532 0
ion In   0.666666254186865   0.166666359316146   0.652915091306532 0
ion In   0.166666254186865   0.666666359316146   0.652915091306532 0
ion In   0.666666254186865   0.666666359316146   0.652915091306532 0
ion Se   0.000000452743208   0.000000528471041   0.298469141892462 0
ion Se   0.500000452743208   0.000000528471041   0.298469141892462 0
ion Se   0.000000452743208   0.500000528471041   0.298469141892462 0
ion Se   0.500000452743208   0.500000528471041   0.298469141892462 0
ion Se   0.999999706239400   0.999999720826210   0.701500805621476 0
ion Se   0.499999706239400   0.999999720826210   0.701500805621476 0
ion Se   0.999999706239400   0.499999720826210   0.701500805621476 0
ion Se   0.499999706239400   0.499999720826210   0.701500805621476 0
ion Se   0.333333246892032   0.333333273688233   0.429372098732532 0
ion Se   0.833333246892032   0.333333273688233   0.429372098732532 0
ion Se   0.333333246892032   0.833333273688233   0.429372098732532 0
ion Se   0.833333246892032   0.833333273688233   0.429372098732532 0
ion Se   0.166666608979710   0.166666575772823   0.549323683800032 0
ion Se   0.666666608979710   0.166666575772823   0.549323683800032 0
ion Se   0.166666608979710   0.666666575772823   0.549323683800032 0
ion Se   0.666666608979710   0.666666575772823   0.549323683800032 0
ion-species GBRV/$ID_pbe.uspp
ion-width Ecut
ionic-minimize  \
	dirUpdateScheme      L-BFGS \
	linminMethod         DirUpdateRecommended \
	nIterations          0 \
	history              15 \
	knormThreshold       0.0001 \
	energyDiffThreshold  1e-06 \
	nEnergyDiff          2 \
	alphaTstart          1 \
	alphaTmin            1e-10 \
	updateTestStepSize   yes \
	alphaTreduceFactor   0.1 \
	alphaTincreaseFactor 3 \
	nAlphaAdjustMax      3 \
	wolfeEnergy          0.0001 \
	wolfeGradient        0.9 \
	fdTest               no
kpoint   0.000000000000   0.000000000000   0.000000000000  1.00000000000000
kpoint-folding 5 5 1 
latt-move-scale 1 1 1
latt-scale 1 1 1 
lattice Triclinic 15.5003 15.5004 46.8823 90 90 60
lattice-minimize  \
	dirUpdateScheme      L-BFGS \
	linminMethod         DirUpdateRecommended \
	nIterations          0 \
	history              15 \
	knormThreshold       0 \
	energyDiffThreshold  1e-06 \
	nEnergyDiff          2 \
	alphaTstart          1 \
	alphaTmin            1e-10 \
	updateTestStepSize   yes \
	alphaTreduceFactor   0.1 \
	alphaTincreaseFactor 3 \
	nAlphaAdjustMax      3 \
	wolfeEnergy          0.0001 \
	wolfeGradient        0.9 \
	fdTest               no
lcao-params -1 1e-06 0.0073499
pcm-variant CANDLE
spintype z-spin
subspace-rotation-factor 1 yes
symmetries automatic
symmetry-threshold 0.0001
target-mu -0.171252 no




---------- Setting up symmetries ----------

Found 24 point-group symmetries of the bravais lattice
Found 24 space-group symmetries with basis
Applied RMS atom displacement 8.15e-06 bohrs to make symmetries exact.

---------- Initializing the Grid ----------
R = 
[    15.5003    7.75018          0  ]
[          0    13.4237          0  ]
[          0          0    46.8823  ]
unit cell volume = 9754.9
G =
[   0.405358  -0.234033          0  ]
[          0   0.468066          0  ]
[          0          0    0.13402  ]
Minimum fftbox size, Smin = [  72  72  212  ]
Chosen fftbox size, S = [  72  72  216  ]

---------- Initializing tighter grid for wavefunction operations ----------
R = 
[    15.5003    7.75018          0  ]
[          0    13.4237          0  ]
[          0          0    46.8823  ]
unit cell volume = 9754.9
G =
[   0.405358  -0.234033          0  ]
[          0   0.468066          0  ]
[          0          0    0.13402  ]
Minimum fftbox size, Smin = [  64  64  192  ]
Chosen fftbox size, S = [  64  64  192  ]

---------- Exchange Correlation functional ----------
Initalized PBE GGA exchange.
Initalized PBE GGA correlation.

---------- Setting up pseudopotentials ----------
Width of ionic core gaussian charges (only for fluid interactions / plotting) set to 0.397384

Reading pseudopotential file '/home/guoxy/vasp/jdftx-1.5.0/build/pseudopotentials/GBRV/mn_pbe.uspp':
  Title: Mn.  Created by USPP 7.3.6 on 16-6-15
  Reference state energy: -105.136484.  15 valence electrons in orbitals:
    |300>  occupation: 2  eigenvalue: -3.300080
    |310>  occupation: 6  eigenvalue: -2.150696
    |400>  occupation: 1.5  eigenvalue: -0.307943
    |320>  occupation: 5  eigenvalue: -0.391818
    |410>  occupation: 0  eigenvalue: -0.152105
  lMax: 2  lLocal: 3  QijEcut: 6
  6 projectors sampled on a log grid with 585 points:
    l: 0  eig: -3.300083  rCut: 1.45
    l: 0  eig: -0.307946  rCut: 1.45
    l: 1  eig: -2.150696  rCut: 1.45
    l: 1  eig: -0.152108  rCut: 1.45
    l: 2  eig: -0.391817  rCut: 1.7
    l: 2  eig: 0.500000  rCut: 1.7
  Partial core density with radius 0.65
  Transforming core density to a uniform radial grid of dG=0.02 with 1634 points.
  Transforming local potential to a uniform radial grid of dG=0.02 with 1634 points.
  Transforming nonlocal projectors to a uniform radial grid of dG=0.02 with 432 points.
  Transforming density augmentations to a uniform radial grid of dG=0.02 with 1634 points.
  Transforming atomic orbitals to a uniform radial grid of dG=0.02 with 432 points.
  Core radius for overlap checks: 1.70 bohrs.

Reading pseudopotential file '/home/guoxy/vasp/jdftx-1.5.0/build/pseudopotentials/GBRV/in_pbe.uspp':
  Title: In.  Created by USPP 7.3.6 on 31-3-15
  Reference state energy: -66.141337.  13 valence electrons in orbitals:
    |420>  occupation: 10  eigenvalue: -1.145775
    |500>  occupation: 1.5  eigenvalue: -0.705913
    |510>  occupation: 0  eigenvalue: -0.449223
  lMax: 2  lLocal: 3  QijEcut: 5.5
  6 projectors sampled on a log grid with 719 points:
    l: 0  eig: -0.705911  rCut: 1.8
    l: 0  eig: 1.000000  rCut: 1.8
    l: 1  eig: -0.705911  rCut: 2
    l: 1  eig: 1.000000  rCut: 2
    l: 2  eig: -1.145775  rCut: 1.65
    l: 2  eig: 0.750000  rCut: 1.65
  Partial core density with radius 1.4
  Transforming core density to a uniform radial grid of dG=0.02 with 1634 points.
  Transforming local potential to a uniform radial grid of dG=0.02 with 1634 points.
  Transforming nonlocal projectors to a uniform radial grid of dG=0.02 with 432 points.
  Transforming density augmentations to a uniform radial grid of dG=0.02 with 1634 points.
  Transforming atomic orbitals to a uniform radial grid of dG=0.02 with 432 points.
  Core radius for overlap checks: 2.40 bohrs.

Reading pseudopotential file '/home/guoxy/vasp/jdftx-1.5.0/build/pseudopotentials/GBRV/se_pbe.uspp':
  Title: Se.  Created by USPP 7.3.6 on 14-9-2013
  Reference state energy: -21.672887.  6 valence electrons in orbitals:
    |400>  occupation: 2  eigenvalue: -0.635284
    |410>  occupation: 4  eigenvalue: -0.239295
  lMax: 2  lLocal: 3  QijEcut: 5
  6 projectors sampled on a log grid with 625 points:
    l: 0  eig: -0.635278  rCut: 1.5
    l: 0  eig: 0.500000  rCut: 1.5
    l: 1  eig: -0.239295  rCut: 1.5
    l: 1  eig: 0.500000  rCut: 1.5
    l: 2  eig: 0.000000  rCut: 1.8
    l: 2  eig: 1.000000  rCut: 1.8
  Partial core density with radius 1.2
  Transforming core density to a uniform radial grid of dG=0.02 with 1634 points.
  Transforming local potential to a uniform radial grid of dG=0.02 with 1634 points.
  Transforming nonlocal projectors to a uniform radial grid of dG=0.02 with 432 points.
  Transforming density augmentations to a uniform radial grid of dG=0.02 with 1634 points.
  Transforming atomic orbitals to a uniform radial grid of dG=0.02 with 432 points.
  Core radius for overlap checks: 1.80 bohrs.

Initialized 3 species with 28 total atoms.

Folded 1 k-points by 5x5x1 to 25 k-points.

---------- Setting up k-points, bands, fillings ----------
Adding inversion symmetry to k-mesh for non-inversion-symmetric unit cell.
Reduced to 5 k-points under symmetry. 
Computing the number of bands and number of electrons
Reading initial fillings from file NbTe2.fillings.
nElectrons: 260.000000   nBands: 188   nStates: 10

----- Setting up reduced wavefunction bases (one per k-point) -----
average nbasis = 41669.240 , ideal nbasis = 41673.697

---------- Setting up coulomb interaction ----------
Fluid mode embedding: using embedded box, but periodic Coulomb kernel.
(Fluid response is responsible for (approximate) separation between periodic images.)
Setting up double-sized grid for truncated Coulomb potentials:
R = 
[    15.5003    7.75018          0  ]
[          0    13.4237          0  ]
[          0          0    93.7647  ]
unit cell volume = 19509.8
G =
[   0.405358  -0.234033          0  ]
[          0   0.468066          0  ]
[          0          0  0.0670102  ]
Chosen fftbox size, S = [  72  72  432  ]
Integer grid location selected as the embedding center:
   Grid: [  0  0  108  ]
   Lattice: [  0  0  0.5  ]
   Cartesian: [  0  0  23.4412  ]
Constructing Wigner-Seitz cell: 8 faces (6 quadrilaterals, 2 hexagons)
Range-separation parameter for embedded mesh potentials due to point charges: 0.587743 bohrs.

Initializing van der Waals corrections
	NOTE: vdW corrections apply only for interactions with fluid.
	Mn:  C6:  187.33 Eh-a0^6  R0: 2.952 a0
	In:  C6:  647.33 Eh-a0^6  R0: 3.160 a0
	Se:  C6:  219.24 Eh-a0^6  R0: 3.347 a0

---------- Setting up ewald sum ----------
Optimum gaussian width for ewald sums = 6.163131 bohr.
Real space sum over 845 unit cells with max indices [  6  6  2  ]
Reciprocal space sum over 5929 terms with max indices [  5  5  24  ]

---------- Allocating electronic variables ----------
Initializing wave functions:  reading from 'NbTe2.wfns'
----- createFluidSolver() ----- (Fluid-side solver setup)
   Initializing fluid molecule 'H2O'
     Initializing site 'O'
       Electron density: proportional to exp(-r/0.36935)*erfc((r-0.51523)/0.36823) with norm 6.826
       Charge density: gaussian nuclear width 0.478731 with net site charge 0.826
       Polarizability: cuspless exponential with width 0.32 and norm 3.73
       Hard sphere radius: 2.57003 bohrs
       Positions in reference frame:
         [ +0.000000 +0.000000 +0.000000 ]
     Initializing site 'H'
       Electron density: proportional to exp(-r/0.34641)*erfc((r-0)/0.390882) with norm 0.587
       Charge density: gaussian nuclear width 0.377945 with net site charge -0.413
       Polarizability: cuspless exponential with width 0.39 and norm 3.3
       Positions in reference frame:
         [ +0.000000 -1.441945 +1.122523 ]
         [ +0.000000 +1.441945 +1.122523 ]
     Net charge: 0   dipole magnitude: 0.927204
     Initializing spherical shell mfKernel with radius 2.61727 Bohr
     deltaS corrections:
       site 'O': -7.54299
       site 'H': -6.83917
   Initializing fluid molecule 'Na+'
     Initializing site 'Na'
       Electron density: proportional to exp(-r/0.19682)*erfc((r-0.71491)/0.41314) with norm 8.1383
       Charge density: gaussian nuclear width 0.365347 with net site charge -1
       Hard sphere radius: 1.86327 bohrs
       Positions in reference frame:
         [ +0.000000 +0.000000 +0.000000 ]
     Net charge: -1   dipole magnitude: 0
     Initializing gaussian mfKernel with width: 1.55004 Bohr
     deltaS corrections:
       site 'Na': -22.3555
   Initializing fluid molecule 'F-'
     Initializing site 'F'
       Electron density: proportional to exp(-r/0.38886)*erfc((r-0)/0.438782) with norm 8
       Charge density: gaussian nuclear width 0.374796 with net site charge 1
       Hard sphere radius: 2.39995 bohrs
       Positions in reference frame:
         [ +0.000000 +0.000000 +0.000000 ]
     Net charge: 1   dipole magnitude: 0
     Initializing gaussian mfKernel with width: 1.59012 Bohr
     deltaS corrections:
       site 'F': -9.04335

Correction to mu due to finite nuclear width = -0.0132227
   Cavity determined by nc: 0.00142 and sigma: 0.707107
   Nonlocal vdW cavity from gaussian model electron density with norm = 8 and sigma = 0.993594 bohr
   Charge asymmetry in cavity with sensitivity pCavity = 36.5 e-bohr/Eh
   Electrostatic cavity expanded by eta = 1.46 bohrs
   Weighted density cavitation model constrained by Nbulk: 0.0049383 bohr^-3, Pvap: 3.14029 kPa, Rvdw: 2.61727 bohr and sigmaBulk: 4.62e-05 Eh/bohr^2 at T: 298 K.
   Weighted density dispersion model using vdW pair potentials with single solvent site with sqrtC6eff: 0.77 SI.
Reading fluid state from 'NbTe2.fluidState'


---- Citations for features of the code used in this run ----

   Software package:
      R. Sundararaman, K. Letchworth-Weaver, K.A. Schwarz, D. Gunceler, Y. Ozhabes and T.A. Arias, 'JDFTx: software for joint density-functional theory', SoftwareX 6, 278 (2017)

   gga-PBE exchange-correlation functional:
      J.P. Perdew, K. Burke and M. Ernzerhof, Phys. Rev. Lett. 77, 3865 (1996)

   Pseudopotentials:
      KF Garrity, JW Bennett, KM Rabe and D Vanderbilt, Comput. Mater. Sci. 81, 446 (2014)

   Truncated Coulomb potentials:
      R. Sundararaman and T.A. Arias, Phys. Rev. B 87, 165122 (2013)

   Van der Waals correction pair-potentials:
      S. Grimme, J. Comput. Chem. 27, 1787 (2006)

   Charge-asymmetric nonlocally-determined local-electric (CANDLE) solvation model:
      R. Sundararaman and W.A. Goddard III, J. Chem. Phys. 142, 064107 (2015)

   Total energy minimization with Auxiliary Hamiltonian:
      C. Freysoldt, S. Boeck, and J. Neugebauer, Phys. Rev. B 79, 241103(R) (2009)

   Grand-canonical (fixed-potential) DFT:
      R. Sundararaman, W. A. Goddard III and T. A. Arias, J. Chem. Phys. 146, 114104 (2017)

This list may not be complete. Please suggest additional citations or
report any other bugs at https://github.com/shankar1729/jdftx/issues

Initialization completed successfully at t[s]:     27.50

Shifting auxilliary hamiltonian by -0.004134 to set nElectrons=260.000000
	Linear fluid (dielectric constant: 78.4, screening length: 5.74355 Bohr) occupying 0.683855 of unit cell:	Completed after 2 iterations at t[s]:     31.32

-------- Electronic minimization -----------
	Linear fluid (dielectric constant: 78.4, screening length: 5.74355 Bohr) occupying 0.683855 of unit cell:	Completed after 0 iterations at t[s]:     36.65
	FillingsUpdate:  mu: -0.171251800  nElectrons: 260.000000  magneticMoment: [ Abs: 18.83120  Tot: +18.55160 ]
ElecMinimize: Iter:   0  G: -994.579123491172822  |grad|_K:  4.247e-06  alpha:  1.000e+00
	Linear fluid (dielectric constant: 78.4, screening length: 5.74355 Bohr) occupying 0.683842 of unit cell:	Completed after 23 iterations at t[s]:     51.67
	Linear fluid (dielectric constant: 78.4, screening length: 5.74355 Bohr) occupying 0.683796 of unit cell:	Completed after 23 iterations at t[s]:     61.25
	FillingsUpdate:  mu: -0.171251800  nElectrons: 259.970569  magneticMoment: [ Abs: 18.82881  Tot: +18.54909 ]
	SubspaceRotationAdjust: set factor to 0.569
ElecMinimize: Iter:   1  G: -994.579178310573752  |grad|_K:  1.822e-06  alpha:  4.276e-02  linmin:  2.999e-03  cgtest: -2.131e-01  t[s]:     66.68
	Linear fluid (dielectric constant: 78.4, screening length: 5.74355 Bohr) occupying 0.683801 of unit cell:	Completed after 7 iterations at t[s]:     72.14
ElecMinimize: 	Predicted alpha/alphaT>3.000000, increasing alphaT to 1.282713e-01.
	Linear fluid (dielectric constant: 78.4, screening length: 5.74355 Bohr) occupying 0.683813 of unit cell:	Completed after 8 iterations at t[s]:     79.18
	Linear fluid (dielectric constant: 78.4, screening length: 5.74355 Bohr) occupying 0.683836 of unit cell:	Completed after 9 iterations at t[s]:     87.16
	FillingsUpdate:  mu: -0.171251800  nElectrons: 259.941388  magneticMoment: [ Abs: 18.81911  Tot: +18.53665 ]
	SubspaceRotationAdjust: set factor to 0.579
ElecMinimize: Iter:   2  G: -994.579239631476753  |grad|_K:  8.123e-07  alpha:  2.678e-01  linmin: -7.267e-05  cgtest:  1.669e-01  t[s]:     93.71
	Linear fluid (dielectric constant: 78.4, screening length: 5.74355 Bohr) occupying 0.683888 of unit cell:	Completed after 11 iterations at t[s]:     99.44
	Linear fluid (dielectric constant: 78.4, screening length: 5.74355 Bohr) occupying 0.683906 of unit cell:	Completed after 8 iterations at t[s]:    106.20
	FillingsUpdate:  mu: -0.171251800  nElectrons: 259.945292  magneticMoment: [ Abs: 18.82078  Tot: +18.54010 ]
	SubspaceRotationAdjust: set factor to 0.316
ElecMinimize: Iter:   3  G: -994.579258001923336  |grad|_K:  1.294e-06  alpha:  3.595e-01  linmin:  7.739e-04  cgtest: -3.008e-02  t[s]:    111.84
	Linear fluid (dielectric constant: 78.4, screening length: 5.74355 Bohr) occupying 0.684044 of unit cell:	Completed after 14 iterations at t[s]:    118.07
	Linear fluid (dielectric constant: 78.4, screening length: 5.74355 Bohr) occupying 0.683954 of unit cell:	Completed after 13 iterations at t[s]:    125.85
	FillingsUpdate:  mu: -0.171251800  nElectrons: 259.930825  magneticMoment: [ Abs: 18.82090  Tot: +18.54161 ]
	SubspaceRotationAdjust: set factor to 0.276
ElecMinimize: Iter:   4  G: -994.579274610558059  |grad|_K:  5.301e-07  alpha:  1.319e-01  linmin:  7.362e-05  cgtest:  4.121e-02  t[s]:    132.35
	Linear fluid (dielectric constant: 78.4, screening length: 5.74355 Bohr) occupying 0.683970 of unit cell:	Completed after 6 iterations at t[s]:    138.32
ElecMinimize: 	Predicted alpha/alphaT>3.000000, increasing alphaT to 3.955875e-01.
	Linear fluid (dielectric constant: 78.4, screening length: 5.74355 Bohr) occupying 0.684001 of unit cell:	Completed after 9 iterations at t[s]:    146.03
	Linear fluid (dielectric constant: 78.4, screening length: 5.74355 Bohr) occupying 0.684013 of unit cell:	Completed after 3 iterations at t[s]:    152.13
	FillingsUpdate:  mu: -0.171251800  nElectrons: 259.924501  magneticMoment: [ Abs: 18.81778  Tot: +18.53718 ]
	SubspaceRotationAdjust: set factor to 0.26
ElecMinimize: Iter:   5  G: -994.579285408554369  |grad|_K:  3.168e-07  alpha:  4.891e-01  linmin: -4.194e-04  cgtest:  7.399e-02  t[s]:    158.18
	Linear fluid (dielectric constant: 78.4, screening length: 5.74355 Bohr) occupying 0.684057 of unit cell:	Completed after 10 iterations at t[s]:    164.03
	Linear fluid (dielectric constant: 78.4, screening length: 5.74355 Bohr) occupying 0.684048 of unit cell:	Completed after 4 iterations at t[s]:    170.30
	FillingsUpdate:  mu: -0.171251800  nElectrons: 259.924969  magneticMoment: [ Abs: 18.81757  Tot: +18.53694 ]
	SubspaceRotationAdjust: set factor to 0.196
ElecMinimize: Iter:   6  G: -994.579288597005871  |grad|_K:  3.618e-07  alpha:  3.986e-01  linmin:  5.893e-05  cgtest: -7.329e-03  t[s]:    176.39
	Linear fluid (dielectric constant: 78.4, screening length: 5.74355 Bohr) occupying 0.684095 of unit cell:	Completed after 11 iterations at t[s]:    183.00
	Linear fluid (dielectric constant: 78.4, screening length: 5.74355 Bohr) occupying 0.684079 of unit cell:	Completed after 8 iterations at t[s]:    190.71
	FillingsUpdate:  mu: -0.171251800  nElectrons: 259.919863  magneticMoment: [ Abs: 18.81745  Tot: +18.53703 ]
	SubspaceRotationAdjust: set factor to 0.131
	SubspaceRotationAdjust: resetting CG because factor has changed by 0.130645
	Linear fluid (dielectric constant: 78.4, screening length: 5.74355 Bohr) occupying 0.684079 of unit cell:	Completed after 0 iterations at t[s]:    202.82
ElecMinimize: 	State modified externally: resetting search direction.
ElecMinimize: Iter:   7  G: -994.579291162230675  |grad|_K:  1.829e-07  alpha:  2.561e-01
	Linear fluid (dielectric constant: 78.4, screening length: 5.74355 Bohr) occupying 0.684083 of unit cell:	Completed after 3 iterations at t[s]:    221.11
	Linear fluid (dielectric constant: 78.4, screening length: 5.74355 Bohr) occupying 0.684083 of unit cell:	Completed after 0 iterations at t[s]:    227.30
	FillingsUpdate:  mu: -0.171251800  nElectrons: 259.920513  magneticMoment: [ Abs: 18.81750  Tot: +18.53712 ]
	SubspaceRotationAdjust: set factor to 0.0998
ElecMinimize: Iter:   8  G: -994.579291841070244  |grad|_K:  1.209e-07  alpha:  2.582e-01  linmin: -3.972e-04  cgtest:  3.557e-02  t[s]:    234.15
	Linear fluid (dielectric constant: 78.4, screening length: 5.74355 Bohr) occupying 0.684089 of unit cell:	Completed after 6 iterations at t[s]:    239.51
	Linear fluid (dielectric constant: 78.4, screening length: 5.74355 Bohr) occupying 0.684090 of unit cell:	Completed after 0 iterations at t[s]:    245.25
	FillingsUpdate:  mu: -0.171251800  nElectrons: 259.921027  magneticMoment: [ Abs: 18.81753  Tot: +18.53721 ]
	SubspaceRotationAdjust: set factor to 0.0976
ElecMinimize: Iter:   9  G: -994.579292162297179  |grad|_K:  8.314e-08  alpha:  2.688e-01  linmin: -2.899e-03  cgtest:  4.288e-01  t[s]:    251.54
	Linear fluid (dielectric constant: 78.4, screening length: 5.74355 Bohr) occupying 0.684093 of unit cell:	Completed after 1 iterations at t[s]:    256.16
	Linear fluid (dielectric constant: 78.4, screening length: 5.74355 Bohr) occupying 0.684099 of unit cell:	Completed after 4 iterations at t[s]:    262.12
	FillingsUpdate:  mu: -0.171251800  nElectrons: 259.919701  magneticMoment: [ Abs: 18.81752  Tot: +18.53730 ]
	SubspaceRotationAdjust: set factor to 0.0998
ElecMinimize: Iter:  10  G: -994.579292522635569  |grad|_K:  1.191e-07  alpha:  7.040e-01  linmin:  4.571e-04  cgtest: -1.298e-01  t[s]:    268.89
	Linear fluid (dielectric constant: 78.4, screening length: 5.74355 Bohr) occupying 0.684120 of unit cell:	Completed after 7 iterations at t[s]:    275.09
	Linear fluid (dielectric constant: 78.4, screening length: 5.74355 Bohr) occupying 0.684107 of unit cell:	Completed after 3 iterations at t[s]:    281.41
	FillingsUpdate:  mu: -0.171251800  nElectrons: 259.918900  magneticMoment: [ Abs: 18.81749  Tot: +18.53736 ]
	SubspaceRotationAdjust: set factor to 0.0755
ElecMinimize: Iter:  11  G: -994.579292731877899  |grad|_K:  1.212e-07  alpha:  2.490e-01  linmin:  5.141e-04  cgtest:  3.652e-01  t[s]:    287.25
	Linear fluid (dielectric constant: 78.4, screening length: 5.74355 Bohr) occupying 0.684114 of unit cell:	Completed after 6 iterations at t[s]:    292.56
	Linear fluid (dielectric constant: 78.4, screening length: 5.74355 Bohr) occupying 0.684112 of unit cell:	Completed after 0 iterations at t[s]:    298.36
	FillingsUpdate:  mu: -0.171251800  nElectrons: 259.919276  magneticMoment: [ Abs: 18.81750  Tot: +18.53738 ]
	SubspaceRotationAdjust: set factor to 0.0974
ElecMinimize: Iter:  12  G: -994.579292891303339  |grad|_K:  7.760e-08  alpha:  1.762e-01  linmin: -1.740e-04  cgtest:  2.365e-01  t[s]:    305.22
	Linear fluid (dielectric constant: 78.4, screening length: 5.74355 Bohr) occupying 0.684114 of unit cell:	Completed after 1 iterations at t[s]:    310.56
	Linear fluid (dielectric constant: 78.4, screening length: 5.74355 Bohr) occupying 0.684115 of unit cell:	Completed after 0 iterations at t[s]:    316.68
	FillingsUpdate:  mu: -0.171251800  nElectrons: 259.919539  magneticMoment: [ Abs: 18.81749  Tot: +18.53737 ]
	SubspaceRotationAdjust: set factor to 0.127
ElecMinimize: Iter:  13  G: -994.579293038853962  |grad|_K:  3.943e-08  alpha:  2.770e-01  linmin: -1.428e-03  cgtest:  9.934e-02  t[s]:    322.70
	Linear fluid (dielectric constant: 78.4, screening length: 5.74355 Bohr) occupying 0.684117 of unit cell:	Completed after 2 iterations at t[s]:    327.27
	Linear fluid (dielectric constant: 78.4, screening length: 5.74355 Bohr) occupying 0.684117 of unit cell:	Completed after 0 iterations at t[s]:    332.62
	FillingsUpdate:  mu: -0.171251800  nElectrons: 259.919708  magneticMoment: [ Abs: 18.81747  Tot: +18.53735 ]
	SubspaceRotationAdjust: set factor to 0.152
ElecMinimize: Iter:  14  G: -994.579293070796439  |grad|_K:  3.957e-08  alpha:  2.463e-01  linmin: -8.866e-04  cgtest:  6.616e-01  t[s]:    338.55
	Linear fluid (dielectric constant: 78.4, screening length: 5.74355 Bohr) occupying 0.684118 of unit cell:	Completed after 0 iterations at t[s]:    342.67
	Linear fluid (dielectric constant: 78.4, screening length: 5.74355 Bohr) occupying 0.684119 of unit cell:	Completed after 3 iterations at t[s]:    348.81
ElecMinimize: 	Step increased G by 2.826255e-10, reducing alpha to 4.114437e-02.
	Linear fluid (dielectric constant: 78.4, screening length: 5.74355 Bohr) occupying 0.684117 of unit cell:	Completed after 2 iterations at t[s]:    359.18
ElecMinimize: 	Step increased G by 3.905711e-09, reducing alpha to 4.114437e-03.
	Linear fluid (dielectric constant: 78.4, screening length: 5.74355 Bohr) occupying 0.684117 of unit cell:	Completed after 0 iterations at t[s]:    369.16
ElecMinimize: 	Step increased G by 1.224623e-08, reducing alpha to 4.114437e-04.
ElecMinimize: 	Step failed to reduce G after 3 attempts. Quitting step.
ElecMinimize: 	Undoing step.
	Linear fluid (dielectric constant: 78.4, screening length: 5.74355 Bohr) occupying 0.684117 of unit cell:	Completed after 0 iterations at t[s]:    379.78
ElecMinimize: 	Step failed: resetting search direction.
	FillingsUpdate:  mu: -0.171251800  nElectrons: 259.919709  magneticMoment: [ Abs: 18.81747  Tot: +18.53735 ]
	SubspaceRotationAdjust: set factor to 0.144
ElecMinimize: Iter:  15  G: -994.579293058453914  |grad|_K:  3.868e-08  alpha:  4.114e-04
	Linear fluid (dielectric constant: 78.4, screening length: 5.74355 Bohr) occupying 0.684117 of unit cell:	Completed after 0 iterations at t[s]:    391.48
	Linear fluid (dielectric constant: 78.4, screening length: 5.74355 Bohr) occupying 0.684117 of unit cell:	Completed after 2 iterations at t[s]:    397.66
	FillingsUpdate:  mu: -0.171251800  nElectrons: 259.918879  magneticMoment: [ Abs: 18.81743  Tot: +18.53730 ]
	SubspaceRotationAdjust: set factor to 0.155
ElecMinimize: Iter:  16  G: -994.579293083624520  |grad|_K:  6.996e-08  alpha:  6.535e-01  linmin:  5.159e-04  cgtest: -3.979e-01  t[s]:    403.57
	Linear fluid (dielectric constant: 78.4, screening length: 5.74355 Bohr) occupying 0.684119 of unit cell:	Completed after 7 iterations at t[s]:    409.09
	Linear fluid (dielectric constant: 78.4, screening length: 5.74355 Bohr) occupying 0.684118 of unit cell:	Completed after 3 iterations at t[s]:    415.49
	FillingsUpdate:  mu: -0.171251800  nElectrons: 259.918412  magneticMoment: [ Abs: 18.81739  Tot: +18.53727 ]
	SubspaceRotationAdjust: set factor to 0.114
ElecMinimize: Iter:  17  G: -994.579293115111000  |grad|_K:  1.139e-07  alpha:  1.509e-01  linmin:  3.088e-04  cgtest:  5.484e-01  t[s]:    422.12
	Linear fluid (dielectric constant: 78.4, screening length: 5.74355 Bohr) occupying 0.684120 of unit cell:	Completed after 2 iterations at t[s]:    427.60
	Linear fluid (dielectric constant: 78.4, screening length: 5.74355 Bohr) occupying 0.684119 of unit cell:	Completed after 0 iterations at t[s]:    433.55
	FillingsUpdate:  mu: -0.171251800  nElectrons: 259.918298  magneticMoment: [ Abs: 18.81735  Tot: +18.53721 ]
	SubspaceRotationAdjust: set factor to 0.0784
ElecMinimize: Iter:  18  G: -994.579293178635453  |grad|_K:  8.704e-08  alpha:  1.058e-01  linmin: -1.060e-04  cgtest:  5.746e-01  t[s]:    439.61
	Linear fluid (dielectric constant: 78.4, screening length: 5.74355 Bohr) occupying 0.684120 of unit cell:	Completed after 3 iterations at t[s]:    444.35
	Linear fluid (dielectric constant: 78.4, screening length: 5.74355 Bohr) occupying 0.684120 of unit cell:	Completed after 0 iterations at t[s]:    449.87
	FillingsUpdate:  mu: -0.171251800  nElectrons: 259.918648  magneticMoment: [ Abs: 18.81736  Tot: +18.53722 ]
	SubspaceRotationAdjust: set factor to 0.0695
ElecMinimize: Iter:  19  G: -994.579293236066746  |grad|_K:  4.166e-08  alpha:  1.001e-01  linmin: -2.205e-03  cgtest:  6.461e-01  t[s]:    456.02
ElecMinimize: Encountered beta<0, resetting CG.
	Linear fluid (dielectric constant: 78.4, screening length: 5.74355 Bohr) occupying 0.684121 of unit cell:	Completed after 0 iterations at t[s]:    460.43
ElecMinimize: 	Predicted alpha/alphaT>3.000000, increasing alphaT to 3.002398e-01.
	Linear fluid (dielectric constant: 78.4, screening length: 5.74355 Bohr) occupying 0.684121 of unit cell:	Completed after 3 iterations at t[s]:    467.30
	Linear fluid (dielectric constant: 78.4, screening length: 5.74355 Bohr) occupying 0.684121 of unit cell:	Completed after 0 iterations at t[s]:    473.64
	FillingsUpdate:  mu: -0.171251800  nElectrons: 259.918854  magneticMoment: [ Abs: 18.81736  Tot: +18.53722 ]
	SubspaceRotationAdjust: set factor to 0.0933
ElecMinimize: Iter:  20  G: -994.579293243500615  |grad|_K:  3.884e-08  alpha:  1.662e-01  linmin: -1.945e-04  cgtest:  4.533e-02  t[s]:    479.69
	Linear fluid (dielectric constant: 78.4, screening length: 5.74355 Bohr) occupying 0.684122 of unit cell:	Completed after 2 iterations at t[s]:    484.39
	Linear fluid (dielectric constant: 78.4, screening length: 5.74355 Bohr) occupying 0.684121 of unit cell:	Completed after 0 iterations at t[s]:    489.99
ElecMinimize: 	Step increased G by 5.049060e-09, reducing alpha to 7.701137e-03.
	Linear fluid (dielectric constant: 78.4, screening length: 5.74355 Bohr) occupying 0.684121 of unit cell:	Completed after 0 iterations at t[s]:    499.43
ElecMinimize: 	Step increased G by 1.154967e-08, reducing alpha to 7.701137e-04.
	Linear fluid (dielectric constant: 78.4, screening length: 5.74355 Bohr) occupying 0.684121 of unit cell:	Completed after 0 iterations at t[s]:    509.32
ElecMinimize: 	Step increased G by 1.197975e-08, reducing alpha to 7.701137e-05.
ElecMinimize: 	Step failed to reduce G after 3 attempts. Quitting step.
ElecMinimize: 	Undoing step.
	Linear fluid (dielectric constant: 78.4, screening length: 5.74355 Bohr) occupying 0.684121 of unit cell:	Completed after 0 iterations at t[s]:    520.32
ElecMinimize: 	Step failed: resetting search direction.
	FillingsUpdate:  mu: -0.171251800  nElectrons: 259.918855  magneticMoment: [ Abs: 18.81736  Tot: +18.53722 ]
	SubspaceRotationAdjust: set factor to 0.0924
ElecMinimize: Iter:  21  G: -994.579293231518477  |grad|_K:  1.400e-08  alpha:  7.701e-05
	Linear fluid (dielectric constant: 78.4, screening length: 5.74355 Bohr) occupying 0.684121 of unit cell:	Completed after 0 iterations at t[s]:    530.74
ElecMinimize: 	Predicted alpha/alphaT>3.000000, increasing alphaT to 4.985080e-01.
	Linear fluid (dielectric constant: 78.4, screening length: 5.74355 Bohr) occupying 0.684122 of unit cell:	Completed after 0 iterations at t[s]:    536.37
ElecMinimize: 	Predicted alpha/alphaT>3.000000, increasing alphaT to 1.495524e+00.
	Linear fluid (dielectric constant: 78.4, screening length: 5.74355 Bohr) occupying 0.684124 of unit cell:	Completed after 0 iterations at t[s]:    541.71
	Linear fluid (dielectric constant: 78.4, screening length: 5.74355 Bohr) occupying 0.684124 of unit cell:	Completed after 0 iterations at t[s]:    547.25
	FillingsUpdate:  mu: -0.171251800  nElectrons: 259.918967  magneticMoment: [ Abs: 18.81736  Tot: +18.53724 ]
	SubspaceRotationAdjust: set factor to 0.107
ElecMinimize: Iter:  22  G: -994.579293255564380  |grad|_K:  2.397e-08  alpha:  1.560e+00  linmin: -1.195e-07  cgtest: -3.023e-03  t[s]:    553.51
	Linear fluid (dielectric constant: 78.4, screening length: 5.74355 Bohr) occupying 0.684134 of unit cell:	Completed after 3 iterations at t[s]:    558.92
	Linear fluid (dielectric constant: 78.4, screening length: 5.74355 Bohr) occupying 0.684126 of unit cell:	Completed after 2 iterations at t[s]:    565.85
ElecMinimize: 	Step increased G by 1.242574e-08, reducing alpha to 3.726647e-02.
	Linear fluid (dielectric constant: 78.4, screening length: 5.74355 Bohr) occupying 0.684124 of unit cell:	Completed after 0 iterations at t[s]:    576.23
ElecMinimize: 	Step increased G by 1.390617e-08, reducing alpha to 3.726647e-03.
	Linear fluid (dielectric constant: 78.4, screening length: 5.74355 Bohr) occupying 0.684124 of unit cell:	Completed after 0 iterations at t[s]:    586.48
ElecMinimize: 	Step increased G by 1.498609e-08, reducing alpha to 3.726647e-04.
ElecMinimize: 	Step failed to reduce G after 3 attempts. Quitting step.
ElecMinimize: 	Undoing step.
	Linear fluid (dielectric constant: 78.4, screening length: 5.74355 Bohr) occupying 0.684124 of unit cell:	Completed after 0 iterations at t[s]:    596.12
ElecMinimize: 	Step failed: resetting search direction.
	FillingsUpdate:  mu: -0.171251800  nElectrons: 259.918968  magneticMoment: [ Abs: 18.81736  Tot: +18.53724 ]
	SubspaceRotationAdjust: set factor to 0.11
ElecMinimize: Iter:  23  G: -994.579293240552829  |grad|_K:  3.911e-08  alpha:  3.727e-04
	Linear fluid (dielectric constant: 78.4, screening length: 5.74355 Bohr) occupying 0.684123 of unit cell:	Completed after 3 iterations at t[s]:    607.96
	Linear fluid (dielectric constant: 78.4, screening length: 5.74355 Bohr) occupying 0.684124 of unit cell:	Completed after 1 iterations at t[s]:    614.58
	FillingsUpdate:  mu: -0.171251800  nElectrons: 259.918768  magneticMoment: [ Abs: 18.81736  Tot: +18.53725 ]
	SubspaceRotationAdjust: set factor to 0.0989
ElecMinimize: Iter:  24  G: -994.579293258562302  |grad|_K:  2.097e-08  alpha:  2.491e-01  linmin:  8.002e-04  cgtest: -4.226e-01  t[s]:    620.78
	Linear fluid (dielectric constant: 78.4, screening length: 5.74355 Bohr) occupying 0.684124 of unit cell:	Completed after 0 iterations at t[s]:    625.19
	Linear fluid (dielectric constant: 78.4, screening length: 5.74355 Bohr) occupying 0.684124 of unit cell:	Completed after 0 iterations at t[s]:    630.99
	FillingsUpdate:  mu: -0.171251800  nElectrons: 259.918759  magneticMoment: [ Abs: 18.81735  Tot: +18.53724 ]
	SubspaceRotationAdjust: set factor to 0.133
ElecMinimize: Iter:  25  G: -994.579293269279560  |grad|_K:  2.190e-08  alpha:  4.607e-01  linmin: -2.376e-06  cgtest:  4.706e-01  t[s]:    637.08
	Linear fluid (dielectric constant: 78.4, screening length: 5.74355 Bohr) occupying 0.684125 of unit cell:	Completed after 0 iterations at t[s]:    641.31
	Linear fluid (dielectric constant: 78.4, screening length: 5.74355 Bohr) occupying 0.684126 of unit cell:	Completed after 3 iterations at t[s]:    648.06
ElecMinimize: 	Step increased G by 2.983109e-08, reducing alpha to 7.537861e-02.
	Linear fluid (dielectric constant: 78.4, screening length: 5.74355 Bohr) occupying 0.684124 of unit cell:	Completed after 0 iterations at t[s]:    659.40
	FillingsUpdate:  mu: -0.171251800  nElectrons: 259.918779  magneticMoment: [ Abs: 18.81734  Tot: +18.53723 ]
	SubspaceRotationAdjust: set factor to 0.129
ElecMinimize: Iter:  26  G: -994.579293293288288  |grad|_K:  3.839e-08  alpha:  7.538e-02  linmin:  1.476e-04  cgtest: -1.255e-01  t[s]:    665.25
	Linear fluid (dielectric constant: 78.4, screening length: 5.74355 Bohr) occupying 0.684125 of unit cell:	Completed after 0 iterations at t[s]:    669.46
ElecMinimize: 	Predicted alpha/alphaT>3.000000, increasing alphaT to 2.261358e-01.
	Linear fluid (dielectric constant: 78.4, screening length: 5.74355 Bohr) occupying 0.684125 of unit cell:	Completed after 1 iterations at t[s]:    675.43
	Linear fluid (dielectric constant: 78.4, screening length: 5.74355 Bohr) occupying 0.684125 of unit cell:	Completed after 0 iterations at t[s]:    680.92
ElecMinimize: 	Step increased G by 1.928868e-08, reducing alpha to 7.128723e-03.
	Linear fluid (dielectric constant: 78.4, screening length: 5.74355 Bohr) occupying 0.684124 of unit cell:	Completed after 0 iterations at t[s]:    691.43
ElecMinimize: 	Step increased G by 2.339027e-08, reducing alpha to 7.128723e-04.
	Linear fluid (dielectric constant: 78.4, screening length: 5.74355 Bohr) occupying 0.684124 of unit cell:	Completed after 0 iterations at t[s]:    702.70
ElecMinimize: 	Step increased G by 2.393131e-08, reducing alpha to 7.128723e-05.
ElecMinimize: 	Step failed to reduce G after 3 attempts. Quitting step.
ElecMinimize: 	Undoing step.
	Linear fluid (dielectric constant: 78.4, screening length: 5.74355 Bohr) occupying 0.684124 of unit cell:	Completed after 0 iterations at t[s]:    712.42
ElecMinimize: 	Step failed: resetting search direction.
	FillingsUpdate:  mu: -0.171251800  nElectrons: 259.918779  magneticMoment: [ Abs: 18.81734  Tot: +18.53723 ]
	SubspaceRotationAdjust: set factor to 0.14
ElecMinimize: Iter:  27  G: -994.579293269355389  |grad|_K:  2.517e-08  alpha:  7.129e-05
	Linear fluid (dielectric constant: 78.4, screening length: 5.74355 Bohr) occupying 0.684124 of unit cell:	Completed after 0 iterations at t[s]:    723.28
ElecMinimize: 	Predicted alpha/alphaT>3.000000, increasing alphaT to 2.261358e-01.
	Linear fluid (dielectric constant: 78.4, screening length: 5.74355 Bohr) occupying 0.684124 of unit cell:	Completed after 0 iterations at t[s]:    729.73
	Linear fluid (dielectric constant: 78.4, screening length: 5.74355 Bohr) occupying 0.684124 of unit cell:	Completed after 3 iterations at t[s]:    736.32
ElecMinimize: 	Step increased G by 2.841477e-08, reducing alpha to 6.727391e-02.
	Linear fluid (dielectric constant: 78.4, screening length: 5.74355 Bohr) occupying 0.684124 of unit cell:	Completed after 0 iterations at t[s]:    745.97
	FillingsUpdate:  mu: -0.171251800  nElectrons: 259.918727  magneticMoment: [ Abs: 18.81734  Tot: +18.53723 ]
	SubspaceRotationAdjust: set factor to 0.127
ElecMinimize: Iter:  28  G: -994.579293299443293  |grad|_K:  4.133e-08  alpha:  6.727e-02  linmin:  3.082e-04  cgtest: -3.291e-01  t[s]:    751.72
	Linear fluid (dielectric constant: 78.4, screening length: 5.74355 Bohr) occupying 0.684124 of unit cell:	Completed after 0 iterations at t[s]:    755.69
	Linear fluid (dielectric constant: 78.4, screening length: 5.74355 Bohr) occupying 0.684125 of unit cell:	Completed after 1 iterations at t[s]:    761.18
ElecMinimize: 	Step increased G by 2.187323e-08, reducing alpha to 1.416407e-02.
	Linear fluid (dielectric constant: 78.4, screening length: 5.74355 Bohr) occupying 0.684124 of unit cell:	Completed after 0 iterations at t[s]:    770.71
ElecMinimize: 	Step increased G by 2.229660e-08, reducing alpha to 1.416407e-03.
	Linear fluid (dielectric constant: 78.4, screening length: 5.74355 Bohr) occupying 0.684124 of unit cell:	Completed after 0 iterations at t[s]:    780.28
ElecMinimize: 	Step increased G by 2.334104e-08, reducing alpha to 1.416407e-04.
ElecMinimize: 	Step failed to reduce G after 3 attempts. Quitting step.
ElecMinimize: 	Undoing step.
	Linear fluid (dielectric constant: 78.4, screening length: 5.74355 Bohr) occupying 0.684124 of unit cell:	Completed after 0 iterations at t[s]:    790.49
ElecMinimize: 	Step failed: resetting search direction.
	FillingsUpdate:  mu: -0.171251800  nElectrons: 259.918726  magneticMoment: [ Abs: 18.81734  Tot: +18.53723 ]
	SubspaceRotationAdjust: set factor to 0.14
ElecMinimize: Iter:  29  G: -994.579293276098269  |grad|_K:  1.582e-08  alpha:  1.416e-04
	Linear fluid (dielectric constant: 78.4, screening length: 5.74355 Bohr) occupying 0.684124 of unit cell:	Completed after 0 iterations at t[s]:    801.22
ElecMinimize: 	Predicted alpha/alphaT>3.000000, increasing alphaT to 2.018217e-01.
	Linear fluid (dielectric constant: 78.4, screening length: 5.74355 Bohr) occupying 0.684124 of unit cell:	Completed after 0 iterations at t[s]:    807.57
	Linear fluid (dielectric constant: 78.4, screening length: 5.74355 Bohr) occupying 0.684125 of unit cell:	Completed after 0 iterations at t[s]:    813.78
	FillingsUpdate:  mu: -0.171251800  nElectrons: 259.918891  magneticMoment: [ Abs: 18.81733  Tot: +18.53722 ]
	SubspaceRotationAdjust: set factor to 0.193
ElecMinimize: Iter:  30  G: -994.579293283470520  |grad|_K:  1.760e-08  alpha:  6.018e-01  linmin:  1.381e-05  cgtest:  1.446e-02  t[s]:    819.87
	Linear fluid (dielectric constant: 78.4, screening length: 5.74355 Bohr) occupying 0.684127 of unit cell:	Completed after 3 iterations at t[s]:    824.66
	Linear fluid (dielectric constant: 78.4, screening length: 5.74355 Bohr) occupying 0.684125 of unit cell:	Completed after 0 iterations at t[s]:    830.62
ElecMinimize: 	Step increased G by 1.683702e-09, reducing alpha to 1.035441e-02.
	Linear fluid (dielectric constant: 78.4, screening length: 5.74355 Bohr) occupying 0.684125 of unit cell:	Completed after 0 iterations at t[s]:    840.61
	FillingsUpdate:  mu: -0.171251800  nElectrons: 259.918898  magneticMoment: [ Abs: 18.81733  Tot: +18.53722 ]
	SubspaceRotationAdjust: set factor to 0.12
ElecMinimize: Iter:  31  G: -994.579293290574242  |grad|_K:  6.154e-08  alpha:  1.035e-02  linmin:  3.762e-04  cgtest: -1.467e-01  t[s]:    847.24
ElecMinimize: Converged (|Delta G|<1.000000e-08 for 2 iters).
Setting wave functions to eigenvectors of Hamiltonian

# Ionic positions in lattice coordinates:
ion Mn   0.333333333333332   0.333333333333333   0.326662948576489 0
ion Mn   0.833333333333332   0.333333333333333   0.326662948576489 0
ion Mn   0.333333333333332   0.833333333333333   0.326662948576489 0
ion Mn   0.833333333333332   0.833333333333333   0.326662948576489 0
ion In   0.999999999999999   1.000000000000000   0.484786287994845 0
ion In   0.499999999999999   1.000000000000000   0.484786287994845 0
ion In   0.999999999999999   0.500000000000000   0.484786287994845 0
ion In   0.499999999999999   0.500000000000000   0.484786287994845 0
ion In   0.166666666666666   0.166666666666667   0.652915091306532 0
ion In   0.666666666666666   0.166666666666667   0.652915091306532 0
ion In   0.166666666666666   0.666666666666667   0.652915091306532 0
ion In   0.666666666666666   0.666666666666667   0.652915091306532 0
ion Se  -0.000000000000001   0.000000000000000   0.298469141892462 0
ion Se   0.499999999999999   0.000000000000000   0.298469141892462 0
ion Se  -0.000000000000001   0.500000000000000   0.298469141892462 0
ion Se   0.499999999999999   0.500000000000000   0.298469141892462 0
ion Se   0.999999999999999   1.000000000000000   0.701500805621476 0
ion Se   0.499999999999999   1.000000000000000   0.701500805621476 0
ion Se   0.999999999999999   0.500000000000000   0.701500805621476 0
ion Se   0.499999999999999   0.500000000000000   0.701500805621476 0
ion Se   0.333333333333332   0.333333333333333   0.429372098732532 0
ion Se   0.833333333333332   0.333333333333333   0.429372098732532 0
ion Se   0.333333333333332   0.833333333333333   0.429372098732532 0
ion Se   0.833333333333332   0.833333333333333   0.429372098732532 0
ion Se   0.166666666666666   0.166666666666667   0.549323683800032 0
ion Se   0.666666666666666   0.166666666666667   0.549323683800032 0
ion Se   0.166666666666666   0.666666666666667   0.549323683800032 0
ion Se   0.666666666666666   0.666666666666667   0.549323683800032 0


# Forces in Lattice coordinates:
force Mn  -0.000000000000000  -0.000000000000000   0.009650506972180 0
force Mn   0.000000000000000   0.000000000000000   0.009650506972180 0
force Mn  -0.000000000000000   0.000000000000000   0.009650506972635 0
force Mn   0.000000000000000   0.000000000000000   0.009650506972180 0
force In   0.000000000000000   0.000000000000000   0.163945391657063 0
force In  -0.000000000000000   0.000000000000000   0.163945391657077 0
force In   0.000000000000000  -0.000000000000000   0.163945391657091 0
force In   0.000000000000000   0.000000000000000   0.163945391657077 0
force In  -0.000000000000000   0.000000000000000   0.174454886761828 0
force In   0.000000000000000   0.000000000000000   0.174454886762283 0
force In  -0.000000000000000   0.000000000000000   0.174454886762283 0
force In  -0.000000000000000   0.000000000000000   0.174454886762283 0
force Se   0.000000000000000  -0.000000000000000  -0.116033091633629 0
force Se   0.000000000000000  -0.000000000000000  -0.116033091633629 0
force Se   0.000000000000000  -0.000000000000000  -0.116033091633629 0
force Se   0.000000000000000   0.000000000000000  -0.116033091633629 0
force Se   0.000000000000000  -0.000000000000000  -0.015566865338600 0
force Se  -0.000000000000000  -0.000000000000000  -0.015566865338600 0
force Se  -0.000000000000000  -0.000000000000000  -0.015566865338600 0
force Se  -0.000000000000000  -0.000000000000000  -0.015566865338828 0
force Se   0.000000000000000   0.000000000000000  -0.037478877290985 0
force Se  -0.000000000000000  -0.000000000000000  -0.037478877291041 0
force Se  -0.000000000000000   0.000000000000000  -0.037478877290985 0
force Se   0.000000000000000  -0.000000000000000  -0.037478877291041 0
force Se   0.000000000000000  -0.000000000000000  -0.136937007371681 0
force Se   0.000000000000000   0.000000000000000  -0.136937007371681 0
force Se   0.000000000000000   0.000000000000000  -0.136937007371681 0
force Se   0.000000000000000   0.000000000000000  -0.136937007371795 0

# Energy components:
   A_diel =       -0.0203171944228216
   Eewald =     8503.5258922705288569
       EH =     9414.0029602308241010
     Eloc =   -19224.0888469576384523
      Enl =      161.9170652308199863
      Exc =     -442.1698158409475354
 Exc_core =      266.4990697598665292
       KE =      281.2600269698600641
  MuShift =        0.0010723887833613
-------------------------------------
     Etot =    -1039.0728931423261656
       TS =        0.0179792594705219
-------------------------------------
        F =    -1039.0908724017967870
      muN =      -44.5115791112224954
-------------------------------------
        G =     -994.5792932905742418

IonicMinimize: Iter:   0  G: -994.579293290574242  |grad|_K:  0.000e+00  t[s]:    852.04
IonicMinimize: Converged (|grad|_K<1.000000e-04).

#--- Lowdin population analysis ---
# oxidation-state Mn -0.190 -0.190 -0.190 -0.190
# magnetic-moments Mn +4.519 +4.519 +4.519 +4.519
# oxidation-state In +0.432 +0.432 +0.432 +0.432 +0.407 +0.407 +0.407 +0.407
# magnetic-moments In +0.023 +0.023 +0.023 +0.023 +0.006 +0.006 +0.006 +0.006
# oxidation-state Se +0.055 +0.055 +0.055 +0.055 -0.162 -0.162 -0.162 -0.162 -0.089 -0.089 -0.089 -0.089 -0.287 -0.287 -0.287 -0.287
# magnetic-moments Se +0.053 +0.053 +0.053 +0.053 +0.006 +0.006 +0.006 +0.006 +0.003 +0.003 +0.003 +0.003 +0.014 +0.014 +0.014 +0.014


Dumping 'NbTe2.fillings' ... done
Dumping 'NbTe2.wfns' ... done
Dumping 'NbTe2.fluidState' ... done
Dumping 'NbTe2.eigenvals' ... done
End date and time: Thu Jul 16 10:46:23 2020  (Duration: 0-0:14:14.75)
Done!
