
*************** JDFTx 1.5.0  ***************

Start date and time: Fri Apr  2 01:28:48 2021
Executable jdftx_gpu with command-line: -i Charged.in -o Charged.out
Running on hosts (process indices):  amax (0-6)
Divided in process groups (process indices):  0 (0)  1 (1)  2 (2)  3 (3)  4 (4)  5 (5)  6 (6)
gpuInit: Found compatible cuda device 0 'Tesla K80'
gpuInit: Found compatible cuda device 1 'Tesla K80'
gpuInit: Found compatible cuda device 2 'Tesla K80'
gpuInit: Found compatible cuda device 3 'Tesla K80'
gpuInit: Found compatible cuda device 4 'Tesla K80'
gpuInit: Found compatible cuda device 5 'Tesla K80'
gpuInit: Found compatible cuda device 6 'Tesla K80'
gpuInit: Selected device 0
Resource initialization completed at t[s]:      3.29
Run totals: 7 processes, 24 threads, 7 GPUs


Input parsed successfully to the following command list (including defaults):

basis kpoint-dependent
cache-projectors no
coords-type Lattice
core-overlap-check none
coulomb-interaction Slab 001
coulomb-truncation-embed 0.5 0.5 0.5
davidson-band-ratio 1.1
dump End State
dump-name NbTe2.$VAR
elec-cutoff 20
elec-eigen-algo Davidson
elec-ex-corr gga-PBE
elec-initial-charge -1.000000
elec-smearing Gauss 0.0073499
electronic-minimize  \
	dirUpdateScheme      FletcherReeves \
	linminMethod         DirUpdateRecommended \
	nIterations          200 \
	history              15 \
	knormThreshold       0 \
	energyDiffThreshold  1e-08 \
	nEnergyDiff          2 \
	alphaTstart          1 \
	alphaTmin            1e-10 \
	updateTestStepSize   yes \
	alphaTreduceFactor   0.1 \
	alphaTincreaseFactor 3 \
	nAlphaAdjustMax      3 \
	wolfeEnergy          0.0001 \
	wolfeGradient        0.9 \
	fdTest               no
exchange-regularization WignerSeitzTruncated
fluid LinearPCM 298.000000 1.013250
fluid-anion F- 1 MeanFieldLJ \
	epsBulk 1 \
	pMol 0 \
	epsInf 1 \
	Pvap 0 \
	sigmaBulk 0 \
	Rvdw 2.24877 \
	Res 0 \
	tauNuc 343133
fluid-cation Na+ 1 MeanFieldLJ \
	epsBulk 1 \
	pMol 0 \
	epsInf 1 \
	Pvap 0 \
	sigmaBulk 0 \
	Rvdw 2.19208 \
	Res 0 \
	tauNuc 343133
fluid-ex-corr lda-TF lda-PZ
fluid-gummel-loop 10 1.000000e-05
fluid-minimize  \
	dirUpdateScheme      PolakRibiere \
	linminMethod         DirUpdateRecommended \
	nIterations          400 \
	history              15 \
	knormThreshold       1e-11 \
	energyDiffThreshold  0 \
	nEnergyDiff          2 \
	alphaTstart          1 \
	alphaTmin            1e-10 \
	updateTestStepSize   yes \
	alphaTreduceFactor   0.1 \
	alphaTincreaseFactor 3 \
	nAlphaAdjustMax      6 \
	wolfeEnergy          0.0001 \
	wolfeGradient        0.9 \
	fdTest               no
fluid-solvent H2O 55.338 ScalarEOS \
	epsBulk 78.4 \
	pMol 0.92466 \
	epsInf 1.77 \
	Pvap 1.06736e-10 \
	sigmaBulk 4.62e-05 \
	Rvdw 2.61727 \
	Res 1.42 \
	tauNuc 343133 \
	poleEl 15 7 1
forces-output-coords Positions
initial-state NbTe2.$VAR
ion C   0.167454248459894   0.083932301100728   0.557295694344403 1
ion C   0.084168255733299   0.167283603018563   0.442712607455854 1
ion C   0.417454248459894   0.083932301100728   0.557295694344403 1
ion C   0.334168255733299   0.167283603018563   0.442712607455854 1
ion C   0.667454248459894   0.083932301100728   0.557295694344403 1
ion C   0.584168255733299   0.167283603018563   0.442712607455854 1
ion C   0.917454248459894   0.083932301100728   0.557295694344403 1
ion C   0.834168255733299   0.167283603018563   0.442712607455854 1
ion C   0.167454248459894   0.333932301100728   0.557295694344403 1
ion C   0.084168255733299   0.417283603018563   0.442712607455854 1
ion C   0.417454248459894   0.333932301100728   0.557295694344403 1
ion C   0.334168255733299   0.417283603018563   0.442712607455854 1
ion C   0.667454248459894   0.333932301100728   0.557295694344403 1
ion C   0.584168255733299   0.417283603018563   0.442712607455854 1
ion C   0.917454248459894   0.333932301100728   0.557295694344403 1
ion C   0.834168255733299   0.417283603018563   0.442712607455854 1
ion C   0.167454248459894   0.583932301100728   0.557295694344403 1
ion C   0.084168255733299   0.667283603018563   0.442712607455854 1
ion C   0.417454248459894   0.583932301100728   0.557295694344403 1
ion C   0.334168255733299   0.667283603018563   0.442712607455854 1
ion C   0.667454248459894   0.583932301100728   0.557295694344403 1
ion C   0.584168255733299   0.667283603018563   0.442712607455854 1
ion C   0.917454248459894   0.583932301100728   0.557295694344403 1
ion C   0.834168255733299   0.667283603018563   0.442712607455854 1
ion C   0.167454248459894   0.833932301100728   0.557295694344403 1
ion C   0.084168255733299   0.917283603018563   0.442712607455854 1
ion C   0.417454248459894   0.833932301100728   0.557295694344403 1
ion C   0.334168255733299   0.917283603018563   0.442712607455854 1
ion C   0.667454248459894   0.833932301100728   0.557295694344403 1
ion C   0.584168255733299   0.917283603018563   0.442712607455854 1
ion C   0.917454248459894   0.833932301100728   0.557295694344403 1
ion C   0.834168255733299   0.917283603018563   0.442712607455854 1
ion Ti   0.000707133590249   0.000528530881105   0.500005673079691 1
ion Ti   0.084056284511458   0.167207045170162   0.617113083023031 1
ion Ti   0.167466284317293   0.083935586185678   0.382892326537440 1
ion Ti   0.250707133590249   0.000528530881105   0.500005673079691 1
ion Ti   0.334056284511458   0.167207045170162   0.617113083023031 1
ion Ti   0.417466284317293   0.083935586185678   0.382892326537440 1
ion Ti   0.500707133590249   0.000528530881105   0.500005673079691 1
ion Ti   0.584056284511458   0.167207045170162   0.617113083023031 1
ion Ti   0.667466284317293   0.083935586185678   0.382892326537440 1
ion Ti   0.750707133590249   0.000528530881105   0.500005673079691 1
ion Ti   0.834056284511458   0.167207045170162   0.617113083023031 1
ion Ti   0.917466284317293   0.083935586185678   0.382892326537440 1
ion Ti   0.000707133590249   0.250528530881105   0.500005673079691 1
ion Ti   0.084056284511458   0.417207045170162   0.617113083023031 1
ion Ti   0.167466284317293   0.333935586185677   0.382892326537440 1
ion Ti   0.250707133590249   0.250528530881105   0.500005673079691 1
ion Ti   0.334056284511458   0.417207045170162   0.617113083023031 1
ion Ti   0.417466284317293   0.333935586185677   0.382892326537440 1
ion Ti   0.500707133590249   0.250528530881105   0.500005673079691 1
ion Ti   0.584056284511458   0.417207045170162   0.617113083023031 1
ion Ti   0.667466284317293   0.333935586185677   0.382892326537440 1
ion Ti   0.750707133590249   0.250528530881105   0.500005673079691 1
ion Ti   0.834056284511458   0.417207045170162   0.617113083023031 1
ion Ti   0.917466284317293   0.333935586185677   0.382892326537440 1
ion Ti   0.000707133590249   0.500528530881105   0.500005673079691 1
ion Ti   0.084056284511458   0.667207045170162   0.617113083023031 1
ion Ti   0.167466284317293   0.583935586185678   0.382892326537440 1
ion Ti   0.250707133590249   0.500528530881105   0.500005673079691 1
ion Ti   0.334056284511458   0.667207045170162   0.617113083023031 1
ion Ti   0.417466284317293   0.583935586185678   0.382892326537440 1
ion Ti   0.500707133590249   0.500528530881105   0.500005673079691 1
ion Ti   0.584056284511458   0.667207045170162   0.617113083023031 1
ion Ti   0.667466284317293   0.583935586185678   0.382892326537440 1
ion Ti   0.750707133590249   0.500528530881105   0.500005673079691 1
ion Ti   0.834056284511458   0.667207045170162   0.617113083023031 1
ion Ti   0.917466284317293   0.583935586185678   0.382892326537440 1
ion Ti   0.000707133590249   0.750528530881105   0.500005673079691 1
ion Ti   0.084056284511458   0.917207045170162   0.617113083023031 1
ion Ti   0.167466284317293   0.833935586185678   0.382892326537440 1
ion Ti   0.250707133590249   0.750528530881105   0.500005673079691 1
ion Ti   0.334056284511458   0.917207045170162   0.617113083023031 1
ion Ti   0.417466284317293   0.833935586185678   0.382892326537440 1
ion Ti   0.500707133590249   0.750528530881105   0.500005673079691 1
ion Ti   0.584056284511458   0.917207045170162   0.617113083023031 1
ion Ti   0.667466284317293   0.833935586185678   0.382892326537440 1
ion Ti   0.750707133590249   0.750528530881105   0.500005673079691 1
ion Ti   0.834056284511458   0.917207045170162   0.617113083023031 1
ion Ti   0.917466284317293   0.833935586185678   0.382892326537440 1
ion O   0.000765137994074   0.000604888857194   0.659136780199781 1
ion O   0.000942736956232   0.000667975036571   0.340873800359799 1
ion O   0.250765137994074   0.000604888857194   0.659136780199781 1
ion O   0.250942736956232   0.000667975036571   0.340873800359799 1
ion O   0.500765137994074   0.000604888857194   0.659136780199781 1
ion O   0.500942736956232   0.000667975036571   0.340873800359799 1
ion O   0.750765137994074   0.000604888857194   0.659136780199781 1
ion O   0.750942736956232   0.000667975036571   0.340873800359799 1
ion O   0.000765137994074   0.250604888857194   0.659136780199781 1
ion O   0.000942736956232   0.250667975036571   0.340873800359799 1
ion O   0.250765137994074   0.250604888857194   0.659136780199781 1
ion O   0.250942736956232   0.250667975036571   0.340873800359799 1
ion O   0.500765137994074   0.250604888857194   0.659136780199781 1
ion O   0.500942736956232   0.250667975036571   0.340873800359799 1
ion O   0.750765137994074   0.250604888857194   0.659136780199781 1
ion O   0.750942736956232   0.250667975036571   0.340873800359799 1
ion O   0.000765137994074   0.500604888857194   0.659136780199781 1
ion O   0.000942736956232   0.500667975036570   0.340873800359799 1
ion O   0.250765137994074   0.500604888857194   0.659136780199781 1
ion O   0.250942736956232   0.500667975036570   0.340873800359799 1
ion O   0.500765137994074   0.500604888857194   0.659136780199781 1
ion O   0.500942736956232   0.500667975036570   0.340873800359799 1
ion O   0.750765137994074   0.500604888857194   0.659136780199781 1
ion O   0.750942736956232   0.500667975036570   0.340873800359799 1
ion O   0.000765137994074   0.750604888857194   0.659136780199781 1
ion O   0.000942736956232   0.750667975036570   0.340873800359799 1
ion O   0.250765137994074   0.750604888857194   0.659136780199781 1
ion O   0.250942736956232   0.750667975036570   0.340873800359799 1
ion O   0.500765137994074   0.750604888857194   0.659136780199781 1
ion O   0.500942736956232   0.750667975036570   0.340873800359799 1
ion O   0.750765137994074   0.750604888857194   0.659136780199781 1
ion O   0.750942736956232   0.750667975036570   0.340873800359799 1
ion-species GBRV/$ID_pbe.uspp
ion-width Ecut
ionic-minimize  \
	dirUpdateScheme      L-BFGS \
	linminMethod         DirUpdateRecommended \
	nIterations          500 \
	history              15 \
	knormThreshold       0.0001 \
	energyDiffThreshold  1e-06 \
	nEnergyDiff          2 \
	alphaTstart          1 \
	alphaTmin            1e-10 \
	updateTestStepSize   yes \
	alphaTreduceFactor   0.1 \
	alphaTincreaseFactor 3 \
	nAlphaAdjustMax      3 \
	wolfeEnergy          0.0001 \
	wolfeGradient        0.9 \
	fdTest               no
kpoint   0.000000000000   0.000000000000   0.000000000000  1.00000000000000
kpoint-folding 3 3 1 
latt-move-scale 1 1 1
latt-scale 1.88973 1.88973 1.88973 
lattice Triclinic 12.0174 12.0182 21.9917 90 90 119.998
lattice-minimize  \
	dirUpdateScheme      L-BFGS \
	linminMethod         DirUpdateRecommended \
	nIterations          0 \
	history              15 \
	knormThreshold       0 \
	energyDiffThreshold  1e-06 \
	nEnergyDiff          2 \
	alphaTstart          1 \
	alphaTmin            1e-10 \
	updateTestStepSize   yes \
	alphaTreduceFactor   0.1 \
	alphaTincreaseFactor 3 \
	nAlphaAdjustMax      3 \
	wolfeEnergy          0.0001 \
	wolfeGradient        0.9 \
	fdTest               no
lcao-params -1 1e-06 0.0073499
pcm-variant CANDLE
spintype no-spin
subspace-rotation-factor 1 yes
symmetries automatic
symmetry-threshold 0.0001



---------- Setting up symmetries ----------

Found 24 point-group symmetries of the bravais lattice
Found 16 space-group symmetries with basis
Applied RMS atom displacement 5.64462e-15 bohrs to make symmetries exact.

---------- Initializing the Grid ----------
R = 
[    22.7096   -11.3548          0  ]
[          0    19.6688          0  ]
[          0          0    41.5583  ]
unit cell volume = 18562.9
G =
[   0.276675   0.159724         -0  ]
[          0   0.319449          0  ]
[          0         -0    0.15119  ]
Minimum fftbox size, Smin = [  92  92  168  ]
Chosen fftbox size, S = [  96  96  168  ]

---------- Exchange Correlation functional ----------
Initalized PBE GGA exchange.
Initalized PBE GGA correlation.

---------- Setting up pseudopotentials ----------
Width of ionic core gaussian charges (only for fluid interactions / plotting) set to 0.397384

Reading pseudopotential file '/home/guoxy/vasp/jdftx-1.5.0/build/pseudopotentials/GBRV/c_pbe.uspp':
  Title: C.  Created by USPP 7.3.6 on 3-2-2014
  Reference state energy: -5.406344.  4 valence electrons in orbitals:
    |200>  occupation: 2  eigenvalue: -0.504890
    |210>  occupation: 2  eigenvalue: -0.194356
  lMax: 1  lLocal: 2  QijEcut: 5
  4 projectors sampled on a log grid with 503 points:
    l: 0  eig: -0.504890  rCut: 1.3
    l: 0  eig: 0.000000  rCut: 1.3
    l: 1  eig: -0.194357  rCut: 1.3
    l: 1  eig: 0.000000  rCut: 1.3
  Partial core density with radius 1.1
  Transforming core density to a uniform radial grid of dG=0.02 with 1477 points.
  Transforming local potential to a uniform radial grid of dG=0.02 with 1477 points.
  Transforming nonlocal projectors to a uniform radial grid of dG=0.02 with 432 points.
  Transforming density augmentations to a uniform radial grid of dG=0.02 with 1477 points.
  Transforming atomic orbitals to a uniform radial grid of dG=0.02 with 432 points.
  Core radius for overlap checks: 1.30 bohrs.

Reading pseudopotential file '/home/guoxy/vasp/jdftx-1.5.0/build/pseudopotentials/GBRV/ti_pbe.uspp':
  Title: Ti.  Created by USPP 7.3.6 on 31-3-15
  Reference state energy: -59.020943.  12 valence electrons in orbitals:
    |300>  occupation: 2  eigenvalue: -2.777623
    |310>  occupation: 6  eigenvalue: -1.894596
    |400>  occupation: 2  eigenvalue: -0.438610
    |320>  occupation: 1  eigenvalue: -0.583119
  lMax: 2  lLocal: 3  QijEcut: 6
  6 projectors sampled on a log grid with 597 points:
    l: 0  eig: -2.777624  rCut: 1.8
    l: 0  eig: -0.438611  rCut: 1.8
    l: 1  eig: -1.894596  rCut: 1.8
    l: 1  eig: 0.500000  rCut: 1.8
    l: 2  eig: -0.583118  rCut: 1.8
    l: 2  eig: 0.150000  rCut: 1.8
  Partial core density with radius 0.8
  Transforming core density to a uniform radial grid of dG=0.02 with 1477 points.
  Transforming local potential to a uniform radial grid of dG=0.02 with 1477 points.
  Transforming nonlocal projectors to a uniform radial grid of dG=0.02 with 432 points.
  Transforming density augmentations to a uniform radial grid of dG=0.02 with 1477 points.
  Transforming atomic orbitals to a uniform radial grid of dG=0.02 with 432 points.
  Core radius for overlap checks: 1.80 bohrs.

Reading pseudopotential file '/home/guoxy/vasp/jdftx-1.5.0/build/pseudopotentials/GBRV/o_pbe.uspp':
  Title: O.  Created by USPP 7.3.6 on 3-2-2014
  Reference state energy: -15.894388.  6 valence electrons in orbitals:
    |200>  occupation: 2  eigenvalue: -0.878823
    |210>  occupation: 4  eigenvalue: -0.332131
  lMax: 2  lLocal: 2  QijEcut: 6
  5 projectors sampled on a log grid with 511 points:
    l: 0  eig: -0.878823  rCut: 1.25
    l: 0  eig: 0.000000  rCut: 1.25
    l: 1  eig: -0.332132  rCut: 1.25
    l: 1  eig: 0.000000  rCut: 1.25
    l: 2  eig: 1.000000  rCut: 1.25
  Partial core density with radius 0.7
  Transforming core density to a uniform radial grid of dG=0.02 with 1477 points.
  Transforming local potential to a uniform radial grid of dG=0.02 with 1477 points.
  Transforming nonlocal projectors to a uniform radial grid of dG=0.02 with 432 points.
  Transforming density augmentations to a uniform radial grid of dG=0.02 with 1477 points.
  Transforming atomic orbitals to a uniform radial grid of dG=0.02 with 432 points.
  Core radius for overlap checks: 1.25 bohrs.

Initialized 3 species with 112 total atoms.

Folded 1 k-points by 3x3x1 to 9 k-points.

---------- Setting up k-points, bands, fillings ----------
Adding inversion symmetry to k-mesh for non-inversion-symmetric unit cell.
Reduced to 5 k-points under symmetry. 
Computing the number of bands and number of electrons
Calculating initial fillings.
nElectrons: 895.000000   nBands: 736   nStates: 5

----- Setting up reduced wavefunction bases (one per k-point) -----
average nbasis = 79305.444 , ideal nbasis = 79302.148

---------- Setting up coulomb interaction ----------
Fluid mode embedding: using embedded box, but periodic Coulomb kernel.
(Fluid response is responsible for (approximate) separation between periodic images.)
Setting up double-sized grid for truncated Coulomb potentials:
R = 
[    22.7096   -11.3548          0  ]
[          0    19.6688          0  ]
[          0          0    83.1166  ]
unit cell volume = 37125.8
G =
[   0.276675   0.159724         -0  ]
[          0   0.319449          0  ]
[          0         -0  0.0755949  ]
Chosen fftbox size, S = [  96  96  336  ]
Integer grid location selected as the embedding center:
   Grid: [  48  48  84  ]
   Lattice: [  0.5  0.5  0.5  ]
   Cartesian: [  5.67742  9.83442  20.7791  ]
Constructing Wigner-Seitz cell: 8 faces (6 quadrilaterals, 2 hexagons)
Range-separation parameter for embedded mesh potentials due to point charges: 0.627457 bohrs.

Initializing van der Waals corrections
	NOTE: vdW corrections apply only for interactions with fluid.
	 C:  C6:   30.35 Eh-a0^6  R0: 2.744 a0
	Ti:  C6:  187.33 Eh-a0^6  R0: 2.952 a0
	 O:  C6:   12.14 Eh-a0^6  R0: 2.536 a0

---------- Setting up ewald sum ----------
Optimum gaussian width for ewald sums = 6.061764 bohr.
Real space sum over 405 unit cells with max indices [  4  4  2  ]
Reciprocal space sum over 10125 terms with max indices [  7  7  22  ]

---------- Allocating electronic variables ----------
Initializing wave functions:  linear combination of atomic orbitals
C pseudo-atom occupations:   s ( 2 )  p ( 2 )
Ti pseudo-atom occupations:   s ( 2 0 )  p ( 6 )  d ( 4 )
O pseudo-atom occupations:   s ( 2 )  p ( 4 )
	FillingsUpdate:  mu: +4.227801288  nElectrons: 895.000000
LCAOMinimize: Iter:   0  F: -2648.0924133503281155  |grad|_K:  3.310e-02  alpha:  1.000e+00
	FillingsUpdate:  mu: -1.613825444  nElectrons: 895.000000
LCAOMinimize: Iter:   1  F: -3000.7518466735905349  |grad|_K:  5.880e-02  alpha:  4.768e-01  linmin:  9.500e-02  cgtest: -5.359e-01  t[s]:    204.47
LCAOMinimize: 	Bad step direction: g.d > 0.
LCAOMinimize: 	Undoing step.
LCAOMinimize: 	Step failed: resetting search direction.
	FillingsUpdate:  mu: -1.613825444  nElectrons: 895.000000
LCAOMinimize: Iter:   2  F: -3000.7518466735905349  |grad|_K:  5.880e-02  alpha:  0.000e+00
	FillingsUpdate:  mu: -0.744477498  nElectrons: 895.000000
LCAOMinimize: Iter:   3  F: -3442.0139740906784027  |grad|_K:  6.022e-03  alpha:  1.892e-01  linmin: -1.016e-01  cgtest: -4.133e-01  t[s]:    307.01
LCAOMinimize: 	Predicted alpha/alphaT>3.000000, increasing alphaT to 5.675857e-01.
	FillingsUpdate:  mu: -0.692488898  nElectrons: 895.000000
LCAOMinimize: Iter:   4  F: -3446.1481910085344680  |grad|_K:  5.741e-03  alpha:  3.899e-02  linmin: -2.166e-01  cgtest:  9.702e-01  t[s]:    382.93
LCAOMinimize: Encountered beta<0, resetting CG.
LCAOMinimize: 	Wrong curvature in test step, increasing alphaT to 1.169807e-01.
	FillingsUpdate:  mu: -0.666539656  nElectrons: 895.000000
LCAOMinimize: Iter:   5  F: -3449.6480573870344415  |grad|_K:  5.558e-03  alpha: -6.832e+00  linmin: -2.145e-01  cgtest:  9.610e-01  t[s]:    441.08
	FillingsUpdate:  mu: -0.631595670  nElectrons: 895.000000
LCAOMinimize: Iter:   6  F: -3454.2060074654132222  |grad|_K:  5.336e-03  alpha:  5.339e-02  linmin: -2.212e-01  cgtest:  9.377e-01  t[s]:    500.69
LCAOMinimize: 	Wrong curvature in test step, increasing alphaT to 1.601720e-01.
	FillingsUpdate:  mu: -0.598406979  nElectrons: 895.000000
LCAOMinimize: Iter:   7  F: -3458.5042406633333485  |grad|_K:  5.145e-03  alpha: -1.620e+00  linmin: -2.292e-01  cgtest:  9.289e-01  t[s]:    559.00
	FillingsUpdate:  mu: -0.570253666  nElectrons: 895.000000
LCAOMinimize: Iter:   8  F: -3462.5769649214835226  |grad|_K:  4.984e-03  alpha:  5.334e-02  linmin: -2.396e-01  cgtest:  9.213e-01  t[s]:    618.47
LCAOMinimize: 	Wrong curvature in test step, increasing alphaT to 1.600124e-01.
	FillingsUpdate:  mu: -0.548791858  nElectrons: 895.000000
LCAOMinimize: Iter:   9  F: -3466.4763678593135410  |grad|_K:  4.852e-03  alpha: -9.248e-01  linmin: -2.523e-01  cgtest:  9.143e-01  t[s]:    676.52
	FillingsUpdate:  mu: -0.534756042  nElectrons: 895.000000
LCAOMinimize: Iter:  10  F: -3470.2561032273961246  |grad|_K:  4.741e-03  alpha:  5.349e-02  linmin: -2.675e-01  cgtest:  9.078e-01  t[s]:    736.09
LCAOMinimize: 	Wrong curvature in test step, increasing alphaT to 1.604831e-01.
	FillingsUpdate:  mu: -0.527475715  nElectrons: 895.000000
LCAOMinimize: Iter:  11  F: -3473.9222540744794969  |grad|_K:  4.635e-03  alpha: -6.983e-01  linmin: -2.848e-01  cgtest:  9.027e-01  t[s]:    794.34
	FillingsUpdate:  mu: -0.522977297  nElectrons: 895.000000
LCAOMinimize: Iter:  12  F: -3477.4124684871262616  |grad|_K:  4.519e-03  alpha:  5.286e-02  linmin: -3.038e-01  cgtest:  9.004e-01  t[s]:    853.97
LCAOMinimize: 	Wrong curvature in test step, increasing alphaT to 1.585666e-01.
	FillingsUpdate:  mu: -0.515693891  nElectrons: 895.000000
LCAOMinimize: Iter:  13  F: -3480.7246204802577267  |grad|_K:  4.376e-03  alpha: -7.173e-01  linmin: -3.238e-01  cgtest:  8.984e-01  t[s]:    912.33
	FillingsUpdate:  mu: -0.500992981  nElectrons: 895.000000
LCAOMinimize: Iter:  14  F: -3483.7207589266695322  |grad|_K:  4.197e-03  alpha:  5.153e-02  linmin: -3.431e-01  cgtest:  9.008e-01  t[s]:    971.92
LCAOMinimize: 	Wrong curvature in test step, increasing alphaT to 1.545770e-01.
	FillingsUpdate:  mu: -0.475962338  nElectrons: 895.000000
LCAOMinimize: Iter:  15  F: -3486.4198646537574859  |grad|_K:  3.968e-03  alpha: -1.102e+00  linmin: -3.614e-01  cgtest:  9.032e-01  t[s]:   1030.17
	FillingsUpdate:  mu: -0.442776552  nElectrons: 895.000000
LCAOMinimize: Iter:  16  F: -3488.6150249198667552  |grad|_K:  3.699e-03  alpha:  4.836e-02  linmin: -3.768e-01  cgtest:  9.138e-01  t[s]:   1089.82
LCAOMinimize: 	Predicted alpha/alphaT>3.000000, increasing alphaT to 1.450666e-01.
LCAOMinimize: 	Predicted alpha/alphaT>3.000000, increasing alphaT to 4.351997e-01.
	FillingsUpdate:  mu: -0.354413643  nElectrons: 895.000000
LCAOMinimize: Iter:  17  F: -3491.9890403223425892  |grad|_K:  2.993e-03  alpha:  9.008e-02  linmin: -4.066e-01  cgtest:  8.508e-01  t[s]:   1182.33
LCAOMinimize: Encountered beta<0, resetting CG.
LCAOMinimize: 	Predicted alpha/alphaT>3.000000, increasing alphaT to 2.702424e-01.
	FillingsUpdate:  mu: -0.093443462  nElectrons: 895.000000
LCAOMinimize: Iter:  18  F: -3495.3205605147836650  |grad|_K:  9.359e-04  alpha:  2.396e-01  linmin:  3.929e-01  cgtest: -5.873e-01  t[s]:   1258.10
LCAOMinimize: 	Bad step direction: g.d > 0.
LCAOMinimize: 	Undoing step.
LCAOMinimize: 	Step failed: resetting search direction.
	FillingsUpdate:  mu: -0.093443462  nElectrons: 895.000000
LCAOMinimize: Iter:  19  F: -3495.3205605147836650  |grad|_K:  9.359e-04  alpha:  0.000e+00
	FillingsUpdate:  mu: -0.160502145  nElectrons: 895.000000
LCAOMinimize: Iter:  20  F: -3495.4727848211664423  |grad|_K:  3.068e-04  alpha:  1.339e-01  linmin:  2.141e-02  cgtest: -6.136e-02  t[s]:   1360.69
	FillingsUpdate:  mu: -0.149832930  nElectrons: 895.000000
LCAOMinimize: Iter:  21  F: -3495.4951702660268893  |grad|_K:  1.822e-04  alpha:  1.784e-01  linmin:  9.255e-04  cgtest:  1.565e-02  t[s]:   1420.22
	FillingsUpdate:  mu: -0.141607587  nElectrons: 895.000000
LCAOMinimize: Iter:  22  F: -3495.5189215952414088  |grad|_K:  5.377e-05  alpha:  5.352e-01  linmin:  1.983e-02  cgtest: -1.127e-01  t[s]:   1479.75
	FillingsUpdate:  mu: -0.145082922  nElectrons: 895.000000
LCAOMinimize: Iter:  23  F: -3495.5195027183158345  |grad|_K:  3.324e-05  alpha:  1.529e-01  linmin: -1.424e-03  cgtest:  5.924e-02  t[s]:   1539.35
	FillingsUpdate:  mu: -0.144575913  nElectrons: 895.000000
LCAOMinimize: Iter:  24  F: -3495.5197889933206170  |grad|_K:  2.830e-05  alpha:  1.905e-01  linmin:  4.220e-04  cgtest: -2.214e-02  t[s]:   1598.86
	FillingsUpdate:  mu: -0.143764255  nElectrons: 895.000000
LCAOMinimize: Iter:  25  F: -3495.5199291160065513  |grad|_K:  1.946e-05  alpha:  1.289e-01  linmin:  8.280e-06  cgtest:  6.093e-03  t[s]:   1658.35
	FillingsUpdate:  mu: -0.143726817  nElectrons: 895.000000
LCAOMinimize: Iter:  26  F: -3495.5200121652242160  |grad|_K:  2.113e-06  alpha:  1.616e-01  linmin:  9.377e-04  cgtest: -1.448e-02  t[s]:   1717.90
	FillingsUpdate:  mu: -0.143781880  nElectrons: 895.000000
LCAOMinimize: Iter:  27  F: -3495.5200142277703890  |grad|_K:  1.632e-06  alpha:  3.404e-01  linmin: -1.497e-04  cgtest:  8.779e-04  t[s]:   1777.22
	FillingsUpdate:  mu: -0.143806633  nElectrons: 895.000000
LCAOMinimize: Iter:  28  F: -3495.5200149424940719  |grad|_K:  1.866e-06  alpha:  1.976e-01  linmin:  9.993e-07  cgtest: -7.241e-04  t[s]:   1836.85
	FillingsUpdate:  mu: -0.143828450  nElectrons: 895.000000
LCAOMinimize: Iter:  29  F: -3495.5200155478546549  |grad|_K:  2.719e-07  alpha:  1.280e-01  linmin: -7.253e-06  cgtest:  1.899e-03  t[s]:   1896.44
LCAOMinimize: Converged (|Delta F|<1.000000e-06 for 2 iters).
----- createFluidSolver() ----- (Fluid-side solver setup)
   Initializing fluid molecule 'H2O'
     Initializing site 'O'
       Electron density: proportional to exp(-r/0.36935)*erfc((r-0.51523)/0.36823) with norm 6.826
       Charge density: gaussian nuclear width 0.478731 with net site charge 0.826
       Polarizability: cuspless exponential with width 0.32 and norm 3.73
       Hard sphere radius: 2.57003 bohrs
       Positions in reference frame:
         [ +0.000000 +0.000000 +0.000000 ]
     Initializing site 'H'
       Electron density: proportional to exp(-r/0.34641)*erfc((r-0)/0.390882) with norm 0.587
       Charge density: gaussian nuclear width 0.377945 with net site charge -0.413
       Polarizability: cuspless exponential with width 0.39 and norm 3.3
       Positions in reference frame:
         [ +0.000000 -1.441945 +1.122523 ]
         [ +0.000000 +1.441945 +1.122523 ]
     Net charge: 0   dipole magnitude: 0.927204
     Initializing spherical shell mfKernel with radius 2.61727 Bohr
     deltaS corrections:
       site 'O': -7.54299
       site 'H': -6.83917
   Initializing fluid molecule 'Na+'
     Initializing site 'Na'
       Electron density: proportional to exp(-r/0.19682)*erfc((r-0.71491)/0.41314) with norm 8.1383
       Charge density: gaussian nuclear width 0.365347 with net site charge -1
       Hard sphere radius: 1.86327 bohrs
       Positions in reference frame:
         [ +0.000000 +0.000000 +0.000000 ]
     Net charge: -1   dipole magnitude: 0
     Initializing gaussian mfKernel with width: 1.55004 Bohr
     deltaS corrections:
       site 'Na': -22.3555
   Initializing fluid molecule 'F-'
     Initializing site 'F'
       Electron density: proportional to exp(-r/0.38886)*erfc((r-0)/0.438782) with norm 8
       Charge density: gaussian nuclear width 0.374796 with net site charge 1
       Hard sphere radius: 2.39995 bohrs
       Positions in reference frame:
         [ +0.000000 +0.000000 +0.000000 ]
     Net charge: 1   dipole magnitude: 0
     Initializing gaussian mfKernel with width: 1.59012 Bohr
     deltaS corrections:
       site 'F': -9.04335

Correction to mu due to finite nuclear width = -0.0239459
   Cavity determined by nc: 0.00142 and sigma: 0.707107
   Nonlocal vdW cavity from gaussian model electron density with norm = 8 and sigma = 0.993594 bohr
   Charge asymmetry in cavity with sensitivity pCavity = 36.5 e-bohr/Eh
   Electrostatic cavity expanded by eta = 1.46 bohrs
   Weighted density cavitation model constrained by Nbulk: 0.0049383 bohr^-3, Pvap: 3.14029 kPa, Rvdw: 2.61727 bohr and sigmaBulk: 4.62e-05 Eh/bohr^2 at T: 298 K.
   Weighted density dispersion model using vdW pair potentials with single solvent site with sqrtC6eff: 0.77 SI.


---- Citations for features of the code used in this run ----

   Software package:
      R. Sundararaman, K. Letchworth-Weaver, K.A. Schwarz, D. Gunceler, Y. Ozhabes and T.A. Arias, 'JDFTx: software for joint density-functional theory', SoftwareX 6, 278 (2017)

   gga-PBE exchange-correlation functional:
      J.P. Perdew, K. Burke and M. Ernzerhof, Phys. Rev. Lett. 77, 3865 (1996)

   Pseudopotentials:
      KF Garrity, JW Bennett, KM Rabe and D Vanderbilt, Comput. Mater. Sci. 81, 446 (2014)

   Truncated Coulomb potentials:
      R. Sundararaman and T.A. Arias, Phys. Rev. B 87, 165122 (2013)

   Van der Waals correction pair-potentials:
      S. Grimme, J. Comput. Chem. 27, 1787 (2006)

   Charge-asymmetric nonlocally-determined local-electric (CANDLE) solvation model:
      R. Sundararaman and W.A. Goddard III, J. Chem. Phys. 142, 064107 (2015)

   Total energy minimization with Auxiliary Hamiltonian:
      C. Freysoldt, S. Boeck, and J. Neugebauer, Phys. Rev. B 79, 241103(R) (2009)

This list may not be complete. Please suggest additional citations or
report any other bugs at https://github.com/shankar1729/jdftx/issues

Initialization completed successfully at t[s]:   1911.58

Fluid solver invoked on fresh (partially random / LCAO) wavefunctions
Running a vacuum solve first:

-------- Initial electronic minimization -----------
	FillingsUpdate:  mu: -0.143828450  nElectrons: 895.000000
ElecMinimize: Iter:   0  F: -3495.520015547886032  |grad|_K:  1.860e-04  alpha:  1.000e+00
	FillingsUpdate:  mu: -0.171227113  nElectrons: 895.000000
	SubspaceRotationAdjust: set factor to 1
ElecMinimize: Iter:   1  F: -3499.478560960164032  |grad|_K:  9.497e-05  alpha:  3.934e-01  linmin:  1.756e-05  t[s]:   2072.05
	FillingsUpdate:  mu: -0.235098082  nElectrons: 895.000000
	SubspaceRotationAdjust: set factor to 0.675
ElecMinimize: Iter:   2  F: -3500.548731938922174  |grad|_K:  7.142e-05  alpha:  4.077e-01  linmin:  2.693e-06  t[s]:   2172.49
	FillingsUpdate:  mu: -0.160630838  nElectrons: 895.000000
	SubspaceRotationAdjust: set factor to 0.495
ElecMinimize: Iter:   3  F: -3500.852344484640071  |grad|_K:  4.639e-05  alpha:  2.118e-01  linmin:  2.321e-05  t[s]:   2272.71
	FillingsUpdate:  mu: -0.177499864  nElectrons: 895.000000
	SubspaceRotationAdjust: set factor to 0.428
ElecMinimize: Iter:   4  F: -3501.014532235373736  |grad|_K:  2.222e-05  alpha:  2.599e-01  linmin: -4.179e-05  t[s]:   2372.95
	FillingsUpdate:  mu: -0.199348912  nElectrons: 895.000000
	SubspaceRotationAdjust: set factor to 0.346
ElecMinimize: Iter:   5  F: -3501.087788109956819  |grad|_K:  1.493e-05  alpha:  4.967e-01  linmin:  4.416e-05  t[s]:   2473.10
	FillingsUpdate:  mu: -0.184311916  nElectrons: 895.000000
	SubspaceRotationAdjust: set factor to 0.295
ElecMinimize: Iter:   6  F: -3501.108565220933997  |grad|_K:  8.333e-06  alpha:  3.185e-01  linmin: -5.120e-06  t[s]:   2573.77
	FillingsUpdate:  mu: -0.182637876  nElectrons: 895.000000
	SubspaceRotationAdjust: set factor to 0.37
ElecMinimize: Iter:   7  F: -3501.116778327347674  |grad|_K:  5.035e-06  alpha:  4.032e-01  linmin:  2.285e-05  t[s]:   2674.25
	FillingsUpdate:  mu: -0.187059390  nElectrons: 895.000000
	SubspaceRotationAdjust: set factor to 0.36
ElecMinimize: Iter:   8  F: -3501.119940165674052  |grad|_K:  3.039e-06  alpha:  4.266e-01  linmin:  4.154e-06  t[s]:   2774.52
	FillingsUpdate:  mu: -0.186258848  nElectrons: 895.000000
	SubspaceRotationAdjust: set factor to 0.426
ElecMinimize: Iter:   9  F: -3501.121043550632749  |grad|_K:  2.185e-06  alpha:  4.081e-01  linmin:  6.236e-07  t[s]:   2874.99
	FillingsUpdate:  mu: -0.185490810  nElectrons: 895.000000
	SubspaceRotationAdjust: set factor to 0.455
ElecMinimize: Iter:  10  F: -3501.121732482978587  |grad|_K:  1.531e-06  alpha:  4.924e-01  linmin:  1.513e-06  t[s]:   2975.36
	FillingsUpdate:  mu: -0.186145672  nElectrons: 895.000000
	SubspaceRotationAdjust: set factor to 0.444
ElecMinimize: Iter:  11  F: -3501.121975310732068  |grad|_K:  1.171e-06  alpha:  3.535e-01  linmin:  8.624e-08  t[s]:   3075.74
	FillingsUpdate:  mu: -0.186144833  nElectrons: 895.000000
	SubspaceRotationAdjust: set factor to 0.319
ElecMinimize: Iter:  12  F: -3501.122075520618637  |grad|_K:  8.348e-07  alpha:  2.492e-01  linmin:  2.982e-08  t[s]:   3176.19
	FillingsUpdate:  mu: -0.185909967  nElectrons: 895.000000
	SubspaceRotationAdjust: set factor to 0.29
ElecMinimize: Iter:  13  F: -3501.122138269249263  |grad|_K:  5.347e-07  alpha:  3.071e-01  linmin:  4.849e-07  t[s]:   3276.58
	FillingsUpdate:  mu: -0.186029960  nElectrons: 895.000000
	SubspaceRotationAdjust: set factor to 0.314
ElecMinimize: Iter:  14  F: -3501.122172931022305  |grad|_K:  3.153e-07  alpha:  4.141e-01  linmin:  5.887e-07  t[s]:   3376.82
	FillingsUpdate:  mu: -0.186114601  nElectrons: 895.000000
	SubspaceRotationAdjust: set factor to 0.306
ElecMinimize: Iter:  15  F: -3501.122184437865599  |grad|_K:  2.186e-07  alpha:  3.952e-01  linmin: -6.559e-09  t[s]:   3477.24
	FillingsUpdate:  mu: -0.186058662  nElectrons: 895.000000
	SubspaceRotationAdjust: set factor to 0.248
ElecMinimize: Iter:  16  F: -3501.122188769178592  |grad|_K:  1.267e-07  alpha:  3.090e-01  linmin: -9.155e-09  t[s]:   3577.69
	FillingsUpdate:  mu: -0.186024455  nElectrons: 895.000000
	SubspaceRotationAdjust: set factor to 0.255
ElecMinimize: Iter:  17  F: -3501.122190441720704  |grad|_K:  8.229e-08  alpha:  3.550e-01  linmin: -8.811e-10  t[s]:   3678.02
	FillingsUpdate:  mu: -0.186055587  nElectrons: 895.000000
	SubspaceRotationAdjust: set factor to 0.312
ElecMinimize: Iter:  18  F: -3501.122191328030567  |grad|_K:  5.290e-08  alpha:  4.463e-01  linmin: -4.278e-08  t[s]:   3778.46
	FillingsUpdate:  mu: -0.186070578  nElectrons: 895.000000
	SubspaceRotationAdjust: set factor to 0.327
ElecMinimize: Iter:  19  F: -3501.122191652925267  |grad|_K:  4.230e-08  alpha:  3.959e-01  linmin:  1.070e-09  t[s]:   3878.72
	FillingsUpdate:  mu: -0.186062852  nElectrons: 895.000000
	SubspaceRotationAdjust: set factor to 0.348
ElecMinimize: Iter:  20  F: -3501.122191874220334  |grad|_K:  3.324e-08  alpha:  4.217e-01  linmin:  1.443e-08  t[s]:   3979.14
	FillingsUpdate:  mu: -0.186058495  nElectrons: 895.000000
	SubspaceRotationAdjust: set factor to 0.408
ElecMinimize: Iter:  21  F: -3501.122192012906453  |grad|_K:  2.414e-08  alpha:  4.282e-01  linmin: -3.382e-09  t[s]:   4079.40
	FillingsUpdate:  mu: -0.186062831  nElectrons: 895.000000
	SubspaceRotationAdjust: set factor to 0.455
ElecMinimize: Iter:  22  F: -3501.122192094543607  |grad|_K:  1.756e-08  alpha:  4.774e-01  linmin:  1.595e-08  t[s]:   4179.84
	FillingsUpdate:  mu: -0.186057260  nElectrons: 895.000000
	SubspaceRotationAdjust: set factor to 0.424
ElecMinimize: Iter:  23  F: -3501.122192128694223  |grad|_K:  1.315e-08  alpha:  3.780e-01  linmin: -3.252e-08  t[s]:   4280.03
	FillingsUpdate:  mu: -0.186058230  nElectrons: 895.000000
	SubspaceRotationAdjust: set factor to 0.322
ElecMinimize: Iter:  24  F: -3501.122192144079690  |grad|_K:  1.044e-08  alpha:  3.031e-01  linmin: -1.081e-08  t[s]:   4380.38
	FillingsUpdate:  mu: -0.186059936  nElectrons: 895.000000
	SubspaceRotationAdjust: set factor to 0.238
ElecMinimize: Iter:  25  F: -3501.122192151497075  |grad|_K:  5.533e-09  alpha:  2.332e-01  linmin:  4.617e-08  t[s]:   4480.94
	FillingsUpdate:  mu: -0.186058897  nElectrons: 895.000000
	SubspaceRotationAdjust: set factor to 0.291
ElecMinimize: Iter:  26  F: -3501.122192155427911  |grad|_K:  3.944e-09  alpha:  4.398e-01  linmin:  2.315e-07  t[s]:   4581.34
ElecMinimize: Converged (|Delta F|<1.000000e-08 for 2 iters).
Setting wave functions to eigenvectors of Hamiltonian
Vacuum energy after initial minimize, F = -3501.122192155427911

	Linear fluid (dielectric constant: 78.4, screening length: 5.74355 Bohr) occupying 0.727092 of unit cell:	Completed after 21 iterations at t[s]:   4600.96

-------- Electronic minimization -----------
	Linear fluid (dielectric constant: 78.4, screening length: 5.74355 Bohr) occupying 0.727092 of unit cell:	Completed after 0 iterations at t[s]:   4623.12
	FillingsUpdate:  mu: -0.256948144  nElectrons: 895.000000
ElecMinimize: Iter:   0  F: -3501.015762389847168  |grad|_K:  2.288e-06  alpha:  1.000e+00
	Linear fluid (dielectric constant: 78.4, screening length: 5.74355 Bohr) occupying 0.727322 of unit cell:	Completed after 14 iterations at t[s]:   4706.54
	Linear fluid (dielectric constant: 78.4, screening length: 5.74355 Bohr) occupying 0.727172 of unit cell:	Completed after 14 iterations at t[s]:   4741.08
	FillingsUpdate:  mu: -0.251201015  nElectrons: 895.000000
	SubspaceRotationAdjust: set factor to 0.233
ElecMinimize: Iter:   1  F: -3501.016293257051984  |grad|_K:  9.938e-07  alpha:  3.461e-01  linmin:  4.661e-07  t[s]:   4785.83
	Linear fluid (dielectric constant: 78.4, screening length: 5.74355 Bohr) occupying 0.727241 of unit cell:	Completed after 10 iterations at t[s]:   4821.20
	Linear fluid (dielectric constant: 78.4, screening length: 5.74355 Bohr) occupying 0.727299 of unit cell:	Completed after 9 iterations at t[s]:   4853.92
	FillingsUpdate:  mu: -0.249961253  nElectrons: 895.000000
	SubspaceRotationAdjust: set factor to 0.29
ElecMinimize: Iter:   2  F: -3501.016477275266880  |grad|_K:  6.651e-07  alpha:  6.351e-01  linmin: -3.800e-07  t[s]:   4898.06
	Linear fluid (dielectric constant: 78.4, screening length: 5.74355 Bohr) occupying 0.727400 of unit cell:	Completed after 10 iterations at t[s]:   4933.50
	Linear fluid (dielectric constant: 78.4, screening length: 5.74355 Bohr) occupying 0.727380 of unit cell:	Completed after 3 iterations at t[s]:   4965.94
	FillingsUpdate:  mu: -0.249663553  nElectrons: 895.000000
	SubspaceRotationAdjust: set factor to 0.373
ElecMinimize: Iter:   3  F: -3501.016543418801120  |grad|_K:  4.142e-07  alpha:  5.090e-01  linmin:  4.188e-07  t[s]:   5008.61
	Linear fluid (dielectric constant: 78.4, screening length: 5.74355 Bohr) occupying 0.727428 of unit cell:	Completed after 2 iterations at t[s]:   5042.99
	Linear fluid (dielectric constant: 78.4, screening length: 5.74355 Bohr) occupying 0.727445 of unit cell:	Completed after 3 iterations at t[s]:   5073.76
	FillingsUpdate:  mu: -0.249655950  nElectrons: 895.000000
	SubspaceRotationAdjust: set factor to 0.495
ElecMinimize: Iter:   4  F: -3501.016577676497036  |grad|_K:  2.886e-07  alpha:  6.836e-01  linmin:  2.129e-07  t[s]:   5116.32
	Linear fluid (dielectric constant: 78.4, screening length: 5.74355 Bohr) occupying 0.727481 of unit cell:	Completed after 2 iterations at t[s]:   5150.74
	Linear fluid (dielectric constant: 78.4, screening length: 5.74355 Bohr) occupying 0.727481 of unit cell:	Completed after 0 iterations at t[s]:   5181.03
	FillingsUpdate:  mu: -0.249537715  nElectrons: 895.000000
	SubspaceRotationAdjust: set factor to 0.564
ElecMinimize: Iter:   5  F: -3501.016594106898992  |grad|_K:  2.016e-07  alpha:  6.741e-01  linmin: -1.581e-07  t[s]:   5222.67
	Linear fluid (dielectric constant: 78.4, screening length: 5.74355 Bohr) occupying 0.727497 of unit cell:	Completed after 7 iterations at t[s]:   5257.34
	Linear fluid (dielectric constant: 78.4, screening length: 5.74355 Bohr) occupying 0.727491 of unit cell:	Completed after 1 iterations at t[s]:   5288.96
	FillingsUpdate:  mu: -0.249289535  nElectrons: 895.000000
	SubspaceRotationAdjust: set factor to 0.524
ElecMinimize: Iter:   6  F: -3501.016599071993824  |grad|_K:  1.177e-07  alpha:  4.320e-01  linmin: -1.109e-06  t[s]:   5330.94
	Linear fluid (dielectric constant: 78.4, screening length: 5.74355 Bohr) occupying 0.727491 of unit cell:	Completed after 2 iterations at t[s]:   5365.21
	Linear fluid (dielectric constant: 78.4, screening length: 5.74355 Bohr) occupying 0.727491 of unit cell:	Completed after 0 iterations at t[s]:   5395.61
	FillingsUpdate:  mu: -0.249332643  nElectrons: 895.000000
	SubspaceRotationAdjust: set factor to 0.592
ElecMinimize: Iter:   7  F: -3501.016601174316747  |grad|_K:  5.916e-08  alpha:  5.096e-01  linmin: -2.571e-06  t[s]:   5437.38
	Linear fluid (dielectric constant: 78.4, screening length: 5.74355 Bohr) occupying 0.727488 of unit cell:	Completed after 2 iterations at t[s]:   5471.85
	Linear fluid (dielectric constant: 78.4, screening length: 5.74355 Bohr) occupying 0.727488 of unit cell:	Completed after 0 iterations at t[s]:   5502.15
	FillingsUpdate:  mu: -0.249359197  nElectrons: 895.000000
	SubspaceRotationAdjust: set factor to 0.57
ElecMinimize: Iter:   8  F: -3501.016601705454832  |grad|_K:  3.653e-08  alpha:  5.045e-01  linmin: -5.275e-06  t[s]:   5543.84
	Linear fluid (dielectric constant: 78.4, screening length: 5.74355 Bohr) occupying 0.727485 of unit cell:	Completed after 0 iterations at t[s]:   5577.84
	Linear fluid (dielectric constant: 78.4, screening length: 5.74355 Bohr) occupying 0.727484 of unit cell:	Completed after 1 iterations at t[s]:   5607.62
	FillingsUpdate:  mu: -0.249362619  nElectrons: 895.000000
	SubspaceRotationAdjust: set factor to 0.695
ElecMinimize: Iter:   9  F: -3501.016601911615453  |grad|_K:  2.419e-08  alpha:  6.217e-01  linmin:  1.272e-05  t[s]:   5649.72
	Linear fluid (dielectric constant: 78.4, screening length: 5.74355 Bohr) occupying 0.727481 of unit cell:	Completed after 1 iterations at t[s]:   5683.90
	Linear fluid (dielectric constant: 78.4, screening length: 5.74355 Bohr) occupying 0.727483 of unit cell:	Completed after 0 iterations at t[s]:   5714.04
	FillingsUpdate:  mu: -0.249366659  nElectrons: 895.000000
	SubspaceRotationAdjust: set factor to 0.759
ElecMinimize: Iter:  10  F: -3501.016601944002559  |grad|_K:  1.653e-08  alpha:  3.345e-01  linmin: -7.696e-06  t[s]:   5755.67
	Linear fluid (dielectric constant: 78.4, screening length: 5.74355 Bohr) occupying 0.727482 of unit cell:	Completed after 0 iterations at t[s]:   5789.64
	Linear fluid (dielectric constant: 78.4, screening length: 5.74355 Bohr) occupying 0.727481 of unit cell:	Completed after 0 iterations at t[s]:   5819.30
	FillingsUpdate:  mu: -0.249366716  nElectrons: 895.000000
	SubspaceRotationAdjust: set factor to 1.03
ElecMinimize: Iter:  11  F: -3501.016601982748398  |grad|_K:  1.422e-08  alpha:  4.483e-01  linmin: -2.410e-07  t[s]:   5860.95
	Linear fluid (dielectric constant: 78.4, screening length: 5.74355 Bohr) occupying 0.727480 of unit cell:	Completed after 3 iterations at t[s]:   5895.55
	Linear fluid (dielectric constant: 78.4, screening length: 5.74355 Bohr) occupying 0.727481 of unit cell:	Completed after 0 iterations at t[s]:   5925.95
	FillingsUpdate:  mu: -0.249404649  nElectrons: 895.000000
	SubspaceRotationAdjust: set factor to 0.77
ElecMinimize: Iter:  12  F: -3501.016601985425950  |grad|_K:  3.699e-08  alpha:  9.271e-02  linmin:  2.169e-05  t[s]:   5967.65
ElecMinimize: 	Bad step direction: g.d > 0.
ElecMinimize: 	Undoing step.
	Linear fluid (dielectric constant: 78.4, screening length: 5.74355 Bohr) occupying 0.727481 of unit cell:	Completed after 0 iterations at t[s]:   6001.84
ElecMinimize: 	Step failed: resetting search direction.
	FillingsUpdate:  mu: -0.249404649  nElectrons: 895.000000
	SubspaceRotationAdjust: set factor to 0.64
ElecMinimize: Iter:  13  F: -3501.016601985396846  |grad|_K:  3.373e-08  alpha:  0.000e+00
	Linear fluid (dielectric constant: 78.4, screening length: 5.74355 Bohr) occupying 0.727481 of unit cell:	Completed after 0 iterations at t[s]:   6077.36
ElecMinimize: 	Predicted alpha/alphaT>3.000000, increasing alphaT to 2.781231e-01.
	Linear fluid (dielectric constant: 78.4, screening length: 5.74355 Bohr) occupying 0.727481 of unit cell:	Completed after 2 iterations at t[s]:   6107.02
	Linear fluid (dielectric constant: 78.4, screening length: 5.74355 Bohr) occupying 0.727481 of unit cell:	Completed after 0 iterations at t[s]:   6137.21
	FillingsUpdate:  mu: -0.249392366  nElectrons: 895.000000
	SubspaceRotationAdjust: set factor to 0.362
ElecMinimize: Iter:  14  F: -3501.016602001563115  |grad|_K:  3.222e-08  alpha:  9.192e-02  linmin:  2.074e-04  t[s]:   6178.84
	Linear fluid (dielectric constant: 78.4, screening length: 5.74355 Bohr) occupying 0.727481 of unit cell:	Completed after 0 iterations at t[s]:   6212.91
	Linear fluid (dielectric constant: 78.4, screening length: 5.74355 Bohr) occupying 0.727482 of unit cell:	Completed after 0 iterations at t[s]:   6242.52
	FillingsUpdate:  mu: -0.249392443  nElectrons: 895.000000
	SubspaceRotationAdjust: set factor to 0.351
ElecMinimize: Iter:  15  F: -3501.016602018797585  |grad|_K:  2.806e-08  alpha:  2.701e-01  linmin: -3.479e-07  t[s]:   6284.21
	Linear fluid (dielectric constant: 78.4, screening length: 5.74355 Bohr) occupying 0.727482 of unit cell:	Completed after 1 iterations at t[s]:   6318.55
	Linear fluid (dielectric constant: 78.4, screening length: 5.74355 Bohr) occupying 0.727482 of unit cell:	Completed after 0 iterations at t[s]:   6348.81
ElecMinimize: 	Step increased F by 3.937748e-08, reducing alpha to 7.387801e-03.
	Linear fluid (dielectric constant: 78.4, screening length: 5.74355 Bohr) occupying 0.727482 of unit cell:	Completed after 0 iterations at t[s]:   6415.68
ElecMinimize: 	Step increased F by 1.837270e-08, reducing alpha to 7.387801e-04.
	Linear fluid (dielectric constant: 78.4, screening length: 5.74355 Bohr) occupying 0.727482 of unit cell:	Completed after 0 iterations at t[s]:   6482.55
ElecMinimize: 	Step increased F by 1.641092e-08, reducing alpha to 7.387801e-05.
ElecMinimize: 	Step failed to reduce F after 3 attempts. Quitting step.
ElecMinimize: 	Undoing step.
	Linear fluid (dielectric constant: 78.4, screening length: 5.74355 Bohr) occupying 0.727482 of unit cell:	Completed after 0 iterations at t[s]:   6549.26
ElecMinimize: 	Step failed: resetting search direction.
	FillingsUpdate:  mu: -0.249378084  nElectrons: 895.000000
	SubspaceRotationAdjust: set factor to 0.218
ElecMinimize: Iter:  16  F: -3501.016602002423951  |grad|_K:  2.219e-08  alpha:  7.388e-05
	Linear fluid (dielectric constant: 78.4, screening length: 5.74355 Bohr) occupying 0.727482 of unit cell:	Completed after 1 iterations at t[s]:   6625.13
	Linear fluid (dielectric constant: 78.4, screening length: 5.74355 Bohr) occupying 0.727482 of unit cell:	Completed after 0 iterations at t[s]:   6655.23
ElecMinimize: 	Step increased F by 2.220531e-08, reducing alpha to 9.077718e-03.
	Linear fluid (dielectric constant: 78.4, screening length: 5.74355 Bohr) occupying 0.727482 of unit cell:	Completed after 0 iterations at t[s]:   6721.75
ElecMinimize: 	Step increased F by 1.736862e-08, reducing alpha to 9.077718e-04.
	Linear fluid (dielectric constant: 78.4, screening length: 5.74355 Bohr) occupying 0.727482 of unit cell:	Completed after 0 iterations at t[s]:   6788.31
ElecMinimize: 	Step increased F by 1.703120e-08, reducing alpha to 9.077718e-05.
ElecMinimize: 	Step failed to reduce F after 3 attempts. Quitting step.
ElecMinimize: 	Undoing step.
	Linear fluid (dielectric constant: 78.4, screening length: 5.74355 Bohr) occupying 0.727482 of unit cell:	Completed after 0 iterations at t[s]:   6855.19
ElecMinimize: 	Step failed along negative gradient direction.
ElecMinimize: Probably at roundoff error limit. (Stopping)
Setting wave functions to eigenvectors of Hamiltonian
Single-point solvation energy estimate, DeltaF = +0.105590170004689

# Ionic positions in lattice coordinates:
ion C   0.167454248459894   0.083932301100728   0.557295694344403 1
ion C   0.084168255733299   0.167283603018563   0.442712607455854 1
ion C   0.417454248459894   0.083932301100728   0.557295694344403 1
ion C   0.334168255733299   0.167283603018563   0.442712607455854 1
ion C   0.667454248459894   0.083932301100728   0.557295694344403 1
ion C   0.584168255733299   0.167283603018563   0.442712607455854 1
ion C   0.917454248459894   0.083932301100728   0.557295694344403 1
ion C   0.834168255733299   0.167283603018563   0.442712607455854 1
ion C   0.167454248459894   0.333932301100728   0.557295694344403 1
ion C   0.084168255733299   0.417283603018563   0.442712607455854 1
ion C   0.417454248459894   0.333932301100728   0.557295694344403 1
ion C   0.334168255733299   0.417283603018563   0.442712607455854 1
ion C   0.667454248459894   0.333932301100728   0.557295694344403 1
ion C   0.584168255733299   0.417283603018563   0.442712607455854 1
ion C   0.917454248459894   0.333932301100728   0.557295694344403 1
ion C   0.834168255733299   0.417283603018563   0.442712607455854 1
ion C   0.167454248459894   0.583932301100728   0.557295694344403 1
ion C   0.084168255733299   0.667283603018563   0.442712607455854 1
ion C   0.417454248459894   0.583932301100728   0.557295694344403 1
ion C   0.334168255733299   0.667283603018563   0.442712607455854 1
ion C   0.667454248459894   0.583932301100728   0.557295694344403 1
ion C   0.584168255733299   0.667283603018563   0.442712607455854 1
ion C   0.917454248459894   0.583932301100728   0.557295694344403 1
ion C   0.834168255733299   0.667283603018563   0.442712607455854 1
ion C   0.167454248459894   0.833932301100728   0.557295694344403 1
ion C   0.084168255733299   0.917283603018563   0.442712607455854 1
ion C   0.417454248459894   0.833932301100728   0.557295694344403 1
ion C   0.334168255733299   0.917283603018563   0.442712607455854 1
ion C   0.667454248459894   0.833932301100728   0.557295694344403 1
ion C   0.584168255733299   0.917283603018563   0.442712607455854 1
ion C   0.917454248459894   0.833932301100728   0.557295694344403 1
ion C   0.834168255733299   0.917283603018563   0.442712607455854 1
ion Ti   0.000707133590249   0.000528530881105   0.500005673079691 1
ion Ti   0.084056284511458   0.167207045170162   0.617113083023031 1
ion Ti   0.167466284317293   0.083935586185678   0.382892326537440 1
ion Ti   0.250707133590249   0.000528530881105   0.500005673079691 1
ion Ti   0.334056284511458   0.167207045170162   0.617113083023031 1
ion Ti   0.417466284317293   0.083935586185678   0.382892326537440 1
ion Ti   0.500707133590249   0.000528530881105   0.500005673079691 1
ion Ti   0.584056284511458   0.167207045170162   0.617113083023031 1
ion Ti   0.667466284317293   0.083935586185678   0.382892326537440 1
ion Ti   0.750707133590249   0.000528530881105   0.500005673079691 1
ion Ti   0.834056284511458   0.167207045170162   0.617113083023031 1
ion Ti   0.917466284317293   0.083935586185678   0.382892326537440 1
ion Ti   0.000707133590249   0.250528530881105   0.500005673079691 1
ion Ti   0.084056284511458   0.417207045170162   0.617113083023031 1
ion Ti   0.167466284317293   0.333935586185678   0.382892326537440 1
ion Ti   0.250707133590249   0.250528530881105   0.500005673079691 1
ion Ti   0.334056284511458   0.417207045170162   0.617113083023031 1
ion Ti   0.417466284317293   0.333935586185678   0.382892326537440 1
ion Ti   0.500707133590249   0.250528530881105   0.500005673079691 1
ion Ti   0.584056284511458   0.417207045170162   0.617113083023031 1
ion Ti   0.667466284317293   0.333935586185678   0.382892326537440 1
ion Ti   0.750707133590249   0.250528530881105   0.500005673079691 1
ion Ti   0.834056284511458   0.417207045170162   0.617113083023031 1
ion Ti   0.917466284317293   0.333935586185678   0.382892326537440 1
ion Ti   0.000707133590249   0.500528530881105   0.500005673079691 1
ion Ti   0.084056284511458   0.667207045170162   0.617113083023031 1
ion Ti   0.167466284317293   0.583935586185678   0.382892326537440 1
ion Ti   0.250707133590249   0.500528530881105   0.500005673079691 1
ion Ti   0.334056284511458   0.667207045170162   0.617113083023031 1
ion Ti   0.417466284317293   0.583935586185678   0.382892326537440 1
ion Ti   0.500707133590249   0.500528530881105   0.500005673079691 1
ion Ti   0.584056284511458   0.667207045170162   0.617113083023031 1
ion Ti   0.667466284317293   0.583935586185678   0.382892326537440 1
ion Ti   0.750707133590249   0.500528530881105   0.500005673079691 1
ion Ti   0.834056284511458   0.667207045170162   0.617113083023031 1
ion Ti   0.917466284317293   0.583935586185678   0.382892326537440 1
ion Ti   0.000707133590249   0.750528530881105   0.500005673079691 1
ion Ti   0.084056284511458   0.917207045170162   0.617113083023031 1
ion Ti   0.167466284317293   0.833935586185678   0.382892326537440 1
ion Ti   0.250707133590249   0.750528530881105   0.500005673079691 1
ion Ti   0.334056284511458   0.917207045170162   0.617113083023031 1
ion Ti   0.417466284317293   0.833935586185678   0.382892326537440 1
ion Ti   0.500707133590249   0.750528530881105   0.500005673079691 1
ion Ti   0.584056284511458   0.917207045170162   0.617113083023031 1
ion Ti   0.667466284317293   0.833935586185678   0.382892326537440 1
ion Ti   0.750707133590249   0.750528530881105   0.500005673079691 1
ion Ti   0.834056284511458   0.917207045170162   0.617113083023031 1
ion Ti   0.917466284317293   0.833935586185678   0.382892326537440 1
ion O   0.000765137994074   0.000604888857194   0.659136780199781 1
ion O   0.000942736956232   0.000667975036571   0.340873800359799 1
ion O   0.250765137994074   0.000604888857194   0.659136780199781 1
ion O   0.250942736956232   0.000667975036571   0.340873800359799 1
ion O   0.500765137994074   0.000604888857194   0.659136780199781 1
ion O   0.500942736956232   0.000667975036571   0.340873800359799 1
ion O   0.750765137994074   0.000604888857194   0.659136780199781 1
ion O   0.750942736956232   0.000667975036571   0.340873800359799 1
ion O   0.000765137994074   0.250604888857194   0.659136780199781 1
ion O   0.000942736956232   0.250667975036571   0.340873800359799 1
ion O   0.250765137994074   0.250604888857194   0.659136780199781 1
ion O   0.250942736956232   0.250667975036571   0.340873800359799 1
ion O   0.500765137994074   0.250604888857194   0.659136780199781 1
ion O   0.500942736956232   0.250667975036571   0.340873800359799 1
ion O   0.750765137994074   0.250604888857194   0.659136780199781 1
ion O   0.750942736956232   0.250667975036571   0.340873800359799 1
ion O   0.000765137994074   0.500604888857194   0.659136780199781 1
ion O   0.000942736956232   0.500667975036571   0.340873800359799 1
ion O   0.250765137994074   0.500604888857194   0.659136780199781 1
ion O   0.250942736956232   0.500667975036571   0.340873800359799 1
ion O   0.500765137994074   0.500604888857194   0.659136780199781 1
ion O   0.500942736956232   0.500667975036571   0.340873800359799 1
ion O   0.750765137994074   0.500604888857194   0.659136780199781 1
ion O   0.750942736956232   0.500667975036571   0.340873800359799 1
ion O   0.000765137994074   0.750604888857194   0.659136780199781 1
ion O   0.000942736956232   0.750667975036571   0.340873800359799 1
ion O   0.250765137994074   0.750604888857194   0.659136780199781 1
ion O   0.250942736956232   0.750667975036571   0.340873800359799 1
ion O   0.500765137994074   0.750604888857194   0.659136780199781 1
ion O   0.500942736956232   0.750667975036571   0.340873800359799 1
ion O   0.750765137994074   0.750604888857194   0.659136780199781 1
ion O   0.750942736956232   0.750667975036571   0.340873800359799 1


# Forces in Lattice coordinates:
force C  -0.001123922962123  -0.000561718082532  -0.083440172818813 1
force C  -0.000866831470188  -0.000439876431662   0.083520621848174 1
force C  -0.001123922962123  -0.000561718082532  -0.083440172818813 1
force C  -0.000866831470188  -0.000439876431662   0.083520621848231 1
force C  -0.001123922962123  -0.000561718082532  -0.083440172818756 1
force C  -0.000866831470188  -0.000439876431662   0.083520621848174 1
force C  -0.001123922962123  -0.000561718082532  -0.083440172818756 1
force C  -0.000866831470188  -0.000439876431662   0.083520621848288 1
force C  -0.001123922962123  -0.000561718082532  -0.083440172818699 1
force C  -0.000866831470188  -0.000439876431662   0.083520621848231 1
force C  -0.001123922962123  -0.000561718082532  -0.083440172818643 1
force C  -0.000866831470188  -0.000439876431662   0.083520621848288 1
force C  -0.001123922962123  -0.000561718082532  -0.083440172818699 1
force C  -0.000866831470188  -0.000439876431662   0.083520621848174 1
force C  -0.001123922962123  -0.000561718082532  -0.083440172818699 1
force C  -0.000866831470188  -0.000439876431662   0.083520621848174 1
force C  -0.001123922962123  -0.000561718082532  -0.083440172818586 1
force C  -0.000866831470188  -0.000439876431662   0.083520621848345 1
force C  -0.001123922962123  -0.000561718082532  -0.083440172818643 1
force C  -0.000866831470188  -0.000439876431662   0.083520621848288 1
force C  -0.001123922962123  -0.000561718082532  -0.083440172818586 1
force C  -0.000866831470188  -0.000439876431662   0.083520621848345 1
force C  -0.001123922962123  -0.000561718082532  -0.083440172818529 1
force C  -0.000866831470188  -0.000439876431662   0.083520621848345 1
force C  -0.001123922962123  -0.000561718082532  -0.083440172818529 1
force C  -0.000866831470188  -0.000439876431662   0.083520621848345 1
force C  -0.001123922962123  -0.000561718082532  -0.083440172818586 1
force C  -0.000866831470188  -0.000439876431662   0.083520621848402 1
force C  -0.001123922962123  -0.000561718082532  -0.083440172818699 1
force C  -0.000866831470188  -0.000439876431662   0.083520621848402 1
force C  -0.001123922962123  -0.000561718082532  -0.083440172818643 1
force C  -0.000866831470188  -0.000439876431662   0.083520621848402 1
force Ti   0.000047925156762   0.000359177255006  -0.000460438882750 1
force Ti  -0.001247353687160   0.000300371876801   0.269758631473132 1
force Ti   0.001108220230134  -0.000408532797615  -0.268726706136602 1
force Ti   0.000047925156762   0.000359177255006  -0.000460438882750 1
force Ti  -0.001247353687160   0.000300371876801   0.269758631472677 1
force Ti   0.001108220230134  -0.000408532797615  -0.268726706137966 1
force Ti   0.000047925156762   0.000359177255006  -0.000460438882750 1
force Ti  -0.001247353687160   0.000300371876801   0.269758631472677 1
force Ti   0.001108220230134  -0.000408532797615  -0.268726706137057 1
force Ti   0.000047925156762   0.000359177255006  -0.000460438882750 1
force Ti  -0.001247353687160   0.000300371876801   0.269758631472222 1
force Ti   0.001108220230134  -0.000408532797615  -0.268726706137966 1
force Ti   0.000047925156762   0.000359177255006  -0.000460438882750 1
force Ti  -0.001247353687160   0.000300371876801   0.269758631471313 1
force Ti   0.001108220230134  -0.000408532797615  -0.268726706136602 1
force Ti   0.000047925156762   0.000359177255006  -0.000460438882750 1
force Ti  -0.001247353687160   0.000300371876801   0.269758631471313 1
force Ti   0.001108220230134  -0.000408532797615  -0.268726706136147 1
force Ti   0.000047925156762   0.000359177255006  -0.000460438882750 1
force Ti  -0.001247353687160   0.000300371876801   0.269758631471313 1
force Ti   0.001108220230134  -0.000408532797615  -0.268726706136147 1
force Ti   0.000047925156762   0.000359177255006  -0.000460438882750 1
force Ti  -0.001247353687160   0.000300371876801   0.269758631471313 1
force Ti   0.001108220230134  -0.000408532797615  -0.268726706136147 1
force Ti   0.000047925156762   0.000359177255006  -0.000460438882750 1
force Ti  -0.001247353687160   0.000300371876801   0.269758631472677 1
force Ti   0.001108220230134  -0.000408532797615  -0.268726706137966 1
force Ti   0.000047925156762   0.000359177255006  -0.000460438882750 1
force Ti  -0.001247353687160   0.000300371876801   0.269758631472677 1
force Ti   0.001108220230134  -0.000408532797615  -0.268726706137057 1
force Ti   0.000047925156762   0.000359177255006  -0.000460438882750 1
force Ti  -0.001247353687160   0.000300371876801   0.269758631472222 1
force Ti   0.001108220230134  -0.000408532797615  -0.268726706137966 1
force Ti   0.000047925156762   0.000359177255006  -0.000460438882750 1
force Ti  -0.001247353687160   0.000300371876801   0.269758631472677 1
force Ti   0.001108220230134  -0.000408532797615  -0.268726706137057 1
force Ti   0.000047925156762   0.000359177255006  -0.000460438882750 1
force Ti  -0.001247353687160   0.000300371876801   0.269758631472677 1
force Ti   0.001108220230134  -0.000408532797615  -0.268726706137057 1
force Ti   0.000047925156762   0.000359177255006  -0.000460438882750 1
force Ti  -0.001247353687160   0.000300371876801   0.269758631472677 1
force Ti   0.001108220230134  -0.000408532797615  -0.268726706137966 1
force Ti   0.000047925156762   0.000359177255006  -0.000460438882750 1
force Ti  -0.001247353687160   0.000300371876801   0.269758631472677 1
force Ti   0.001108220230134  -0.000408532797615  -0.268726706137057 1
force Ti   0.000047925156762   0.000359177255006  -0.000460438882750 1
force Ti  -0.001247353687160   0.000300371876801   0.269758631472677 1
force Ti   0.001108220230134  -0.000408532797615  -0.268726706137966 1
force O   0.000829376299560  -0.000825844922735  -0.195210620333768 1
force O  -0.003143833346834   0.000205377420742   0.193990691186816 1
force O   0.000829376299560  -0.000825844922735  -0.195210620333771 1
force O  -0.003143833346834   0.000205377420742   0.193990691187274 1
force O   0.000829376299560  -0.000825844922735  -0.195210620333771 1
force O  -0.003143833346834   0.000205377420742   0.193990691186819 1
force O   0.000829376299560  -0.000825844922735  -0.195210620334223 1
force O  -0.003143833346834   0.000205377420742   0.193990691187270 1
force O   0.000829376299560  -0.000825844922735  -0.195210620334226 1
force O  -0.003143833346834   0.000205377420742   0.193990691187267 1
force O   0.000829376299560  -0.000825844922735  -0.195210620333775 1
force O  -0.003143833346834   0.000205377420742   0.193990691187267 1
force O   0.000829376299560  -0.000825844922735  -0.195210620333771 1
force O  -0.003143833346834   0.000205377420742   0.193990691186812 1
force O   0.000829376299560  -0.000825844922735  -0.195210620333771 1
force O  -0.003143833346834   0.000205377420742   0.193990691186812 1
force O   0.000829376299560  -0.000825844922735  -0.195210620333775 1
force O  -0.003143833346834   0.000205377420742   0.193990691187725 1
force O   0.000829376299560  -0.000825844922735  -0.195210620333775 1
force O  -0.003143833346834   0.000205377420742   0.193990691187725 1
force O   0.000829376299560  -0.000825844922735  -0.195210620333775 1
force O  -0.003143833346834   0.000205377420742   0.193990691187725 1
force O   0.000829376299560  -0.000825844922735  -0.195210620333768 1
force O  -0.003143833346834   0.000205377420742   0.193990691187722 1
force O   0.000829376299560  -0.000825844922735  -0.195210620333768 1
force O  -0.003143833346834   0.000205377420742   0.193990691187274 1
force O   0.000829376299560  -0.000825844922735  -0.195210620333771 1
force O  -0.003143833346834   0.000205377420742   0.193990691187270 1
force O   0.000829376299560  -0.000825844922735  -0.195210620333313 1
force O  -0.003143833346834   0.000205377420742   0.193990691187274 1
force O   0.000829376299560  -0.000825844922735  -0.195210620334226 1
force O  -0.003143833346834   0.000205377420742   0.193990691187270 1

# Energy components:
   A_diel =        0.0808067113634336
   Eewald =    48771.7474531687985291
       EH =    51591.1927549611937138
     Eloc =  -104621.2459087843599264
      Enl =      356.3225159023745618
      Exc =     -608.1881041289049108
 Exc_core =       66.0158453988322691
       KE =      943.0752528814114157
  MuShift =        0.0239459268909682
-------------------------------------
     Etot =    -3500.9754379623946079
       TS =        0.0411640230286644
-------------------------------------
        F =    -3501.0166019854232218

IonicMinimize: Iter:   0  F: -3501.016601985423222  |grad|_K:  2.544e-03  t[s]:   6923.72

#--- Lowdin population analysis ---
# oxidation-state C -1.124 -1.124 -1.124 -1.124 -1.124 -1.124 -1.124 -1.124 -1.124 -1.124 -1.124 -1.124 -1.124 -1.124 -1.124 -1.124 -1.124 -1.124 -1.124 -1.124 -1.124 -1.124 -1.124 -1.124 -1.124 -1.124 -1.124 -1.124 -1.124 -1.124 -1.124 -1.124
# oxidation-state Ti +1.186 +1.390 +1.390 +1.186 +1.390 +1.390 +1.186 +1.390 +1.390 +1.186 +1.390 +1.390 +1.186 +1.390 +1.390 +1.186 +1.390 +1.390 +1.186 +1.390 +1.390 +1.186 +1.390 +1.390 +1.186 +1.390 +1.390 +1.186 +1.390 +1.390 +1.186 +1.390 +1.390 +1.186 +1.390 +1.390 +1.186 +1.390 +1.390 +1.186 +1.390 +1.390 +1.186 +1.390 +1.390 +1.186 +1.390 +1.390
# oxidation-state O -0.696 -0.696 -0.696 -0.696 -0.696 -0.696 -0.696 -0.696 -0.696 -0.696 -0.696 -0.696 -0.696 -0.696 -0.696 -0.696 -0.696 -0.696 -0.696 -0.696 -0.696 -0.696 -0.696 -0.696 -0.696 -0.696 -0.696 -0.696 -0.696 -0.696 -0.696 -0.696

	Linear fluid (dielectric constant: 78.4, screening length: 5.74355 Bohr) occupying 0.727605 of unit cell:	Completed after 13 iterations at t[s]:   6961.98

-------- Electronic minimization -----------
	Linear fluid (dielectric constant: 78.4, screening length: 5.74355 Bohr) occupying 0.727605 of unit cell:	Completed after 0 iterations at t[s]:   6983.25
	FillingsUpdate:  mu: -0.244224634  nElectrons: 895.000000
ElecMinimize: Iter:   0  F: -3501.017334567452053  |grad|_K:  1.593e-06  alpha:  1.000e+00
	Linear fluid (dielectric constant: 78.4, screening length: 5.74355 Bohr) occupying 0.727576 of unit cell:	Completed after 12 iterations at t[s]:   7066.22
	Linear fluid (dielectric constant: 78.4, screening length: 5.74355 Bohr) occupying 0.727591 of unit cell:	Completed after 12 iterations at t[s]:   7100.18
	FillingsUpdate:  mu: -0.247767413  nElectrons: 895.000000
	SubspaceRotationAdjust: set factor to 0.184
ElecMinimize: Iter:   1  F: -3501.017706866064145  |grad|_K:  1.032e-06  alpha:  5.014e-01  linmin:  1.027e-06  t[s]:   7144.61
	Linear fluid (dielectric constant: 78.4, screening length: 5.74355 Bohr) occupying 0.727577 of unit cell:	Completed after 5 iterations at t[s]:   7179.28
	Linear fluid (dielectric constant: 78.4, screening length: 5.74355 Bohr) occupying 0.727570 of unit cell:	Completed after 3 iterations at t[s]:   7210.66
	FillingsUpdate:  mu: -0.247773396  nElectrons: 895.000000
	SubspaceRotationAdjust: set factor to 0.267
ElecMinimize: Iter:   2  F: -3501.017952904518552  |grad|_K:  9.823e-07  alpha:  7.868e-01  linmin: -6.837e-06  t[s]:   7253.06
	Linear fluid (dielectric constant: 78.4, screening length: 5.74355 Bohr) occupying 0.727546 of unit cell:	Completed after 6 iterations at t[s]:   7287.93
	Linear fluid (dielectric constant: 78.4, screening length: 5.74355 Bohr) occupying 0.727544 of unit cell:	Completed after 3 iterations at t[s]:   7319.33
	FillingsUpdate:  mu: -0.247025344  nElectrons: 895.000000
	SubspaceRotationAdjust: set factor to 0.301
ElecMinimize: Iter:   3  F: -3501.018187354758084  |grad|_K:  8.466e-07  alpha:  8.275e-01  linmin: -4.588e-06  t[s]:   7361.97
	Linear fluid (dielectric constant: 78.4, screening length: 5.74355 Bohr) occupying 0.727525 of unit cell:	Completed after 5 iterations at t[s]:   7396.71
	Linear fluid (dielectric constant: 78.4, screening length: 5.74355 Bohr) occupying 0.727528 of unit cell:	Completed after 3 iterations at t[s]:   7427.97
	FillingsUpdate:  mu: -0.247240447  nElectrons: 895.000000
	SubspaceRotationAdjust: set factor to 0.34
ElecMinimize: Iter:   4  F: -3501.018329332008761  |grad|_K:  4.299e-07  alpha:  6.752e-01  linmin: -6.233e-07  t[s]:   7470.59
	Linear fluid (dielectric constant: 78.4, screening length: 5.74355 Bohr) occupying 0.727527 of unit cell:	Completed after 2 iterations at t[s]:   7505.16
	Linear fluid (dielectric constant: 78.4, screening length: 5.74355 Bohr) occupying 0.727527 of unit cell:	Completed after 2 iterations at t[s]:   7536.20
	FillingsUpdate:  mu: -0.247250880  nElectrons: 895.000000
	SubspaceRotationAdjust: set factor to 0.342
ElecMinimize: Iter:   5  F: -3501.018356447804763  |grad|_K:  2.336e-07  alpha:  5.001e-01  linmin:  2.709e-06  t[s]:   7578.64
	Linear fluid (dielectric constant: 78.4, screening length: 5.74355 Bohr) occupying 0.727529 of unit cell:	Completed after 3 iterations at t[s]:   7613.04
	Linear fluid (dielectric constant: 78.4, screening length: 5.74355 Bohr) occupying 0.727529 of unit cell:	Completed after 0 iterations at t[s]:   7643.56
	FillingsUpdate:  mu: -0.247213608  nElectrons: 895.000000
	SubspaceRotationAdjust: set factor to 0.347
ElecMinimize: Iter:   6  F: -3501.018362990205333  |grad|_K:  1.274e-07  alpha:  4.082e-01  linmin:  1.461e-05  t[s]:   7685.23
	Linear fluid (dielectric constant: 78.4, screening length: 5.74355 Bohr) occupying 0.727530 of unit cell:	Completed after 1 iterations at t[s]:   7719.64
	Linear fluid (dielectric constant: 78.4, screening length: 5.74355 Bohr) occupying 0.727530 of unit cell:	Completed after 0 iterations at t[s]:   7749.73
	FillingsUpdate:  mu: -0.247225655  nElectrons: 895.000000
	SubspaceRotationAdjust: set factor to 0.361
ElecMinimize: Iter:   7  F: -3501.018365258296399  |grad|_K:  5.878e-08  alpha:  4.799e-01  linmin: -2.214e-05  t[s]:   7791.48
	Linear fluid (dielectric constant: 78.4, screening length: 5.74355 Bohr) occupying 0.727531 of unit cell:	Completed after 0 iterations at t[s]:   7825.53
	Linear fluid (dielectric constant: 78.4, screening length: 5.74355 Bohr) occupying 0.727531 of unit cell:	Completed after 0 iterations at t[s]:   7855.27
	FillingsUpdate:  mu: -0.247225392  nElectrons: 895.000000
	SubspaceRotationAdjust: set factor to 0.382
ElecMinimize: Iter:   8  F: -3501.018365905807514  |grad|_K:  3.937e-08  alpha:  6.166e-01  linmin: -2.708e-08  t[s]:   7896.82
	Linear fluid (dielectric constant: 78.4, screening length: 5.74355 Bohr) occupying 0.727531 of unit cell:	Completed after 2 iterations at t[s]:   7931.32
	Linear fluid (dielectric constant: 78.4, screening length: 5.74355 Bohr) occupying 0.727531 of unit cell:	Completed after 0 iterations at t[s]:   7961.59
	FillingsUpdate:  mu: -0.247213617  nElectrons: 895.000000
	SubspaceRotationAdjust: set factor to 0.394
ElecMinimize: Iter:   9  F: -3501.018366046605934  |grad|_K:  2.578e-08  alpha:  3.597e-01  linmin: -4.162e-06  t[s]:   8003.15
	Linear fluid (dielectric constant: 78.4, screening length: 5.74355 Bohr) occupying 0.727531 of unit cell:	Completed after 0 iterations at t[s]:   8037.25
	Linear fluid (dielectric constant: 78.4, screening length: 5.74355 Bohr) occupying 0.727531 of unit cell:	Completed after 0 iterations at t[s]:   8066.94
	FillingsUpdate:  mu: -0.247213665  nElectrons: 895.000000
	SubspaceRotationAdjust: set factor to 0.493
ElecMinimize: Iter:  10  F: -3501.018366139728641  |grad|_K:  1.957e-08  alpha:  4.635e-01  linmin: -6.526e-08  t[s]:   8108.59
	Linear fluid (dielectric constant: 78.4, screening length: 5.74355 Bohr) occupying 0.727531 of unit cell:	Completed after 2 iterations at t[s]:   8143.03
	Linear fluid (dielectric constant: 78.4, screening length: 5.74355 Bohr) occupying 0.727531 of unit cell:	Completed after 0 iterations at t[s]:   8173.47
ElecMinimize: 	Step increased F by 3.395871e-08, reducing alpha to 1.000279e-02.
	Linear fluid (dielectric constant: 78.4, screening length: 5.74355 Bohr) occupying 0.727531 of unit cell:	Completed after 0 iterations at t[s]:   8240.33
ElecMinimize: 	Step increased F by 1.842227e-08, reducing alpha to 1.000279e-03.
	Linear fluid (dielectric constant: 78.4, screening length: 5.74355 Bohr) occupying 0.727531 of unit cell:	Completed after 0 iterations at t[s]:   8306.92
ElecMinimize: 	Step increased F by 1.714398e-08, reducing alpha to 1.000279e-04.
ElecMinimize: 	Step failed to reduce F after 3 attempts. Quitting step.
ElecMinimize: 	Undoing step.
	Linear fluid (dielectric constant: 78.4, screening length: 5.74355 Bohr) occupying 0.727531 of unit cell:	Completed after 0 iterations at t[s]:   8373.58
ElecMinimize: 	Step failed: resetting search direction.
	FillingsUpdate:  mu: -0.247230467  nElectrons: 895.000000
	SubspaceRotationAdjust: set factor to 0.436
ElecMinimize: Iter:  11  F: -3501.018366122680163  |grad|_K:  3.594e-08  alpha:  1.000e-04
	Linear fluid (dielectric constant: 78.4, screening length: 5.74355 Bohr) occupying 0.727531 of unit cell:	Completed after 3 iterations at t[s]:   8449.82
	Linear fluid (dielectric constant: 78.4, screening length: 5.74355 Bohr) occupying 0.727531 of unit cell:	Completed after 1 iterations at t[s]:   8480.50
	FillingsUpdate:  mu: -0.247187028  nElectrons: 895.000000
	SubspaceRotationAdjust: set factor to 0.219
ElecMinimize: Iter:  12  F: -3501.018366122837506  |grad|_K:  2.225e-08  alpha:  1.380e-01  linmin:  1.142e-04  t[s]:   8522.47
	Linear fluid (dielectric constant: 78.4, screening length: 5.74355 Bohr) occupying 0.727531 of unit cell:	Completed after 0 iterations at t[s]:   8556.60
ElecMinimize: 	Predicted alpha/alphaT>3.000000, increasing alphaT to 4.138901e-01.
	Linear fluid (dielectric constant: 78.4, screening length: 5.74355 Bohr) occupying 0.727531 of unit cell:	Completed after 0 iterations at t[s]:   8586.03
	Linear fluid (dielectric constant: 78.4, screening length: 5.74355 Bohr) occupying 0.727531 of unit cell:	Completed after 0 iterations at t[s]:   8615.69
	FillingsUpdate:  mu: -0.247187032  nElectrons: 895.000000
	SubspaceRotationAdjust: set factor to 0.323
ElecMinimize: Iter:  13  F: -3501.018366166073974  |grad|_K:  2.106e-08  alpha:  4.463e-01  linmin: -1.179e-07  t[s]:   8657.20
	Linear fluid (dielectric constant: 78.4, screening length: 5.74355 Bohr) occupying 0.727531 of unit cell:	Completed after 2 iterations at t[s]:   8691.52
	Linear fluid (dielectric constant: 78.4, screening length: 5.74355 Bohr) occupying 0.727531 of unit cell:	Completed after 1 iterations at t[s]:   8722.04
ElecMinimize: 	Step increased F by 4.325693e-08, reducing alpha to 9.333640e-03.
	Linear fluid (dielectric constant: 78.4, screening length: 5.74355 Bohr) occupying 0.727531 of unit cell:	Completed after 0 iterations at t[s]:   8788.91
ElecMinimize: 	Step increased F by 1.845956e-08, reducing alpha to 9.333640e-04.
	Linear fluid (dielectric constant: 78.4, screening length: 5.74355 Bohr) occupying 0.727531 of unit cell:	Completed after 0 iterations at t[s]:   8855.77
ElecMinimize: 	Step increased F by 1.615990e-08, reducing alpha to 9.333640e-05.
ElecMinimize: 	Step failed to reduce F after 3 attempts. Quitting step.
ElecMinimize: 	Undoing step.
	Linear fluid (dielectric constant: 78.4, screening length: 5.74355 Bohr) occupying 0.727531 of unit cell:	Completed after 0 iterations at t[s]:   8922.34
ElecMinimize: 	Step failed: resetting search direction.
	FillingsUpdate:  mu: -0.247246000  nElectrons: 895.000000
	SubspaceRotationAdjust: set factor to 0.255
ElecMinimize: Iter:  14  F: -3501.018366149916801  |grad|_K:  3.191e-08  alpha:  9.334e-05
	Linear fluid (dielectric constant: 78.4, screening length: 5.74355 Bohr) occupying 0.727531 of unit cell:	Completed after 2 iterations at t[s]:   8998.35
	Linear fluid (dielectric constant: 78.4, screening length: 5.74355 Bohr) occupying 0.727531 of unit cell:	Completed after 0 iterations at t[s]:   9028.82
	FillingsUpdate:  mu: -0.247183991  nElectrons: 895.000000
	SubspaceRotationAdjust: set factor to 0.142
ElecMinimize: Iter:  15  F: -3501.018366175407209  |grad|_K:  3.140e-08  alpha:  1.469e-01  linmin:  2.558e-04  t[s]:   9070.76
	Linear fluid (dielectric constant: 78.4, screening length: 5.74355 Bohr) occupying 0.727531 of unit cell:	Completed after 0 iterations at t[s]:   9104.80
	Linear fluid (dielectric constant: 78.4, screening length: 5.74355 Bohr) occupying 0.727531 of unit cell:	Completed after 0 iterations at t[s]:   9134.51
	FillingsUpdate:  mu: -0.247184017  nElectrons: 895.000000
	SubspaceRotationAdjust: set factor to 0.123
ElecMinimize: Iter:  16  F: -3501.018366184477145  |grad|_K:  2.511e-08  alpha:  1.247e-01  linmin:  2.456e-07  t[s]:   9176.33
	Linear fluid (dielectric constant: 78.4, screening length: 5.74355 Bohr) occupying 0.727531 of unit cell:	Completed after 2 iterations at t[s]:   9210.85
	Linear fluid (dielectric constant: 78.4, screening length: 5.74355 Bohr) occupying 0.727531 of unit cell:	Completed after 0 iterations at t[s]:   9241.16
ElecMinimize: 	Step increased F by 4.675121e-08, reducing alpha to 2.940595e-03.
	Linear fluid (dielectric constant: 78.4, screening length: 5.74355 Bohr) occupying 0.727531 of unit cell:	Completed after 0 iterations at t[s]:   9307.94
ElecMinimize: 	Step increased F by 4.629828e-08, reducing alpha to 2.940595e-04.
	Linear fluid (dielectric constant: 78.4, screening length: 5.74355 Bohr) occupying 0.727531 of unit cell:	Completed after 0 iterations at t[s]:   9374.91
ElecMinimize: 	Step increased F by 4.636377e-08, reducing alpha to 2.940595e-05.
ElecMinimize: 	Step failed to reduce F after 3 attempts. Quitting step.
ElecMinimize: 	Undoing step.
	Linear fluid (dielectric constant: 78.4, screening length: 5.74355 Bohr) occupying 0.727531 of unit cell:	Completed after 0 iterations at t[s]:   9441.58
ElecMinimize: 	Step failed: resetting search direction.
	FillingsUpdate:  mu: -0.247195941  nElectrons: 895.000000
	SubspaceRotationAdjust: set factor to 0.234
ElecMinimize: Iter:  17  F: -3501.018366138108377  |grad|_K:  7.945e-09  alpha:  2.941e-05
	Linear fluid (dielectric constant: 78.4, screening length: 5.74355 Bohr) occupying 0.727531 of unit cell:	Completed after 0 iterations at t[s]:   9517.23
ElecMinimize: 	Predicted alpha/alphaT>3.000000, increasing alphaT to 3.742170e-01.
	Linear fluid (dielectric constant: 78.4, screening length: 5.74355 Bohr) occupying 0.727531 of unit cell:	Completed after 0 iterations at t[s]:   9546.70
	Linear fluid (dielectric constant: 78.4, screening length: 5.74355 Bohr) occupying 0.727531 of unit cell:	Completed after 0 iterations at t[s]:   9576.44
	FillingsUpdate:  mu: -0.247195932  nElectrons: 895.000000
	SubspaceRotationAdjust: set factor to 0.254
ElecMinimize: Iter:  18  F: -3501.018366144734955  |grad|_K:  6.034e-09  alpha:  3.551e-01  linmin:  1.881e-07  t[s]:   9618.25
	Linear fluid (dielectric constant: 78.4, screening length: 5.74355 Bohr) occupying 0.727531 of unit cell:	Completed after 0 iterations at t[s]:   9652.29
	Linear fluid (dielectric constant: 78.4, screening length: 5.74355 Bohr) occupying 0.727530 of unit cell:	Completed after 0 iterations at t[s]:   9681.92
	FillingsUpdate:  mu: -0.247195883  nElectrons: 895.000000
	SubspaceRotationAdjust: set factor to 0.331
ElecMinimize: Iter:  19  F: -3501.018366154843534  |grad|_K:  6.878e-09  alpha:  9.541e-01  linmin:  1.805e-07  t[s]:   9723.58
	Linear fluid (dielectric constant: 78.4, screening length: 5.74355 Bohr) occupying 0.727530 of unit cell:	Completed after 3 iterations at t[s]:   9758.06
	Linear fluid (dielectric constant: 78.4, screening length: 5.74355 Bohr) occupying 0.727530 of unit cell:	Completed after 0 iterations at t[s]:   9788.66
	FillingsUpdate:  mu: -0.247273312  nElectrons: 895.000000
	SubspaceRotationAdjust: set factor to 0.243
ElecMinimize: Iter:  20  F: -3501.018366157312812  |grad|_K:  4.014e-08  alpha:  6.275e-02  linmin:  4.047e-05  t[s]:   9830.55
ElecMinimize: 	Bad step direction: g.d > 0.
ElecMinimize: 	Undoing step.
	Linear fluid (dielectric constant: 78.4, screening length: 5.74355 Bohr) occupying 0.727530 of unit cell:	Completed after 0 iterations at t[s]:   9864.67
ElecMinimize: 	Step failed: resetting search direction.
	FillingsUpdate:  mu: -0.247273312  nElectrons: 895.000000
	SubspaceRotationAdjust: set factor to 0.199
ElecMinimize: Iter:  21  F: -3501.018366157296896  |grad|_K:  3.633e-08  alpha:  0.000e+00
	Linear fluid (dielectric constant: 78.4, screening length: 5.74355 Bohr) occupying 0.727530 of unit cell:	Completed after 0 iterations at t[s]:   9940.22
ElecMinimize: 	Predicted alpha/alphaT>3.000000, increasing alphaT to 1.882443e-01.
	Linear fluid (dielectric constant: 78.4, screening length: 5.74355 Bohr) occupying 0.727530 of unit cell:	Completed after 1 iterations at t[s]:   9969.81
[...]
	Linear fluid (dielectric constant: 78.4, screening length: 5.74355 Bohr) occupying 0.727657 of unit cell:	Completed after 2 iterations at t[s]:  14168.45
	Linear fluid (dielectric constant: 78.4, screening length: 5.74355 Bohr) occupying 0.727657 of unit cell:	Completed after 0 iterations at t[s]:  14198.81
ElecMinimize: 	Step increased F by 1.816261e-09, reducing alpha to 5.415707e-03.
	Linear fluid (dielectric constant: 78.4, screening length: 5.74355 Bohr) occupying 0.727657 of unit cell:	Completed after 0 iterations at t[s]:  14265.40
	FillingsUpdate:  mu: -0.243500995  nElectrons: 895.000000
	SubspaceRotationAdjust: set factor to 0.24
ElecMinimize: Iter:   8  F: -3501.019516941887105  |grad|_K:  2.927e-08  alpha:  5.416e-03  linmin:  1.317e-04  t[s]:  14307.10
ElecMinimize: 	Bad step direction: g.d > 0.
ElecMinimize: 	Undoing step.
	Linear fluid (dielectric constant: 78.4, screening length: 5.74355 Bohr) occupying 0.727657 of unit cell:	Completed after 0 iterations at t[s]:  14341.16
ElecMinimize: 	Step failed: resetting search direction.
	FillingsUpdate:  mu: -0.243500995  nElectrons: 895.000000
	SubspaceRotationAdjust: set factor to 0.311
ElecMinimize: Iter:   9  F: -3501.019516941916208  |grad|_K:  2.841e-08  alpha:  0.000e+00
	Linear fluid (dielectric constant: 78.4, screening length: 5.74355 Bohr) occupying 0.727657 of unit cell:	Completed after 0 iterations at t[s]:  14416.68
ElecMinimize: 	Predicted alpha/alphaT>3.000000, increasing alphaT to 1.624712e-02.
	Linear fluid (dielectric constant: 78.4, screening length: 5.74355 Bohr) occupying 0.727657 of unit cell:	Completed after 0 iterations at t[s]:  14446.10
ElecMinimize: 	Predicted alpha/alphaT>3.000000, increasing alphaT to 4.874136e-02.
	Linear fluid (dielectric constant: 78.4, screening length: 5.74355 Bohr) occupying 0.727657 of unit cell:	Completed after 0 iterations at t[s]:  14475.62
	Linear fluid (dielectric constant: 78.4, screening length: 5.74355 Bohr) occupying 0.727657 of unit cell:	Completed after 0 iterations at t[s]:  14505.38
	FillingsUpdate:  mu: -0.243502229  nElectrons: 895.000000
	SubspaceRotationAdjust: set factor to 0.388
ElecMinimize: Iter:  10  F: -3501.019516948916589  |grad|_K:  2.535e-08  alpha:  4.230e-02  linmin: -7.209e-04  t[s]:  14547.02
ElecMinimize: Converged (|Delta F|<1.000000e-08 for 2 iters).
Setting wave functions to eigenvectors of Hamiltonian

# Ionic positions in lattice coordinates:
ion C   0.167448264822592   0.083926180722958   0.557216967656342 1
ion C   0.084163526340965   0.167279663114421   0.442791316336794 1
ion C   0.417448264822592   0.083926180722958   0.557216967656342 1
ion C   0.334163526340965   0.167279663114421   0.442791316336794 1
ion C   0.667448264822592   0.083926180722958   0.557216967656342 1
ion C   0.584163526340965   0.167279663114421   0.442791316336794 1
ion C   0.917448264822592   0.083926180722958   0.557216967656342 1
ion C   0.834163526340965   0.167279663114421   0.442791316336794 1
ion C   0.167448264822592   0.333926180722958   0.557216967656342 1
ion C   0.084163526340965   0.417279663114421   0.442791316336794 1
ion C   0.417448264822592   0.333926180722958   0.557216967656342 1
ion C   0.334163526340965   0.417279663114421   0.442791316336794 1
ion C   0.667448264822592   0.333926180722958   0.557216967656342 1
ion C   0.584163526340965   0.417279663114421   0.442791316336794 1
ion C   0.917448264822592   0.333926180722958   0.557216967656342 1
ion C   0.834163526340965   0.417279663114421   0.442791316336794 1
ion C   0.167448264822592   0.583926180722958   0.557216967656342 1
ion C   0.084163526340965   0.667279663114421   0.442791316336794 1
ion C   0.417448264822592   0.583926180722958   0.557216967656342 1
ion C   0.334163526340965   0.667279663114421   0.442791316336794 1
ion C   0.667448264822592   0.583926180722958   0.557216967656342 1
ion C   0.584163526340965   0.667279663114421   0.442791316336794 1
ion C   0.917448264822592   0.583926180722958   0.557216967656342 1
ion C   0.834163526340965   0.667279663114421   0.442791316336794 1
ion C   0.167448264822592   0.833926180722958   0.557216967656342 1
ion C   0.084163526340965   0.917279663114421   0.442791316336794 1
ion C   0.417448264822592   0.833926180722958   0.557216967656342 1
ion C   0.334163526340965   0.917279663114421   0.442791316336794 1
ion C   0.667448264822592   0.833926180722958   0.557216967656342 1
ion C   0.584163526340965   0.917279663114421   0.442791316336794 1
ion C   0.917448264822592   0.833926180722958   0.557216967656342 1
ion C   0.834163526340965   0.917279663114421   0.442791316336794 1
ion Ti   0.000722323861125   0.000542489571183   0.500005099015999 1
ion Ti   0.084050194458047   0.167208728641077   0.617507468105582 1
ion Ti   0.167487229441386   0.083942460172556   0.382501330920920 1
ion Ti   0.250722323861125   0.000542489571183   0.500005099015999 1
ion Ti   0.334050194458047   0.167208728641077   0.617507468105582 1
ion Ti   0.417487229441386   0.083942460172556   0.382501330920920 1
ion Ti   0.500722323861125   0.000542489571183   0.500005099015999 1
ion Ti   0.584050194458047   0.167208728641077   0.617507468105582 1
ion Ti   0.667487229441386   0.083942460172556   0.382501330920920 1
ion Ti   0.750722323861125   0.000542489571183   0.500005099015999 1
ion Ti   0.834050194458047   0.167208728641077   0.617507468105582 1
ion Ti   0.917487229441386   0.083942460172556   0.382501330920920 1
ion Ti   0.000722323861125   0.250542489571183   0.500005099015999 1
ion Ti   0.084050194458047   0.417208728641077   0.617507468105582 1
ion Ti   0.167487229441386   0.333942460172556   0.382501330920920 1
ion Ti   0.250722323861125   0.250542489571183   0.500005099015999 1
ion Ti   0.334050194458047   0.417208728641077   0.617507468105582 1
ion Ti   0.417487229441386   0.333942460172556   0.382501330920920 1
ion Ti   0.500722323861125   0.250542489571183   0.500005099015999 1
ion Ti   0.584050194458047   0.417208728641077   0.617507468105582 1
ion Ti   0.667487229441386   0.333942460172556   0.382501330920920 1
ion Ti   0.750722323861125   0.250542489571183   0.500005099015999 1
ion Ti   0.834050194458047   0.417208728641077   0.617507468105582 1
ion Ti   0.917487229441386   0.333942460172556   0.382501330920920 1
ion Ti   0.000722323861125   0.500542489571183   0.500005099015999 1
ion Ti   0.084050194458047   0.667208728641077   0.617507468105582 1
ion Ti   0.167487229441386   0.583942460172556   0.382501330920920 1
ion Ti   0.250722323861125   0.500542489571183   0.500005099015999 1
ion Ti   0.334050194458047   0.667208728641077   0.617507468105582 1
ion Ti   0.417487229441386   0.583942460172556   0.382501330920920 1
ion Ti   0.500722323861125   0.500542489571183   0.500005099015999 1
ion Ti   0.584050194458047   0.667208728641077   0.617507468105582 1
ion Ti   0.667487229441386   0.583942460172556   0.382501330920920 1
ion Ti   0.750722323861125   0.500542489571183   0.500005099015999 1
ion Ti   0.834050194458047   0.667208728641077   0.617507468105582 1
ion Ti   0.917487229441386   0.583942460172556   0.382501330920920 1
ion Ti   0.000722323861125   0.750542489571183   0.500005099015999 1
ion Ti   0.084050194458047   0.917208728641077   0.617507468105582 1
ion Ti   0.167487229441386   0.833942460172556   0.382501330920920 1
ion Ti   0.250722323861125   0.750542489571183   0.500005099015999 1
ion Ti   0.334050194458047   0.917208728641077   0.617507468105582 1
ion Ti   0.417487229441386   0.833942460172556   0.382501330920920 1
ion Ti   0.500722323861125   0.750542489571183   0.500005099015999 1
ion Ti   0.584050194458047   0.917208728641077   0.617507468105582 1
ion Ti   0.667487229441386   0.833942460172556   0.382501330920920 1
ion Ti   0.750722323861125   0.750542489571183   0.500005099015999 1
ion Ti   0.834050194458047   0.917208728641077   0.617507468105582 1
ion Ti   0.917487229441386   0.833942460172556   0.382501330920920 1
ion O   0.000782981875297   0.000606107574359   0.658779223202480 1
ion O   0.000905560763087   0.000654300453447   0.341228559761883 1
ion O   0.250782981875297   0.000606107574359   0.658779223202480 1
ion O   0.250905560763087   0.000654300453447   0.341228559761883 1
ion O   0.500782981875297   0.000606107574359   0.658779223202480 1
ion O   0.500905560763087   0.000654300453447   0.341228559761883 1
ion O   0.750782981875297   0.000606107574359   0.658779223202480 1
ion O   0.750905560763087   0.000654300453447   0.341228559761883 1
ion O   0.000782981875297   0.250606107574359   0.658779223202480 1
ion O   0.000905560763087   0.250654300453447   0.341228559761883 1
ion O   0.250782981875297   0.250606107574359   0.658779223202480 1
ion O   0.250905560763087   0.250654300453447   0.341228559761883 1
ion O   0.500782981875297   0.250606107574359   0.658779223202480 1
ion O   0.500905560763087   0.250654300453447   0.341228559761883 1
ion O   0.750782981875297   0.250606107574359   0.658779223202480 1
ion O   0.750905560763087   0.250654300453447   0.341228559761883 1
ion O   0.000782981875297   0.500606107574359   0.658779223202480 1
ion O   0.000905560763087   0.500654300453447   0.341228559761883 1
ion O   0.250782981875297   0.500606107574359   0.658779223202480 1
ion O   0.250905560763087   0.500654300453447   0.341228559761883 1
ion O   0.500782981875297   0.500606107574359   0.658779223202480 1
ion O   0.500905560763087   0.500654300453447   0.341228559761883 1
ion O   0.750782981875297   0.500606107574359   0.658779223202480 1
ion O   0.750905560763087   0.500654300453447   0.341228559761883 1
ion O   0.000782981875297   0.750606107574359   0.658779223202480 1
ion O   0.000905560763087   0.750654300453447   0.341228559761883 1
ion O   0.250782981875297   0.750606107574359   0.658779223202480 1
ion O   0.250905560763087   0.750654300453447   0.341228559761883 1
ion O   0.500782981875297   0.750606107574359   0.658779223202480 1
ion O   0.500905560763087   0.750654300453447   0.341228559761883 1
ion O   0.750782981875297   0.750606107574359   0.658779223202480 1
ion O   0.750905560763087   0.750654300453447   0.341228559761883 1


# Forces in Lattice coordinates:
force C  -0.000637003839961  -0.000329725482581  -0.000079860411943 1
force C  -0.000897866318091  -0.000238705831958   0.000255768741590 1
force C  -0.000637003839961  -0.000329725482581  -0.000079860411886 1
force C  -0.000897866318091  -0.000238705831958   0.000255768741647 1
force C  -0.000637003839961  -0.000329725482581  -0.000079860411999 1
force C  -0.000897866318091  -0.000238705831958   0.000255768741647 1
force C  -0.000637003839961  -0.000329725482581  -0.000079860411886 1
force C  -0.000897866318091  -0.000238705831958   0.000255768741590 1
force C  -0.000637003839961  -0.000329725482581  -0.000079860411943 1
force C  -0.000897866318091  -0.000238705831958   0.000255768741590 1
force C  -0.000637003839961  -0.000329725482581  -0.000079860412056 1
force C  -0.000897866318091  -0.000238705831958   0.000255768741534 1
force C  -0.000637003839961  -0.000329725482581  -0.000079860411999 1
force C  -0.000897866318091  -0.000238705831958   0.000255768741590 1
force C  -0.000637003839961  -0.000329725482581  -0.000079860411943 1
force C  -0.000897866318091  -0.000238705831958   0.000255768741590 1
force C  -0.000637003839961  -0.000329725482581  -0.000079860412056 1
force C  -0.000897866318091  -0.000238705831958   0.000255768741647 1
force C  -0.000637003839961  -0.000329725482581  -0.000079860412056 1
force C  -0.000897866318091  -0.000238705831958   0.000255768741590 1
force C  -0.000637003839961  -0.000329725482581  -0.000079860411999 1
force C  -0.000897866318091  -0.000238705831958   0.000255768741647 1
force C  -0.000637003839961  -0.000329725482581  -0.000079860411943 1
force C  -0.000897866318091  -0.000238705831958   0.000255768741590 1
force C  -0.000637003839961  -0.000329725482581  -0.000079860411999 1
force C  -0.000897866318091  -0.000238705831958   0.000255768741647 1
force C  -0.000637003839961  -0.000329725482581  -0.000079860411943 1
force C  -0.000897866318091  -0.000238705831958   0.000255768741534 1
force C  -0.000637003839961  -0.000329725482581  -0.000079860411943 1
force C  -0.000897866318091  -0.000238705831958   0.000255768741590 1
force C  -0.000637003839961  -0.000329725482581  -0.000079860411943 1
force C  -0.000897866318091  -0.000238705831958   0.000255768741534 1
force Ti  -0.000395278129867  -0.000031965683545   0.000146152507842 1
force Ti  -0.000846425351068  -0.000144294508192  -0.008146469729692 1
force Ti  -0.000340516669989  -0.000426801239699   0.008195667471943 1
force Ti  -0.000395278129867  -0.000031965683545   0.000146152507842 1
force Ti  -0.000846425351068  -0.000144294508192  -0.008146469729693 1
force Ti  -0.000340516669989  -0.000426801239699   0.008195667472398 1
force Ti  -0.000395278129867  -0.000031965683545   0.000146152507842 1
force Ti  -0.000846425351068  -0.000144294508192  -0.008146469729693 1
force Ti  -0.000340516669989  -0.000426801239699   0.008195667472398 1
force Ti  -0.000395278129867  -0.000031965683545   0.000146152507842 1
force Ti  -0.000846425351068  -0.000144294508192  -0.008146469730147 1
force Ti  -0.000340516669989  -0.000426801239699   0.008195667472398 1
force Ti  -0.000395278129867  -0.000031965683545   0.000146152507842 1
force Ti  -0.000846425351068  -0.000144294508192  -0.008146469730602 1
force Ti  -0.000340516669989  -0.000426801239699   0.008195667472398 1
force Ti  -0.000395278129867  -0.000031965683545   0.000146152507842 1
force Ti  -0.000846425351068  -0.000144294508192  -0.008146469730148 1
force Ti  -0.000340516669989  -0.000426801239699   0.008195667472853 1
force Ti  -0.000395278129867  -0.000031965683545   0.000146152507842 1
force Ti  -0.000846425351068  -0.000144294508192  -0.008146469730602 1
force Ti  -0.000340516669989  -0.000426801239699   0.008195667472853 1
force Ti  -0.000395278129867  -0.000031965683545   0.000146152507842 1
force Ti  -0.000846425351068  -0.000144294508192  -0.008146469730602 1
force Ti  -0.000340516669989  -0.000426801239699   0.008195667471944 1
force Ti  -0.000395278129867  -0.000031965683545   0.000146152507842 1
force Ti  -0.000846425351068  -0.000144294508192  -0.008146469731057 1
force Ti  -0.000340516669989  -0.000426801239699   0.008195667472853 1
force Ti  -0.000395278129867  -0.000031965683545   0.000146152507842 1
force Ti  -0.000846425351068  -0.000144294508192  -0.008146469730147 1
force Ti  -0.000340516669989  -0.000426801239699   0.008195667472853 1
force Ti  -0.000395278129867  -0.000031965683545   0.000146152507842 1
force Ti  -0.000846425351068  -0.000144294508192  -0.008146469730602 1
force Ti  -0.000340516669989  -0.000426801239699   0.008195667472398 1
force Ti  -0.000395278129867  -0.000031965683545   0.000146152507842 1
force Ti  -0.000846425351068  -0.000144294508192  -0.008146469730602 1
force Ti  -0.000340516669989  -0.000426801239699   0.008195667472398 1
force Ti  -0.000395278129867  -0.000031965683545   0.000146152507842 1
force Ti  -0.000846425351068  -0.000144294508192  -0.008146469729238 1
force Ti  -0.000340516669989  -0.000426801239699   0.008195667472398 1
force Ti  -0.000395278129867  -0.000031965683545   0.000146152507842 1
force Ti  -0.000846425351068  -0.000144294508192  -0.008146469729238 1
force Ti  -0.000340516669989  -0.000426801239699   0.008195667472853 1
force Ti  -0.000395278129867  -0.000031965683545   0.000146152507842 1
force Ti  -0.000846425351068  -0.000144294508192  -0.008146469729238 1
force Ti  -0.000340516669989  -0.000426801239699   0.008195667472853 1
force Ti  -0.000395278129867  -0.000031965683545   0.000146152507842 1
force Ti  -0.000846425351068  -0.000144294508192  -0.008146469729693 1
force Ti  -0.000340516669989  -0.000426801239699   0.008195667472853 1
force O  -0.000250434433956  -0.000508262837702  -0.006390698846356 1
force O  -0.001616960304220  -0.000165608614340   0.006569316913811 1
force O  -0.000250434433956  -0.000508262837702  -0.006390698846356 1
force O  -0.001616960304220  -0.000165608614340   0.006569316913811 1
force O  -0.000250434433956  -0.000508262837702  -0.006390698846353 1
force O  -0.001616960304220  -0.000165608614340   0.006569316913819 1
force O  -0.000250434433956  -0.000508262837702  -0.006390698846356 1
force O  -0.001616960304220  -0.000165608614340   0.006569316913815 1
force O  -0.000250434433956  -0.000508262837702  -0.006390698845898 1
force O  -0.001616960304220  -0.000165608614340   0.006569316913815 1
force O  -0.000250434433956  -0.000508262837702  -0.006390698845902 1
force O  -0.001616960304220  -0.000165608614340   0.006569316913819 1
force O  -0.000250434433956  -0.000508262837702  -0.006390698845902 1
force O  -0.001616960304220  -0.000165608614340   0.006569316914273 1
force O  -0.000250434433956  -0.000508262837702  -0.006390698845898 1
force O  -0.001616960304220  -0.000165608614340   0.006569316913815 1
force O  -0.000250434433956  -0.000508262837702  -0.006390698845898 1
force O  -0.001616960304220  -0.000165608614340   0.006569316913819 1
force O  -0.000250434433956  -0.000508262837702  -0.006390698845898 1
force O  -0.001616960304220  -0.000165608614340   0.006569316913815 1
force O  -0.000250434433956  -0.000508262837702  -0.006390698845902 1
force O  -0.001616960304220  -0.000165608614340   0.006569316913360 1
force O  -0.000250434433956  -0.000508262837702  -0.006390698845895 1
force O  -0.001616960304220  -0.000165608614340   0.006569316913819 1
force O  -0.000250434433956  -0.000508262837702  -0.006390698846353 1
force O  -0.001616960304220  -0.000165608614340   0.006569316913360 1
force O  -0.000250434433956  -0.000508262837702  -0.006390698845898 1
force O  -0.001616960304220  -0.000165608614340   0.006569316913360 1
force O  -0.000250434433956  -0.000508262837702  -0.006390698846349 1
force O  -0.001616960304220  -0.000165608614340   0.006569316913360 1
force O  -0.000250434433956  -0.000508262837702  -0.006390698845902 1
force O  -0.001616960304220  -0.000165608614340   0.006569316913360 1

# Energy components:
   A_diel =        0.0796201519694488
   Eewald =    48760.0999348310870118
       EH =    51582.2256138913362520
     Eloc =  -104600.8770131573255640
      Enl =      356.3852664141894593
      Exc =     -608.2943900731947906
 Exc_core =       66.0165638018454786
       KE =      943.3618336034701315
  MuShift =        0.0239459268909682
-------------------------------------
     Etot =    -3500.9786246097310141
       TS =        0.0408923391857742
-------------------------------------
        F =    -3501.0195169489165892

IonicMinimize: Iter:   3  F: -3501.019516948916589  |grad|_K:  7.847e-05  alpha:  1.000e+00  linmin: -8.335e-01  t[s]:  14574.25
IonicMinimize: Converged (|grad|_K<1.000000e-04).

#--- Lowdin population analysis ---
# oxidation-state C -1.123 -1.123 -1.123 -1.123 -1.123 -1.123 -1.123 -1.123 -1.123 -1.123 -1.123 -1.123 -1.123 -1.123 -1.123 -1.123 -1.123 -1.123 -1.123 -1.123 -1.123 -1.123 -1.123 -1.123 -1.123 -1.123 -1.123 -1.123 -1.123 -1.123 -1.123 -1.123
# oxidation-state Ti +1.188 +1.389 +1.389 +1.188 +1.389 +1.389 +1.188 +1.389 +1.389 +1.188 +1.389 +1.389 +1.188 +1.389 +1.389 +1.188 +1.389 +1.389 +1.188 +1.389 +1.389 +1.188 +1.389 +1.389 +1.188 +1.389 +1.389 +1.188 +1.389 +1.389 +1.188 +1.389 +1.389 +1.188 +1.389 +1.389 +1.188 +1.389 +1.389 +1.188 +1.389 +1.389 +1.188 +1.389 +1.389 +1.188 +1.389 +1.389
# oxidation-state O -0.698 -0.698 -0.698 -0.698 -0.698 -0.698 -0.698 -0.698 -0.698 -0.698 -0.698 -0.698 -0.698 -0.698 -0.698 -0.698 -0.698 -0.698 -0.698 -0.698 -0.698 -0.698 -0.698 -0.698 -0.698 -0.698 -0.698 -0.698 -0.698 -0.698 -0.698 -0.698


Dumping 'NbTe2.fillings' ... done
Dumping 'NbTe2.wfns' ... done
Dumping 'NbTe2.fluidState' ... done
Dumping 'NbTe2.ionpos' ... done
Dumping 'NbTe2.eigenvals' ... done
End date and time: Fri Apr  2 05:31:55 2021  (Duration: 0-4:03:07.46)
Done!
