
*************** JDFTx 1.5.0  ***************

Start date and time: Mon Sep 28 00:51:37 2020
Executable jdftx_gpu with command-line: -i Charged.in -o Charged.out
Running on hosts (process indices):  amax (0-6)
Divided in process groups (process indices):  0 (0)  1 (1)  2 (2)  3 (3)  4 (4)  5 (5)  6 (6)
gpuInit: Found compatible cuda device 0 'Tesla K80'
gpuInit: Found compatible cuda device 1 'Tesla K80'
gpuInit: Found compatible cuda device 2 'Tesla K80'
gpuInit: Found compatible cuda device 3 'Tesla K80'
gpuInit: Found compatible cuda device 4 'Tesla K80'
gpuInit: Found compatible cuda device 5 'Tesla K80'
gpuInit: Found compatible cuda device 6 'Tesla K80'
gpuInit: Selected device 0
Resource initialization completed at t[s]:     17.81
Run totals: 7 processes, 24 threads, 7 GPUs


Input parsed successfully to the following command list (including defaults):

basis kpoint-dependent
cache-projectors no
coords-type Lattice
core-overlap-check none
coulomb-interaction Slab 001
coulomb-truncation-embed 0 0 0.5
davidson-band-ratio 1.1
dump End State
dump-name NbTe2.$VAR
elec-cutoff 15
elec-eigen-algo Davidson
elec-ex-corr gga-PBE
elec-initial-magnetization 5.000000 no
elec-smearing Gauss 0.0073499
electronic-minimize  \
	dirUpdateScheme      FletcherReeves \
	linminMethod         DirUpdateRecommended \
	nIterations          500 \
	history              15 \
	knormThreshold       0 \
	energyDiffThreshold  1e-08 \
	nEnergyDiff          2 \
	alphaTstart          1 \
	alphaTmin            1e-10 \
	updateTestStepSize   yes \
	alphaTreduceFactor   0.1 \
	alphaTincreaseFactor 3 \
	nAlphaAdjustMax      3 \
	wolfeEnergy          0.0001 \
	wolfeGradient        0.9 \
	fdTest               no
exchange-regularization WignerSeitzTruncated
fluid LinearPCM 298.000000 1.013250
fluid-anion F- 1 MeanFieldLJ \
	epsBulk 1 \
	pMol 0 \
	epsInf 1 \
	Pvap 0 \
	sigmaBulk 0 \
	Rvdw 2.24877 \
	Res 0 \
	tauNuc 343133
fluid-cation Na+ 1 MeanFieldLJ \
	epsBulk 1 \
	pMol 0 \
	epsInf 1 \
	Pvap 0 \
	sigmaBulk 0 \
	Rvdw 2.19208 \
	Res 0 \
	tauNuc 343133
fluid-ex-corr lda-TF lda-PZ
fluid-gummel-loop 10 1.000000e-05
fluid-minimize  \
	dirUpdateScheme      PolakRibiere \
	linminMethod         DirUpdateRecommended \
	nIterations          400 \
	history              15 \
	knormThreshold       1e-11 \
	energyDiffThreshold  0 \
	nEnergyDiff          2 \
	alphaTstart          1 \
	alphaTmin            1e-10 \
	updateTestStepSize   yes \
	alphaTreduceFactor   0.1 \
	alphaTincreaseFactor 3 \
	nAlphaAdjustMax      6 \
	wolfeEnergy          0.0001 \
	wolfeGradient        0.9 \
	fdTest               no
fluid-solvent H2O 55.338 ScalarEOS \
	epsBulk 78.4 \
	pMol 0.92466 \
	epsInf 1.77 \
	Pvap 1.06736e-10 \
	sigmaBulk 4.62e-05 \
	Rvdw 2.61727 \
	Res 1.42 \
	tauNuc 343133 \
	poleEl 15 7 1
forces-output-coords Positions
initial-state NbTe2.$VAR
ion Zr   0.124249105898689   0.000908082229015   0.599979565333658 1
ion Zr   0.999596199569981   0.125836200394243   0.400225317914614 1
ion Zr   0.374595286190224   0.000892658197668   0.600426640849322 1
ion Zr   0.249773064700971   0.126054080048463   0.400792025220553 1
ion Zr   0.625006558154399   0.000883821947182   0.600060954396999 1
ion Zr   0.499396365424820   0.125984664096940   0.400921978504485 1
ion Zr   0.874748889541405   0.000906256942756   0.599718786835397 1
ion Zr   0.749546822181483   0.125851190725486   0.400308235924882 1
ion Zr   0.122877822933282   0.249208773728163   0.599753655185233 1
ion Zr   0.999719661650782   0.376009168449035   0.400738364028077 1
ion Zr   0.374158795327317   0.249827808007487   0.601243663817561 1
ion Zr   0.249960207224265   0.376385562006195   0.402306851862901 1
ion Zr   0.626695173487659   0.248727150551988   0.599942254269830 1
ion Zr   0.499253612588272   0.376342805396279   0.402409788442487 1
ion Zr   0.874659898147888   0.250637339329387   0.599957947035604 1
ion Zr   0.749417367118257   0.376004342275369   0.400844214942390 1
ion Zr   0.124128819957427   0.501033841763434   0.601269655641935 1
ion Zr   0.999725940612258   0.625695800784489   0.400715835715989 1
ion Zr   0.373986968816806   0.498906462199224   0.612520110518200 1
ion Zr   0.250016032094177   0.625435482726502   0.402251515039560 1
ion Zr   0.625330137170120   0.501584082443053   0.601333825856041 1
ion Zr   0.499161249333509   0.625370209896198   0.402342339078200 1
ion Zr   0.874643475620356   0.500973487322690   0.600367086609275 1
ion Zr   0.749400513012128   0.625708777461699   0.400787502553363 1
ion Zr   0.122835628262463   0.752716195918833   0.599909759690078 1
ion Zr   0.999611803651689   0.875862874358777   0.400226622384426 1
ion Zr   0.374590617818788   0.751095956889984   0.601586351286732 1
ion Zr   0.249864076362778   0.875604206002219   0.400835030077982 1
ion Zr   0.626284583774230   0.752667391752517   0.600048861705640 1
ion Zr   0.499410568149641   0.875584983298715   0.400943668457571 1
ion Zr   0.874717877246740   0.751309008167224   0.600011896553381 1
ion Zr   0.749540705701183   0.875809758757772   0.400308349019791 1
ion Si   0.999563805526676   0.000845461884575   0.499894060191885 1
ion Si   0.124542171091579   0.125574736320916   0.500021501224025 1
ion Si   0.249664923735460   0.000826099192495   0.500427075536571 1
ion Si   0.374520862422587   0.125994963383262   0.500802016916201 1
ion Si   0.499682410059708   0.000830734923351   0.500571421538232 1
ion Si   0.624726934092245   0.125536873577378   0.500144953085052 1
ion Si   0.749804883785622   0.000813033832527   0.499949447941016 1
ion Si   0.874615230628988   0.125685156286303   0.499912677411356 1
ion Si   0.999230070978134   0.250756924004560   0.499996022034241 1
ion Si   0.124341577453495   0.376130891716408   0.500885217388296 1
ion Si   0.249696226760365   0.250879252899721   0.500962914669366 1
ion Si   0.374682073504679   0.377041967885835   0.503426637162984 1
ion Si   0.499494179602164   0.250739612751050   0.501176903936012 1
ion Si   0.624775347756377   0.376136262865266   0.501106263903315 1
ion Si   0.749971249285778   0.250875180503311   0.500132742327857 1
ion Si   0.874642936262359   0.375951056671573   0.500427245197511 1
ion Si   0.999729442353049   0.500942393793289   0.500647622501563 1
ion Si   0.124458567903723   0.625863619825904   0.500943105027509 1
ion Si   0.250056976085193   0.501016470950375   0.502964257982189 1
ion Si   0.374525275191231   0.624877139395566   0.503324470878881 1
ion Si   0.499157108027459   0.501022750840529   0.503103656564226 1
ion Si   0.624787276298563   0.625899513039958   0.501033841066176 1
ion Si   0.749527481786772   0.500964636353216   0.500768034211548 1
ion Si   0.874613012706713   0.625945106307511   0.500455419342755 1
ion Si   0.999266039849161   0.750944962400754   0.500046790494062 1
ion Si   0.124605706205088   0.876163061096266   0.500066057770329 1
ion Si   0.249861354731552   0.750974162960906   0.501054393932175 1
ion Si   0.374600332561615   0.875643676132929   0.500882223175571 1
ion Si   0.499377767008502   0.750889076746318   0.501175811898260 1
ion Si   0.624742813792540   0.876139301167496   0.500192498290549 1
ion Si   0.749952421314738   0.751048682310131   0.500167216631611 1
ion Si   0.874653820325244   0.876075009494680   0.499908615443710 1
ion Se   0.999040114105150   0.125237091195916   0.654653311145139 1
ion Se   0.124975787902778   0.000814037382082   0.346280936606838 1
ion Se   0.249078030166184   0.124872012645385   0.654580744717277 1
ion Se   0.374706653297503   0.000775740906720   0.346630530641243 1
ion Se   0.499991047151635   0.124969374595377   0.654755057080956 1
ion Se   0.624324620487892   0.000833191302051   0.346419092017648 1
ion Se   0.750479337244805   0.125223219972155   0.654757190631603 1
ion Se   0.874558177342604   0.000805346516698   0.345791953698971 1
ion Se   0.998616945918839   0.375588428676401   0.654420287643902 1
ion Se   0.125086239438771   0.251367686523503   0.346737780498665 1
ion Se   0.243203813407805   0.369785353462822   0.653658156082063 1
ion Se   0.374664140853332   0.251523902739917   0.347292748845712 1
ion Se   0.506028769354323   0.369745219758557   0.653707393257085 1
ion Se   0.623796996296665   0.251247304066400   0.346921251078006 1
ion Se   0.750504338823655   0.375591493012466   0.654568312843895 1
ion Se   0.874439718759778   0.251105962402534   0.346137285104815 1
ion Se   0.998567992056831   0.626350484024874   0.654519204040455 1
ion Se   0.125244276714323   0.500819660261087   0.347082643284054 1
ion Se   0.243281506793705   0.631986352034935   0.653817045836808 1
ion Se   0.374654616276890   0.500753153243410   0.347860024578191 1
ion Se   0.505673004456755   0.631705621734160   0.654304081622316 1
ion Se   0.623974007501904   0.500706594445541   0.347191598152662 1
ion Se   0.750729409230414   0.626578576745470   0.654639035725175 1
ion Se   0.874544632992158   0.500781753462894   0.346490967802266 1
ion Se   0.998926162946870   0.876807114004632   0.654813972303600 1
ion Se   0.125121711004153   0.750349398676843   0.346763108989883 1
ion Se   0.249180260430487   0.876951899311245   0.654495667047476 1
ion Se   0.374709997732260   0.750245758441056   0.347141138665719 1
ion Se   0.499991932632023   0.876976322870244   0.654648134744015 1
ion Se   0.623703764268942   0.750239011408997   0.346848983232217 1
ion Se   0.750470837735518   0.876642992080407   0.654762903879086 1
ion Se   0.874551378412406   0.750638124553295   0.346146074975480 1
ion O   0.373700091086394   0.507442013580765   0.709500810130444 1
ion O   0.367579760842074   0.436044379025876   0.757022504181348 1
ion H   0.423635807522814   0.395989254351944   0.747620000487797 1
ion-species GBRV/$ID_pbe.uspp
ion-width Ecut
ionic-minimize  \
	dirUpdateScheme      L-BFGS \
	linminMethod         DirUpdateRecommended \
	nIterations          500 \
	history              15 \
	knormThreshold       0.0001 \
	energyDiffThreshold  1e-06 \
	nEnergyDiff          2 \
	alphaTstart          1 \
	alphaTmin            1e-10 \
	updateTestStepSize   yes \
	alphaTreduceFactor   0.1 \
	alphaTincreaseFactor 3 \
	nAlphaAdjustMax      3 \
	wolfeEnergy          0.0001 \
	wolfeGradient        0.9 \
	fdTest               no
kpoint   0.000000000000   0.000000000000   0.000000000000  1.00000000000000
kpoint-folding 2 2 1 
latt-move-scale 1 1 1
latt-scale 1 1 1 
lattice Triclinic 26.6087 26.6087 41.0178 90 90 90
lattice-minimize  \
	dirUpdateScheme      L-BFGS \
	linminMethod         DirUpdateRecommended \
	nIterations          0 \
	history              15 \
	knormThreshold       0 \
	energyDiffThreshold  1e-06 \
	nEnergyDiff          2 \
	alphaTstart          1 \
	alphaTmin            1e-10 \
	updateTestStepSize   yes \
	alphaTreduceFactor   0.1 \
	alphaTincreaseFactor 3 \
	nAlphaAdjustMax      3 \
	wolfeEnergy          0.0001 \
	wolfeGradient        0.9 \
	fdTest               no
lcao-params -1 1e-06 0.0073499
pcm-variant CANDLE
spintype z-spin
subspace-rotation-factor 1 yes
symmetries automatic
symmetry-threshold 0.0001
target-mu -0.216453 no




---------- Setting up symmetries ----------

Found 16 point-group symmetries of the bravais lattice
Found 1 space-group symmetries with basis
Applied RMS atom displacement 0 bohrs to make symmetries exact.

---------- Initializing the Grid ----------
R = 
[    26.6087          0          0  ]
[          0    26.6087          0  ]
[          0          0    41.0178  ]
unit cell volume = 29041.5
G =
[   0.236133          0          0  ]
[          0   0.236133          0  ]
[          0          0   0.153182  ]
Minimum fftbox size, Smin = [  96  96  144  ]
Chosen fftbox size, S = [  96  96  144  ]

---------- Exchange Correlation functional ----------
Initalized PBE GGA exchange.
Initalized PBE GGA correlation.

---------- Setting up pseudopotentials ----------
Width of ionic core gaussian charges (only for fluid interactions / plotting) set to 0.458859

Reading pseudopotential file '/home/guoxy/vasp/jdftx-1.5.0/build/pseudopotentials/GBRV/zr_pbe.uspp':
  Title: Zr.  Created by USPP 7.3.6 on 14-9-2013
  Reference state energy: -49.308156.  12 valence electrons in orbitals:
    |400>  occupation: 2  eigenvalue: -2.002953
    |410>  occupation: 6  eigenvalue: -1.192957
    |420>  occupation: 2  eigenvalue: -0.132269
    |500>  occupation: 2  eigenvalue: -0.163143
    |510>  occupation: 0  eigenvalue: -0.053997
  lMax: 2  lLocal: 3  QijEcut: 5
  6 projectors sampled on a log grid with 625 points:
    l: 0  eig: -2.002953  rCut: 1.8
    l: 0  eig: -0.132269  rCut: 1.8
    l: 1  eig: -1.192956  rCut: 2
    l: 1  eig: 0.150000  rCut: 2
    l: 2  eig: -0.163145  rCut: 2.2
    l: 2  eig: 0.150000  rCut: 2.2
  Partial core density with radius 1.2
  Transforming core density to a uniform radial grid of dG=0.02 with 978 points.
  Transforming local potential to a uniform radial grid of dG=0.02 with 978 points.
  Transforming nonlocal projectors to a uniform radial grid of dG=0.02 with 375 points.
  Transforming density augmentations to a uniform radial grid of dG=0.02 with 978 points.
  Transforming atomic orbitals to a uniform radial grid of dG=0.02 with 375 points.
  Core radius for overlap checks: 2.20 bohrs.

Reading pseudopotential file '/home/guoxy/vasp/jdftx-1.5.0/build/pseudopotentials/GBRV/si_pbe.uspp':
  Title: Si.  Created by USPP 7.3.6 on 14-9-2013
  Reference state energy: -4.599342.  4 valence electrons in orbitals:
    |300>  occupation: 2  eigenvalue: -0.397366
    |310>  occupation: 2  eigenvalue: -0.149981
  lMax: 2  lLocal: 3  QijEcut: 5
  6 projectors sampled on a log grid with 627 points:
    l: 0  eig: -0.397364  rCut: 1.6
    l: 0  eig: 1.000000  rCut: 1.6
    l: 1  eig: -0.149982  rCut: 1.6
    l: 1  eig: 1.000000  rCut: 1.6
    l: 2  eig: -0.100000  rCut: 1.7
    l: 2  eig: 0.100000  rCut: 1.7
  Partial core density with radius 1.45
  Transforming core density to a uniform radial grid of dG=0.02 with 978 points.
  Transforming local potential to a uniform radial grid of dG=0.02 with 978 points.
  Transforming nonlocal projectors to a uniform radial grid of dG=0.02 with 375 points.
  Transforming density augmentations to a uniform radial grid of dG=0.02 with 978 points.
  Transforming atomic orbitals to a uniform radial grid of dG=0.02 with 375 points.
  Core radius for overlap checks: 1.70 bohrs.

Reading pseudopotential file '/home/guoxy/vasp/jdftx-1.5.0/build/pseudopotentials/GBRV/se_pbe.uspp':
  Title: Se.  Created by USPP 7.3.6 on 14-9-2013
  Reference state energy: -21.672887.  6 valence electrons in orbitals:
    |400>  occupation: 2  eigenvalue: -0.635284
    |410>  occupation: 4  eigenvalue: -0.239295
  lMax: 2  lLocal: 3  QijEcut: 5
  6 projectors sampled on a log grid with 625 points:
    l: 0  eig: -0.635278  rCut: 1.5
    l: 0  eig: 0.500000  rCut: 1.5
    l: 1  eig: -0.239295  rCut: 1.5
    l: 1  eig: 0.500000  rCut: 1.5
    l: 2  eig: 0.000000  rCut: 1.8
    l: 2  eig: 1.000000  rCut: 1.8
  Partial core density with radius 1.2
  Transforming core density to a uniform radial grid of dG=0.02 with 978 points.
  Transforming local potential to a uniform radial grid of dG=0.02 with 978 points.
  Transforming nonlocal projectors to a uniform radial grid of dG=0.02 with 375 points.
  Transforming density augmentations to a uniform radial grid of dG=0.02 with 978 points.
  Transforming atomic orbitals to a uniform radial grid of dG=0.02 with 375 points.
  Core radius for overlap checks: 1.80 bohrs.

Reading pseudopotential file '/home/guoxy/vasp/jdftx-1.5.0/build/pseudopotentials/GBRV/o_pbe.uspp':
  Title: O.  Created by USPP 7.3.6 on 3-2-2014
  Reference state energy: -15.894388.  6 valence electrons in orbitals:
    |200>  occupation: 2  eigenvalue: -0.878823
    |210>  occupation: 4  eigenvalue: -0.332131
  lMax: 2  lLocal: 2  QijEcut: 6
  5 projectors sampled on a log grid with 511 points:
    l: 0  eig: -0.878823  rCut: 1.25
    l: 0  eig: 0.000000  rCut: 1.25
    l: 1  eig: -0.332132  rCut: 1.25
    l: 1  eig: 0.000000  rCut: 1.25
    l: 2  eig: 1.000000  rCut: 1.25
  Partial core density with radius 0.7
  Transforming core density to a uniform radial grid of dG=0.02 with 978 points.
  Transforming local potential to a uniform radial grid of dG=0.02 with 978 points.
  Transforming nonlocal projectors to a uniform radial grid of dG=0.02 with 375 points.
  Transforming density augmentations to a uniform radial grid of dG=0.02 with 978 points.
  Transforming atomic orbitals to a uniform radial grid of dG=0.02 with 375 points.
  Core radius for overlap checks: 1.25 bohrs.

Reading pseudopotential file '/home/guoxy/vasp/jdftx-1.5.0/build/pseudopotentials/GBRV/h_pbe.uspp':
  Title: H.  Created by USPP 7.3.6 on 2-4-15
  Reference state energy: -0.458849.  1 valence electrons in orbitals:
    |100>  occupation: 1  eigenvalue: -0.238595
  lMax: 0  lLocal: 1  QijEcut: 6
  2 projectors sampled on a log grid with 395 points:
    l: 0  eig: -0.238595  rCut: 1.2
    l: 0  eig: 1.000000  rCut: 1.2
  Transforming local potential to a uniform radial grid of dG=0.02 with 978 points.
  Transforming nonlocal projectors to a uniform radial grid of dG=0.02 with 375 points.
  Transforming density augmentations to a uniform radial grid of dG=0.02 with 978 points.
  Transforming atomic orbitals to a uniform radial grid of dG=0.02 with 375 points.
  Core radius for overlap checks: 1.20 bohrs.

Initialized 5 species with 99 total atoms.

Folded 1 k-points by 2x2x1 to 4 k-points.

---------- Setting up k-points, bands, fillings ----------
No reducable k-points. 
Computing the number of bands and number of electrons
Calculating initial fillings.
nElectrons: 717.000000   nBands: 681   nStates: 8

----- Setting up reduced wavefunction bases (one per k-point) -----
average nbasis = 80627.750 , ideal nbasis = 80584.159

---------- Setting up coulomb interaction ----------
Fluid mode embedding: using embedded box, but periodic Coulomb kernel.
(Fluid response is responsible for (approximate) separation between periodic images.)
Setting up double-sized grid for truncated Coulomb potentials:
R = 
[    26.6087          0          0  ]
[          0    26.6087          0  ]
[          0          0    82.0357  ]
unit cell volume = 58083
G =
[   0.236133          0          0  ]
[          0   0.236133          0  ]
[          0          0  0.0765909  ]
Chosen fftbox size, S = [  96  96  288  ]
Integer grid location selected as the embedding center:
   Grid: [  0  0  72  ]
   Lattice: [  0  0  0.5  ]
   Cartesian: [  0  0  20.5089  ]
Constructing Wigner-Seitz cell: 6 faces (6 quadrilaterals, 0 hexagons)
Range-separation parameter for embedded mesh potentials due to point charges: 0.67331 bohrs.

Initializing van der Waals corrections
	NOTE: vdW corrections apply only for interactions with fluid.
	Zr:  C6:  427.91 Eh-a0^6  R0: 3.097 a0
	Si:  C6:  160.10 Eh-a0^6  R0: 3.243 a0
	Se:  C6:  219.24 Eh-a0^6  R0: 3.347 a0
	 O:  C6:   12.14 Eh-a0^6  R0: 2.536 a0
	 H:  C6:    2.43 Eh-a0^6  R0: 1.892 a0

---------- Setting up ewald sum ----------
Optimum gaussian width for ewald sums = 7.183241 bohr.
Real space sum over 405 unit cells with max indices [  4  4  2  ]
Reciprocal space sum over 8775 terms with max indices [  7  7  19  ]

---------- Allocating electronic variables ----------
Initializing wave functions:  linear combination of atomic orbitals
Zr pseudo-atom occupations:   s ( 2 2 )  p ( 6 0 )  d ( 2 )
Si pseudo-atom occupations:   s ( 2 )  p ( 2 )
Se pseudo-atom occupations:   s ( 2 )  p ( 4 )
O pseudo-atom occupations:   s ( 2 )  p ( 4 )
H pseudo-atom occupations:   s ( 1 )
	FillingsUpdate:  mu: -0.216453400  nElectrons: 717.000000  magneticMoment: [ Abs: 1.08511  Tot: +1.03418 ]
LCAOMinimize: Iter:   0  G: -1809.6791890418871844  |grad|_K:  1.010e-02  alpha:  1.000e+00
LCAOMinimize: 	Step increased G by 8.312720e-01, reducing alpha to 1.624118e-02.
	FillingsUpdate:  mu: -0.216453400  nElectrons: 717.000000  magneticMoment: [ Abs: 1.01056  Tot: +0.95582 ]
LCAOMinimize: Iter:   1  G: -1813.9117036156014819  |grad|_K:  5.341e-03  alpha:  1.624e-02  linmin: -3.029e-01  cgtest:  1.248e+00  t[s]:    197.60
LCAOMinimize: Encountered beta<0, resetting CG.
LCAOMinimize: 	Predicted alpha/alphaT>3.000000, increasing alphaT to 4.872353e-02.
	FillingsUpdate:  mu: -0.216453400  nElectrons: 717.000000  magneticMoment: [ Abs: 0.66039  Tot: +0.56634 ]
LCAOMinimize: Iter:   2  G: -1821.1653897279604735  |grad|_K:  4.315e-03  alpha:  1.431e-01  linmin:  1.740e-02  cgtest: -2.712e-01  t[s]:    256.88
	FillingsUpdate:  mu: -0.216453400  nElectrons: 717.000000  magneticMoment: [ Abs: 0.52196  Tot: +0.41683 ]
LCAOMinimize: Iter:   3  G: -1822.6636870211707446  |grad|_K:  1.622e-03  alpha:  5.725e-02  linmin:  5.788e-02  cgtest:  4.489e-01  t[s]:    305.24
LCAOMinimize: Encountered beta<0, resetting CG.
	FillingsUpdate:  mu: -0.216453400  nElectrons: 717.000000  magneticMoment: [ Abs: 0.50089  Tot: +0.39995 ]
LCAOMinimize: Iter:   4  G: -1823.0229726320310419  |grad|_K:  6.645e-04  alpha:  6.856e-02  linmin: -2.218e-01  cgtest:  1.108e+00  t[s]:    350.54
LCAOMinimize: Encountered beta<0, resetting CG.
	FillingsUpdate:  mu: -0.216453400  nElectrons: 717.000000  magneticMoment: [ Abs: 0.44830  Tot: +0.35408 ]
LCAOMinimize: Iter:   5  G: -1823.1635753023897450  |grad|_K:  4.301e-04  alpha:  1.609e-01  linmin: -4.058e-02  cgtest:  4.963e-02  t[s]:    396.61
	FillingsUpdate:  mu: -0.216453400  nElectrons: 717.000000  magneticMoment: [ Abs: 0.43725  Tot: +0.34434 ]
LCAOMinimize: Iter:   6  G: -1823.1810515125837355  |grad|_K:  3.254e-04  alpha:  2.672e-02  linmin: -1.953e-01  cgtest:  9.448e-01  t[s]:    443.19
LCAOMinimize: Encountered beta<0, resetting CG.
LCAOMinimize: 	Predicted alpha/alphaT>3.000000, increasing alphaT to 8.016937e-02.
	FillingsUpdate:  mu: -0.216453400  nElectrons: 717.000000  magneticMoment: [ Abs: 0.40594  Tot: +0.31751 ]
LCAOMinimize: Iter:   7  G: -1823.2020829458608659  |grad|_K:  2.509e-04  alpha:  1.094e-01  linmin:  4.455e-03  cgtest: -2.372e-01  t[s]:    503.58
	FillingsUpdate:  mu: -0.216453400  nElectrons: 717.000000  magneticMoment: [ Abs: 0.39698  Tot: +0.30995 ]
LCAOMinimize: Iter:   8  G: -1823.2050113123875690  |grad|_K:  2.265e-04  alpha:  1.833e-02  linmin: -1.207e-01  cgtest:  9.712e-01  t[s]:    549.46
LCAOMinimize: Encountered beta<0, resetting CG.
LCAOMinimize: 	Predicted alpha/alphaT>3.000000, increasing alphaT to 5.498359e-02.
	FillingsUpdate:  mu: -0.216453400  nElectrons: 717.000000  magneticMoment: [ Abs: 0.37805  Tot: +0.29292 ]
LCAOMinimize: Iter:   9  G: -1823.2111930452911110  |grad|_K:  8.549e-05  alpha:  6.505e-02  linmin:  1.331e-02  cgtest: -7.141e-02  t[s]:    608.41
	FillingsUpdate:  mu: -0.216453400  nElectrons: 717.000000  magneticMoment: [ Abs: 0.36212  Tot: +0.27893 ]
LCAOMinimize: Iter:  10  G: -1823.2118060529874128  |grad|_K:  4.998e-05  alpha:  5.234e-02  linmin: -2.631e-01  cgtest:  9.157e-01  t[s]:    654.04
LCAOMinimize: Encountered beta<0, resetting CG.
	FillingsUpdate:  mu: -0.216453400  nElectrons: 717.000000  magneticMoment: [ Abs: 0.35320  Tot: +0.27103 ]
LCAOMinimize: Iter:  11  G: -1823.2119219680537299  |grad|_K:  3.514e-05  alpha:  3.556e-02  linmin: -3.028e-01  cgtest:  9.127e-01  t[s]:    700.67
LCAOMinimize: Encountered beta<0, resetting CG.
	FillingsUpdate:  mu: -0.216453400  nElectrons: 717.000000  magneticMoment: [ Abs: 0.34553  Tot: +0.26421 ]
LCAOMinimize: Iter:  12  G: -1823.2119841036364960  |grad|_K:  3.032e-05  alpha:  3.095e-02  linmin: -3.465e-01  cgtest:  9.852e-01  t[s]:    746.35
LCAOMinimize: Encountered beta<0, resetting CG.
	FillingsUpdate:  mu: -0.216453400  nElectrons: 717.000000  magneticMoment: [ Abs: 0.33785  Tot: +0.25739 ]
LCAOMinimize: Iter:  13  G: -1823.2120391113262485  |grad|_K:  2.696e-05  alpha:  3.159e-02  linmin: -3.553e-01  cgtest:  9.942e-01  t[s]:    791.60
LCAOMinimize: Encountered beta<0, resetting CG.
	FillingsUpdate:  mu: -0.216453400  nElectrons: 717.000000  magneticMoment: [ Abs: 0.32924  Tot: +0.24975 ]
LCAOMinimize: Iter:  14  G: -1823.2120935151469894  |grad|_K:  2.396e-05  alpha:  3.618e-02  linmin: -3.605e-01  cgtest:  9.956e-01  t[s]:    837.77
LCAOMinimize: Encountered beta<0, resetting CG.
	FillingsUpdate:  mu: -0.216453400  nElectrons: 717.000000  magneticMoment: [ Abs: 0.31863  Tot: +0.24035 ]
LCAOMinimize: Iter:  15  G: -1823.2121512004455326  |grad|_K:  2.097e-05  alpha:  4.572e-02  linmin: -3.650e-01  cgtest:  9.948e-01  t[s]:    883.28
LCAOMinimize: Encountered beta<0, resetting CG.
	FillingsUpdate:  mu: -0.216453400  nElectrons: 717.000000  magneticMoment: [ Abs: 0.30420  Tot: +0.22762 ]
LCAOMinimize: Iter:  16  G: -1823.2122164929871815  |grad|_K:  1.776e-05  alpha:  6.428e-02  linmin: -3.684e-01  cgtest:  9.918e-01  t[s]:    929.88
LCAOMinimize: Encountered beta<0, resetting CG.
	FillingsUpdate:  mu: -0.216453400  nElectrons: 717.000000  magneticMoment: [ Abs: 0.28155  Tot: +0.20772 ]
LCAOMinimize: Iter:  17  G: -1823.2122976211453533  |grad|_K:  1.404e-05  alpha:  1.060e-01  linmin: -3.662e-01  cgtest:  9.829e-01  t[s]:    976.76
LCAOMinimize: Encountered beta<0, resetting CG.
	FillingsUpdate:  mu: -0.216453400  nElectrons: 717.000000  magneticMoment: [ Abs: 0.23284  Tot: +0.16528 ]
LCAOMinimize: Iter:  18  G: -1823.2124181330532338  |grad|_K:  8.763e-06  alpha:  2.475e-01  linmin: -3.278e-01  cgtest:  9.313e-01  t[s]:   1022.25
LCAOMinimize: Encountered beta<0, resetting CG.
LCAOMinimize: 	Predicted alpha/alphaT>3.000000, increasing alphaT to 7.424293e-01.
	FillingsUpdate:  mu: -0.216453400  nElectrons: 717.000000  magneticMoment: [ Abs: 0.09417  Tot: +0.04471 ]
LCAOMinimize: Iter:  19  G: -1823.2125397956115194  |grad|_K:  4.350e-06  alpha:  8.859e-01  linmin:  1.475e-01  cgtest: -4.066e-01  t[s]:   1081.01
LCAOMinimize: 	Step increased G by 1.283357e-05, reducing alpha to 4.555152e-03.
LCAOMinimize: 	Step increased G by 1.259400e-06, reducing alpha to 4.555152e-04.
LCAOMinimize: 	Step increased G by 1.257058e-07, reducing alpha to 4.555152e-05.
LCAOMinimize: 	Step failed to reduce G after 3 attempts. Quitting step.
LCAOMinimize: 	Undoing step.
LCAOMinimize: 	Step failed: resetting search direction.
	FillingsUpdate:  mu: -0.216453400  nElectrons: 717.000000  magneticMoment: [ Abs: 0.09412  Tot: +0.04467 ]
LCAOMinimize: Iter:  20  G: -1823.2125396824683321  |grad|_K:  4.344e-06  alpha:  4.555e-05
LCAOMinimize: 	Step increased G by 1.797020e-05, reducing alpha to 6.716163e-03.
LCAOMinimize: 	Step increased G by 1.734995e-06, reducing alpha to 6.716163e-04.
LCAOMinimize: 	Step increased G by 1.728729e-07, reducing alpha to 6.716163e-05.
LCAOMinimize: 	Step failed to reduce G after 3 attempts. Quitting step.
LCAOMinimize: 	Undoing step.
LCAOMinimize: 	Step failed along negative gradient direction.
LCAOMinimize: Probably at roundoff error limit. (Stopping)
----- createFluidSolver() ----- (Fluid-side solver setup)
   Initializing fluid molecule 'H2O'
     Initializing site 'O'
       Electron density: proportional to exp(-r/0.36935)*erfc((r-0.51523)/0.36823) with norm 6.826
       Charge density: gaussian nuclear width 0.478731 with net site charge 0.826
       Polarizability: cuspless exponential with width 0.32 and norm 3.73
       Hard sphere radius: 2.57003 bohrs
       Positions in reference frame:
         [ +0.000000 +0.000000 +0.000000 ]
     Initializing site 'H'
       Electron density: proportional to exp(-r/0.34641)*erfc((r-0)/0.390882) with norm 0.587
       Charge density: gaussian nuclear width 0.377945 with net site charge -0.413
       Polarizability: cuspless exponential with width 0.39 and norm 3.3
       Positions in reference frame:
         [ +0.000000 -1.441945 +1.122523 ]
         [ +0.000000 +1.441945 +1.122523 ]
     Net charge: 0   dipole magnitude: 0.927204
     Initializing spherical shell mfKernel with radius 2.61727 Bohr
     deltaS corrections:
       site 'O': -7.54299
       site 'H': -6.83917
   Initializing fluid molecule 'Na+'
     Initializing site 'Na'
       Electron density: proportional to exp(-r/0.19682)*erfc((r-0.71491)/0.41314) with norm 8.1383
       Charge density: gaussian nuclear width 0.365347 with net site charge -1
       Hard sphere radius: 1.86327 bohrs
       Positions in reference frame:
         [ +0.000000 +0.000000 +0.000000 ]
     Net charge: -1   dipole magnitude: 0
     Initializing gaussian mfKernel with width: 1.55004 Bohr
     deltaS corrections:
       site 'Na': -22.3555
   Initializing fluid molecule 'F-'
     Initializing site 'F'
       Electron density: proportional to exp(-r/0.38886)*erfc((r-0)/0.438782) with norm 8
       Charge density: gaussian nuclear width 0.374796 with net site charge 1
       Hard sphere radius: 2.39995 bohrs
       Positions in reference frame:
         [ +0.000000 +0.000000 +0.000000 ]
     Net charge: 1   dipole magnitude: 0
     Initializing gaussian mfKernel with width: 1.59012 Bohr
     deltaS corrections:
       site 'F': -9.04335

Correction to mu due to finite nuclear width = -0.0163308
   Cavity determined by nc: 0.00142 and sigma: 0.707107
   Nonlocal vdW cavity from gaussian model electron density with norm = 8 and sigma = 0.993594 bohr
   Charge asymmetry in cavity with sensitivity pCavity = 36.5 e-bohr/Eh
   Electrostatic cavity expanded by eta = 1.46 bohrs
   Weighted density cavitation model constrained by Nbulk: 0.0049383 bohr^-3, Pvap: 3.14029 kPa, Rvdw: 2.61727 bohr and sigmaBulk: 4.62e-05 Eh/bohr^2 at T: 298 K.
   Weighted density dispersion model using vdW pair potentials with single solvent site with sqrtC6eff: 0.77 SI.


---- Citations for features of the code used in this run ----

   Software package:
      R. Sundararaman, K. Letchworth-Weaver, K.A. Schwarz, D. Gunceler, Y. Ozhabes and T.A. Arias, 'JDFTx: software for joint density-functional theory', SoftwareX 6, 278 (2017)

   gga-PBE exchange-correlation functional:
      J.P. Perdew, K. Burke and M. Ernzerhof, Phys. Rev. Lett. 77, 3865 (1996)

   Pseudopotentials:
      KF Garrity, JW Bennett, KM Rabe and D Vanderbilt, Comput. Mater. Sci. 81, 446 (2014)

   Truncated Coulomb potentials:
      R. Sundararaman and T.A. Arias, Phys. Rev. B 87, 165122 (2013)

   Van der Waals correction pair-potentials:
      S. Grimme, J. Comput. Chem. 27, 1787 (2006)

   Charge-asymmetric nonlocally-determined local-electric (CANDLE) solvation model:
      R. Sundararaman and W.A. Goddard III, J. Chem. Phys. 142, 064107 (2015)

   Total energy minimization with Auxiliary Hamiltonian:
      C. Freysoldt, S. Boeck, and J. Neugebauer, Phys. Rev. B 79, 241103(R) (2009)

   Grand-canonical (fixed-potential) DFT:
      R. Sundararaman, W. A. Goddard III and T. A. Arias, J. Chem. Phys. 146, 114104 (2017)

This list may not be complete. Please suggest additional citations or
report any other bugs at https://github.com/shankar1729/jdftx/issues

Initialization completed successfully at t[s]:   1381.24

Fluid solver invoked on fresh (partially random / LCAO) wavefunctions
Running a vacuum solve first:

-------- Initial electronic minimization -----------
	FillingsUpdate:  mu: -0.077693930  nElectrons: 717.000000  magneticMoment: [ Abs: 0.09408  Tot: +0.04465 ]
ElecMinimize: Iter:   0  G: -1823.105586074226949  |grad|_K:  6.538e-05  alpha:  1.000e+00
	FillingsUpdate:  mu: -0.022627960  nElectrons: 717.000000  magneticMoment: [ Abs: 0.03681  Tot: +0.01088 ]
	SubspaceRotationAdjust: set factor to 0.986
ElecMinimize: Iter:   1  G: -1824.916146755285581  |grad|_K:  3.392e-05  alpha:  9.603e-01  linmin: -6.029e-05  t[s]:   1501.62
	FillingsUpdate:  mu: -0.074047435  nElectrons: 717.000000  magneticMoment: [ Abs: 0.02269  Tot: +0.00485 ]
	SubspaceRotationAdjust: set factor to 0.698
ElecMinimize: Iter:   2  G: -1825.071367742085840  |grad|_K:  3.247e-05  alpha:  3.659e-01  linmin:  2.017e-04  t[s]:   1577.08
	FillingsUpdate:  mu: -0.067019590  nElectrons: 717.000000  magneticMoment: [ Abs: 0.01083  Tot: -0.00008 ]
	SubspaceRotationAdjust: set factor to 0.392
ElecMinimize: Iter:   3  G: -1825.190995510914036  |grad|_K:  3.118e-05  alpha:  2.474e-01  linmin: -2.552e-04  t[s]:   1654.03
	FillingsUpdate:  mu: -0.048366999  nElectrons: 717.000000  magneticMoment: [ Abs: 0.00573  Tot: -0.00210 ]
	SubspaceRotationAdjust: set factor to 0.504
ElecMinimize: Iter:   4  G: -1825.241725063996910  |grad|_K:  1.086e-05  alpha:  1.100e-01  linmin: -2.436e-04  t[s]:   1729.18
ElecMinimize: 	Predicted alpha/alphaT>3.000000, increasing alphaT to 3.299196e-01.
	FillingsUpdate:  mu: -0.047992781  nElectrons: 717.000000  magneticMoment: [ Abs: 0.00396  Tot: -0.00264 ]
	SubspaceRotationAdjust: set factor to 0.298
ElecMinimize: Iter:   5  G: -1825.261940386181323  |grad|_K:  1.413e-05  alpha:  3.746e-01  linmin: -2.950e-04  t[s]:   1827.56
	FillingsUpdate:  mu: -0.048473643  nElectrons: 717.000000  magneticMoment: [ Abs: 0.00363  Tot: -0.00289 ]
	SubspaceRotationAdjust: set factor to 0.293
ElecMinimize: Iter:   6  G: -1825.279305487390957  |grad|_K:  6.466e-06  alpha:  1.857e-01  linmin: -8.161e-05  t[s]:   1902.03
	FillingsUpdate:  mu: -0.052268620  nElectrons: 717.000000  magneticMoment: [ Abs: 0.00362  Tot: -0.00268 ]
	SubspaceRotationAdjust: set factor to 0.218
ElecMinimize: Iter:   7  G: -1825.288445574983598  |grad|_K:  5.415e-06  alpha:  4.967e-01  linmin:  1.582e-04  t[s]:   1976.64
	FillingsUpdate:  mu: -0.052916600  nElectrons: 717.000000  magneticMoment: [ Abs: 0.00358  Tot: -0.00240 ]
	SubspaceRotationAdjust: set factor to 0.199
ElecMinimize: Iter:   8  G: -1825.292055860836172  |grad|_K:  3.599e-06  alpha:  2.843e-01  linmin: -1.257e-05  t[s]:   2052.18
	FillingsUpdate:  mu: -0.052123935  nElectrons: 717.000000  magneticMoment: [ Abs: 0.00335  Tot: -0.00199 ]
	SubspaceRotationAdjust: set factor to 0.166
ElecMinimize: Iter:   9  G: -1825.294788022702733  |grad|_K:  2.579e-06  alpha:  4.787e-01  linmin:  3.500e-05  t[s]:   2128.18
	FillingsUpdate:  mu: -0.051359228  nElectrons: 717.000000  magneticMoment: [ Abs: 0.00307  Tot: -0.00168 ]
	SubspaceRotationAdjust: set factor to 0.156
ElecMinimize: Iter:  10  G: -1825.295944349088813  |grad|_K:  1.891e-06  alpha:  3.969e-01  linmin:  4.502e-06  t[s]:   2202.56
	FillingsUpdate:  mu: -0.051031560  nElectrons: 717.000000  magneticMoment: [ Abs: 0.00269  Tot: -0.00136 ]
	SubspaceRotationAdjust: set factor to 0.179
ElecMinimize: Iter:  11  G: -1825.296739328015065  |grad|_K:  1.376e-06  alpha:  5.052e-01  linmin:  7.549e-06  t[s]:   2277.99
	FillingsUpdate:  mu: -0.051251915  nElectrons: 717.000000  magneticMoment: [ Abs: 0.00235  Tot: -0.00110 ]
	SubspaceRotationAdjust: set factor to 0.148
ElecMinimize: Iter:  12  G: -1825.297165993514227  |grad|_K:  1.246e-06  alpha:  5.123e-01  linmin:  2.120e-06  t[s]:   2353.57
	FillingsUpdate:  mu: -0.051573869  nElectrons: 717.000000  magneticMoment: [ Abs: 0.00198  Tot: -0.00083 ]
	SubspaceRotationAdjust: set factor to 0.19
ElecMinimize: Iter:  13  G: -1825.297492416513933  |grad|_K:  8.707e-07  alpha:  4.772e-01  linmin:  1.578e-06  t[s]:   2428.23
	FillingsUpdate:  mu: -0.051585942  nElectrons: 717.000000  magneticMoment: [ Abs: 0.00167  Tot: -0.00063 ]
	SubspaceRotationAdjust: set factor to 0.158
ElecMinimize: Iter:  14  G: -1825.297674832661414  |grad|_K:  8.387e-07  alpha:  5.463e-01  linmin:  9.554e-07  t[s]:   2504.11
	FillingsUpdate:  mu: -0.051385507  nElectrons: 717.000000  magneticMoment: [ Abs: 0.00134  Tot: -0.00042 ]
	SubspaceRotationAdjust: set factor to 0.217
ElecMinimize: Iter:  15  G: -1825.297818735595911  |grad|_K:  5.411e-07  alpha:  4.640e-01  linmin:  1.587e-07  t[s]:   2580.29
	FillingsUpdate:  mu: -0.051237382  nElectrons: 717.000000  magneticMoment: [ Abs: 0.00111  Tot: -0.00030 ]
	SubspaceRotationAdjust: set factor to 0.19
ElecMinimize: Iter:  16  G: -1825.297885776168187  |grad|_K:  4.955e-07  alpha:  5.192e-01  linmin: -2.710e-07  t[s]:   2655.94
	FillingsUpdate:  mu: -0.051199700  nElectrons: 717.000000  magneticMoment: [ Abs: 0.00088  Tot: -0.00020 ]
	SubspaceRotationAdjust: set factor to 0.231
ElecMinimize: Iter:  17  G: -1825.297931976473819  |grad|_K:  3.105e-07  alpha:  4.265e-01  linmin: -1.077e-07  t[s]:   2729.89
	FillingsUpdate:  mu: -0.051289834  nElectrons: 717.000000  magneticMoment: [ Abs: 0.00069  Tot: -0.00013 ]
	SubspaceRotationAdjust: set factor to 0.202
ElecMinimize: Iter:  18  G: -1825.297957143231088  |grad|_K:  2.793e-07  alpha:  5.916e-01  linmin: -1.860e-07  t[s]:   2805.63
	FillingsUpdate:  mu: -0.051338994  nElectrons: 717.000000  magneticMoment: [ Abs: 0.00055  Tot: -0.00008 ]
	SubspaceRotationAdjust: set factor to 0.197
ElecMinimize: Iter:  19  G: -1825.297970238919106  |grad|_K:  1.932e-07  alpha:  3.803e-01  linmin: -3.774e-08  t[s]:   2881.08
	FillingsUpdate:  mu: -0.051328865  nElectrons: 717.000000  magneticMoment: [ Abs: 0.00041  Tot: -0.00005 ]
	SubspaceRotationAdjust: set factor to 0.226
ElecMinimize: Iter:  20  G: -1825.297979368341203  |grad|_K:  1.497e-07  alpha:  5.543e-01  linmin:  8.866e-08  t[s]:   2956.62
	FillingsUpdate:  mu: -0.051312276  nElectrons: 717.000000  magneticMoment: [ Abs: 0.00031  Tot: -0.00003 ]
	SubspaceRotationAdjust: set factor to 0.215
ElecMinimize: Iter:  21  G: -1825.297984280026640  |grad|_K:  1.277e-07  alpha:  4.969e-01  linmin:  6.546e-08  t[s]:   3029.97
	FillingsUpdate:  mu: -0.051316785  nElectrons: 717.000000  magneticMoment: [ Abs: 0.00023  Tot: -0.00001 ]
	SubspaceRotationAdjust: set factor to 0.218
ElecMinimize: Iter:  22  G: -1825.297987303763421  |grad|_K:  9.174e-08  alpha:  4.207e-01  linmin:  9.595e-08  t[s]:   3105.15
	FillingsUpdate:  mu: -0.051336873  nElectrons: 717.000000  magneticMoment: [ Abs: 0.00015  Tot: +0.00000 ]
	SubspaceRotationAdjust: set factor to 0.233
ElecMinimize: Iter:  23  G: -1825.297989581068350  |grad|_K:  8.039e-08  alpha:  6.143e-01  linmin:  4.096e-07  t[s]:   3180.87
	FillingsUpdate:  mu: -0.051340363  nElectrons: 717.000000  magneticMoment: [ Abs: 0.00011  Tot: +0.00001 ]
	SubspaceRotationAdjust: set factor to 0.196
ElecMinimize: Iter:  24  G: -1825.297990685441619  |grad|_K:  6.160e-08  alpha:  3.880e-01  linmin: -1.443e-08  t[s]:   3255.47
	FillingsUpdate:  mu: -0.051330575  nElectrons: 717.000000  magneticMoment: [ Abs: 0.00007  Tot: +0.00001 ]
	SubspaceRotationAdjust: set factor to 0.285
ElecMinimize: Iter:  25  G: -1825.297991628465070  |grad|_K:  4.386e-08  alpha:  5.637e-01  linmin:  2.033e-07  t[s]:   3330.88
	FillingsUpdate:  mu: -0.051327858  nElectrons: 717.000000  magneticMoment: [ Abs: 0.00005  Tot: +0.00001 ]
	SubspaceRotationAdjust: set factor to 0.246
ElecMinimize: Iter:  26  G: -1825.297992040276313  |grad|_K:  3.967e-08  alpha:  4.860e-01  linmin:  7.921e-10  t[s]:   3405.77
	FillingsUpdate:  mu: -0.051330742  nElectrons: 717.000000  magneticMoment: [ Abs: 0.00003  Tot: +0.00001 ]
	SubspaceRotationAdjust: set factor to 0.237
ElecMinimize: Iter:  27  G: -1825.297992317935950  |grad|_K:  2.553e-08  alpha:  4.000e-01  linmin: -1.390e-08  t[s]:   3480.66
	FillingsUpdate:  mu: -0.051334076  nElectrons: 717.000000  magneticMoment: [ Abs: 0.00003  Tot: +0.00001 ]
	SubspaceRotationAdjust: set factor to 0.244
ElecMinimize: Iter:  28  G: -1825.297992480651601  |grad|_K:  1.847e-08  alpha:  5.657e-01  linmin: -6.449e-08  t[s]:   3555.92
	FillingsUpdate:  mu: -0.051332235  nElectrons: 717.000000  magneticMoment: [ Abs: 0.00002  Tot: +0.00001 ]
	SubspaceRotationAdjust: set factor to 0.28
ElecMinimize: Iter:  29  G: -1825.297992567308029  |grad|_K:  1.399e-08  alpha:  5.750e-01  linmin: -2.481e-08  t[s]:   3631.38
	FillingsUpdate:  mu: -0.051329369  nElectrons: 717.000000  magneticMoment: [ Abs: 0.00002  Tot: +0.00000 ]
	SubspaceRotationAdjust: set factor to 0.251
ElecMinimize: Iter:  30  G: -1825.297992609015637  |grad|_K:  1.249e-08  alpha:  4.830e-01  linmin:  1.861e-09  t[s]:   3706.31
	FillingsUpdate:  mu: -0.051328109  nElectrons: 717.000000  magneticMoment: [ Abs: 0.00002  Tot: +0.00000 ]
	SubspaceRotationAdjust: set factor to 0.256
ElecMinimize: Iter:  31  G: -1825.297992639486210  |grad|_K:  8.564e-09  alpha:  4.432e-01  linmin:  1.216e-08  t[s]:   3782.24
	FillingsUpdate:  mu: -0.051329861  nElectrons: 717.000000  magneticMoment: [ Abs: 0.00002  Tot: +0.00000 ]
	SubspaceRotationAdjust: set factor to 0.319
ElecMinimize: Iter:  32  G: -1825.297992661254511  |grad|_K:  6.535e-09  alpha:  6.763e-01  linmin:  9.054e-08  t[s]:   3858.18
	FillingsUpdate:  mu: -0.051329802  nElectrons: 717.000000  magneticMoment: [ Abs: 0.00001  Tot: +0.00000 ]
	SubspaceRotationAdjust: set factor to 0.306
ElecMinimize: Iter:  33  G: -1825.297992672265764  |grad|_K:  5.562e-09  alpha:  5.873e-01  linmin:  4.685e-08  t[s]:   3932.56
	FillingsUpdate:  mu: -0.051328790  nElectrons: 717.000000  magneticMoment: [ Abs: 0.00001  Tot: +0.00000 ]
	SubspaceRotationAdjust: set factor to 0.261
ElecMinimize: Iter:  34  G: -1825.297992677966931  |grad|_K:  4.567e-09  alpha:  4.180e-01  linmin: -4.151e-09  t[s]:   4009.60
	FillingsUpdate:  mu: -0.051328507  nElectrons: 717.000000  magneticMoment: [ Abs: 0.00001  Tot: +0.00000 ]
	SubspaceRotationAdjust: set factor to 0.211
ElecMinimize: Iter:  35  G: -1825.297992681388223  |grad|_K:  3.327e-09  alpha:  3.727e-01  linmin: -3.640e-08  t[s]:   4084.89
ElecMinimize: Converged (|Delta G|<1.000000e-08 for 2 iters).
Setting wave functions to eigenvectors of Hamiltonian
Vacuum energy after initial minimize, F = -1825.297992681388223

Shifting auxilliary hamiltonian by -0.165125 to set nElectrons=717.000000
	Linear fluid (dielectric constant: 78.4, screening length: 5.74355 Bohr) occupying 0.709130 of unit cell:	Completed after 25 iterations at t[s]:   4102.97

-------- Electronic minimization -----------
	Linear fluid (dielectric constant: 78.4, screening length: 5.74355 Bohr) occupying 0.709130 of unit cell:	Completed after 0 iterations at t[s]:   4119.32
	FillingsUpdate:  mu: -0.216453400  nElectrons: 717.000000  magneticMoment: [ Abs: 0.00001  Tot: +0.00000 ]
ElecMinimize: Iter:   0  G: -1825.291222459332630  |grad|_K:  1.740e-05  alpha:  1.000e+00
	Linear fluid (dielectric constant: 78.4, screening length: 5.74355 Bohr) occupying 0.709461 of unit cell:	Completed after 23 iterations at t[s]:   4182.93
	Linear fluid (dielectric constant: 78.4, screening length: 5.74355 Bohr) occupying 0.709134 of unit cell:	Completed after 23 iterations at t[s]:   4210.57
	FillingsUpdate:  mu: -0.216453400  nElectrons: 715.866949  magneticMoment: [ Abs: 0.00003  Tot: +0.00000 ]
	SubspaceRotationAdjust: set factor to 0.141
ElecMinimize: Iter:   1  G: -1825.316600994810642  |grad|_K:  7.920e-06  alpha:  2.070e-01  linmin:  2.029e-03  t[s]:   4240.94
	Linear fluid (dielectric constant: 78.4, screening length: 5.74355 Bohr) occupying 0.709334 of unit cell:	Completed after 14 iterations at t[s]:   4270.04
ElecMinimize: 	Predicted alpha/alphaT>3.000000, increasing alphaT to 6.208869e-01.
	Linear fluid (dielectric constant: 78.4, screening length: 5.74355 Bohr) occupying 0.709726 of unit cell:	Completed after 16 iterations at t[s]:   4297.10
	Linear fluid (dielectric constant: 78.4, screening length: 5.74355 Bohr) occupying 0.710131 of unit cell:	Completed after 16 iterations at t[s]:   4324.40
	FillingsUpdate:  mu: -0.216453400  nElectrons: 715.083443  magneticMoment: [ Abs: 0.00190  Tot: +0.00000 ]
	SubspaceRotationAdjust: set factor to 0.105
ElecMinimize: Iter:   2  G: -1825.343966393495066  |grad|_K:  5.604e-06  alpha:  1.058e+00  linmin:  1.992e-04  t[s]:   4353.76
	Linear fluid (dielectric constant: 78.4, screening length: 5.74355 Bohr) occupying 0.711331 of unit cell:	Completed after 18 iterations at t[s]:   4383.31
	Linear fluid (dielectric constant: 78.4, screening length: 5.74355 Bohr) occupying 0.710814 of unit cell:	Completed after 16 iterations at t[s]:   4410.10
	FillingsUpdate:  mu: -0.216453400  nElectrons: 714.352873  magneticMoment: [ Abs: 0.00223  Tot: +0.00001 ]
	SubspaceRotationAdjust: set factor to 0.0653
ElecMinimize: Iter:   3  G: -1825.352018287215515  |grad|_K:  3.863e-06  alpha:  5.953e-01  linmin:  5.658e-05  t[s]:   4439.23
	Linear fluid (dielectric constant: 78.4, screening length: 5.74355 Bohr) occupying 0.711499 of unit cell:	Completed after 16 iterations at t[s]:   4468.86
	Linear fluid (dielectric constant: 78.4, screening length: 5.74355 Bohr) occupying 0.711913 of unit cell:	Completed after 14 iterations at t[s]:   4494.63
	FillingsUpdate:  mu: -0.216453400  nElectrons: 714.352771  magneticMoment: [ Abs: 0.00325  Tot: +0.00001 ]
	SubspaceRotationAdjust: set factor to 0.0577
ElecMinimize: Iter:   4  G: -1825.358354360916110  |grad|_K:  2.055e-06  alpha:  9.612e-01  linmin: -1.566e-04  t[s]:   4524.59
	Linear fluid (dielectric constant: 78.4, screening length: 5.74355 Bohr) occupying 0.712466 of unit cell:	Completed after 14 iterations at t[s]:   4554.55
	Linear fluid (dielectric constant: 78.4, screening length: 5.74355 Bohr) occupying 0.712654 of unit cell:	Completed after 11 iterations at t[s]:   4580.70
	FillingsUpdate:  mu: -0.216453400  nElectrons: 714.216530  magneticMoment: [ Abs: 0.00312  Tot: +0.00001 ]
	SubspaceRotationAdjust: set factor to 0.0703
ElecMinimize: Iter:   5  G: -1825.360801964636494  |grad|_K:  1.597e-06  alpha:  1.298e+00  linmin: -2.751e-05  t[s]:   4610.11
	Linear fluid (dielectric constant: 78.4, screening length: 5.74355 Bohr) occupying 0.713035 of unit cell:	Completed after 13 iterations at t[s]:   4639.92
	Linear fluid (dielectric constant: 78.4, screening length: 5.74355 Bohr) occupying 0.712989 of unit cell:	Completed after 3 iterations at t[s]:   4664.98
	FillingsUpdate:  mu: -0.216453400  nElectrons: 714.156865  magneticMoment: [ Abs: 0.00287  Tot: +0.00001 ]
	SubspaceRotationAdjust: set factor to 0.0837
ElecMinimize: Iter:   6  G: -1825.362081759706143  |grad|_K:  1.443e-06  alpha:  1.135e+00  linmin: -5.864e-07  t[s]:   4695.26
	Linear fluid (dielectric constant: 78.4, screening length: 5.74355 Bohr) occupying 0.713171 of unit cell:	Completed after 13 iterations at t[s]:   4722.94
	Linear fluid (dielectric constant: 78.4, screening length: 5.74355 Bohr) occupying 0.713184 of unit cell:	Completed after 3 iterations at t[s]:   4746.80
	FillingsUpdate:  mu: -0.216453400  nElectrons: 714.168190  magneticMoment: [ Abs: 0.00250  Tot: +0.00001 ]
	SubspaceRotationAdjust: set factor to 0.0891
ElecMinimize: Iter:   7  G: -1825.363202983237898  |grad|_K:  1.204e-06  alpha:  1.220e+00  linmin: -5.924e-05  t[s]:   4777.23
	Linear fluid (dielectric constant: 78.4, screening length: 5.74355 Bohr) occupying 0.713350 of unit cell:	Completed after 13 iterations at t[s]:   4806.37
	Linear fluid (dielectric constant: 78.4, screening length: 5.74355 Bohr) occupying 0.713356 of unit cell:	Completed after 3 iterations at t[s]:   4831.11
	FillingsUpdate:  mu: -0.216453400  nElectrons: 714.062487  magneticMoment: [ Abs: 0.00190  Tot: +0.00001 ]
	SubspaceRotationAdjust: set factor to 0.0879
ElecMinimize: Iter:   8  G: -1825.364021794812970  |grad|_K:  9.829e-07  alpha:  1.268e+00  linmin:  1.477e-05  t[s]:   4860.42
	Linear fluid (dielectric constant: 78.4, screening length: 5.74355 Bohr) occupying 0.713580 of unit cell:	Completed after 13 iterations at t[s]:   4888.34
	Linear fluid (dielectric constant: 78.4, screening length: 5.74355 Bohr) occupying 0.713530 of unit cell:	Completed after 9 iterations at t[s]:   4913.35
	FillingsUpdate:  mu: -0.216453400  nElectrons: 714.061537  magneticMoment: [ Abs: 0.00126  Tot: +0.00001 ]
	SubspaceRotationAdjust: set factor to 0.0882
ElecMinimize: Iter:   9  G: -1825.364439572187393  |grad|_K:  6.997e-07  alpha:  9.830e-01  linmin:  4.501e-06  t[s]:   4943.06
	Linear fluid (dielectric constant: 78.4, screening length: 5.74355 Bohr) occupying 0.713675 of unit cell:	Completed after 9 iterations at t[s]:   4970.81
	Linear fluid (dielectric constant: 78.4, screening length: 5.74355 Bohr) occupying 0.713660 of unit cell:	Completed after 3 iterations at t[s]:   4994.30
	FillingsUpdate:  mu: -0.216453400  nElectrons: 714.027666  magneticMoment: [ Abs: 0.00080  Tot: +0.00000 ]
	SubspaceRotationAdjust: set factor to 0.106
ElecMinimize: Iter:  10  G: -1825.364629764398160  |grad|_K:  4.593e-07  alpha:  8.819e-01  linmin:  6.903e-08  t[s]:   5023.29
	Linear fluid (dielectric constant: 78.4, screening length: 5.74355 Bohr) occupying 0.713739 of unit cell:	Completed after 7 iterations at t[s]:   5050.43
	Linear fluid (dielectric constant: 78.4, screening length: 5.74355 Bohr) occupying 0.713733 of unit cell:	Completed after 0 iterations at t[s]:   5073.58
	FillingsUpdate:  mu: -0.216453400  nElectrons: 714.005019  magneticMoment: [ Abs: 0.00054  Tot: +0.00000 ]
	SubspaceRotationAdjust: set factor to 0.121
ElecMinimize: Iter:  11  G: -1825.364706552130428  |grad|_K:  3.539e-07  alpha:  8.248e-01  linmin:  1.893e-05  t[s]:   5102.97
	Linear fluid (dielectric constant: 78.4, screening length: 5.74355 Bohr) occupying 0.713788 of unit cell:	Completed after 10 iterations at t[s]:   5131.29
	Linear fluid (dielectric constant: 78.4, screening length: 5.74355 Bohr) occupying 0.713781 of unit cell:	Completed after 2 iterations at t[s]:   5155.58
	FillingsUpdate:  mu: -0.216453400  nElectrons: 714.003923  magneticMoment: [ Abs: 0.00041  Tot: +0.00000 ]
	SubspaceRotationAdjust: set factor to 0.132
ElecMinimize: Iter:  12  G: -1825.364746316295168  |grad|_K:  2.441e-07  alpha:  7.244e-01  linmin:  1.084e-05  t[s]:   5184.77
	Linear fluid (dielectric constant: 78.4, screening length: 5.74355 Bohr) occupying 0.713810 of unit cell:	Completed after 9 iterations at t[s]:   5213.41
	Linear fluid (dielectric constant: 78.4, screening length: 5.74355 Bohr) occupying 0.713817 of unit cell:	Completed after 3 iterations at t[s]:   5237.67
	FillingsUpdate:  mu: -0.216453400  nElectrons: 713.984261  magneticMoment: [ Abs: 0.00034  Tot: +0.00000 ]
	SubspaceRotationAdjust: set factor to 0.126
ElecMinimize: Iter:  13  G: -1825.364769783136126  |grad|_K:  1.791e-07  alpha:  8.907e-01  linmin: -5.534e-05  t[s]:   5267.26
	Linear fluid (dielectric constant: 78.4, screening length: 5.74355 Bohr) occupying 0.713843 of unit cell:	Completed after 9 iterations at t[s]:   5294.63
	Linear fluid (dielectric constant: 78.4, screening length: 5.74355 Bohr) occupying 0.713840 of unit cell:	Completed after 0 iterations at t[s]:   5318.22
	FillingsUpdate:  mu: -0.216453400  nElectrons: 713.989329  magneticMoment: [ Abs: 0.00029  Tot: -0.00000 ]
	SubspaceRotationAdjust: set factor to 0.103
ElecMinimize: Iter:  14  G: -1825.364781097306604  |grad|_K:  1.569e-07  alpha:  7.650e-01  linmin:  1.046e-04  t[s]:   5348.51
	Linear fluid (dielectric constant: 78.4, screening length: 5.74355 Bohr) occupying 0.713860 of unit cell:	Completed after 8 iterations at t[s]:   5376.31
	Linear fluid (dielectric constant: 78.4, screening length: 5.74355 Bohr) occupying 0.713856 of unit cell:	Completed after 2 iterations at t[s]:   5400.33
	FillingsUpdate:  mu: -0.216453400  nElectrons: 713.980412  magneticMoment: [ Abs: 0.00024  Tot: -0.00000 ]
	SubspaceRotationAdjust: set factor to 0.0796
ElecMinimize: Iter:  15  G: -1825.364786892746451  |grad|_K:  9.464e-08  alpha:  6.001e-01  linmin: -2.118e-05  t[s]:   5429.41
	Linear fluid (dielectric constant: 78.4, screening length: 5.74355 Bohr) occupying 0.713863 of unit cell:	Completed after 3 iterations at t[s]:   5457.06
	Linear fluid (dielectric constant: 78.4, screening length: 5.74355 Bohr) occupying 0.713866 of unit cell:	Completed after 0 iterations at t[s]:   5480.41
	FillingsUpdate:  mu: -0.216453400  nElectrons: 713.981621  magneticMoment: [ Abs: 0.00020  Tot: -0.00000 ]
	SubspaceRotationAdjust: set factor to 0.101
ElecMinimize: Iter:  16  G: -1825.364790112283572  |grad|_K:  6.409e-08  alpha:  7.808e-01  linmin: -7.483e-05  t[s]:   5510.03
	Linear fluid (dielectric constant: 78.4, screening length: 5.74355 Bohr) occupying 0.713872 of unit cell:	Completed after 6 iterations at t[s]:   5537.56
	Linear fluid (dielectric constant: 78.4, screening length: 5.74355 Bohr) occupying 0.713870 of unit cell:	Completed after 0 iterations at t[s]:   5560.55
	FillingsUpdate:  mu: -0.216453400  nElectrons: 713.982384  magneticMoment: [ Abs: 0.00018  Tot: -0.00000 ]
	SubspaceRotationAdjust: set factor to 0.0792
ElecMinimize: Iter:  17  G: -1825.364791112064722  |grad|_K:  6.425e-08  alpha:  5.598e-01  linmin: -5.759e-05  t[s]:   5590.31
	Linear fluid (dielectric constant: 78.4, screening length: 5.74355 Bohr) occupying 0.713876 of unit cell:	Completed after 4 iterations at t[s]:   5617.33
	Linear fluid (dielectric constant: 78.4, screening length: 5.74355 Bohr) occupying 0.713875 of unit cell:	Completed after 0 iterations at t[s]:   5640.57
	FillingsUpdate:  mu: -0.216453400  nElectrons: 713.978959  magneticMoment: [ Abs: 0.00015  Tot: -0.00000 ]
	SubspaceRotationAdjust: set factor to 0.0878
ElecMinimize: Iter:  18  G: -1825.364791950672270  |grad|_K:  5.063e-08  alpha:  4.459e-01  linmin:  5.119e-06  t[s]:   5670.34
	Linear fluid (dielectric constant: 78.4, screening length: 5.74355 Bohr) occupying 0.713877 of unit cell:	Completed after 0 iterations at t[s]:   5695.97
	Linear fluid (dielectric constant: 78.4, screening length: 5.74355 Bohr) occupying 0.713878 of unit cell:	Completed after 0 iterations at t[s]:   5718.63
	FillingsUpdate:  mu: -0.216453400  nElectrons: 713.976167  magneticMoment: [ Abs: 0.00012  Tot: -0.00000 ]
	SubspaceRotationAdjust: set factor to 0.105
ElecMinimize: Iter:  19  G: -1825.364792594434448  |grad|_K:  3.468e-08  alpha:  5.666e-01  linmin: -2.157e-05  t[s]:   5747.87
	Linear fluid (dielectric constant: 78.4, screening length: 5.74355 Bohr) occupying 0.713880 of unit cell:	Completed after 3 iterations at t[s]:   5774.77
	Linear fluid (dielectric constant: 78.4, screening length: 5.74355 Bohr) occupying 0.713879 of unit cell:	Completed after 0 iterations at t[s]:   5797.89
	FillingsUpdate:  mu: -0.216453400  nElectrons: 713.975256  magneticMoment: [ Abs: 0.00010  Tot: -0.00000 ]
	SubspaceRotationAdjust: set factor to 0.119
ElecMinimize: Iter:  20  G: -1825.364792784886504  |grad|_K:  3.512e-08  alpha:  4.456e-01  linmin: -1.516e-04  t[s]:   5827.87
	Linear fluid (dielectric constant: 78.4, screening length: 5.74355 Bohr) occupying 0.713881 of unit cell:	Completed after 0 iterations at t[s]:   5854.47
	Linear fluid (dielectric constant: 78.4, screening length: 5.74355 Bohr) occupying 0.713882 of unit cell:	Completed after 2 iterations at t[s]:   5878.67
	FillingsUpdate:  mu: -0.216453400  nElectrons: 713.976400  magneticMoment: [ Abs: 0.00007  Tot: -0.00000 ]
	SubspaceRotationAdjust: set factor to 0.132
ElecMinimize: Iter:  21  G: -1825.364793130271892  |grad|_K:  3.328e-08  alpha:  6.771e-01  linmin:  8.644e-05  t[s]:   5909.07
	Linear fluid (dielectric constant: 78.4, screening length: 5.74355 Bohr) occupying 0.713887 of unit cell:	Completed after 3 iterations at t[s]:   5935.82
	Linear fluid (dielectric constant: 78.4, screening length: 5.74355 Bohr) occupying 0.713884 of unit cell:	Completed after 0 iterations at t[s]:   5958.80
	FillingsUpdate:  mu: -0.216453400  nElectrons: 713.976971  magneticMoment: [ Abs: 0.00006  Tot: -0.00000 ]
	SubspaceRotationAdjust: set factor to 0.125
ElecMinimize: Iter:  22  G: -1825.364793261217756  |grad|_K:  4.850e-08  alpha:  2.806e-01  linmin:  6.130e-05  t[s]:   5988.12
	Linear fluid (dielectric constant: 78.4, screening length: 5.74355 Bohr) occupying 0.713889 of unit cell:	Completed after 0 iterations at t[s]:   6014.39
	Linear fluid (dielectric constant: 78.4, screening length: 5.74355 Bohr) occupying 0.713887 of unit cell:	Completed after 0 iterations at t[s]:   6037.88
	FillingsUpdate:  mu: -0.216453400  nElectrons: 713.976399  magneticMoment: [ Abs: 0.00005  Tot: -0.00000 ]
	SubspaceRotationAdjust: set factor to 0.105
ElecMinimize: Iter:  23  G: -1825.364793388948328  |grad|_K:  4.402e-08  alpha:  1.901e-01  linmin:  8.017e-09  t[s]:   6068.84
	Linear fluid (dielectric constant: 78.4, screening length: 5.74355 Bohr) occupying 0.713890 of unit cell:	Completed after 2 iterations at t[s]:   6095.50
	Linear fluid (dielectric constant: 78.4, screening length: 5.74355 Bohr) occupying 0.713889 of unit cell:	Completed after 0 iterations at t[s]:   6119.27
	FillingsUpdate:  mu: -0.216453400  nElectrons: 713.975537  magneticMoment: [ Abs: 0.00004  Tot: -0.00000 ]
	SubspaceRotationAdjust: set factor to 0.154
ElecMinimize: Iter:  24  G: -1825.364793390820068  |grad|_K:  2.425e-08  alpha:  9.247e-02  linmin: -1.513e-05  t[s]:   6149.55
	Linear fluid (dielectric constant: 78.4, screening length: 5.74355 Bohr) occupying 0.713889 of unit cell:	Completed after 0 iterations at t[s]:   6175.05
ElecMinimize: 	Predicted alpha/alphaT>3.000000, increasing alphaT to 2.774025e-01.
	Linear fluid (dielectric constant: 78.4, screening length: 5.74355 Bohr) occupying 0.713891 of unit cell:	Completed after 0 iterations at t[s]:   6197.94
	Linear fluid (dielectric constant: 78.4, screening length: 5.74355 Bohr) occupying 0.713893 of unit cell:	Completed after 2 iterations at t[s]:   6222.42
	FillingsUpdate:  mu: -0.216453400  nElectrons: 713.972928  magneticMoment: [ Abs: 0.00003  Tot: -0.00000 ]
	SubspaceRotationAdjust: set factor to 0.137
ElecMinimize: Iter:  25  G: -1825.364793446541626  |grad|_K:  2.097e-08  alpha:  6.108e-01  linmin:  1.200e-04  t[s]:   6252.20
	Linear fluid (dielectric constant: 78.4, screening length: 5.74355 Bohr) occupying 0.713895 of unit cell:	Completed after 0 iterations at t[s]:   6278.71
	Linear fluid (dielectric constant: 78.4, screening length: 5.74355 Bohr) occupying 0.713894 of unit cell:	Completed after 0 iterations at t[s]:   6301.89
	FillingsUpdate:  mu: -0.216453400  nElectrons: 713.972681  magneticMoment: [ Abs: 0.00003  Tot: -0.00000 ]
	SubspaceRotationAdjust: set factor to 0.18
ElecMinimize: Iter:  26  G: -1825.364793452580443  |grad|_K:  1.942e-08  alpha:  2.606e-01  linmin: -9.032e-06  t[s]:   6331.18
	Linear fluid (dielectric constant: 78.4, screening length: 5.74355 Bohr) occupying 0.713895 of unit cell:	Completed after 0 iterations at t[s]:   6357.02
	Linear fluid (dielectric constant: 78.4, screening length: 5.74355 Bohr) occupying 0.713896 of unit cell:	Completed after 0 iterations at t[s]:   6380.38
	FillingsUpdate:  mu: -0.216453400  nElectrons: 713.973346  magneticMoment: [ Abs: 0.00002  Tot: -0.00000 ]
	SubspaceRotationAdjust: set factor to 0.175
ElecMinimize: Iter:  27  G: -1825.364793538922640  |grad|_K:  1.832e-08  alpha:  4.898e-01  linmin:  2.087e-08  t[s]:   6409.46
	Linear fluid (dielectric constant: 78.4, screening length: 5.74355 Bohr) occupying 0.713897 of unit cell:	Completed after 3 iterations at t[s]:   6436.69
	Linear fluid (dielectric constant: 78.4, screening length: 5.74355 Bohr) occupying 0.713896 of unit cell:	Completed after 0 iterations at t[s]:   6460.20
	FillingsUpdate:  mu: -0.216453400  nElectrons: 713.973762  magneticMoment: [ Abs: 0.00002  Tot: -0.00000 ]
	SubspaceRotationAdjust: set factor to 0.129
ElecMinimize: Iter:  28  G: -1825.364793613738129  |grad|_K:  3.109e-08  alpha:  1.051e-01  linmin:  1.875e-04  t[s]:   6489.97
ElecMinimize: 	Bad step direction: g.d > 0.
ElecMinimize: 	Undoing step.
	Linear fluid (dielectric constant: 78.4, screening length: 5.74355 Bohr) occupying 0.713896 of unit cell:	Completed after 0 iterations at t[s]:   6515.79
ElecMinimize: 	Step failed: resetting search direction.
	FillingsUpdate:  mu: -0.216453400  nElectrons: 713.973762  magneticMoment: [ Abs: 0.00002  Tot: -0.00000 ]
	SubspaceRotationAdjust: set factor to 0.107
ElecMinimize: Iter:  29  G: -1825.364793613730626  |grad|_K:  2.821e-08  alpha:  0.000e+00
	Linear fluid (dielectric constant: 78.4, screening length: 5.74355 Bohr) occupying 0.713896 of unit cell:	Completed after 0 iterations at t[s]:   6571.43
ElecMinimize: 	Predicted alpha/alphaT>3.000000, increasing alphaT to 3.153870e-01.
	Linear fluid (dielectric constant: 78.4, screening length: 5.74355 Bohr) occupying 0.713896 of unit cell:	Completed after 3 iterations at t[s]:   6595.22
	Linear fluid (dielectric constant: 78.4, screening length: 5.74355 Bohr) occupying 0.713896 of unit cell:	Completed after 0 iterations at t[s]:   6619.48
ElecMinimize: 	Step increased G by 5.181596e-08, reducing alpha to 1.090124e-02.
	Linear fluid (dielectric constant: 78.4, screening length: 5.74355 Bohr) occupying 0.713896 of unit cell:	Completed after 0 iterations at t[s]:   6669.16
ElecMinimize: 	Step increased G by 4.895787e-08, reducing alpha to 1.090124e-03.
	Linear fluid (dielectric constant: 78.4, screening length: 5.74355 Bohr) occupying 0.713896 of unit cell:	Completed after 0 iterations at t[s]:   6719.20
ElecMinimize: 	Step increased G by 4.772323e-08, reducing alpha to 1.090124e-04.
ElecMinimize: 	Step failed to reduce G after 3 attempts. Quitting step.
ElecMinimize: 	Undoing step.
	Linear fluid (dielectric constant: 78.4, screening length: 5.74355 Bohr) occupying 0.713896 of unit cell:	Completed after 0 iterations at t[s]:   6768.88
ElecMinimize: 	Step failed along negative gradient direction.
ElecMinimize: Probably at roundoff error limit. (Stopping)
Setting wave functions to eigenvectors of Hamiltonian
Single-point solvation energy estimate, DeltaG = -0.066800884611894

# Ionic positions in lattice coordinates:
ion Zr   0.124249105898689   0.000908082229015   0.599979565333658 1
ion Zr   0.999596199569981   0.125836200394243   0.400225317914614 1
ion Zr   0.374595286190224   0.000892658197668   0.600426640849322 1
ion Zr   0.249773064700971   0.126054080048463   0.400792025220553 1
ion Zr   0.625006558154399   0.000883821947182   0.600060954396999 1
ion Zr   0.499396365424820   0.125984664096940   0.400921978504485 1
ion Zr   0.874748889541405   0.000906256942756   0.599718786835397 1
ion Zr   0.749546822181483   0.125851190725486   0.400308235924882 1
ion Zr   0.122877822933282   0.249208773728163   0.599753655185233 1
ion Zr   0.999719661650782   0.376009168449035   0.400738364028077 1
ion Zr   0.374158795327317   0.249827808007487   0.601243663817561 1
ion Zr   0.249960207224265   0.376385562006195   0.402306851862901 1
ion Zr   0.626695173487659   0.248727150551988   0.599942254269830 1
ion Zr   0.499253612588272   0.376342805396279   0.402409788442487 1
ion Zr   0.874659898147888   0.250637339329387   0.599957947035604 1
ion Zr   0.749417367118257   0.376004342275369   0.400844214942390 1
ion Zr   0.124128819957427   0.501033841763434   0.601269655641935 1
ion Zr   0.999725940612258   0.625695800784489   0.400715835715989 1
ion Zr   0.373986968816806   0.498906462199224   0.612520110518200 1
ion Zr   0.250016032094177   0.625435482726502   0.402251515039560 1
ion Zr   0.625330137170120   0.501584082443053   0.601333825856041 1
ion Zr   0.499161249333509   0.625370209896198   0.402342339078200 1
ion Zr   0.874643475620356   0.500973487322690   0.600367086609275 1
ion Zr   0.749400513012128   0.625708777461699   0.400787502553363 1
ion Zr   0.122835628262463   0.752716195918833   0.599909759690078 1
ion Zr   0.999611803651689   0.875862874358777   0.400226622384426 1
ion Zr   0.374590617818788   0.751095956889984   0.601586351286732 1
ion Zr   0.249864076362778   0.875604206002219   0.400835030077982 1
ion Zr   0.626284583774230   0.752667391752517   0.600048861705640 1
ion Zr   0.499410568149641   0.875584983298715   0.400943668457571 1
ion Zr   0.874717877246740   0.751309008167224   0.600011896553381 1
ion Zr   0.749540705701183   0.875809758757772   0.400308349019791 1
ion Si   0.999563805526676   0.000845461884575   0.499894060191885 1
ion Si   0.124542171091579   0.125574736320916   0.500021501224025 1
ion Si   0.249664923735460   0.000826099192495   0.500427075536571 1
ion Si   0.374520862422587   0.125994963383262   0.500802016916201 1
ion Si   0.499682410059708   0.000830734923351   0.500571421538232 1
ion Si   0.624726934092245   0.125536873577378   0.500144953085052 1
ion Si   0.749804883785622   0.000813033832527   0.499949447941016 1
ion Si   0.874615230628988   0.125685156286303   0.499912677411356 1
ion Si   0.999230070978134   0.250756924004560   0.499996022034241 1
ion Si   0.124341577453495   0.376130891716408   0.500885217388296 1
ion Si   0.249696226760365   0.250879252899721   0.500962914669366 1
ion Si   0.374682073504679   0.377041967885835   0.503426637162984 1
ion Si   0.499494179602164   0.250739612751050   0.501176903936012 1
ion Si   0.624775347756377   0.376136262865266   0.501106263903315 1
ion Si   0.749971249285778   0.250875180503311   0.500132742327857 1
ion Si   0.874642936262359   0.375951056671573   0.500427245197511 1
ion Si   0.999729442353049   0.500942393793289   0.500647622501563 1
ion Si   0.124458567903723   0.625863619825904   0.500943105027509 1
ion Si   0.250056976085193   0.501016470950375   0.502964257982189 1
ion Si   0.374525275191231   0.624877139395566   0.503324470878881 1
ion Si   0.499157108027459   0.501022750840529   0.503103656564226 1
ion Si   0.624787276298563   0.625899513039958   0.501033841066176 1
ion Si   0.749527481786772   0.500964636353216   0.500768034211548 1
ion Si   0.874613012706713   0.625945106307511   0.500455419342755 1
ion Si   0.999266039849161   0.750944962400754   0.500046790494062 1
ion Si   0.124605706205088   0.876163061096266   0.500066057770329 1
ion Si   0.249861354731552   0.750974162960906   0.501054393932175 1
ion Si   0.374600332561615   0.875643676132929   0.500882223175571 1
ion Si   0.499377767008502   0.750889076746318   0.501175811898260 1
ion Si   0.624742813792540   0.876139301167496   0.500192498290549 1
ion Si   0.749952421314738   0.751048682310131   0.500167216631611 1
ion Si   0.874653820325244   0.876075009494680   0.499908615443710 1
ion Se   0.999040114105150   0.125237091195916   0.654653311145139 1
ion Se   0.124975787902778   0.000814037382082   0.346280936606838 1
ion Se   0.249078030166184   0.124872012645385   0.654580744717277 1
ion Se   0.374706653297503   0.000775740906720   0.346630530641243 1
ion Se   0.499991047151635   0.124969374595377   0.654755057080956 1
ion Se   0.624324620487892   0.000833191302051   0.346419092017648 1
ion Se   0.750479337244805   0.125223219972155   0.654757190631603 1
ion Se   0.874558177342604   0.000805346516698   0.345791953698971 1
ion Se   0.998616945918839   0.375588428676401   0.654420287643902 1
ion Se   0.125086239438771   0.251367686523503   0.346737780498665 1
ion Se   0.243203813407805   0.369785353462822   0.653658156082063 1
ion Se   0.374664140853332   0.251523902739917   0.347292748845712 1
ion Se   0.506028769354323   0.369745219758557   0.653707393257085 1
ion Se   0.623796996296665   0.251247304066400   0.346921251078006 1
ion Se   0.750504338823655   0.375591493012466   0.654568312843895 1
ion Se   0.874439718759778   0.251105962402534   0.346137285104815 1
ion Se   0.998567992056831   0.626350484024874   0.654519204040455 1
ion Se   0.125244276714323   0.500819660261087   0.347082643284054 1
ion Se   0.243281506793705   0.631986352034935   0.653817045836808 1
ion Se   0.374654616276890   0.500753153243410   0.347860024578191 1
ion Se   0.505673004456755   0.631705621734160   0.654304081622316 1
ion Se   0.623974007501904   0.500706594445541   0.347191598152662 1
ion Se   0.750729409230414   0.626578576745470   0.654639035725175 1
ion Se   0.874544632992158   0.500781753462894   0.346490967802266 1
ion Se   0.998926162946870   0.876807114004632   0.654813972303600 1
ion Se   0.125121711004153   0.750349398676843   0.346763108989883 1
ion Se   0.249180260430487   0.876951899311245   0.654495667047476 1
ion Se   0.374709997732260   0.750245758441056   0.347141138665719 1
ion Se   0.499991932632023   0.876976322870244   0.654648134744015 1
ion Se   0.623703764268942   0.750239011408997   0.346848983232217 1
ion Se   0.750470837735518   0.876642992080407   0.654762903879086 1
ion Se   0.874551378412406   0.750638124553295   0.346146074975480 1
ion O   0.373700091086394   0.507442013580765   0.709500810130444 1
ion O   0.367579760842074   0.436044379025876   0.757022504181348 1
ion H   0.423635807522814   0.395989254351944   0.747620000487797 1


# Forces in Lattice coordinates:
force Zr  -0.003926073523895   0.002802485350633   0.344194759779952 1
force Zr  -0.000267680893904   0.008944489256458  -0.359106545445954 1
force Zr  -0.000502933280237  -0.000135781001914   0.328284397063907 1
force Zr   0.002440541966486   0.005020196121666  -0.344360882203811 1
force Zr   0.001796875862546   0.002481413026473   0.350805985593791 1
force Zr  -0.004977942351050   0.004640040751842  -0.341562341312179 1
force Zr  -0.004769492169490   0.003507544080942   0.360240950796582 1
force Zr  -0.002561584406051   0.009072972274603  -0.357733722497199 1
force Zr  -0.022546114645691  -0.014000330484696   0.319668338430007 1
force Zr  -0.001001173261914   0.007384698377698  -0.349599149327486 1
force Zr   0.005206637272093  -0.021824597324852   0.261167985457381 1
force Zr   0.001671567158078   0.004514039184519  -0.348119605205405 1
force Zr   0.006092998250702  -0.003931128526345   0.330319182476612 1
force Zr  -0.005255074631037   0.006618614171023  -0.340746763230869 1
force Zr   0.000747442720417   0.000298490567200   0.351495574191811 1
force Zr  -0.003657549738964   0.004884243082696  -0.348834878632549 1
force Zr  -0.030165960645156   0.006755481557275   0.275316900921841 1
force Zr  -0.001408634944390   0.003306244772620  -0.342600571591113 1
force Zr   0.023141736556242  -0.000223807527101   0.100063354057564 1
force Zr   0.003431888169073   0.001961180419528  -0.349922790140287 1
force Zr   0.016630369381700  -0.003088616822372   0.295032561541125 1
force Zr  -0.008670155438703  -0.002215219293276  -0.346669682776476 1
force Zr  -0.001571354184828   0.003995340615283   0.331228078752923 1
force Zr  -0.000726179202761   0.004450712479748  -0.344629189375168 1
force Zr  -0.015471144199290   0.014857367938317   0.317040866659248 1
force Zr   0.002538276412533   0.000025103225909  -0.356452919793941 1
force Zr  -0.002252055346401   0.025898215622944   0.274406718185588 1
force Zr   0.000148085916860   0.003860728083677  -0.345549406266524 1
force Zr   0.010338767086933   0.015747052804403   0.313553313043154 1
force Zr  -0.005019364579495   0.007040007053054  -0.342649109128293 1
force Zr  -0.001996723998614   0.008376773548181   0.349088107050873 1
force Zr  -0.004958073393422  -0.000718289639779  -0.360681613223217 1
force Si   0.003164809438284   0.000205361868495  -0.001147448266123 1
force Si  -0.002319611201200   0.003708238992726  -0.002827712850221 1
force Si   0.005092769998546   0.000950830868143   0.002127404309574 1
force Si   0.003756050642141  -0.003964329175555  -0.008107979524443 1
force Si  -0.013364771503781  -0.000058040368011  -0.004134364841667 1
force Si   0.003768348360648   0.004157146681016  -0.004771026530693 1
force Si  -0.005536131519896   0.000430098168684   0.002868560652484 1
force Si   0.000586252415410   0.006754255255650   0.000031487739955 1
force Si   0.007199011104248  -0.001946865388344  -0.003249432448886 1
force Si  -0.000971022795604  -0.002609940822363   0.010765964751862 1
force Si   0.002924107311087  -0.009724604114264   0.004076877888073 1
force Si  -0.004301034542473  -0.002399334470265   0.025571581401024 1
force Si  -0.003595931592023  -0.005419381658372  -0.000329236336801 1
force Si   0.004447619081247  -0.001992423536113   0.005401516169268 1
force Si  -0.004314239481575  -0.009805759029742  -0.012487677967570 1
force Si  -0.000406618974000   0.006639137928710   0.000383139973222 1
force Si  -0.004031471943675   0.002786490223225  -0.000529402097747 1
force Si  -0.006222574507961  -0.003207006044463   0.005159191122877 1
force Si   0.000063405742528  -0.002517310013325   0.020701208666946 1
force Si  -0.003804216369883  -0.002597918677892   0.019766939326410 1
force Si  -0.000389916889791  -0.007173864157447   0.018242023333719 1
force Si   0.006823135845007  -0.001710704860333   0.005729097954086 1
force Si   0.000797850413343   0.000189282633906  -0.010130175236975 1
force Si   0.000688645725505  -0.009352990285198  -0.007915248955665 1
force Si   0.008061118664030   0.005151670674925  -0.006950748366594 1
force Si  -0.006907979590221  -0.004755962392957  -0.006062065681525 1
force Si   0.000688636764756   0.000518099287971   0.005820928003229 1
force Si   0.003391788118757   0.001271505794685  -0.003008668085164 1
force Si  -0.000432827352986   0.006794012897904   0.007101435334648 1
force Si  -0.002278640676132  -0.004781063586687  -0.007483613311119 1
force Si  -0.004075019440479  -0.002045337294911  -0.011465939140249 1
force Si   0.000600837254008  -0.006375186261314   0.000737738035657 1
force Se  -0.007348043044279   0.001855178612774  -0.083045205304107 1
force Se   0.000114360611256   0.001055236452119   0.089722351874880 1
force Se  -0.001952527999994   0.001488160235269  -0.079082340089453 1
force Se  -0.002258018970376   0.003008203173040   0.083459546760086 1
force Se   0.003018780284309  -0.000932436465909  -0.093458426103737 1
force Se  -0.004872621566706  -0.001258323913295   0.085930828355031 1
force Se   0.000585017672562  -0.003912364723840  -0.089010010181817 1
force Se  -0.000659544314665   0.001612773781558   0.100366850742043 1
force Se   0.000286812344921  -0.005901446486059  -0.077260413774177 1
force Se   0.006170151383632   0.004705721142886   0.096534171411859 1
force Se   0.026223115712769   0.016903868724725   0.010895867873243 1
force Se  -0.002734392689437   0.004669698340367   0.091991268776835 1
force Se  -0.016068433016232   0.013072430990072  -0.070728927826967 1
force Se   0.007803401630248   0.009921546280445   0.092735398856206 1
force Se   0.003192654396655  -0.003479051861583  -0.086363034613063 1
force Se   0.002927940179266   0.000925651858156   0.099497581986806 1
force Se  -0.000052608441185   0.005307641633202  -0.076470985801135 1
force Se   0.003466564881627   0.001794072919973   0.090290771576815 1
force Se   0.009329366279952  -0.015607534884576  -0.009525040271955 1
force Se  -0.000488192336786   0.005231886070152   0.098607347271923 1
force Se  -0.021260790028091  -0.020665535360140  -0.015250453601764 1
force Se  -0.005007484784872   0.005413311116918   0.089440966809171 1
force Se   0.000980043564090  -0.002597269665655  -0.084467779504994 1
force Se  -0.001800653848871   0.003852775258110   0.084941742317122 1
force Se  -0.001142842829955  -0.005372454279627  -0.089287752009934 1
force Se   0.004693512614769  -0.003788178902626   0.095707307233504 1
force Se  -0.001866679454974  -0.004952560655137  -0.076148118742584 1
force Se  -0.004948958906981  -0.005770330831713   0.092117678086188 1
force Se   0.002977210454527  -0.006525743506165  -0.084759993929978 1
force Se   0.013770515977410  -0.001429557956487   0.096350230636245 1
force Se  -0.001938780116605   0.003395061333062  -0.087266141639136 1
force Se  -0.001984246988870  -0.004317753183760   0.097977300169262 1
force O  -0.019107301010673  -0.077637234164570   0.196093103837098 1
force O  -0.081950161318254   0.216685966467663  -0.191904577619511 1
force H   0.105174038873884  -0.105965279031419   0.129792024646560 1

# Energy components:
   A_diel =        0.0868447749750421
   Eewald =    18561.7816828461545811
       EH =    20067.9526457762513019
     Eloc =   -41167.6275313404767076
      Enl =      291.1642796727894051
      Exc =     -838.3298183877791416
 Exc_core =      493.7120514301771550
       KE =      611.3586554732733021
  MuShift =        0.0494210952897153
-------------------------------------
     Etot =    -1979.8517686593459075
       TS =        0.0550723172747469
-------------------------------------
        F =    -1979.9068409766207424
      muN =     -154.5420474106206825
-------------------------------------
        G =    -1825.3647935660001167

IonicMinimize: Iter:   0  G: -1825.364793566000117  |grad|_K:  2.847e-03  t[s]:   6822.22

#--- Lowdin population analysis ---
# oxidation-state Zr -0.423 -0.417 -0.424 -0.419 -0.422 -0.420 -0.426 -0.418 -0.450 -0.420 -0.436 -0.420 -0.447 -0.421 -0.422 -0.419 -0.424 -0.419 -0.299 -0.419 -0.425 -0.419 -0.423 -0.418 -0.450 -0.417 -0.418 -0.420 -0.448 -0.421 -0.423 -0.417
# magnetic-moments Zr +0.000 -0.000 +0.000 +0.000 -0.000 +0.000 +0.000 -0.000 +0.000 -0.000 -0.000 +0.000 -0.000 -0.000 +0.000 -0.000 -0.000 -0.000 +0.000 -0.000 -0.000 -0.000 +0.000 -0.000 +0.000 -0.000 -0.000 -0.000 -0.000 -0.000 -0.000 -0.000
# oxidation-state Si +0.323 +0.323 +0.323 +0.321 +0.324 +0.323 +0.322 +0.322 +0.323 +0.326 +0.327 +0.299 +0.325 +0.324 +0.323 +0.323 +0.320 +0.326 +0.293 +0.292 +0.291 +0.327 +0.320 +0.323 +0.322 +0.322 +0.326 +0.319 +0.326 +0.322 +0.322 +0.322
# magnetic-moments Si +0.000 +0.000 -0.000 +0.000 -0.000 +0.000 -0.000 -0.000 +0.000 +0.000 -0.000 -0.000 -0.000 +0.000 -0.000 -0.000 +0.000 +0.000 -0.000 +0.000 -0.000 +0.000 +0.000 +0.000 +0.000 +0.000 +0.000 +0.000 +0.000 +0.000 +0.000 -0.000
# oxidation-state Se +0.284 +0.281 +0.285 +0.282 +0.282 +0.281 +0.286 +0.281 +0.284 +0.281 +0.339 +0.283 +0.278 +0.282 +0.282 +0.280 +0.284 +0.283 +0.328 +0.285 +0.323 +0.283 +0.285 +0.282 +0.284 +0.281 +0.284 +0.282 +0.283 +0.282 +0.284 +0.280
# magnetic-moments Se -0.000 +0.000 -0.000 +0.000 +0.000 +0.000 -0.000 +0.000 -0.000 +0.000 -0.000 -0.000 -0.000 +0.000 +0.000 -0.000 +0.000 -0.000 -0.000 +0.000 +0.000 -0.000 +0.000 +0.000 +0.000 +0.000 -0.000 +0.000 -0.000 +0.000 +0.000 +0.000
# oxidation-state O -0.248 -0.286
# magnetic-moments O +0.000 -0.000
# oxidation-state H +0.407
# magnetic-moments H +0.000

Shifting auxilliary hamiltonian by 0.000036 to set nElectrons=713.973758
	Linear fluid (dielectric constant: 78.4, screening length: 5.74355 Bohr) occupying 0.713972 of unit cell:	Completed after 12 iterations at t[s]:   6852.88

-------- Electronic minimization -----------
	Linear fluid (dielectric constant: 78.4, screening length: 5.74355 Bohr) occupying 0.713972 of unit cell:	Completed after 0 iterations at t[s]:   6867.46
	FillingsUpdate:  mu: -0.216453400  nElectrons: 713.973758  magneticMoment: [ Abs: 0.00076  Tot: -0.00000 ]
ElecMinimize: Iter:   0  G: -1825.365989188756657  |grad|_K:  7.398e-07  alpha:  1.000e+00
	Linear fluid (dielectric constant: 78.4, screening length: 5.74355 Bohr) occupying 0.713970 of unit cell:	Completed after 13 iterations at t[s]:   6929.69
	Linear fluid (dielectric constant: 78.4, screening length: 5.74355 Bohr) occupying 0.713970 of unit cell:	Completed after 9 iterations at t[s]:   6954.04
	FillingsUpdate:  mu: -0.216453400  nElectrons: 713.914668  magneticMoment: [ Abs: 0.00081  Tot: +0.00000 ]
	SubspaceRotationAdjust: set factor to 0.0632
ElecMinimize: Iter:   1  G: -1825.366188190311277  |grad|_K:  6.870e-07  alpha:  8.243e-01  linmin:  3.768e-05  t[s]:   6983.29
	Linear fluid (dielectric constant: 78.4, screening length: 5.74355 Bohr) occupying 0.713975 of unit cell:	Completed after 12 iterations at t[s]:   7012.71
	Linear fluid (dielectric constant: 78.4, screening length: 5.74355 Bohr) occupying 0.713976 of unit cell:	Completed after 9 iterations at t[s]:   7037.91
	FillingsUpdate:  mu: -0.216453400  nElectrons: 713.948038  magneticMoment: [ Abs: 0.00082  Tot: +0.00000 ]
	SubspaceRotationAdjust: set factor to 0.065
ElecMinimize: Iter:   2  G: -1825.366412277861855  |grad|_K:  6.088e-07  alpha:  1.078e+00  linmin:  2.307e-05  t[s]:   7068.71
	Linear fluid (dielectric constant: 78.4, screening length: 5.74355 Bohr) occupying 0.713984 of unit cell:	Completed after 3 iterations at t[s]:   7095.67
	Linear fluid (dielectric constant: 78.4, screening length: 5.74355 Bohr) occupying 0.713989 of unit cell:	Completed after 3 iterations at t[s]:   7119.76
	FillingsUpdate:  mu: -0.216453400  nElectrons: 713.943051  magneticMoment: [ Abs: 0.00064  Tot: +0.00000 ]
	SubspaceRotationAdjust: set factor to 0.0785
ElecMinimize: Iter:   3  G: -1825.366701831906539  |grad|_K:  5.599e-07  alpha:  1.776e+00  linmin:  7.131e-06  t[s]:   7148.92
	Linear fluid (dielectric constant: 78.4, screening length: 5.74355 Bohr) occupying 0.713980 of unit cell:	Completed after 13 iterations at t[s]:   7177.10
[...]
	Linear fluid (dielectric constant: 78.4, screening length: 5.74355 Bohr) occupying 0.713693 of unit cell:	Completed after 0 iterations at t[s]: 187584.55
	Linear fluid (dielectric constant: 78.4, screening length: 5.74355 Bohr) occupying 0.713694 of unit cell:	Completed after 0 iterations at t[s]: 187608.07
	FillingsUpdate:  mu: -0.216453400  nElectrons: 713.641615  magneticMoment: [ Abs: 0.00001  Tot: +0.00001 ]
	SubspaceRotationAdjust: set factor to 0.0458
ElecMinimize: Iter:  21  G: -1825.381475873765112  |grad|_K:  1.358e-08  alpha:  6.907e-01  linmin:  1.372e-04  t[s]: 187637.34
	Linear fluid (dielectric constant: 78.4, screening length: 5.74355 Bohr) occupying 0.713694 of unit cell:	Completed after 2 iterations at t[s]: 187663.87
	Linear fluid (dielectric constant: 78.4, screening length: 5.74355 Bohr) occupying 0.713694 of unit cell:	Completed after 0 iterations at t[s]: 187687.15
ElecMinimize: 	Step increased G by 2.328238e-08, reducing alpha to 1.977020e-02.
	Linear fluid (dielectric constant: 78.4, screening length: 5.74355 Bohr) occupying 0.713694 of unit cell:	Completed after 0 iterations at t[s]: 187734.59
ElecMinimize: 	Step increased G by 1.063927e-08, reducing alpha to 1.977020e-03.
	Linear fluid (dielectric constant: 78.4, screening length: 5.74355 Bohr) occupying 0.713694 of unit cell:	Completed after 0 iterations at t[s]: 187783.25
ElecMinimize: 	Step increased G by 9.654741e-09, reducing alpha to 1.977020e-04.
ElecMinimize: 	Step failed to reduce G after 3 attempts. Quitting step.
ElecMinimize: 	Undoing step.
	Linear fluid (dielectric constant: 78.4, screening length: 5.74355 Bohr) occupying 0.713694 of unit cell:	Completed after 0 iterations at t[s]: 187831.73
ElecMinimize: 	Step failed: resetting search direction.
	FillingsUpdate:  mu: -0.216453400  nElectrons: 713.641614  magneticMoment: [ Abs: 0.00001  Tot: +0.00001 ]
	SubspaceRotationAdjust: set factor to 0.0421
ElecMinimize: Iter:  22  G: -1825.381475864154254  |grad|_K:  1.396e-08  alpha:  1.977e-04
	Linear fluid (dielectric constant: 78.4, screening length: 5.74355 Bohr) occupying 0.713693 of unit cell:	Completed after 1 iterations at t[s]: 187887.09
	Linear fluid (dielectric constant: 78.4, screening length: 5.74355 Bohr) occupying 0.713693 of unit cell:	Completed after 0 iterations at t[s]: 187909.81
	FillingsUpdate:  mu: -0.216453400  nElectrons: 713.641747  magneticMoment: [ Abs: 0.00001  Tot: +0.00001 ]
	SubspaceRotationAdjust: set factor to 0.057
ElecMinimize: Iter:  23  G: -1825.381475864257027  |grad|_K:  4.102e-09  alpha:  3.184e-01  linmin: -3.308e-02  t[s]: 187938.65
	Linear fluid (dielectric constant: 78.4, screening length: 5.74355 Bohr) occupying 0.713693 of unit cell:	Completed after 0 iterations at t[s]: 187964.07
	Linear fluid (dielectric constant: 78.4, screening length: 5.74355 Bohr) occupying 0.713693 of unit cell:	Completed after 0 iterations at t[s]: 187987.29
	FillingsUpdate:  mu: -0.216453400  nElectrons: 713.641818  magneticMoment: [ Abs: 0.00001  Tot: +0.00001 ]
	SubspaceRotationAdjust: set factor to 0.0728
ElecMinimize: Iter:  24  G: -1825.381475871183511  |grad|_K:  3.869e-09  alpha:  7.836e-01  linmin: -4.201e-04  t[s]: 188016.28
ElecMinimize: Converged (|Delta G|<1.000000e-08 for 2 iters).
Setting wave functions to eigenvectors of Hamiltonian

# Ionic positions in lattice coordinates:
ion Zr   0.124734885991608   0.000138202383757   0.600807494181270 1
ion Zr   1.000275666287161   0.125220914782598   0.398659383219730 1
ion Zr   0.375140069391381   0.000002458878012   0.601106631427142 1
ion Zr   0.250398944629551   0.125311850328141   0.399252310841622 1
ion Zr   0.625520383211097   0.000096740257265   0.600781940650489 1
ion Zr   0.499938170100801   0.125288814903189   0.399229627276081 1
ion Zr   0.875149761446505   0.000148849656170   0.600540476694867 1
ion Zr   0.750076512693709   0.125210916093122   0.398650763549124 1
ion Zr   0.123527602611483   0.248528161027599   0.600634248359212 1
ion Zr   1.000321040544573   0.375367997921846   0.399173483732656 1
ion Zr   0.375200820850394   0.249386206652069   0.601987175386363 1
ion Zr   0.250505647558349   0.375564702744105   0.400542539648106 1
ion Zr   0.626680524246310   0.248555857174697   0.600699893351582 1
ion Zr   0.499841967643237   0.375556315644484   0.400510207564712 1
ion Zr   0.875165358585067   0.249779935748783   0.600777246437800 1
ion Zr   0.750041117032911   0.375351706605055   0.399169687945239 1
ion Zr   0.124582939991797   0.500214420634914   0.601934259317110 1
ion Zr   1.000297232887299   0.624940483411990   0.399130152811630 1
ion Zr   0.375074261217479   0.498248538999969   0.612220091931895 1
ion Zr   0.250531249717482   0.624654962026918   0.400465796977810 1
ion Zr   0.625631098355045   0.500124593951735   0.601988590490498 1
ion Zr   0.499802013355506   0.624635213580253   0.400466138671309 1
ion Zr   0.875153653739237   0.500203037331010   0.601086446171667 1
ion Zr   0.750017529017174   0.624921084368489   0.399129589449838 1
ion Zr   0.123351161833403   0.751876504565656   0.600543765419032 1
ion Zr   1.000249325103908   0.875109826667050   0.398614694479302 1
ion Zr   0.375148981748644   0.750262540326199   0.602109668915641 1
ion Zr   0.250420943183970   0.874919233243593   0.399238603889785 1
ion Zr   0.626819974317850   0.751782264181108   0.600567575745150 1
ion Zr   0.499898424925090   0.874900243802474   0.399219245248495 1
ion Zr   0.875121101346176   0.750547498548627   0.600729677547668 1
ion Zr   0.750090576659054   0.875094895530636   0.398599662284110 1
ion Si   1.000074174924676   0.000099410319110   0.499527039075433 1
ion Si   0.125063947911529   0.124904174042064   0.499711730541781 1
ion Si   0.250173393159141   0.000067315296432   0.500055690346007 1
ion Si   0.375143672669942   0.125144795779115   0.500318118432055 1
ion Si   0.500056838328307   0.000050538840807   0.500030674681170 1
ion Si   0.625220255536652   0.124883746894335   0.499705100376247 1
ion Si   0.750200376478401   0.000076525747049   0.499527485805045 1
ion Si   0.875149720444639   0.125026960234136   0.499519561499715 1
ion Si   0.999903236610834   0.250025689692374   0.499664537011989 1
ion Si   0.124979304207150   0.375273423535306   0.500491433569823 1
ion Si   0.250338464090302   0.250033338909083   0.500582283945918 1
ion Si   0.375185296589430   0.376034597160719   0.502792102969736 1
ion Si   0.499984679786478   0.250004847383766   0.500578507420874 1
ion Si   0.625310263651306   0.375221850315179   0.500523921594673 1
ion Si   0.750385307375134   0.250003716794483   0.499675859878674 1
ion Si   0.875154614531028   0.375199601483309   0.500006126230535 1
ion Si   1.000183425063853   0.500206490127655   0.500200075888099 1
ion Si   0.125003442912925   0.625002247205947   0.500497647280837 1
ion Si   0.250536138536441   0.500100685276506   0.502388682456254 1
ion Si   0.375151513479233   0.624042468026360   0.502742363453706 1
ion Si   0.499801893912861   0.500071171591466   0.502383288244853 1
ion Si   0.625269908088309   0.624969372154214   0.500527980536451 1
ion Si   0.750070187946041   0.500155648279244   0.500232999387997 1
ion Si   0.875112131657027   0.625109054936683   0.499973591597955 1
ion Si   0.999873231901368   0.750226283526141   0.499607366768876 1
ion Si   0.125041436852386   0.875337376403025   0.499659709392868 1
ion Si   0.250342021327506   0.750095292148219   0.500599074621269 1
ion Si   0.375119450537505   0.874887500760771   0.500336204022042 1
ion Si   0.499922638966862   0.750082240733268   0.500603004930049 1
ion Si   0.625212444480118   0.875313033373467   0.499634092299155 1
ion Si   0.750371531623068   0.750233935121825   0.499603395693378 1
ion Si   0.875137657072356   0.875238197755998   0.499493756211320 1
ion Se   0.999488379974426   0.124491384756505   0.654522165522734 1
ion Se   0.125578465660058   0.000115751576235   0.345726632004623 1
ion Se   0.249753835218076   0.124187190189554   0.654289293430652 1
ion Se   0.375142738810357   0.000071438211132   0.345887595764387 1
ion Se   0.500563114858263   0.124130404140917   0.654378661185497 1
ion Se   0.624754546771539   0.000101965910291   0.345704481501499 1
ion Se   0.750799189692047   0.124453647300689   0.654467488298628 1
ion Se   0.875181230724469   0.000151482797700   0.345329484675522 1
ion Se   0.999202817779569   0.374745116657692   0.654303645923660 1
ion Se   0.125779541947464   0.250728620434705   0.346228766998359 1
ion Se   0.244387480481782   0.369744812987759   0.654148084730989 1
ion Se   0.375148767708421   0.250805823695825   0.346563695792848 1
ion Se   0.505679638682209   0.369831457464381   0.654670918331617 1
ion Se   0.624566037544803   0.250710930597463   0.346205392832636 1
ion Se   0.751118468619185   0.374681694891783   0.654293860686294 1
ion Se   0.875186715016565   0.250463524787007   0.345669055137848 1
ion Se   0.999179604395874   0.625663543374137   0.654279113414298 1
ion Se   0.125828390643026   0.500124902914231   0.346428067490659 1
ion Se   0.244291497135689   0.630485973128373   0.654252525096812 1
ion Se   0.375148513599425   0.500105619583166   0.347178043590801 1
ion Se   0.505898704393676   0.630284594526534   0.654480552793776 1
ion Se   0.624505444796308   0.500107660404769   0.346404975152996 1
ion Se   0.751092443670098   0.625628746874454   0.654212686745616 1
ion Se   0.875175645292214   0.500131622421517   0.345758907594247 1
ion Se   0.999387096308148   0.875843854692157   0.654536253123269 1
ion Se   0.125785573467818   0.749537521853865   0.346234811906133 1
ion Se   0.249659998185544   0.875825550291023   0.654236650923594 1
ion Se   0.375146034859028   0.749422670876808   0.346503103021170 1
ion Se   0.500551608401730   0.875802181672164   0.654251114306775 1
ion Se   0.624531996760118   0.749520961305755   0.346217383592610 1
ion Se   0.750836560423858   0.875823448106347   0.654504325984729 1
ion Se   0.875170389749527   0.749813721410135   0.345625216267073 1
ion O   0.374751748679647   0.510925442484009   0.710787026658855 1
ion O   0.369983419501354   0.434363347227910   0.753199116708287 1
ion H   0.368072807371617   0.468446913633439   0.793400129028783 1


# Forces in Lattice coordinates:
force Zr   0.001209366742417   0.000087448133751   0.003868427233500 1
force Zr  -0.001402554734081  -0.000621249409898  -0.001138929357157 1
force Zr   0.000632284345852  -0.000193735684254   0.002754219666168 1
force Zr  -0.001077720517330  -0.000293534969197  -0.005475786503020 1
force Zr  -0.000804959419674   0.001054111194259   0.007563563723235 1
force Zr  -0.000798838906304   0.000258458712722  -0.004264984684833 1
force Zr  -0.000594392621855   0.000244171339709   0.007720732282104 1
force Zr  -0.000256391368087  -0.000130543437068  -0.000458462687511 1
force Zr  -0.002491597530574  -0.000153791642312  -0.001219276357960 1
force Zr  -0.001345259773189   0.000716632072968  -0.005750529770514 1
force Zr  -0.000610049365889   0.000729478474914  -0.003267705691608 1
force Zr  -0.001093774140071   0.001278669594751  -0.008954994133138 1
force Zr  -0.001072715182868   0.002244521489461   0.001187351102250 1
force Zr  -0.000799201912229   0.001103493534104  -0.006269027251223 1
force Zr  -0.000736509001528   0.001876116481831   0.004875453158369 1
force Zr  -0.000408451108712   0.000703652306178  -0.004465809745661 1
force Zr  -0.000211512650217   0.002438972365987  -0.003360467371758 1
force Zr  -0.000958865031708   0.001114632443620  -0.004555311327579 1
force Zr   0.002496061984399  -0.000581275149492   0.016718972276454 1
force Zr  -0.001274237465873   0.000749515834629  -0.005924623088073 1
force Zr  -0.002256167980945   0.002404825288074   0.000369861042482 1
force Zr  -0.000723196321180   0.001113578861654  -0.005613017714264 1
force Zr  -0.000039780528253  -0.001432950759480   0.002291908978184 1
force Zr   0.000626782058606   0.001446409908510  -0.003358046008990 1
force Zr   0.000288616394213   0.000249427178183   0.002951463029139 1
force Zr  -0.001573041988336   0.000374807035230  -0.000785575198961 1
force Zr  -0.001180828784207  -0.003000385963828   0.003031807871312 1
force Zr  -0.001422858542837  -0.000160220136352  -0.003234783933969 1
force Zr  -0.001990218263595  -0.000358208319833   0.007340389990246 1
force Zr  -0.000600696179489   0.000687153481749  -0.001862470749919 1
force Zr   0.000247202538603  -0.000459444385609   0.006607753588957 1
force Zr  -0.000077050720746   0.000615049342211   0.000815807417531 1
force Si   0.000801287869821   0.000457456310923  -0.002885558826608 1
force Si   0.000158823363520   0.000480630355408  -0.003337024627919 1
force Si   0.002653888184273   0.000445910539417  -0.001291715362957 1
force Si   0.000780465827232   0.000277450211001  -0.000758345121390 1
force Si  -0.000101387988475   0.000653995454421  -0.000163433932610 1
force Si   0.000156090153196   0.000982917258126  -0.001721093011266 1
force Si  -0.000260868616030   0.000779306597313  -0.004254325713040 1
force Si   0.000062781326778   0.001144111043539  -0.003496865323774 1
force Si  -0.000522471816840  -0.000395803198471  -0.002389649608497 1
force Si  -0.000870295553349  -0.000653340772357   0.002423679937747 1
force Si  -0.001137925420305  -0.000675484952136   0.000436499017206 1
force Si  -0.000547371870653  -0.001083688534497   0.001708884080161 1
force Si   0.000177543497837  -0.000700310820315   0.002670005520577 1
force Si   0.000975890971305   0.000654508558412   0.001155459899322 1
force Si  -0.000148501357171   0.000128484554707  -0.001942825593032 1
force Si  -0.000300779938888   0.000350544797868   0.000439848747325 1
force Si   0.000299215382635  -0.001357631230004   0.000455720479882 1
force Si  -0.000724682741682   0.000877315590922   0.001714209663371 1
force Si  -0.000998407090299   0.000039808869895   0.000773164318627 1
force Si  -0.000294482105340  -0.000128217764433   0.000144115469134 1
force Si  -0.000342744702963   0.000002335741184   0.000833577081418 1
force Si   0.000539018436127   0.000580554599783  -0.000816729281670 1
force Si   0.000165088254366  -0.000590293006288  -0.001584518151541 1
force Si   0.000798912062899  -0.002252509720812  -0.001441891236878 1
force Si   0.000059154606782   0.000236421573577  -0.004308984291884 1
force Si   0.000205515567956   0.001120826409602  -0.004614440896519 1
force Si   0.000080134455639   0.001417031952551   0.001117821086936 1
force Si   0.000927084828357   0.000292385745703   0.000352917007533 1
force Si   0.000414893936215   0.001326303653533   0.000366735372947 1
force Si   0.000500754742252   0.001172701619331  -0.001107814392480 1
force Si   0.000007710652574  -0.000141447607199  -0.002644651076634 1
force Si  -0.000023753457843   0.000250085557383  -0.003170505491562 1
force Se  -0.001857426997050  -0.000666387802269  -0.000872876145188 1
force Se  -0.001529836275438   0.002018606764633   0.000439366165716 1
force Se  -0.001087790050944   0.002563408159929   0.003970108085523 1
force Se   0.000867275445269   0.002399901528569   0.001043982476588 1
force Se   0.000548146859607   0.002514787046269  -0.000406370030907 1
force Se   0.001563881582443   0.001852885413577   0.001295086651862 1
force Se   0.000247209280801   0.001428787743891  -0.000038874883777 1
force Se  -0.000580468437377   0.001309278112034   0.002751034645987 1
force Se   0.000009115053209  -0.001551189133596  -0.000214223383718 1
force Se  -0.000867953479565  -0.001105544339014  -0.000608728746214 1
force Se  -0.000410361684748   0.001587596170598  -0.003652961767761 1
force Se   0.001205467818368  -0.000811549638276   0.001255482742138 1
force Se   0.000494736984753  -0.001970873562133  -0.008339836781837 1
force Se   0.001008106717177  -0.000869488368045   0.001583471194348 1
force Se  -0.002474903951327   0.000685803344363   0.000119990604706 1
force Se  -0.000752007749821  -0.001228020340723   0.002551559554952 1
force Se  -0.001566877176385   0.000865919203391   0.000859986316630 1
force Se  -0.000484768488683  -0.001334280544212  -0.001695216135538 1
force Se   0.003346564605817  -0.005201274784009   0.005432148864148 1
force Se   0.001131755926415  -0.001600247728532   0.000858224905349 1
force Se  -0.005576912208871  -0.002338395192719  -0.002845302753883 1
force Se   0.000913569498213  -0.001275977274715   0.000386650985256 1
force Se  -0.000653410923620   0.000243471026416   0.004873745765703 1
force Se  -0.000879937630485  -0.000689245764672   0.001452136338047 1
force Se  -0.000930243354595   0.002609258728093  -0.000558080874743 1
force Se  -0.001188398480092   0.001356453414174  -0.001048669561675 1
force Se   0.001364468134040   0.002653535803812   0.000884199611811 1
force Se   0.000853152740836   0.001813457810411  -0.001424647422541 1
force Se   0.001417636915818   0.002227453748155   0.001512586268150 1
force Se   0.001292928392631   0.001108258423535  -0.000195614854926 1
force Se   0.000391155001491   0.001446950953548  -0.001048642665522 1
force Se  -0.000730319329205   0.001600778471242   0.002515106038372 1
force O   0.003545874659410  -0.007005578660593   0.006408168267097 1
force O   0.012272397824213  -0.000269196422419  -0.023113752748184 1
force H   0.006058704773442   0.014975936831521  -0.004148029390585 1

# Energy components:
   A_diel =        0.0786923439247933
   Eewald =    18502.2176508336597180
       EH =    19999.3459647013114591
     Eloc =   -41039.1605451883951901
      Enl =      291.1212528142928022
      Exc =     -838.1225940825988800
 Exc_core =      493.7119099803593940
       KE =      610.9584250588811756
  MuShift =        0.0548419605323198
-------------------------------------
     Etot =    -1979.7944015780344671
       TS =        0.0572721088049257
-------------------------------------
        F =    -1979.8516736868393764
      muN =     -154.4701978156557800
-------------------------------------
        G =    -1825.3814758711835111

IonicMinimize: Iter:  63  G: -1825.381475871183511  |grad|_K:  8.608e-05  alpha:  1.000e+00  linmin: -2.410e-01  t[s]: 188039.09
IonicMinimize: Converged (|grad|_K<1.000000e-04).

#--- Lowdin population analysis ---
# oxidation-state Zr -0.413 -0.408 -0.414 -0.411 -0.413 -0.411 -0.417 -0.408 -0.437 -0.411 -0.419 -0.412 -0.435 -0.412 -0.414 -0.411 -0.417 -0.412 -0.304 -0.412 -0.415 -0.411 -0.414 -0.411 -0.442 -0.408 -0.410 -0.412 -0.440 -0.412 -0.414 -0.408
# magnetic-moments Zr +0.000 -0.000 -0.000 +0.000 +0.000 -0.000 +0.000 +0.000 -0.000 +0.000 -0.000 -0.000 +0.000 -0.000 -0.000 +0.000 -0.000 +0.000 -0.000 +0.000 -0.000 +0.000 +0.000 +0.000 +0.000 +0.000 -0.000 -0.000 +0.000 +0.000 -0.000 -0.000
# oxidation-state Si +0.314 +0.315 +0.315 +0.312 +0.315 +0.314 +0.314 +0.313 +0.315 +0.317 +0.317 +0.291 +0.317 +0.317 +0.314 +0.315 +0.312 +0.318 +0.288 +0.285 +0.287 +0.318 +0.312 +0.315 +0.315 +0.314 +0.318 +0.311 +0.318 +0.314 +0.315 +0.314
# magnetic-moments Si +0.000 -0.000 +0.000 +0.000 +0.000 +0.000 +0.000 +0.000 +0.000 -0.000 +0.000 +0.000 +0.000 +0.000 +0.000 +0.000 +0.000 +0.000 +0.000 -0.000 +0.000 +0.000 +0.000 +0.000 +0.000 +0.000 +0.000 +0.000 +0.000 -0.000 +0.000 +0.000
# oxidation-state Se +0.289 +0.286 +0.289 +0.288 +0.289 +0.286 +0.290 +0.286 +0.288 +0.287 +0.336 +0.288 +0.330 +0.287 +0.288 +0.286 +0.288 +0.288 +0.330 +0.291 +0.326 +0.288 +0.289 +0.287 +0.289 +0.287 +0.289 +0.288 +0.289 +0.287 +0.289 +0.286
# magnetic-moments Se +0.000 +0.000 +0.000 +0.000 +0.000 +0.000 +0.000 -0.000 +0.000 +0.000 +0.000 +0.000 +0.000 -0.000 +0.000 +0.000 -0.000 -0.000 +0.000 +0.000 +0.000 -0.000 +0.000 +0.000 +0.000 +0.000 +0.000 +0.000 +0.000 +0.000 +0.000 +0.000
# oxidation-state O -0.229 -0.271
# magnetic-moments O +0.000 +0.000
# oxidation-state H +0.504
# magnetic-moments H -0.000


Dumping 'NbTe2.fillings' ... done
Dumping 'NbTe2.wfns' ... done
Dumping 'NbTe2.fluidState' ... done
Dumping 'NbTe2.ionpos' ... done
Dumping 'NbTe2.eigenvals' ... done
End date and time: Wed Sep 30 05:05:52 2020  (Duration: 2-4:14:14.89)
Done!
