  COHP#  atomMU  atomNU     distance     translation      ICOHP (at) eF   for spin  1
      1    Zr19     O97      2.10847       0   0   0           -2.12461 
      2    Se75     O97      2.93301       0   0   0           -0.01839 
      3    Se77     O97      2.94917       0   0   0           -0.02016 
      4    Se83     O97      2.81221       0   0   0           -0.04893 
      5    Se85     O97      2.81959       0   0   0           -0.05179 
      6    Zr19     O98      3.26028       0   0   0           -0.01703 
      7    Se75     O98      2.99520       0   0   0           -0.02552 
      8    Se77     O98      3.11461       0   0   0           -0.01944 
      9    Se75     H99      3.27878       0   0   0           -0.00443 
     10    Se77     H99      2.37439       0   0   0           -0.20652 
     11    Zr19     H99      3.34484       0   0   0           -0.00442 
  COHP#  atomMU  atomNU     distance     translation      ICOHP (at) eF   for spin  2
      1    Zr19     O97      2.10847       0   0   0           -2.12369 
      2    Se75     O97      2.93301       0   0   0           -0.01843 
      3    Se77     O97      2.94917       0   0   0           -0.02001 
      4    Se83     O97      2.81221       0   0   0           -0.04903 
      5    Se85     O97      2.81959       0   0   0           -0.05220 
      6    Zr19     O98      3.26028       0   0   0           -0.01728 
      7    Se75     O98      2.99520       0   0   0           -0.02542 
      8    Se77     O98      3.11461       0   0   0           -0.01929 
      9    Se75     H99      3.27878       0   0   0           -0.00458 
     10    Se77     H99      2.37439       0   0   0           -0.20645 
     11    Zr19     H99      3.34484       0   0   0           -0.00459 
