
*************** JDFTx 1.5.0  ***************

Start date and time: Fri Feb 12 07:26:01 2021
Executable jdftx_gpu with command-line: -i Charged.in -o Charged.out
Running on hosts (process indices):  amax (0-6)
Divided in process groups (process indices):  0 (0)  1 (1)  2 (2)  3 (3)  4 (4)  5 (5)  6 (6)
gpuInit: Found compatible cuda device 0 'Tesla K80'
gpuInit: Found compatible cuda device 1 'Tesla K80'
gpuInit: Found compatible cuda device 2 'Tesla K80'
gpuInit: Found compatible cuda device 3 'Tesla K80'
gpuInit: Found compatible cuda device 4 'Tesla K80'
gpuInit: Found compatible cuda device 5 'Tesla K80'
gpuInit: Found compatible cuda device 6 'Tesla K80'
gpuInit: Selected device 0
Resource initialization completed at t[s]:      3.43
Run totals: 7 processes, 24 threads, 7 GPUs


Input parsed successfully to the following command list (including defaults):

basis kpoint-dependent
cache-projectors no
coords-type Lattice
core-overlap-check none
coulomb-interaction Slab 001
coulomb-truncation-embed 0.5 0.5 0.5
davidson-band-ratio 1.1
dump End State
dump-name NbTe2.$VAR
elec-cutoff 20
elec-eigen-algo Davidson
elec-ex-corr gga-PBE
elec-initial-charge -1.000000
elec-initial-magnetization 20.000000 no
elec-smearing Gauss 0.0073499
electronic-minimize  \
	dirUpdateScheme      FletcherReeves \
	linminMethod         DirUpdateRecommended \
	nIterations          200 \
	history              15 \
	knormThreshold       0 \
	energyDiffThreshold  1e-08 \
	nEnergyDiff          2 \
	alphaTstart          1 \
	alphaTmin            1e-10 \
	updateTestStepSize   yes \
	alphaTreduceFactor   0.1 \
	alphaTincreaseFactor 3 \
	nAlphaAdjustMax      3 \
	wolfeEnergy          0.0001 \
	wolfeGradient        0.9 \
	fdTest               no
exchange-regularization WignerSeitzTruncated
fluid LinearPCM 298.000000 1.013250
fluid-anion F- 1 MeanFieldLJ \
	epsBulk 1 \
	pMol 0 \
	epsInf 1 \
	Pvap 0 \
	sigmaBulk 0 \
	Rvdw 2.24877 \
	Res 0 \
	tauNuc 343133
fluid-cation Na+ 1 MeanFieldLJ \
	epsBulk 1 \
	pMol 0 \
	epsInf 1 \
	Pvap 0 \
	sigmaBulk 0 \
	Rvdw 2.19208 \
	Res 0 \
	tauNuc 343133
fluid-ex-corr lda-TF lda-PZ
fluid-gummel-loop 10 1.000000e-05
fluid-minimize  \
	dirUpdateScheme      PolakRibiere \
	linminMethod         DirUpdateRecommended \
	nIterations          400 \
	history              15 \
	knormThreshold       1e-11 \
	energyDiffThreshold  0 \
	nEnergyDiff          2 \
	alphaTstart          1 \
	alphaTmin            1e-10 \
	updateTestStepSize   yes \
	alphaTreduceFactor   0.1 \
	alphaTincreaseFactor 3 \
	nAlphaAdjustMax      6 \
	wolfeEnergy          0.0001 \
	wolfeGradient        0.9 \
	fdTest               no
fluid-solvent H2O 55.338 ScalarEOS \
	epsBulk 78.4 \
	pMol 0.92466 \
	epsInf 1.77 \
	Pvap 1.06736e-10 \
	sigmaBulk 4.62e-05 \
	Rvdw 2.61727 \
	Res 1.42 \
	tauNuc 343133 \
	poleEl 15 7 1
forces-output-coords Positions
initial-state NbTe2.$VAR
ion W   0.083334675099593   0.166665307358739   0.500000000000000 1
ion W   0.333334675099593   0.166665307358739   0.500000000000000 1
ion W   0.583334675099593   0.166665307358739   0.500000000000000 1
ion W   0.833334675099593   0.166665307358739   0.500000000000000 1
ion W   0.083334675099593   0.416665307358739   0.500000000000000 1
ion W   0.333334675099593   0.416665307358739   0.500000000000000 1
ion W   0.583334675099593   0.416665307358739   0.500000000000000 1
ion W   0.833334675099593   0.416665307358739   0.500000000000000 1
ion W   0.083334675099593   0.666665307358739   0.500000000000000 1
ion W   0.333334675099593   0.666665307358739   0.500000000000000 1
ion W   0.583334675099593   0.666665307358739   0.500000000000000 1
ion W   0.833334675099593   0.666665307358739   0.500000000000000 1
ion W   0.083334675099593   0.916665307358739   0.500000000000000 1
ion W   0.333334675099593   0.916665307358739   0.500000000000000 1
ion W   0.583334675099593   0.916665307358739   0.500000000000000 1
ion W   0.833334675099593   0.916665307358739   0.500000000000000 1
ion Se   0.166667655762704   0.083332326695629   0.406896668529060 1
ion Se   0.166667655762704   0.083332326695629   0.593103331470940 1
ion Se   0.416667655762704   0.083332326695629   0.406896668529060 1
ion Se   0.416667655762704   0.083332326695629   0.593103331470940 1
ion Se   0.666667655762704   0.083332326695629   0.406896668529060 1
ion Se   0.666667655762704   0.083332326695629   0.593103331470940 1
ion Se   0.916667655762704   0.083332326695629   0.406896668529060 1
ion Se   0.916667655762704   0.083332326695629   0.593103331470940 1
ion Se   0.166667655762704   0.333332326695629   0.406896668529060 1
ion Se   0.166667655762704   0.333332326695629   0.593103331470940 1
ion Se   0.416667655762704   0.333332326695629   0.406896668529060 1
ion Se   0.416667655762704   0.333332326695629   0.593103331470940 1
ion Se   0.666667655762704   0.333332326695629   0.406896668529060 1
ion Se   0.666667655762704   0.333332326695629   0.593103331470940 1
ion Se   0.916667655762704   0.333332326695629   0.406896668529060 1
ion Se   0.916667655762704   0.333332326695629   0.593103331470940 1
ion Se   0.166667655762704   0.583332326695629   0.406896668529060 1
ion Se   0.166667655762704   0.583332326695629   0.593103331470940 1
ion Se   0.416667655762704   0.583332326695629   0.406896668529060 1
ion Se   0.416667655762704   0.583332326695629   0.593103331470940 1
ion Se   0.666667655762704   0.583332326695629   0.406896668529060 1
ion Se   0.666667655762704   0.583332326695629   0.593103331470940 1
ion Se   0.916667655762704   0.583332326695629   0.406896668529060 1
ion Se   0.916667655762704   0.583332326695629   0.593103331470940 1
ion Se   0.166667655762704   0.833332326695629   0.406896668529060 1
ion Se   0.166667655762704   0.833332326695629   0.593103331470940 1
ion Se   0.416667655762704   0.833332326695629   0.406896668529060 1
ion Se   0.416667655762704   0.833332326695629   0.593103331470940 1
ion Se   0.666667655762704   0.833332326695629   0.406896668529060 1
ion Se   0.666667655762704   0.833332326695629   0.593103331470940 1
ion Se   0.916667655762704   0.833332326695629   0.406896668529060 1
ion Se   0.916667655762704   0.833332326695629   0.593103331470940 1
ion-species GBRV/$ID_pbe.uspp
ion-width Ecut
ionic-minimize  \
	dirUpdateScheme      L-BFGS \
	linminMethod         DirUpdateRecommended \
	nIterations          500 \
	history              15 \
	knormThreshold       0.0001 \
	energyDiffThreshold  1e-06 \
	nEnergyDiff          2 \
	alphaTstart          1 \
	alphaTmin            1e-10 \
	updateTestStepSize   yes \
	alphaTreduceFactor   0.1 \
	alphaTincreaseFactor 3 \
	nAlphaAdjustMax      3 \
	wolfeEnergy          0.0001 \
	wolfeGradient        0.9 \
	fdTest               no
kpoint   0.000000000000   0.000000000000   0.000000000000  1.00000000000000
kpoint-folding 4 4 1 
latt-move-scale 1 1 1
latt-scale 1.88973 1.88973 1.88973 
lattice Triclinic 13.1778 13.1778 18.1461 90 90 120
lattice-minimize  \
	dirUpdateScheme      L-BFGS \
	linminMethod         DirUpdateRecommended \
	nIterations          0 \
	history              15 \
	knormThreshold       0 \
	energyDiffThreshold  1e-06 \
	nEnergyDiff          2 \
	alphaTstart          1 \
	alphaTmin            1e-10 \
	updateTestStepSize   yes \
	alphaTreduceFactor   0.1 \
	alphaTincreaseFactor 3 \
	nAlphaAdjustMax      3 \
	wolfeEnergy          0.0001 \
	wolfeGradient        0.9 \
	fdTest               no
lcao-params -1 1e-06 0.0073499
pcm-variant CANDLE
spintype z-spin
subspace-rotation-factor 1 yes
symmetries automatic
symmetry-threshold 0.0001



---------- Setting up symmetries ----------

Found 24 point-group symmetries of the bravais lattice
Found 192 space-group symmetries with basis
Applied RMS atom displacement 7.17076e-06 bohrs to make symmetries exact.

---------- Initializing the Grid ----------
R = 
[    24.9024   -12.4512          0  ]
[          0    21.5661          0  ]
[          0          0    34.2912  ]
unit cell volume = 18416
G =
[   0.252312   0.145672         -0  ]
[          0   0.291345          0  ]
[          0         -0    0.18323  ]
Minimum fftbox size, Smin = [  104  104  140  ]
Chosen fftbox size, S = [  108  108  140  ]

---------- Exchange Correlation functional ----------
Initalized PBE GGA exchange.
Initalized PBE GGA correlation.

---------- Setting up pseudopotentials ----------
Width of ionic core gaussian charges (only for fluid interactions / plotting) set to 0.397384

Reading pseudopotential file '/home/guoxy/vasp/jdftx-1.5.0/build/pseudopotentials/GBRV/w_pbe.uspp':
  Title: W.  Created by USPP 7.3.6 on 3-2-2014
  Reference state energy: -79.133630.  14 valence electrons in orbitals:
    |500>  occupation: 2  eigenvalue: -2.938934
    |510>  occupation: 6  eigenvalue: -1.620730
    |520>  occupation: 3.9  eigenvalue: -0.194511
    |600>  occupation: 2  eigenvalue: -0.234858
    |610>  occupation: 0  eigenvalue: -0.069444
  lMax: 3  lLocal: 3  QijEcut: 5
  8 projectors sampled on a log grid with 667 points:
    l: 0  eig: -2.938934  rCut: 1.45
    l: 0  eig: -0.234859  rCut: 1.45
    l: 0  eig: 0.500000  rCut: 1.45
    l: 1  eig: -1.620730  rCut: 1.5
    l: 1  eig: -0.069446  rCut: 1.5
    l: 2  eig: -0.194511  rCut: 1.7
    l: 2  eig: 0.150000  rCut: 1.7
    l: 3  eig: 0.500000  rCut: 2.3
  Partial core density with radius 1.2
  Transforming core density to a uniform radial grid of dG=0.02 with 1511 points.
  Transforming local potential to a uniform radial grid of dG=0.02 with 1511 points.
  Transforming nonlocal projectors to a uniform radial grid of dG=0.02 with 432 points.
  Transforming density augmentations to a uniform radial grid of dG=0.02 with 1511 points.
  Transforming atomic orbitals to a uniform radial grid of dG=0.02 with 432 points.
  Core radius for overlap checks: 2.30 bohrs.

Reading pseudopotential file '/home/guoxy/vasp/jdftx-1.5.0/build/pseudopotentials/GBRV/se_pbe.uspp':
  Title: Se.  Created by USPP 7.3.6 on 14-9-2013
  Reference state energy: -21.672887.  6 valence electrons in orbitals:
    |400>  occupation: 2  eigenvalue: -0.635284
    |410>  occupation: 4  eigenvalue: -0.239295
  lMax: 2  lLocal: 3  QijEcut: 5
  6 projectors sampled on a log grid with 625 points:
    l: 0  eig: -0.635278  rCut: 1.5
    l: 0  eig: 0.500000  rCut: 1.5
    l: 1  eig: -0.239295  rCut: 1.5
    l: 1  eig: 0.500000  rCut: 1.5
    l: 2  eig: 0.000000  rCut: 1.8
    l: 2  eig: 1.000000  rCut: 1.8
  Partial core density with radius 1.2
  Transforming core density to a uniform radial grid of dG=0.02 with 1511 points.
  Transforming local potential to a uniform radial grid of dG=0.02 with 1511 points.
  Transforming nonlocal projectors to a uniform radial grid of dG=0.02 with 432 points.
  Transforming density augmentations to a uniform radial grid of dG=0.02 with 1511 points.
  Transforming atomic orbitals to a uniform radial grid of dG=0.02 with 432 points.
  Core radius for overlap checks: 1.80 bohrs.

Initialized 2 species with 48 total atoms.

Folded 1 k-points by 4x4x1 to 16 k-points.

---------- Setting up k-points, bands, fillings ----------
Adding inversion symmetry to k-mesh for non-inversion-symmetric unit cell.
Reduced to 4 k-points under symmetry. 
Computing the number of bands and number of electrons
Calculating initial fillings.
nElectrons: 415.000000   nBands: 336   nStates: 8

----- Setting up reduced wavefunction bases (one per k-point) -----
average nbasis = 78679.312 , ideal nbasis = 78674.730

---------- Setting up coulomb interaction ----------
Fluid mode embedding: using embedded box, but periodic Coulomb kernel.
(Fluid response is responsible for (approximate) separation between periodic images.)
Setting up double-sized grid for truncated Coulomb potentials:
R = 
[    24.9024   -12.4512          0  ]
[          0    21.5661          0  ]
[          0          0    68.5823  ]
unit cell volume = 36832.1
G =
[   0.252312   0.145672         -0  ]
[          0   0.291345          0  ]
[          0         -0  0.0916152  ]
Chosen fftbox size, S = [  108  108  280  ]
Integer grid location selected as the embedding center:
   Grid: [  54  54  70  ]
   Lattice: [  0.5  0.5  0.5  ]
   Cartesian: [  6.22561  10.7831  17.1456  ]
Constructing Wigner-Seitz cell: 8 faces (6 quadrilaterals, 2 hexagons)
Range-separation parameter for embedded mesh potentials due to point charges: 0.624363 bohrs.

Initializing van der Waals corrections
	NOTE: vdW corrections apply only for interactions with fluid.
	 W:  C6:  815.23 Eh-a0^6  R0: 3.326 a0 (WARNING: beyond Grimme's data set)
	Se:  C6:  219.24 Eh-a0^6  R0: 3.347 a0

---------- Setting up ewald sum ----------
Optimum gaussian width for ewald sums = 6.962715 bohr.
Real space sum over 605 unit cells with max indices [  5  5  2  ]
Reciprocal space sum over 7425 terms with max indices [  7  7  16  ]

---------- Allocating electronic variables ----------
Initializing wave functions:  linear combination of atomic orbitals
W pseudo-atom occupations:   s ( 2 2 )  p ( 6 0 )  d ( 4 )
Se pseudo-atom occupations:   s ( 2 )  p ( 4 )
	FillingsUpdate:  mu: +0.447738819  nElectrons: 415.000000  magneticMoment: [ Abs: 4.71346  Tot: +2.93183 ]
LCAOMinimize: Iter:   0  F: -1394.4832817835329024  |grad|_K:  1.485e-02  alpha:  1.000e+00
LCAOMinimize: 	Step increased F by 3.139433e+00, reducing alpha to 3.922358e-02.
	FillingsUpdate:  mu: +0.231409298  nElectrons: 415.000000  magneticMoment: [ Abs: 3.51547  Tot: +1.02210 ]
LCAOMinimize: Iter:   1  F: -1400.4703091782187130  |grad|_K:  9.055e-03  alpha:  3.922e-02  linmin: -3.815e-01  cgtest:  1.103e+00  t[s]:    172.11
LCAOMinimize: Encountered beta<0, resetting CG.
	FillingsUpdate:  mu: -0.098035576  nElectrons: 415.000000  magneticMoment: [ Abs: 3.20523  Tot: +0.93972 ]
LCAOMinimize: Iter:   2  F: -1404.9114713682081401  |grad|_K:  2.159e-03  alpha:  1.050e-01  linmin: -4.086e-01  cgtest:  1.110e+00  t[s]:    214.28
LCAOMinimize: Encountered beta<0, resetting CG.
	FillingsUpdate:  mu: -0.204200538  nElectrons: 415.000000  magneticMoment: [ Abs: 2.83842  Tot: +0.92134 ]
LCAOMinimize: Iter:   3  F: -1405.2377916466230090  |grad|_K:  1.406e-04  alpha:  1.518e-01  linmin: -2.819e-01  cgtest:  6.179e-01  t[s]:    257.47
LCAOMinimize: Encountered beta<0, resetting CG.
	FillingsUpdate:  mu: -0.215098394  nElectrons: 415.000000  magneticMoment: [ Abs: 2.12368  Tot: +0.74221 ]
LCAOMinimize: Iter:   4  F: -1405.2415216013994268  |grad|_K:  1.444e-04  alpha:  4.150e-01  linmin:  7.678e-04  cgtest: -1.073e-01  t[s]:    300.73
	FillingsUpdate:  mu: -0.213275726  nElectrons: 415.000000  magneticMoment: [ Abs: 0.60753  Tot: -0.00087 ]
LCAOMinimize: Iter:   5  F: -1405.2454041346336453  |grad|_K:  5.940e-05  alpha:  4.101e-01  linmin:  3.882e-02  cgtest:  4.990e-01  t[s]:    343.61
LCAOMinimize: Encountered beta<0, resetting CG.
	FillingsUpdate:  mu: -0.209590447  nElectrons: 415.000000  magneticMoment: [ Abs: 0.49701  Tot: +0.00471 ]
LCAOMinimize: Iter:   6  F: -1405.2458463559082702  |grad|_K:  3.974e-05  alpha:  2.756e-01  linmin:  2.143e-05  cgtest:  3.840e-04  t[s]:    386.16
	FillingsUpdate:  mu: -0.210263803  nElectrons: 415.000000  magneticMoment: [ Abs: 0.27372  Tot: +0.01301 ]
LCAOMinimize: Iter:   7  F: -1405.2461608789092224  |grad|_K:  7.722e-06  alpha:  4.380e-01  linmin: -2.724e-03  cgtest:  2.189e-02  t[s]:    428.87
	FillingsUpdate:  mu: -0.210311713  nElectrons: 415.000000  magneticMoment: [ Abs: 0.03131  Tot: +0.00897 ]
LCAOMinimize: Iter:   8  F: -1405.2461942384290978  |grad|_K:  2.160e-06  alpha:  1.229e+00  linmin: -4.017e-04  cgtest: -9.163e-03  t[s]:    471.21
	FillingsUpdate:  mu: -0.210196606  nElectrons: 415.000000  magneticMoment: [ Abs: 0.01397  Tot: +0.00533 ]
LCAOMinimize: Iter:   9  F: -1405.2461952595156163  |grad|_K:  2.036e-06  alpha:  4.813e-01  linmin: -1.093e-04  cgtest:  3.219e-04  t[s]:    513.02
	FillingsUpdate:  mu: -0.210295772  nElectrons: 415.000000  magneticMoment: [ Abs: 0.00260  Tot: +0.00206 ]
LCAOMinimize: Iter:  10  F: -1405.2461958109058742  |grad|_K:  1.895e-07  alpha:  2.927e-01  linmin:  2.985e-05  cgtest: -2.587e-03  t[s]:    555.89
LCAOMinimize: 	Predicted alpha/alphaT>3.000000, increasing alphaT to 8.781411e-01.
	FillingsUpdate:  mu: -0.210295128  nElectrons: 415.000000  magneticMoment: [ Abs: 0.00116  Tot: +0.00016 ]
LCAOMinimize: Iter:  11  F: -1405.2461958271740059  |grad|_K:  3.393e-08  alpha:  9.961e-01  linmin: -2.225e-03  cgtest:  8.772e-03  t[s]:    612.33
LCAOMinimize: Converged (|Delta F|<1.000000e-06 for 2 iters).
----- createFluidSolver() ----- (Fluid-side solver setup)
   Initializing fluid molecule 'H2O'
     Initializing site 'O'
       Electron density: proportional to exp(-r/0.36935)*erfc((r-0.51523)/0.36823) with norm 6.826
       Charge density: gaussian nuclear width 0.478731 with net site charge 0.826
       Polarizability: cuspless exponential with width 0.32 and norm 3.73
       Hard sphere radius: 2.57003 bohrs
       Positions in reference frame:
         [ +0.000000 +0.000000 +0.000000 ]
     Initializing site 'H'
       Electron density: proportional to exp(-r/0.34641)*erfc((r-0)/0.390882) with norm 0.587
       Charge density: gaussian nuclear width 0.377945 with net site charge -0.413
       Polarizability: cuspless exponential with width 0.39 and norm 3.3
       Positions in reference frame:
         [ +0.000000 -1.441945 +1.122523 ]
         [ +0.000000 +1.441945 +1.122523 ]
     Net charge: 0   dipole magnitude: 0.927204
     Initializing spherical shell mfKernel with radius 2.61727 Bohr
     deltaS corrections:
       site 'O': -7.54299
       site 'H': -6.83917
   Initializing fluid molecule 'Na+'
     Initializing site 'Na'
       Electron density: proportional to exp(-r/0.19682)*erfc((r-0.71491)/0.41314) with norm 8.1383
       Charge density: gaussian nuclear width 0.365347 with net site charge -1
       Hard sphere radius: 1.86327 bohrs
       Positions in reference frame:
         [ +0.000000 +0.000000 +0.000000 ]
     Net charge: -1   dipole magnitude: 0
     Initializing gaussian mfKernel with width: 1.55004 Bohr
     deltaS corrections:
       site 'Na': -22.3555
   Initializing fluid molecule 'F-'
     Initializing site 'F'
       Electron density: proportional to exp(-r/0.38886)*erfc((r-0)/0.438782) with norm 8
       Charge density: gaussian nuclear width 0.374796 with net site charge 1
       Hard sphere radius: 2.39995 bohrs
       Positions in reference frame:
         [ +0.000000 +0.000000 +0.000000 ]
     Net charge: 1   dipole magnitude: 0
     Initializing gaussian mfKernel with width: 1.59012 Bohr
     deltaS corrections:
       site 'F': -9.04335

Correction to mu due to finite nuclear width = -0.0112064
   Cavity determined by nc: 0.00142 and sigma: 0.707107
   Nonlocal vdW cavity from gaussian model electron density with norm = 8 and sigma = 0.993594 bohr
   Charge asymmetry in cavity with sensitivity pCavity = 36.5 e-bohr/Eh
   Electrostatic cavity expanded by eta = 1.46 bohrs
   Weighted density cavitation model constrained by Nbulk: 0.0049383 bohr^-3, Pvap: 3.14029 kPa, Rvdw: 2.61727 bohr and sigmaBulk: 4.62e-05 Eh/bohr^2 at T: 298 K.
   Weighted density dispersion model using vdW pair potentials with single solvent site with sqrtC6eff: 0.77 SI.


---- Citations for features of the code used in this run ----

   Software package:
      R. Sundararaman, K. Letchworth-Weaver, K.A. Schwarz, D. Gunceler, Y. Ozhabes and T.A. Arias, 'JDFTx: software for joint density-functional theory', SoftwareX 6, 278 (2017)

   gga-PBE exchange-correlation functional:
      J.P. Perdew, K. Burke and M. Ernzerhof, Phys. Rev. Lett. 77, 3865 (1996)

   Pseudopotentials:
      KF Garrity, JW Bennett, KM Rabe and D Vanderbilt, Comput. Mater. Sci. 81, 446 (2014)

   Truncated Coulomb potentials:
      R. Sundararaman and T.A. Arias, Phys. Rev. B 87, 165122 (2013)

   Van der Waals correction pair-potentials:
      S. Grimme, J. Comput. Chem. 27, 1787 (2006)

   Charge-asymmetric nonlocally-determined local-electric (CANDLE) solvation model:
      R. Sundararaman and W.A. Goddard III, J. Chem. Phys. 142, 064107 (2015)

   Total energy minimization with Auxiliary Hamiltonian:
      C. Freysoldt, S. Boeck, and J. Neugebauer, Phys. Rev. B 79, 241103(R) (2009)

This list may not be complete. Please suggest additional citations or
report any other bugs at https://github.com/shankar1729/jdftx/issues

Initialization completed successfully at t[s]:    619.22

Fluid solver invoked on fresh (partially random / LCAO) wavefunctions
Running a vacuum solve first:

-------- Initial electronic minimization -----------
	FillingsUpdate:  mu: -0.210295128  nElectrons: 415.000000  magneticMoment: [ Abs: 0.00116  Tot: +0.00016 ]
ElecMinimize: Iter:   0  F: -1405.246195827181282  |grad|_K:  8.365e-05  alpha:  1.000e+00
	FillingsUpdate:  mu: -0.136770579  nElectrons: 415.000000  magneticMoment: [ Abs: 0.00077  Tot: +0.00008 ]
	SubspaceRotationAdjust: set factor to 1
ElecMinimize: Iter:   1  F: -1406.409969299423437  |grad|_K:  3.916e-05  alpha:  7.867e-01  linmin: -2.035e-05  t[s]:    711.56
	FillingsUpdate:  mu: -0.186875896  nElectrons: 415.000000  magneticMoment: [ Abs: 0.00057  Tot: +0.00003 ]
	SubspaceRotationAdjust: set factor to 0.679
ElecMinimize: Iter:   2  F: -1406.578438395681815  |grad|_K:  3.446e-05  alpha:  5.245e-01  linmin: -4.959e-06  t[s]:    769.12
	FillingsUpdate:  mu: -0.155044190  nElectrons: 415.000000  magneticMoment: [ Abs: 0.00041  Tot: -0.00001 ]
	SubspaceRotationAdjust: set factor to 0.436
ElecMinimize: Iter:   3  F: -1406.653033124787953  |grad|_K:  1.494e-05  alpha:  2.889e-01  linmin: -5.633e-05  t[s]:    826.55
	FillingsUpdate:  mu: -0.156662846  nElectrons: 415.000000  magneticMoment: [ Abs: 0.00027  Tot: -0.00002 ]
	SubspaceRotationAdjust: set factor to 0.522
ElecMinimize: Iter:   4  F: -1406.681138724664834  |grad|_K:  9.582e-06  alpha:  5.905e-01  linmin:  5.825e-05  t[s]:    883.36
	FillingsUpdate:  mu: -0.163683330  nElectrons: 415.000000  magneticMoment: [ Abs: 0.00017  Tot: -0.00001 ]
	SubspaceRotationAdjust: set factor to 0.518
ElecMinimize: Iter:   5  F: -1406.691534138972656  |grad|_K:  5.839e-06  alpha:  5.383e-01  linmin:  2.183e-05  t[s]:    940.31
	FillingsUpdate:  mu: -0.159975205  nElectrons: 415.000000  magneticMoment: [ Abs: 0.00010  Tot: -0.00001 ]
	SubspaceRotationAdjust: set factor to 0.585
ElecMinimize: Iter:   6  F: -1406.695666705235908  |grad|_K:  3.563e-06  alpha:  5.740e-01  linmin:  9.465e-06  t[s]:    997.30
	FillingsUpdate:  mu: -0.160432310  nElectrons: 415.000000  magneticMoment: [ Abs: 0.00005  Tot: -0.00000 ]
	SubspaceRotationAdjust: set factor to 0.69
ElecMinimize: Iter:   7  F: -1406.697382398973105  |grad|_K:  2.396e-06  alpha:  6.399e-01  linmin:  5.454e-06  t[s]:   1054.42
	FillingsUpdate:  mu: -0.161295712  nElectrons: 415.000000  magneticMoment: [ Abs: 0.00003  Tot: -0.00000 ]
	SubspaceRotationAdjust: set factor to 0.74
ElecMinimize: Iter:   8  F: -1406.698016867661636  |grad|_K:  1.464e-06  alpha:  5.227e-01  linmin:  1.309e-06  t[s]:   1111.85
	FillingsUpdate:  mu: -0.160415731  nElectrons: 415.000000  magneticMoment: [ Abs: 0.00002  Tot: +0.00000 ]
	SubspaceRotationAdjust: set factor to 0.69
ElecMinimize: Iter:   9  F: -1406.698276927995266  |grad|_K:  1.038e-06  alpha:  5.730e-01  linmin:  3.642e-06  t[s]:   1168.01
	FillingsUpdate:  mu: -0.161389923  nElectrons: 415.000000  magneticMoment: [ Abs: 0.00002  Tot: +0.00000 ]
	SubspaceRotationAdjust: set factor to 0.607
ElecMinimize: Iter:  10  F: -1406.698396892651999  |grad|_K:  7.564e-07  alpha:  5.270e-01  linmin:  1.780e-06  t[s]:   1224.82
	FillingsUpdate:  mu: -0.160979400  nElectrons: 415.000000  magneticMoment: [ Abs: 0.00001  Tot: +0.00000 ]
	SubspaceRotationAdjust: set factor to 0.603
ElecMinimize: Iter:  11  F: -1406.698472199423804  |grad|_K:  5.753e-07  alpha:  6.223e-01  linmin:  2.419e-06  t[s]:   1281.48
	FillingsUpdate:  mu: -0.161097476  nElectrons: 415.000000  magneticMoment: [ Abs: 0.00001  Tot: +0.00000 ]
	SubspaceRotationAdjust: set factor to 0.678
ElecMinimize: Iter:  12  F: -1406.698519482585198  |grad|_K:  4.833e-07  alpha:  6.760e-01  linmin:  2.107e-06  t[s]:   1337.98
	FillingsUpdate:  mu: -0.161378333  nElectrons: 415.000000  magneticMoment: [ Abs: 0.00001  Tot: -0.00000 ]
	SubspaceRotationAdjust: set factor to 0.693
ElecMinimize: Iter:  13  F: -1406.698554018546474  |grad|_K:  4.189e-07  alpha:  6.994e-01  linmin:  2.151e-06  t[s]:   1394.39
	FillingsUpdate:  mu: -0.160978748  nElectrons: 415.000000  magneticMoment: [ Abs: 0.00001  Tot: -0.00000 ]
	SubspaceRotationAdjust: set factor to 0.636
ElecMinimize: Iter:  14  F: -1406.698576761986715  |grad|_K:  3.367e-07  alpha:  6.127e-01  linmin:  7.731e-07  t[s]:   1451.02
	FillingsUpdate:  mu: -0.161169941  nElectrons: 415.000000  magneticMoment: [ Abs: 0.00001  Tot: -0.00000 ]
	SubspaceRotationAdjust: set factor to 0.636
ElecMinimize: Iter:  15  F: -1406.698590779725464  |grad|_K:  2.511e-07  alpha:  5.837e-01  linmin:  9.287e-07  t[s]:   1508.15
	FillingsUpdate:  mu: -0.161112674  nElectrons: 415.000000  magneticMoment: [ Abs: 0.00001  Tot: -0.00000 ]
	SubspaceRotationAdjust: set factor to 0.749
ElecMinimize: Iter:  16  F: -1406.698599111672593  |grad|_K:  1.763e-07  alpha:  6.244e-01  linmin:  1.230e-06  t[s]:   1564.66
	FillingsUpdate:  mu: -0.161011873  nElectrons: 415.000000  magneticMoment: [ Abs: 0.00000  Tot: +0.00000 ]
	SubspaceRotationAdjust: set factor to 0.811
ElecMinimize: Iter:  17  F: -1406.698602812426088  |grad|_K:  1.263e-07  alpha:  5.622e-01  linmin:  3.370e-07  t[s]:   1621.81
	FillingsUpdate:  mu: -0.161116413  nElectrons: 415.000000  magneticMoment: [ Abs: 0.00000  Tot: +0.00000 ]
	SubspaceRotationAdjust: set factor to 0.768
ElecMinimize: Iter:  18  F: -1406.698604530971124  |grad|_K:  8.708e-08  alpha:  5.081e-01  linmin:  6.580e-08  t[s]:   1679.51
	FillingsUpdate:  mu: -0.161057398  nElectrons: 415.000000  magneticMoment: [ Abs: 0.00000  Tot: +0.00000 ]
	SubspaceRotationAdjust: set factor to 0.698
ElecMinimize: Iter:  19  F: -1406.698605271831411  |grad|_K:  5.483e-08  alpha:  4.610e-01  linmin:  2.534e-08  t[s]:   1736.90
	FillingsUpdate:  mu: -0.161091677  nElectrons: 415.000000  magneticMoment: [ Abs: 0.00000  Tot: +0.00000 ]
	SubspaceRotationAdjust: set factor to 0.715
ElecMinimize: Iter:  20  F: -1406.698605611554285  |grad|_K:  3.608e-08  alpha:  5.332e-01  linmin:  1.330e-07  t[s]:   1794.02
	FillingsUpdate:  mu: -0.161092774  nElectrons: 415.000000  magneticMoment: [ Abs: 0.00000  Tot: +0.00000 ]
	SubspaceRotationAdjust: set factor to 0.804
ElecMinimize: Iter:  21  F: -1406.698605771608527  |grad|_K:  2.564e-08  alpha:  5.803e-01  linmin:  4.033e-08  t[s]:   1850.96
	FillingsUpdate:  mu: -0.161082831  nElectrons: 415.000000  magneticMoment: [ Abs: 0.00000  Tot: -0.00000 ]
	SubspaceRotationAdjust: set factor to 0.873
ElecMinimize: Iter:  22  F: -1406.698605854126981  |grad|_K:  1.951e-08  alpha:  5.923e-01  linmin:  6.207e-08  t[s]:   1908.12
	FillingsUpdate:  mu: -0.161097218  nElectrons: 415.000000  magneticMoment: [ Abs: 0.00000  Tot: -0.00000 ]
	SubspaceRotationAdjust: set factor to 0.812
ElecMinimize: Iter:  23  F: -1406.698605897337529  |grad|_K:  1.497e-08  alpha:  5.357e-01  linmin:  1.509e-08  t[s]:   1964.96
	FillingsUpdate:  mu: -0.161082658  nElectrons: 415.000000  magneticMoment: [ Abs: 0.00000  Tot: -0.00000 ]
	SubspaceRotationAdjust: set factor to 0.684
ElecMinimize: Iter:  24  F: -1406.698605921219951  |grad|_K:  1.159e-08  alpha:  5.023e-01  linmin: -1.665e-08  t[s]:   2022.21
	FillingsUpdate:  mu: -0.161090113  nElectrons: 415.000000  magneticMoment: [ Abs: 0.00000  Tot: -0.00000 ]
	SubspaceRotationAdjust: set factor to 0.658
ElecMinimize: Iter:  25  F: -1406.698605936943068  |grad|_K:  8.912e-09  alpha:  5.526e-01  linmin:  1.448e-09  t[s]:   2079.16
	FillingsUpdate:  mu: -0.161088564  nElectrons: 415.000000  magneticMoment: [ Abs: 0.00000  Tot: -0.00000 ]
	SubspaceRotationAdjust: set factor to 0.749
ElecMinimize: Iter:  26  F: -1406.698605947473879  |grad|_K:  7.005e-09  alpha:  6.264e-01  linmin:  5.165e-08  t[s]:   2136.30
	FillingsUpdate:  mu: -0.161084876  nElectrons: 415.000000  magneticMoment: [ Abs: 0.00000  Tot: -0.00000 ]
	SubspaceRotationAdjust: set factor to 0.808
ElecMinimize: Iter:  27  F: -1406.698605953966535  |grad|_K:  5.679e-09  alpha:  6.247e-01  linmin:  4.427e-08  t[s]:   2192.55
	FillingsUpdate:  mu: -0.161089523  nElectrons: 415.000000  magneticMoment: [ Abs: 0.00000  Tot: -0.00000 ]
	SubspaceRotationAdjust: set factor to 0.754
ElecMinimize: Iter:  28  F: -1406.698605957526070  |grad|_K:  4.271e-09  alpha:  5.228e-01  linmin: -1.007e-08  t[s]:   2248.99
ElecMinimize: Converged (|Delta F|<1.000000e-08 for 2 iters).
Setting wave functions to eigenvectors of Hamiltonian
Vacuum energy after initial minimize, F = -1406.698605957526070

	Linear fluid (dielectric constant: 78.4, screening length: 5.74355 Bohr) occupying 0.745425 of unit cell:	Completed after 13 iterations at t[s]:   2263.96

-------- Electronic minimization -----------
	Linear fluid (dielectric constant: 78.4, screening length: 5.74355 Bohr) occupying 0.745425 of unit cell:	Completed after 0 iterations at t[s]:   2281.21
	FillingsUpdate:  mu: -0.201755297  nElectrons: 415.000000  magneticMoment: [ Abs: 0.00000  Tot: -0.00000 ]
ElecMinimize: Iter:   0  F: -1406.627512443007163  |grad|_K:  2.217e-06  alpha:  1.000e+00
	Linear fluid (dielectric constant: 78.4, screening length: 5.74355 Bohr) occupying 0.746197 of unit cell:	Completed after 9 iterations at t[s]:   2327.14
	Linear fluid (dielectric constant: 78.4, screening length: 5.74355 Bohr) occupying 0.745666 of unit cell:	Completed after 9 iterations at t[s]:   2351.78
	FillingsUpdate:  mu: -0.197316665  nElectrons: 415.000000  magneticMoment: [ Abs: 0.00001  Tot: -0.00000 ]
	SubspaceRotationAdjust: set factor to 0.583
ElecMinimize: Iter:   1  F: -1406.627831792575307  |grad|_K:  1.300e-06  alpha:  3.079e-01  linmin:  3.579e-06  t[s]:   2379.76
	Linear fluid (dielectric constant: 78.4, screening length: 5.74355 Bohr) occupying 0.745863 of unit cell:	Completed after 7 iterations at t[s]:   2398.12
	Linear fluid (dielectric constant: 78.4, screening length: 5.74355 Bohr) occupying 0.746045 of unit cell:	Completed after 7 iterations at t[s]:   2421.33
	FillingsUpdate:  mu: -0.196562118  nElectrons: 415.000000  magneticMoment: [ Abs: 0.00002  Tot: -0.00000 ]
	SubspaceRotationAdjust: set factor to 0.524
ElecMinimize: Iter:   2  F: -1406.628046014275014  |grad|_K:  4.566e-07  alpha:  5.953e-01  linmin: -7.786e-06  t[s]:   2448.66
	Linear fluid (dielectric constant: 78.4, screening length: 5.74355 Bohr) occupying 0.746139 of unit cell:	Completed after 3 iterations at t[s]:   2466.25
	Linear fluid (dielectric constant: 78.4, screening length: 5.74355 Bohr) occupying 0.746152 of unit cell:	Completed after 2 iterations at t[s]:   2486.68
	FillingsUpdate:  mu: -0.196507646  nElectrons: 415.000000  magneticMoment: [ Abs: 0.00002  Tot: -0.00000 ]
	SubspaceRotationAdjust: set factor to 0.592
ElecMinimize: Iter:   3  F: -1406.628076508604636  |grad|_K:  2.496e-07  alpha:  6.830e-01  linmin:  3.492e-06  t[s]:   2513.41
	Linear fluid (dielectric constant: 78.4, screening length: 5.74355 Bohr) occupying 0.746197 of unit cell:	Completed after 3 iterations at t[s]:   2530.46
	Linear fluid (dielectric constant: 78.4, screening length: 5.74355 Bohr) occupying 0.746193 of unit cell:	Completed after 0 iterations at t[s]:   2551.19
	FillingsUpdate:  mu: -0.196523972  nElectrons: 415.000000  magneticMoment: [ Abs: 0.00002  Tot: -0.00000 ]
	SubspaceRotationAdjust: set factor to 0.643
ElecMinimize: Iter:   4  F: -1406.628084563020366  |grad|_K:  1.629e-07  alpha:  6.147e-01  linmin:  2.329e-06  t[s]:   2577.73
	Linear fluid (dielectric constant: 78.4, screening length: 5.74355 Bohr) occupying 0.746207 of unit cell:	Completed after 1 iterations at t[s]:   2594.10
	Linear fluid (dielectric constant: 78.4, screening length: 5.74355 Bohr) occupying 0.746207 of unit cell:	Completed after 0 iterations at t[s]:   2614.74
	FillingsUpdate:  mu: -0.196435914  nElectrons: 415.000000  magneticMoment: [ Abs: 0.00001  Tot: -0.00000 ]
	SubspaceRotationAdjust: set factor to 0.698
ElecMinimize: Iter:   5  F: -1406.628088181398653  |grad|_K:  1.019e-07  alpha:  6.458e-01  linmin: -7.637e-06  t[s]:   2641.25
	Linear fluid (dielectric constant: 78.4, screening length: 5.74355 Bohr) occupying 0.746202 of unit cell:	Completed after 2 iterations at t[s]:   2657.98
	Linear fluid (dielectric constant: 78.4, screening length: 5.74355 Bohr) occupying 0.746203 of unit cell:	Completed after 0 iterations at t[s]:   2679.18
	FillingsUpdate:  mu: -0.196481650  nElectrons: 415.000000  magneticMoment: [ Abs: 0.00001  Tot: -0.00000 ]
	SubspaceRotationAdjust: set factor to 0.722
ElecMinimize: Iter:   6  F: -1406.628089447662433  |grad|_K:  6.397e-08  alpha:  5.694e-01  linmin:  3.342e-07  t[s]:   2704.88
	Linear fluid (dielectric constant: 78.4, screening length: 5.74355 Bohr) occupying 0.746195 of unit cell:	Completed after 0 iterations at t[s]:   2722.02
	Linear fluid (dielectric constant: 78.4, screening length: 5.74355 Bohr) occupying 0.746194 of unit cell:	Completed after 1 iterations at t[s]:   2742.04
	FillingsUpdate:  mu: -0.196432858  nElectrons: 415.000000  magneticMoment: [ Abs: 0.00001  Tot: -0.00000 ]
	SubspaceRotationAdjust: set factor to 0.614
ElecMinimize: Iter:   7  F: -1406.628089886231237  |grad|_K:  4.919e-08  alpha:  6.564e-01  linmin:  5.764e-05  t[s]:   2768.05
	Linear fluid (dielectric constant: 78.4, screening length: 5.74355 Bohr) occupying 0.746185 of unit cell:	Completed after 2 iterations at t[s]:   2784.90
	Linear fluid (dielectric constant: 78.4, screening length: 5.74355 Bohr) occupying 0.746188 of unit cell:	Completed after 0 iterations at t[s]:   2805.47
	FillingsUpdate:  mu: -0.196469697  nElectrons: 415.000000  magneticMoment: [ Abs: 0.00000  Tot: -0.00000 ]
	SubspaceRotationAdjust: set factor to 0.407
ElecMinimize: Iter:   8  F: -1406.628090067621542  |grad|_K:  2.613e-08  alpha:  4.159e-01  linmin:  2.903e-05  t[s]:   2830.73
	Linear fluid (dielectric constant: 78.4, screening length: 5.74355 Bohr) occupying 0.746187 of unit cell:	Completed after 0 iterations at t[s]:   2847.07
	Linear fluid (dielectric constant: 78.4, screening length: 5.74355 Bohr) occupying 0.746187 of unit cell:	Completed after 0 iterations at t[s]:   2867.12
	FillingsUpdate:  mu: -0.196470852  nElectrons: 415.000000  magneticMoment: [ Abs: 0.00000  Tot: -0.00000 ]
	SubspaceRotationAdjust: set factor to 0.533
ElecMinimize: Iter:   9  F: -1406.628090130133842  |grad|_K:  2.062e-08  alpha:  6.030e-01  linmin:  7.189e-06  t[s]:   2893.60
	Linear fluid (dielectric constant: 78.4, screening length: 5.74355 Bohr) occupying 0.746186 of unit cell:	Completed after 2 iterations at t[s]:   2909.86
	Linear fluid (dielectric constant: 78.4, screening length: 5.74355 Bohr) occupying 0.746187 of unit cell:	Completed after 0 iterations at t[s]:   2930.65
ElecMinimize: 	Step increased F by 2.141564e-08, reducing alpha to 1.576707e-02.
	Linear fluid (dielectric constant: 78.4, screening length: 5.74355 Bohr) occupying 0.746187 of unit cell:	Completed after 0 iterations at t[s]:   2970.32
ElecMinimize: 	Step increased F by 1.031822e-08, reducing alpha to 1.576707e-03.
	Linear fluid (dielectric constant: 78.4, screening length: 5.74355 Bohr) occupying 0.746187 of unit cell:	Completed after 0 iterations at t[s]:   3009.47
ElecMinimize: 	Step increased F by 9.538780e-09, reducing alpha to 1.576707e-04.
ElecMinimize: 	Step failed to reduce F after 3 attempts. Quitting step.
ElecMinimize: 	Undoing step.
	Linear fluid (dielectric constant: 78.4, screening length: 5.74355 Bohr) occupying 0.746187 of unit cell:	Completed after 0 iterations at t[s]:   3048.96
ElecMinimize: 	Step failed: resetting search direction.
	FillingsUpdate:  mu: -0.196412868  nElectrons: 415.000000  magneticMoment: [ Abs: 0.00000  Tot: -0.00000 ]
	SubspaceRotationAdjust: set factor to 0.409
ElecMinimize: Iter:  10  F: -1406.628090120612796  |grad|_K:  4.277e-08  alpha:  1.577e-04
	Linear fluid (dielectric constant: 78.4, screening length: 5.74355 Bohr) occupying 0.746186 of unit cell:	Completed after 2 iterations at t[s]:   3091.39
	Linear fluid (dielectric constant: 78.4, screening length: 5.74355 Bohr) occupying 0.746187 of unit cell:	Completed after 1 iterations at t[s]:   3112.03
	FillingsUpdate:  mu: -0.196487702  nElectrons: 415.000000  magneticMoment: [ Abs: 0.00000  Tot: -0.00000 ]
	SubspaceRotationAdjust: set factor to 0.181
ElecMinimize: Iter:  11  F: -1406.628090132111311  |grad|_K:  1.705e-08  alpha:  1.965e-01  linmin:  3.345e-04  t[s]:   3138.23
	Linear fluid (dielectric constant: 78.4, screening length: 5.74355 Bohr) occupying 0.746187 of unit cell:	Completed after 0 iterations at t[s]:   3155.08
ElecMinimize: 	Predicted alpha/alphaT>3.000000, increasing alphaT to 5.896035e-01.
	Linear fluid (dielectric constant: 78.4, screening length: 5.74355 Bohr) occupying 0.746187 of unit cell:	Completed after 0 iterations at t[s]:   3175.06
	Linear fluid (dielectric constant: 78.4, screening length: 5.74355 Bohr) occupying 0.746188 of unit cell:	Completed after 0 iterations at t[s]:   3194.61
	FillingsUpdate:  mu: -0.196487996  nElectrons: 415.000000  magneticMoment: [ Abs: 0.00000  Tot: -0.00000 ]
	SubspaceRotationAdjust: set factor to 0.263
ElecMinimize: Iter:  12  F: -1406.628090172122711  |grad|_K:  1.808e-08  alpha:  8.139e-01  linmin: -7.298e-08  t[s]:   3220.64
	Linear fluid (dielectric constant: 78.4, screening length: 5.74355 Bohr) occupying 0.746189 of unit cell:	Completed after 2 iterations at t[s]:   3237.48
	Linear fluid (dielectric constant: 78.4, screening length: 5.74355 Bohr) occupying 0.746188 of unit cell:	Completed after 0 iterations at t[s]:   3258.09
ElecMinimize: 	Step increased F by 2.228262e-10, reducing alpha to 2.058423e-02.
	Linear fluid (dielectric constant: 78.4, screening length: 5.74355 Bohr) occupying 0.746188 of unit cell:	Completed after 0 iterations at t[s]:   3296.83
	FillingsUpdate:  mu: -0.196419331  nElectrons: 415.000000  magneticMoment: [ Abs: 0.00000  Tot: -0.00000 ]
	SubspaceRotationAdjust: set factor to 0.232
ElecMinimize: Iter:  13  F: -1406.628090177181548  |grad|_K:  2.896e-08  alpha:  2.058e-02  linmin:  5.823e-05  t[s]:   3323.11
	Linear fluid (dielectric constant: 78.4, screening length: 5.74355 Bohr) occupying 0.746188 of unit cell:	Completed after 0 iterations at t[s]:   3339.38
ElecMinimize: 	Predicted alpha/alphaT>3.000000, increasing alphaT to 6.175268e-02.
	Linear fluid (dielectric constant: 78.4, screening length: 5.74355 Bohr) occupying 0.746188 of unit cell:	Completed after 0 iterations at t[s]:   3358.90
	Linear fluid (dielectric constant: 78.4, screening length: 5.74355 Bohr) occupying 0.746188 of unit cell:	Completed after 0 iterations at t[s]:   3378.82
	FillingsUpdate:  mu: -0.196419396  nElectrons: 415.000000  magneticMoment: [ Abs: 0.00000  Tot: -0.00000 ]
	SubspaceRotationAdjust: set factor to 0.225
ElecMinimize: Iter:  14  F: -1406.628090182162396  |grad|_K:  2.509e-08  alpha:  6.532e-02  linmin: -1.595e-07  t[s]:   3404.64
ElecMinimize: Converged (|Delta F|<1.000000e-08 for 2 iters).
Setting wave functions to eigenvectors of Hamiltonian
Single-point solvation energy estimate, DeltaF = +0.070515775363674

# Ionic positions in lattice coordinates:
ion W   0.083334439986111   0.166665542472221   0.500000000000000 1
ion W   0.333334439986111   0.166665542472221   0.500000000000000 1
ion W   0.583334439986111   0.166665542472221   0.500000000000000 1
ion W   0.833334439986111   0.166665542472221   0.500000000000000 1
ion W   0.083334439986111   0.416665542472221   0.500000000000000 1
ion W   0.333334439986111   0.416665542472221   0.500000000000000 1
ion W   0.583334439986111   0.416665542472221   0.500000000000000 1
ion W   0.833334439986111   0.416665542472221   0.500000000000000 1
ion W   0.083334439986111   0.666665542472221   0.500000000000000 1
ion W   0.333334439986111   0.666665542472221   0.500000000000000 1
ion W   0.583334439986111   0.666665542472221   0.500000000000000 1
ion W   0.833334439986111   0.666665542472221   0.500000000000000 1
ion W   0.083334439986111   0.916665542472221   0.500000000000000 1
ion W   0.333334439986111   0.916665542472221   0.500000000000000 1
ion W   0.583334439986111   0.916665542472221   0.500000000000000 1
ion W   0.833334439986111   0.916665542472221   0.500000000000000 1
ion Se   0.166667773319445   0.083332209138888   0.406896668529060 1
ion Se   0.166667773319445   0.083332209138888   0.593103331470940 1
ion Se   0.416667773319445   0.083332209138888   0.406896668529060 1
ion Se   0.416667773319445   0.083332209138888   0.593103331470940 1
ion Se   0.666667773319445   0.083332209138888   0.406896668529060 1
ion Se   0.666667773319445   0.083332209138888   0.593103331470940 1
ion Se   0.916667773319445   0.083332209138888   0.406896668529060 1
ion Se   0.916667773319445   0.083332209138888   0.593103331470940 1
ion Se   0.166667773319445   0.333332209138888   0.406896668529060 1
ion Se   0.166667773319445   0.333332209138888   0.593103331470940 1
ion Se   0.416667773319445   0.333332209138888   0.406896668529060 1
ion Se   0.416667773319445   0.333332209138888   0.593103331470940 1
ion Se   0.666667773319445   0.333332209138888   0.406896668529060 1
ion Se   0.666667773319445   0.333332209138888   0.593103331470940 1
ion Se   0.916667773319445   0.333332209138888   0.406896668529060 1
ion Se   0.916667773319445   0.333332209138888   0.593103331470940 1
ion Se   0.166667773319445   0.583332209138888   0.406896668529060 1
ion Se   0.166667773319445   0.583332209138888   0.593103331470940 1
ion Se   0.416667773319445   0.583332209138888   0.406896668529060 1
ion Se   0.416667773319445   0.583332209138888   0.593103331470940 1
ion Se   0.666667773319445   0.583332209138888   0.406896668529060 1
ion Se   0.666667773319445   0.583332209138888   0.593103331470940 1
ion Se   0.916667773319445   0.583332209138888   0.406896668529060 1
ion Se   0.916667773319445   0.583332209138888   0.593103331470940 1
ion Se   0.166667773319445   0.833332209138888   0.406896668529060 1
ion Se   0.166667773319445   0.833332209138888   0.593103331470940 1
ion Se   0.416667773319445   0.833332209138888   0.406896668529060 1
ion Se   0.416667773319445   0.833332209138888   0.593103331470940 1
ion Se   0.666667773319445   0.833332209138888   0.406896668529060 1
ion Se   0.666667773319445   0.833332209138888   0.593103331470940 1
ion Se   0.916667773319445   0.833332209138888   0.406896668529060 1
ion Se   0.916667773319445   0.833332209138888   0.593103331470940 1


# Forces in Lattice coordinates:
force W  -0.000000000000000   0.000000000000000   0.000000000000000 1
force W   0.000000000000000   0.000000000000000  -0.000000000000000 1
force W   0.000000000000000   0.000000000000000   0.000000000000000 1
force W  -0.000000000000000  -0.000000000000000  -0.000000000000000 1
force W  -0.000000000000000  -0.000000000000000   0.000000000000000 1
force W  -0.000000000000000   0.000000000000000   0.000000000000000 1
force W  -0.000000000000000  -0.000000000000000  -0.000000000000000 1
force W  -0.000000000000000  -0.000000000000000   0.000000000000000 1
force W   0.000000000000000   0.000000000000000   0.000000000000000 1
force W   0.000000000000000  -0.000000000000000   0.000000000000000 1
force W   0.000000000000000  -0.000000000000000   0.000000000000000 1
force W  -0.000000000000000   0.000000000000000  -0.000000000000000 1
force W  -0.000000000000000   0.000000000000000   0.000000000000000 1
force W   0.000000000000000  -0.000000000000000   0.000000000000000 1
force W   0.000000000000000  -0.000000000000000   0.000000000000000 1
force W  -0.000000000000000  -0.000000000000000  -0.000000000000000 1
force Se   0.000000000000000  -0.000000000000000  -0.029764530425279 1
force Se  -0.000000000000000   0.000000000000000   0.029764530425279 1
force Se   0.000000000000000   0.000000000000000  -0.029764530425167 1
force Se  -0.000000000000000   0.000000000000000   0.029764530424940 1
force Se   0.000000000000000   0.000000000000000  -0.029764530424940 1
force Se  -0.000000000000000  -0.000000000000000   0.029764530425053 1
force Se  -0.000000000000000  -0.000000000000000  -0.029764530425053 1
force Se  -0.000000000000000  -0.000000000000000   0.029764530425053 1
force Se   0.000000000000000  -0.000000000000000  -0.029764530425053 1
force Se  -0.000000000000000  -0.000000000000000   0.029764530425168 1
force Se  -0.000000000000000   0.000000000000000  -0.029764530425279 1
force Se  -0.000000000000000  -0.000000000000000   0.029764530425052 1
force Se  -0.000000000000000  -0.000000000000000  -0.029764530425054 1
force Se  -0.000000000000000   0.000000000000000   0.029764530424940 1
force Se   0.000000000000000  -0.000000000000000  -0.029764530425054 1
force Se  -0.000000000000000  -0.000000000000000   0.029764530425053 1
force Se   0.000000000000000  -0.000000000000000  -0.029764530425054 1
force Se  -0.000000000000000  -0.000000000000000   0.029764530425053 1
force Se   0.000000000000000  -0.000000000000000  -0.029764530425281 1
force Se   0.000000000000000   0.000000000000000   0.029764530425053 1
force Se   0.000000000000000   0.000000000000000  -0.029764530425279 1
force Se  -0.000000000000000  -0.000000000000000   0.029764530425052 1
force Se  -0.000000000000000   0.000000000000000  -0.029764530424940 1
force Se  -0.000000000000000   0.000000000000000   0.029764530425053 1
force Se   0.000000000000000  -0.000000000000000  -0.029764530425052 1
force Se  -0.000000000000000   0.000000000000000   0.029764530425053 1
force Se   0.000000000000000  -0.000000000000000  -0.029764530425053 1
force Se   0.000000000000000  -0.000000000000000   0.029764530425053 1
force Se  -0.000000000000000  -0.000000000000000  -0.029764530425052 1
force Se  -0.000000000000000  -0.000000000000000   0.029764530425052 1
force Se  -0.000000000000000  -0.000000000000000  -0.029764530425052 1
force Se  -0.000000000000000   0.000000000000000   0.029764530425052 1

# Energy components:
   A_diel =        0.0587292103116824
   Eewald =     7935.1870961835611524
       EH =     9041.8054081935370050
     Eloc =   -18463.8643261319120938
      Enl =     -154.8348066554526952
      Exc =     -805.3986971972883566
 Exc_core =      564.8999477537579423
       KE =      475.5248685897807945
  MuShift =        0.0112064139501076
-------------------------------------
     Etot =    -1406.6105736397560122
       TS =        0.0175165424064525
-------------------------------------
        F =    -1406.6280901821623956

IonicMinimize: Iter:   0  F: -1406.628090182162396  |grad|_K:  4.092e-04  t[s]:   3421.59

#--- Lowdin population analysis ---
# oxidation-state W -0.700 -0.700 -0.700 -0.700 -0.700 -0.700 -0.700 -0.700 -0.700 -0.700 -0.700 -0.700 -0.700 -0.700 -0.700 -0.700
# magnetic-moments W -0.000 -0.000 -0.000 -0.000 -0.000 -0.000 -0.000 -0.000 -0.000 -0.000 -0.000 -0.000 -0.000 -0.000 -0.000 -0.000
# oxidation-state Se +0.433 +0.433 +0.433 +0.433 +0.433 +0.433 +0.433 +0.433 +0.433 +0.433 +0.433 +0.433 +0.433 +0.433 +0.433 +0.433 +0.433 +0.433 +0.433 +0.433 +0.433 +0.433 +0.433 +0.433 +0.433 +0.433 +0.433 +0.433 +0.433 +0.433 +0.433 +0.433
# magnetic-moments Se +0.000 +0.000 +0.000 +0.000 +0.000 +0.000 +0.000 +0.000 +0.000 +0.000 +0.000 +0.000 +0.000 +0.000 +0.000 +0.000 +0.000 +0.000 +0.000 +0.000 +0.000 +0.000 +0.000 +0.000 +0.000 +0.000 +0.000 +0.000 +0.000 +0.000 +0.000 +0.000

	Linear fluid (dielectric constant: 78.4, screening length: 5.74355 Bohr) occupying 0.746155 of unit cell:	Completed after 3 iterations at t[s]:   3439.64

-------- Electronic minimization -----------
	Linear fluid (dielectric constant: 78.4, screening length: 5.74355 Bohr) occupying 0.746155 of unit cell:	Completed after 0 iterations at t[s]:   3456.62
	FillingsUpdate:  mu: -0.196495395  nElectrons: 415.000000  magneticMoment: [ Abs: 0.00001  Tot: -0.00000 ]
ElecMinimize: Iter:   0  F: -1406.628110530139338  |grad|_K:  9.641e-08  alpha:  1.000e+00
	Linear fluid (dielectric constant: 78.4, screening length: 5.74355 Bohr) occupying 0.746157 of unit cell:	Completed after 2 iterations at t[s]:   3502.12
	Linear fluid (dielectric constant: 78.4, screening length: 5.74355 Bohr) occupying 0.746156 of unit cell:	Completed after 0 iterations at t[s]:   3522.87
	FillingsUpdate:  mu: -0.196385530  nElectrons: 415.000000  magneticMoment: [ Abs: 0.00001  Tot: -0.00000 ]
	SubspaceRotationAdjust: set factor to 0.233
ElecMinimize: Iter:   1  F: -1406.628112146079047  |grad|_K:  7.465e-08  alpha:  8.184e-01  linmin:  3.984e-04  t[s]:   3548.82
	Linear fluid (dielectric constant: 78.4, screening length: 5.74355 Bohr) occupying 0.746158 of unit cell:	Completed after 2 iterations at t[s]:   3566.15
	Linear fluid (dielectric constant: 78.4, screening length: 5.74355 Bohr) occupying 0.746159 of unit cell:	Completed after 0 iterations at t[s]:   3586.93
	FillingsUpdate:  mu: -0.196437053  nElectrons: 415.000000  magneticMoment: [ Abs: 0.00001  Tot: -0.00000 ]
	SubspaceRotationAdjust: set factor to 0.318
ElecMinimize: Iter:   2  F: -1406.628113180703849  |grad|_K:  6.161e-08  alpha:  9.000e-01  linmin: -2.469e-04  t[s]:   3613.02
	Linear fluid (dielectric constant: 78.4, screening length: 5.74355 Bohr) occupying 0.746161 of unit cell:	Completed after 0 iterations at t[s]:   3630.18
	Linear fluid (dielectric constant: 78.4, screening length: 5.74355 Bohr) occupying 0.746161 of unit cell:	Completed after 0 iterations at t[s]:   3649.83
	FillingsUpdate:  mu: -0.196436575  nElectrons: 415.000000  magneticMoment: [ Abs: 0.00001  Tot: -0.00000 ]
	SubspaceRotationAdjust: set factor to 0.385
ElecMinimize: Iter:   3  F: -1406.628113923665296  |grad|_K:  4.476e-08  alpha:  8.496e-01  linmin: -5.271e-08  t[s]:   3675.17
	Linear fluid (dielectric constant: 78.4, screening length: 5.74355 Bohr) occupying 0.746163 of unit cell:	Completed after 0 iterations at t[s]:   3691.57
	Linear fluid (dielectric constant: 78.4, screening length: 5.74355 Bohr) occupying 0.746163 of unit cell:	Completed after 0 iterations at t[s]:   3711.63
	FillingsUpdate:  mu: -0.196436572  nElectrons: 415.000000  magneticMoment: [ Abs: 0.00001  Tot: -0.00000 ]
	SubspaceRotationAdjust: set factor to 0.438
ElecMinimize: Iter:   4  F: -1406.628114182302625  |grad|_K:  2.600e-08  alpha:  6.091e-01  linmin:  2.220e-09  t[s]:   3737.89
	Linear fluid (dielectric constant: 78.4, screening length: 5.74355 Bohr) occupying 0.746163 of unit cell:	Completed after 0 iterations at t[s]:   3754.44
	Linear fluid (dielectric constant: 78.4, screening length: 5.74355 Bohr) occupying 0.746163 of unit cell:	Completed after 0 iterations at t[s]:   3773.62
	FillingsUpdate:  mu: -0.196436871  nElectrons: 415.000000  magneticMoment: [ Abs: 0.00000  Tot: -0.00000 ]
	SubspaceRotationAdjust: set factor to 0.473
ElecMinimize: Iter:   5  F: -1406.628114262019835  |grad|_K:  1.339e-08  alpha:  5.565e-01  linmin: -2.057e-08  t[s]:   3800.03
	Linear fluid (dielectric constant: 78.4, screening length: 5.74355 Bohr) occupying 0.746164 of unit cell:	Completed after 0 iterations at t[s]:   3816.45
	Linear fluid (dielectric constant: 78.4, screening length: 5.74355 Bohr) occupying 0.746164 of unit cell:	Completed after 0 iterations at t[s]:   3836.74
	FillingsUpdate:  mu: -0.196437125  nElectrons: 415.000000  magneticMoment: [ Abs: 0.00000  Tot: -0.00000 ]
	SubspaceRotationAdjust: set factor to 0.507
ElecMinimize: Iter:   6  F: -1406.628114282722663  |grad|_K:  8.272e-09  alpha:  5.450e-01  linmin:  5.701e-08  t[s]:   3862.89
	Linear fluid (dielectric constant: 78.4, screening length: 5.74355 Bohr) occupying 0.746164 of unit cell:	Completed after 0 iterations at t[s]:   3879.14
	Linear fluid (dielectric constant: 78.4, screening length: 5.74355 Bohr) occupying 0.746164 of unit cell:	Completed after 0 iterations at t[s]:   3899.44
	FillingsUpdate:  mu: -0.196437349  nElectrons: 415.000000  magneticMoment: [ Abs: 0.00000  Tot: -0.00000 ]
	SubspaceRotationAdjust: set factor to 0.591
ElecMinimize: Iter:   7  F: -1406.628114290629355  |grad|_K:  4.777e-09  alpha:  5.461e-01  linmin:  1.931e-07  t[s]:   3925.13
	Linear fluid (dielectric constant: 78.4, screening length: 5.74355 Bohr) occupying 0.746164 of unit cell:	Completed after 0 iterations at t[s]:   3941.41
	Linear fluid (dielectric constant: 78.4, screening length: 5.74355 Bohr) occupying 0.746164 of unit cell:	Completed after 0 iterations at t[s]:   3961.00
	FillingsUpdate:  mu: -0.196437488  nElectrons: 415.000000  magneticMoment: [ Abs: 0.00000  Tot: -0.00000 ]
	SubspaceRotationAdjust: set factor to 0.738
ElecMinimize: Iter:   8  F: -1406.628114293501994  |grad|_K:  3.324e-09  alpha:  5.969e-01  linmin: -7.328e-08  t[s]:   3986.72
ElecMinimize: Converged (|Delta F|<1.000000e-08 for 2 iters).
Setting wave functions to eigenvectors of Hamiltonian

# Ionic positions in lattice coordinates:
ion W   0.083334439986111   0.166665542472221   0.500000000000000 1
ion W   0.333334439986111   0.166665542472221   0.500000000000000 1
ion W   0.583334439986111   0.166665542472221   0.500000000000000 1
ion W   0.833334439986111   0.166665542472221   0.500000000000000 1
ion W   0.083334439986111   0.416665542472221   0.500000000000000 1
ion W   0.333334439986111   0.416665542472221   0.500000000000000 1
ion W   0.583334439986111   0.416665542472221   0.500000000000000 1
ion W   0.833334439986111   0.416665542472221   0.500000000000000 1
ion W   0.083334439986111   0.666665542472221   0.500000000000000 1
ion W   0.333334439986111   0.666665542472221   0.500000000000000 1
ion W   0.583334439986111   0.666665542472221   0.500000000000000 1
ion W   0.833334439986111   0.666665542472221   0.500000000000000 1
ion W   0.083334439986111   0.916665542472221   0.500000000000000 1
ion W   0.333334439986111   0.916665542472221   0.500000000000000 1
ion W   0.583334439986111   0.916665542472221   0.500000000000000 1
ion W   0.833334439986111   0.916665542472221   0.500000000000000 1
ion Se   0.166667773319445   0.083332209138888   0.406871356045480 1
ion Se   0.166667773319445   0.083332209138888   0.593128643954520 1
ion Se   0.416667773319445   0.083332209138888   0.406871356045480 1
ion Se   0.416667773319445   0.083332209138888   0.593128643954520 1
ion Se   0.666667773319445   0.083332209138888   0.406871356045480 1
ion Se   0.666667773319445   0.083332209138888   0.593128643954520 1
ion Se   0.916667773319445   0.083332209138888   0.406871356045480 1
ion Se   0.916667773319445   0.083332209138888   0.593128643954520 1
ion Se   0.166667773319445   0.333332209138888   0.406871356045480 1
ion Se   0.166667773319445   0.333332209138888   0.593128643954520 1
ion Se   0.416667773319445   0.333332209138888   0.406871356045480 1
ion Se   0.416667773319445   0.333332209138888   0.593128643954520 1
ion Se   0.666667773319445   0.333332209138888   0.406871356045480 1
ion Se   0.666667773319445   0.333332209138888   0.593128643954520 1
ion Se   0.916667773319445   0.333332209138888   0.406871356045480 1
ion Se   0.916667773319445   0.333332209138888   0.593128643954520 1
ion Se   0.166667773319445   0.583332209138888   0.406871356045480 1
ion Se   0.166667773319445   0.583332209138888   0.593128643954520 1
ion Se   0.416667773319445   0.583332209138888   0.406871356045480 1
ion Se   0.416667773319445   0.583332209138888   0.593128643954520 1
ion Se   0.666667773319445   0.583332209138888   0.406871356045480 1
ion Se   0.666667773319445   0.583332209138888   0.593128643954520 1
ion Se   0.916667773319445   0.583332209138888   0.406871356045480 1
ion Se   0.916667773319445   0.583332209138888   0.593128643954520 1
ion Se   0.166667773319445   0.833332209138888   0.406871356045480 1
ion Se   0.166667773319445   0.833332209138888   0.593128643954520 1
ion Se   0.416667773319445   0.833332209138888   0.406871356045480 1
ion Se   0.416667773319445   0.833332209138888   0.593128643954520 1
ion Se   0.666667773319445   0.833332209138888   0.406871356045480 1
ion Se   0.666667773319445   0.833332209138888   0.593128643954520 1
ion Se   0.916667773319445   0.833332209138888   0.406871356045480 1
ion Se   0.916667773319445   0.833332209138888   0.593128643954520 1


# Forces in Lattice coordinates:
force W  -0.000000000000000  -0.000000000000000   0.000000000000000 1
force W   0.000000000000000   0.000000000000000   0.000000000000000 1
force W   0.000000000000000  -0.000000000000000  -0.000000000000000 1
force W  -0.000000000000000  -0.000000000000000  -0.000000000000000 1
force W   0.000000000000000   0.000000000000000  -0.000000000000000 1
force W   0.000000000000000  -0.000000000000000   0.000000000000000 1
force W  -0.000000000000000   0.000000000000000  -0.000000000000000 1
force W  -0.000000000000000  -0.000000000000000  -0.000000000000000 1
force W   0.000000000000000   0.000000000000000  -0.000000000000000 1
force W  -0.000000000000000   0.000000000000000   0.000000000000000 1
force W  -0.000000000000000  -0.000000000000000  -0.000000000000000 1
force W   0.000000000000000   0.000000000000000  -0.000000000000000 1
force W  -0.000000000000000   0.000000000000000   0.000000000000000 1
force W  -0.000000000000000  -0.000000000000000   0.000000000000000 1
force W  -0.000000000000000   0.000000000000000   0.000000000000000 1
force W   0.000000000000000   0.000000000000000  -0.000000000000000 1
force Se  -0.000000000000000   0.000000000000000  -0.026329117770077 1
force Se   0.000000000000000  -0.000000000000000   0.026329117769848 1
force Se   0.000000000000000  -0.000000000000000  -0.026329117769961 1
force Se   0.000000000000000  -0.000000000000000   0.026329117769736 1
force Se  -0.000000000000000   0.000000000000000  -0.026329117769848 1
force Se   0.000000000000000   0.000000000000000   0.026329117769733 1
force Se  -0.000000000000000   0.000000000000000  -0.026329117769964 1
force Se   0.000000000000000  -0.000000000000000   0.026329117769846 1
force Se   0.000000000000000  -0.000000000000000  -0.026329117769964 1
force Se  -0.000000000000000   0.000000000000000   0.026329117769732 1
force Se  -0.000000000000000   0.000000000000000  -0.026329117769961 1
force Se   0.000000000000000  -0.000000000000000   0.026329117769850 1
force Se  -0.000000000000000   0.000000000000000  -0.026329117769848 1
force Se   0.000000000000000   0.000000000000000   0.026329117769849 1
force Se  -0.000000000000000   0.000000000000000  -0.026329117769736 1
force Se  -0.000000000000000  -0.000000000000000   0.026329117769734 1
force Se  -0.000000000000000   0.000000000000000  -0.026329117769849 1
force Se   0.000000000000000  -0.000000000000000   0.026329117769734 1
force Se   0.000000000000000   0.000000000000000  -0.026329117769963 1
force Se  -0.000000000000000  -0.000000000000000   0.026329117769847 1
force Se  -0.000000000000000   0.000000000000000  -0.026329117770075 1
force Se   0.000000000000000  -0.000000000000000   0.026329117769961 1
force Se  -0.000000000000000   0.000000000000000  -0.026329117769849 1
force Se   0.000000000000000  -0.000000000000000   0.026329117769736 1
force Se  -0.000000000000000   0.000000000000000  -0.026329117769963 1
force Se   0.000000000000000  -0.000000000000000   0.026329117769736 1
force Se  -0.000000000000000   0.000000000000000  -0.026329117769848 1
force Se   0.000000000000000  -0.000000000000000   0.026329117769734 1
force Se  -0.000000000000000   0.000000000000000  -0.026329117769963 1
force Se  -0.000000000000000   0.000000000000000   0.026329117769960 1
force Se   0.000000000000000   0.000000000000000  -0.026329117770075 1
force Se   0.000000000000000   0.000000000000000   0.026329117769961 1

# Energy components:
   A_diel =        0.0587366331815903
   Eewald =     7934.6664570167758939
       EH =     9041.2960798136900848
     Eloc =   -18462.8248321610844869
      Enl =     -154.8359023077921961
      Exc =     -805.3925875950332056
 Exc_core =      564.8999411810615356
       KE =      475.5103008162379865
  MuShift =        0.0112064139501076
-------------------------------------
     Etot =    -1406.6106001890125299
       TS =        0.0175141044895068
-------------------------------------
        F =    -1406.6281142935019943

IonicMinimize: Iter:   1  F: -1406.628114293501994  |grad|_K:  3.619e-04  alpha:  1.000e+00  linmin: -1.000e+00  t[s]:   4003.52

#--- Lowdin population analysis ---
# oxidation-state W -0.700 -0.700 -0.700 -0.700 -0.700 -0.700 -0.700 -0.700 -0.700 -0.700 -0.700 -0.700 -0.700 -0.700 -0.700 -0.700
# magnetic-moments W +0.000 +0.000 +0.000 +0.000 +0.000 +0.000 +0.000 +0.000 +0.000 +0.000 +0.000 +0.000 +0.000 +0.000 +0.000 +0.000
# oxidation-state Se +0.433 +0.433 +0.433 +0.433 +0.433 +0.433 +0.433 +0.433 +0.433 +0.433 +0.433 +0.433 +0.433 +0.433 +0.433 +0.433 +0.433 +0.433 +0.433 +0.433 +0.433 +0.433 +0.433 +0.433 +0.433 +0.433 +0.433 +0.433 +0.433 +0.433 +0.433 +0.433
# magnetic-moments Se -0.000 -0.000 -0.000 -0.000 -0.000 -0.000 -0.000 -0.000 -0.000 -0.000 -0.000 -0.000 -0.000 -0.000 -0.000 -0.000 -0.000 -0.000 -0.000 -0.000 -0.000 -0.000 -0.000 -0.000 -0.000 -0.000 -0.000 -0.000 -0.000 -0.000 -0.000 -0.000

	Linear fluid (dielectric constant: 78.4, screening length: 5.74355 Bohr) occupying 0.745934 of unit cell:	Completed after 8 iterations at t[s]:   4022.79

-------- Electronic minimization -----------
	Linear fluid (dielectric constant: 78.4, screening length: 5.74355 Bohr) occupying 0.745934 of unit cell:	Completed after 0 iterations at t[s]:   4040.91
	FillingsUpdate:  mu: -0.195162964  nElectrons: 415.000000  magneticMoment: [ Abs: 0.00009  Tot: +0.00000 ]
ElecMinimize: Iter:   0  F: -1406.627901505325553  |grad|_K:  1.348e-06  alpha:  1.000e+00
	Linear fluid (dielectric constant: 78.4, screening length: 5.74355 Bohr) occupying 0.745905 of unit cell:	Completed after 9 iterations at t[s]:   4088.06
	Linear fluid (dielectric constant: 78.4, screening length: 5.74355 Bohr) occupying 0.745924 of unit cell:	Completed after 9 iterations at t[s]:   4112.65
	FillingsUpdate:  mu: -0.197301223  nElectrons: 415.000000  magneticMoment: [ Abs: 0.00006  Tot: -0.00000 ]
	SubspaceRotationAdjust: set factor to 0.476
ElecMinimize: Iter:   1  F: -1406.628029315206732  |grad|_K:  8.928e-07  alpha:  3.348e-01  linmin:  2.765e-05  t[s]:   4139.99
	Linear fluid (dielectric constant: 78.4, screening length: 5.74355 Bohr) occupying 0.745950 of unit cell:	Completed after 7 iterations at t[s]:   4158.42
	Linear fluid (dielectric constant: 78.4, screening length: 5.74355 Bohr) occupying 0.745976 of unit cell:	Completed after 8 iterations at t[s]:   4181.82
	FillingsUpdate:  mu: -0.196307296  nElectrons: 415.000000  magneticMoment: [ Abs: 0.00002  Tot: -0.00000 ]
	SubspaceRotationAdjust: set factor to 0.739
ElecMinimize: Iter:   2  F: -1406.628143089689729  |grad|_K:  3.271e-07  alpha:  6.752e-01  linmin:  1.882e-05  t[s]:   4208.76
	Linear fluid (dielectric constant: 78.4, screening length: 5.74355 Bohr) occupying 0.745986 of unit cell:	Completed after 2 iterations at t[s]:   4225.84
	Linear fluid (dielectric constant: 78.4, screening length: 5.74355 Bohr) occupying 0.745985 of unit cell:	Completed after 0 iterations at t[s]:   4246.12
	FillingsUpdate:  mu: -0.196274955  nElectrons: 415.000000  magneticMoment: [ Abs: 0.00001  Tot: -0.00000 ]
	SubspaceRotationAdjust: set factor to 0.857
ElecMinimize: Iter:   3  F: -1406.628156438478527  |grad|_K:  1.292e-07  alpha:  5.878e-01  linmin:  2.164e-04  t[s]:   4272.17
	Linear fluid (dielectric constant: 78.4, screening length: 5.74355 Bohr) occupying 0.745985 of unit cell:	Completed after 1 iterations at t[s]:   4288.84
	Linear fluid (dielectric constant: 78.4, screening length: 5.74355 Bohr) occupying 0.745985 of unit cell:	Completed after 0 iterations at t[s]:   4309.11
	FillingsUpdate:  mu: -0.196278931  nElectrons: 415.000000  magneticMoment: [ Abs: 0.00001  Tot: -0.00000 ]
	SubspaceRotationAdjust: set factor to 1.03
ElecMinimize: Iter:   4  F: -1406.628157973113730  |grad|_K:  5.599e-08  alpha:  4.470e-01  linmin: -2.619e-05  t[s]:   4335.59
	Linear fluid (dielectric constant: 78.4, screening length: 5.74355 Bohr) occupying 0.745984 of unit cell:	Completed after 0 iterations at t[s]:   4351.98
	Linear fluid (dielectric constant: 78.4, screening length: 5.74355 Bohr) occupying 0.745984 of unit cell:	Completed after 0 iterations at t[s]:   4372.35
	FillingsUpdate:  mu: -0.196278584  nElectrons: 415.000000  magneticMoment: [ Abs: 0.00001  Tot: +0.00000 ]
	SubspaceRotationAdjust: set factor to 1.15
ElecMinimize: Iter:   5  F: -1406.628158365389027  |grad|_K:  3.200e-08  alpha:  5.847e-01  linmin: -1.092e-07  t[s]:   4398.61
	Linear fluid (dielectric constant: 78.4, screening length: 5.74355 Bohr) occupying 0.745983 of unit cell:	Completed after 1 iterations at t[s]:   4415.37
	Linear fluid (dielectric constant: 78.4, screening length: 5.74355 Bohr) occupying 0.745983 of unit cell:	Completed after 0 iterations at t[s]:   4436.31
	FillingsUpdate:  mu: -0.196305758  nElectrons: 415.000000  magneticMoment: [ Abs: 0.00001  Tot: +0.00000 ]
	SubspaceRotationAdjust: set factor to 1.03
ElecMinimize: Iter:   6  F: -1406.628158426149639  |grad|_K:  2.430e-08  alpha:  3.818e-01  linmin: -6.103e-05  t[s]:   4462.18
	Linear fluid (dielectric constant: 78.4, screening length: 5.74355 Bohr) occupying 0.745983 of unit cell:	Completed after 0 iterations at t[s]:   4478.95
	Linear fluid (dielectric constant: 78.4, screening length: 5.74355 Bohr) occupying 0.745983 of unit cell:	Completed after 0 iterations at t[s]:   4499.25
	FillingsUpdate:  mu: -0.196300657  nElectrons: 415.000000  magneticMoment: [ Abs: 0.00000  Tot: +0.00000 ]
	SubspaceRotationAdjust: set factor to 1.25
ElecMinimize: Iter:   7  F: -1406.628158495407433  |grad|_K:  2.513e-08  alpha:  6.028e-01  linmin:  1.441e-05  t[s]:   4524.93
	Linear fluid (dielectric constant: 78.4, screening length: 5.74355 Bohr) occupying 0.745984 of unit cell:	Completed after 2 iterations at t[s]:   4542.14
	Linear fluid (dielectric constant: 78.4, screening length: 5.74355 Bohr) occupying 0.745984 of unit cell:	Completed after 2 iterations at t[s]:   4563.02
ElecMinimize: 	Step increased F by 5.013385e-08, reducing alpha to 7.275192e-03.
	Linear fluid (dielectric constant: 78.4, screening length: 5.74355 Bohr) occupying 0.745983 of unit cell:	Completed after 0 iterations at t[s]:   4602.54
ElecMinimize: 	Step increased F by 3.278728e-08, reducing alpha to 7.275192e-04.
	Linear fluid (dielectric constant: 78.4, screening length: 5.74355 Bohr) occupying 0.745983 of unit cell:	Completed after 0 iterations at t[s]:   4641.63
ElecMinimize: 	Step increased F by 3.118839e-08, reducing alpha to 7.275192e-05.
ElecMinimize: 	Step failed to reduce F after 3 attempts. Quitting step.
ElecMinimize: 	Undoing step.
	Linear fluid (dielectric constant: 78.4, screening length: 5.74355 Bohr) occupying 0.745983 of unit cell:	Completed after 0 iterations at t[s]:   4680.57
ElecMinimize: 	Step failed: resetting search direction.
	FillingsUpdate:  mu: -0.196243209  nElectrons: 415.000000  magneticMoment: [ Abs: 0.00000  Tot: +0.00000 ]
	SubspaceRotationAdjust: set factor to 0.867
ElecMinimize: Iter:   8  F: -1406.628158464243825  |grad|_K:  4.885e-08  alpha:  7.275e-05
	Linear fluid (dielectric constant: 78.4, screening length: 5.74355 Bohr) occupying 0.745981 of unit cell:	Completed after 2 iterations at t[s]:   4723.41
	Linear fluid (dielectric constant: 78.4, screening length: 5.74355 Bohr) occupying 0.745983 of unit cell:	Completed after 3 iterations at t[s]:   4745.29
	FillingsUpdate:  mu: -0.196313991  nElectrons: 415.000000  magneticMoment: [ Abs: 0.00000  Tot: +0.00000 ]
	SubspaceRotationAdjust: set factor to 0.384
ElecMinimize: Iter:   9  F: -1406.628158492078228  |grad|_K:  2.407e-08  alpha:  1.366e-01  linmin:  5.209e-04  t[s]:   4771.92
	Linear fluid (dielectric constant: 78.4, screening length: 5.74355 Bohr) occupying 0.745983 of unit cell:	Completed after 0 iterations at t[s]:   4788.32
ElecMinimize: 	Predicted alpha/alphaT>3.000000, increasing alphaT to 4.096729e-01.
	Linear fluid (dielectric constant: 78.4, screening length: 5.74355 Bohr) occupying 0.745983 of unit cell:	Completed after 0 iterations at t[s]:   4808.82
	Linear fluid (dielectric constant: 78.4, screening length: 5.74355 Bohr) occupying 0.745983 of unit cell:	Completed after 0 iterations at t[s]:   4828.67
	FillingsUpdate:  mu: -0.196314160  nElectrons: 415.000000  magneticMoment: [ Abs: 0.00000  Tot: +0.00000 ]
	SubspaceRotationAdjust: set factor to 0.578
ElecMinimize: Iter:  10  F: -1406.628158530477322  |grad|_K:  1.860e-08  alpha:  4.095e-01  linmin:  1.514e-07  t[s]:   4854.38
	Linear fluid (dielectric constant: 78.4, screening length: 5.74355 Bohr) occupying 0.745984 of unit cell:	Completed after 0 iterations at t[s]:   4870.66
	Linear fluid (dielectric constant: 78.4, screening length: 5.74355 Bohr) occupying 0.745985 of unit cell:	Completed after 2 iterations at t[s]:   4890.75
ElecMinimize: 	Step increased F by 2.282236e-07, reducing alpha to 1.078426e-01.
	Linear fluid (dielectric constant: 78.4, screening length: 5.74355 Bohr) occupying 0.745984 of unit cell:	Completed after 2 iterations at t[s]:   4930.75
ElecMinimize: 	Step increased F by 5.181619e-09, reducing alpha to 1.078426e-02.
	Linear fluid (dielectric constant: 78.4, screening length: 5.74355 Bohr) occupying 0.745983 of unit cell:	Completed after 0 iterations at t[s]:   4970.66
ElecMinimize: 	Step increased F by 1.999979e-09, reducing alpha to 1.078426e-03.
ElecMinimize: 	Step failed to reduce F after 3 attempts. Quitting step.
ElecMinimize: 	Undoing step.
	Linear fluid (dielectric constant: 78.4, screening length: 5.74355 Bohr) occupying 0.745983 of unit cell:	Completed after 0 iterations at t[s]:   5009.60
ElecMinimize: 	Step failed: resetting search direction.
	FillingsUpdate:  mu: -0.196263356  nElectrons: 415.000000  magneticMoment: [ Abs: 0.00000  Tot: +0.00000 ]
	SubspaceRotationAdjust: set factor to 0.443
ElecMinimize: Iter:  11  F: -1406.628158528503263  |grad|_K:  1.729e-08  alpha:  1.078e-03
	Linear fluid (dielectric constant: 78.4, screening length: 5.74355 Bohr) occupying 0.745983 of unit cell:	Completed after 0 iterations at t[s]:   5052.46
	Linear fluid (dielectric constant: 78.4, screening length: 5.74355 Bohr) occupying 0.745983 of unit cell:	Completed after 0 iterations at t[s]:   5072.91
	FillingsUpdate:  mu: -0.196262991  nElectrons: 415.000000  magneticMoment: [ Abs: 0.00000  Tot: +0.00000 ]
	SubspaceRotationAdjust: set factor to 0.667
ElecMinimize: Iter:  12  F: -1406.628158557573897  |grad|_K:  1.328e-08  alpha:  4.590e-01  linmin:  4.922e-07  t[s]:   5098.87
	Linear fluid (dielectric constant: 78.4, screening length: 5.74355 Bohr) occupying 0.745983 of unit cell:	Completed after 3 iterations at t[s]:   5116.19
	Linear fluid (dielectric constant: 78.4, screening length: 5.74355 Bohr) occupying 0.745983 of unit cell:	Completed after 0 iterations at t[s]:   5137.19
ElecMinimize: 	Step increased F by 3.836999e-08, reducing alpha to 5.102646e-03.
	Linear fluid (dielectric constant: 78.4, screening length: 5.74355 Bohr) occupying 0.745983 of unit cell:	Completed after 0 iterations at t[s]:   5176.27
ElecMinimize: 	Step increased F by 2.976185e-08, reducing alpha to 5.102646e-04.
	Linear fluid (dielectric constant: 78.4, screening length: 5.74355 Bohr) occupying 0.745983 of unit cell:	Completed after 0 iterations at t[s]:   5214.33
ElecMinimize: 	Step increased F by 2.890943e-08, reducing alpha to 5.102646e-05.
ElecMinimize: 	Step failed to reduce F after 3 attempts. Quitting step.
ElecMinimize: 	Undoing step.
	Linear fluid (dielectric constant: 78.4, screening length: 5.74355 Bohr) occupying 0.745983 of unit cell:	Completed after 0 iterations at t[s]:   5253.15
ElecMinimize: 	Step failed: resetting search direction.
	FillingsUpdate:  mu: -0.196334756  nElectrons: 415.000000  magneticMoment: [ Abs: 0.00000  Tot: +0.00000 ]
	SubspaceRotationAdjust: set factor to 0.427
ElecMinimize: Iter:  13  F: -1406.628158528665381  |grad|_K:  4.239e-08  alpha:  5.103e-05
	Linear fluid (dielectric constant: 78.4, screening length: 5.74355 Bohr) occupying 0.745984 of unit cell:	Completed after 1 iterations at t[s]:   5295.32
	Linear fluid (dielectric constant: 78.4, screening length: 5.74355 Bohr) occupying 0.745983 of unit cell:	Completed after 2 iterations at t[s]:   5316.55
	FillingsUpdate:  mu: -0.196259348  nElectrons: 415.000000  magneticMoment: [ Abs: 0.00000  Tot: +0.00000 ]
	SubspaceRotationAdjust: set factor to 0.167
ElecMinimize: Iter:  14  F: -1406.628158537711215  |grad|_K:  1.402e-08  alpha:  1.526e-01  linmin:  1.408e-03  t[s]:   5343.58
	Linear fluid (dielectric constant: 78.4, screening length: 5.74355 Bohr) occupying 0.745983 of unit cell:	Completed after 0 iterations at t[s]:   5360.01
ElecMinimize: 	Predicted alpha/alphaT>3.000000, increasing alphaT to 4.578028e-01.
	Linear fluid (dielectric constant: 78.4, screening length: 5.74355 Bohr) occupying 0.745983 of unit cell:	Completed after 0 iterations at t[s]:   5380.40
	Linear fluid (dielectric constant: 78.4, screening length: 5.74355 Bohr) occupying 0.745983 of unit cell:	Completed after 0 iterations at t[s]:   5400.71
	FillingsUpdate:  mu: -0.196263357  nElectrons: 415.000000  magneticMoment: [ Abs: 0.00000  Tot: +0.00000 ]
	SubspaceRotationAdjust: set factor to 0.176
ElecMinimize: Iter:  15  F: -1406.628158543145673  |grad|_K:  8.943e-09  alpha:  3.458e-01  linmin: -3.258e-04  t[s]:   5426.51
ElecMinimize: Converged (|Delta F|<1.000000e-08 for 2 iters).
Setting wave functions to eigenvectors of Hamiltonian

# Ionic positions in lattice coordinates:
ion W   0.083334439986111   0.166665542472221   0.500000000000000 1
ion W   0.333334439986111   0.166665542472221   0.500000000000000 1
ion W   0.583334439986111   0.166665542472221   0.500000000000000 1
ion W   0.833334439986111   0.166665542472221   0.500000000000000 1
ion W   0.083334439986111   0.416665542472221   0.500000000000000 1
ion W   0.333334439986111   0.416665542472221   0.500000000000000 1
ion W   0.583334439986111   0.416665542472221   0.500000000000000 1
ion W   0.833334439986111   0.416665542472221   0.500000000000000 1
ion W   0.083334439986111   0.666665542472221   0.500000000000000 1
ion W   0.333334439986111   0.666665542472221   0.500000000000000 1
ion W   0.583334439986111   0.666665542472221   0.500000000000000 1
ion W   0.833334439986111   0.666665542472221   0.500000000000000 1
ion W   0.083334439986111   0.916665542472221   0.500000000000000 1
ion W   0.333334439986111   0.916665542472221   0.500000000000000 1
ion W   0.583334439986111   0.916665542472221   0.500000000000000 1
ion W   0.833334439986111   0.916665542472221   0.500000000000000 1
ion Se   0.166667773319445   0.083332209138888   0.406677360322662 1
ion Se   0.166667773319445   0.083332209138888   0.593322639677338 1
ion Se   0.416667773319445   0.083332209138888   0.406677360322662 1
ion Se   0.416667773319445   0.083332209138888   0.593322639677338 1
ion Se   0.666667773319445   0.083332209138888   0.406677360322662 1
ion Se   0.666667773319445   0.083332209138888   0.593322639677338 1
ion Se   0.916667773319445   0.083332209138888   0.406677360322662 1
ion Se   0.916667773319445   0.083332209138888   0.593322639677338 1
ion Se   0.166667773319445   0.333332209138888   0.406677360322662 1
ion Se   0.166667773319445   0.333332209138888   0.593322639677338 1
ion Se   0.416667773319445   0.333332209138888   0.406677360322662 1
ion Se   0.416667773319445   0.333332209138888   0.593322639677338 1
ion Se   0.666667773319445   0.333332209138888   0.406677360322662 1
ion Se   0.666667773319445   0.333332209138888   0.593322639677338 1
ion Se   0.916667773319445   0.333332209138888   0.406677360322662 1
ion Se   0.916667773319445   0.333332209138888   0.593322639677338 1
ion Se   0.166667773319445   0.583332209138888   0.406677360322662 1
ion Se   0.166667773319445   0.583332209138888   0.593322639677338 1
ion Se   0.416667773319445   0.583332209138888   0.406677360322662 1
ion Se   0.416667773319445   0.583332209138888   0.593322639677338 1
ion Se   0.666667773319445   0.583332209138888   0.406677360322662 1
ion Se   0.666667773319445   0.583332209138888   0.593322639677338 1
ion Se   0.916667773319445   0.583332209138888   0.406677360322662 1
ion Se   0.916667773319445   0.583332209138888   0.593322639677338 1
ion Se   0.166667773319445   0.833332209138888   0.406677360322662 1
ion Se   0.166667773319445   0.833332209138888   0.593322639677338 1
ion Se   0.416667773319445   0.833332209138888   0.406677360322662 1
ion Se   0.416667773319445   0.833332209138888   0.593322639677338 1
ion Se   0.666667773319445   0.833332209138888   0.406677360322662 1
ion Se   0.666667773319445   0.833332209138888   0.593322639677338 1
ion Se   0.916667773319445   0.833332209138888   0.406677360322662 1
ion Se   0.916667773319445   0.833332209138888   0.593322639677338 1


# Forces in Lattice coordinates:
force W  -0.000000000000000  -0.000000000000000   0.000000000000000 1
force W   0.000000000000000  -0.000000000000000  -0.000000000000000 1
force W  -0.000000000000000  -0.000000000000000  -0.000000000000000 1
force W   0.000000000000000  -0.000000000000000  -0.000000000000000 1
force W   0.000000000000000  -0.000000000000000  -0.000000000000000 1
force W  -0.000000000000000  -0.000000000000000  -0.000000000000000 1
force W  -0.000000000000000  -0.000000000000000  -0.000000000000000 1
force W   0.000000000000000  -0.000000000000000   0.000000000000000 1
force W   0.000000000000000  -0.000000000000000   0.000000000000000 1
force W   0.000000000000000  -0.000000000000000  -0.000000000000000 1
force W  -0.000000000000000  -0.000000000000000   0.000000000000000 1
force W   0.000000000000000  -0.000000000000000   0.000000000000000 1
force W  -0.000000000000000   0.000000000000000  -0.000000000000000 1
force W  -0.000000000000000  -0.000000000000000   0.000000000000000 1
force W  -0.000000000000000  -0.000000000000000  -0.000000000000000 1
force W  -0.000000000000000  -0.000000000000000   0.000000000000000 1
force Se   0.000000000000000  -0.000000000000000   0.013889131828305 1
force Se  -0.000000000000000   0.000000000000000  -0.013889131828192 1
force Se  -0.000000000000000  -0.000000000000000   0.013889131828305 1
force Se   0.000000000000000   0.000000000000000  -0.013889131828078 1
force Se  -0.000000000000000  -0.000000000000000   0.013889131828304 1
force Se  -0.000000000000000  -0.000000000000000  -0.013889131828077 1
force Se   0.000000000000000  -0.000000000000000   0.013889131828304 1
force Se   0.000000000000000  -0.000000000000000  -0.013889131828191 1
force Se   0.000000000000000  -0.000000000000000   0.013889131828191 1
force Se   0.000000000000000   0.000000000000000  -0.013889131828077 1
force Se   0.000000000000000   0.000000000000000   0.013889131828305 1
force Se   0.000000000000000  -0.000000000000000  -0.013889131828077 1
force Se  -0.000000000000000  -0.000000000000000   0.013889131828304 1
force Se   0.000000000000000   0.000000000000000  -0.013889131828192 1
force Se  -0.000000000000000  -0.000000000000000   0.013889131828076 1
force Se  -0.000000000000000  -0.000000000000000  -0.013889131828076 1
force Se  -0.000000000000000  -0.000000000000000   0.013889131828190 1
force Se   0.000000000000000  -0.000000000000000  -0.013889131828078 1
force Se  -0.000000000000000  -0.000000000000000   0.013889131828190 1
force Se  -0.000000000000000  -0.000000000000000  -0.013889131828077 1
force Se  -0.000000000000000   0.000000000000000   0.013889131828305 1
force Se  -0.000000000000000   0.000000000000000  -0.013889131828191 1
force Se   0.000000000000000   0.000000000000000   0.013889131828191 1
force Se   0.000000000000000  -0.000000000000000  -0.013889131828192 1
force Se   0.000000000000000  -0.000000000000000   0.013889131828305 1
[...]
	FillingsUpdate:  mu: -0.196197953  nElectrons: 415.000000  magneticMoment: [ Abs: 0.00005  Tot: +0.00000 ]
	SubspaceRotationAdjust: set factor to 0.199
ElecMinimize: Iter:   1  F: -1406.628154003426516  |grad|_K:  1.670e-07  alpha:  7.381e-01  linmin:  1.122e-04  t[s]:   5573.94
	Linear fluid (dielectric constant: 78.4, screening length: 5.74355 Bohr) occupying 0.746058 of unit cell:	Completed after 1 iterations at t[s]:   5591.13
	Linear fluid (dielectric constant: 78.4, screening length: 5.74355 Bohr) occupying 0.746056 of unit cell:	Completed after 2 iterations at t[s]:   5611.86
	FillingsUpdate:  mu: -0.196231632  nElectrons: 415.000000  magneticMoment: [ Abs: 0.00004  Tot: +0.00000 ]
	SubspaceRotationAdjust: set factor to 0.258
ElecMinimize: Iter:   2  F: -1406.628162218788702  |grad|_K:  1.752e-07  alpha:  1.400e+00  linmin:  6.679e-06  t[s]:   5638.34
	Linear fluid (dielectric constant: 78.4, screening length: 5.74355 Bohr) occupying 0.746048 of unit cell:	Completed after 2 iterations at t[s]:   5655.25
	Linear fluid (dielectric constant: 78.4, screening length: 5.74355 Bohr) occupying 0.746052 of unit cell:	Completed after 2 iterations at t[s]:   5676.18
	FillingsUpdate:  mu: -0.196293719  nElectrons: 415.000000  magneticMoment: [ Abs: 0.00003  Tot: +0.00000 ]
	SubspaceRotationAdjust: set factor to 0.309
ElecMinimize: Iter:   3  F: -1406.628167231469661  |grad|_K:  1.386e-07  alpha:  7.714e-01  linmin:  4.738e-05  t[s]:   5703.37
	Linear fluid (dielectric constant: 78.4, screening length: 5.74355 Bohr) occupying 0.746047 of unit cell:	Completed after 1 iterations at t[s]:   5719.54
	Linear fluid (dielectric constant: 78.4, screening length: 5.74355 Bohr) occupying 0.746048 of unit cell:	Completed after 0 iterations at t[s]:   5739.84
	FillingsUpdate:  mu: -0.196304545  nElectrons: 415.000000  magneticMoment: [ Abs: 0.00002  Tot: +0.00000 ]
	SubspaceRotationAdjust: set factor to 0.354
ElecMinimize: Iter:   4  F: -1406.628169762421066  |grad|_K:  9.353e-08  alpha:  6.290e-01  linmin: -1.307e-05  t[s]:   5765.92
	Linear fluid (dielectric constant: 78.4, screening length: 5.74355 Bohr) occupying 0.746045 of unit cell:	Completed after 2 iterations at t[s]:   5782.80
	Linear fluid (dielectric constant: 78.4, screening length: 5.74355 Bohr) occupying 0.746045 of unit cell:	Completed after 0 iterations at t[s]:   5804.02
	FillingsUpdate:  mu: -0.196334071  nElectrons: 415.000000  magneticMoment: [ Abs: 0.00001  Tot: +0.00000 ]
	SubspaceRotationAdjust: set factor to 0.387
ElecMinimize: Iter:   5  F: -1406.628170779850961  |grad|_K:  5.276e-08  alpha:  5.501e-01  linmin: -3.464e-05  t[s]:   5829.68
	Linear fluid (dielectric constant: 78.4, screening length: 5.74355 Bohr) occupying 0.746044 of unit cell:	Completed after 0 iterations at t[s]:   5846.61
	Linear fluid (dielectric constant: 78.4, screening length: 5.74355 Bohr) occupying 0.746044 of unit cell:	Completed after 0 iterations at t[s]:   5867.31
	FillingsUpdate:  mu: -0.196333863  nElectrons: 415.000000  magneticMoment: [ Abs: 0.00001  Tot: +0.00000 ]
	SubspaceRotationAdjust: set factor to 0.402
ElecMinimize: Iter:   6  F: -1406.628171132376792  |grad|_K:  3.352e-08  alpha:  5.854e-01  linmin:  3.385e-08  t[s]:   5893.08
	Linear fluid (dielectric constant: 78.4, screening length: 5.74355 Bohr) occupying 0.746043 of unit cell:	Completed after 0 iterations at t[s]:   5910.23
	Linear fluid (dielectric constant: 78.4, screening length: 5.74355 Bohr) occupying 0.746043 of unit cell:	Completed after 0 iterations at t[s]:   5929.78
	FillingsUpdate:  mu: -0.196333826  nElectrons: 415.000000  magneticMoment: [ Abs: 0.00000  Tot: +0.00000 ]
	SubspaceRotationAdjust: set factor to 0.434
ElecMinimize: Iter:   7  F: -1406.628171249491288  |grad|_K:  1.932e-08  alpha:  4.917e-01  linmin: -1.801e-08  t[s]:   5955.06
	Linear fluid (dielectric constant: 78.4, screening length: 5.74355 Bohr) occupying 0.746043 of unit cell:	Completed after 0 iterations at t[s]:   5971.74
	Linear fluid (dielectric constant: 78.4, screening length: 5.74355 Bohr) occupying 0.746043 of unit cell:	Completed after 0 iterations at t[s]:   5991.91
	FillingsUpdate:  mu: -0.196333725  nElectrons: 415.000000  magneticMoment: [ Abs: 0.00000  Tot: +0.00000 ]
	SubspaceRotationAdjust: set factor to 0.505
ElecMinimize: Iter:   8  F: -1406.628171296689288  |grad|_K:  1.276e-08  alpha:  5.963e-01  linmin: -1.113e-07  t[s]:   6018.64
	Linear fluid (dielectric constant: 78.4, screening length: 5.74355 Bohr) occupying 0.746044 of unit cell:	Completed after 0 iterations at t[s]:   6034.82
	Linear fluid (dielectric constant: 78.4, screening length: 5.74355 Bohr) occupying 0.746044 of unit cell:	Completed after 0 iterations at t[s]:   6054.36
	FillingsUpdate:  mu: -0.196333592  nElectrons: 415.000000  magneticMoment: [ Abs: 0.00000  Tot: +0.00000 ]
	SubspaceRotationAdjust: set factor to 0.635
ElecMinimize: Iter:   9  F: -1406.628171316486032  |grad|_K:  8.521e-09  alpha:  5.743e-01  linmin:  3.241e-07  t[s]:   6080.27
	Linear fluid (dielectric constant: 78.4, screening length: 5.74355 Bohr) occupying 0.746045 of unit cell:	Completed after 0 iterations at t[s]:   6096.50
	Linear fluid (dielectric constant: 78.4, screening length: 5.74355 Bohr) occupying 0.746045 of unit cell:	Completed after 0 iterations at t[s]:   6116.54
	FillingsUpdate:  mu: -0.196333495  nElectrons: 415.000000  magneticMoment: [ Abs: 0.00000  Tot: +0.00000 ]
	SubspaceRotationAdjust: set factor to 0.797
ElecMinimize: Iter:  10  F: -1406.628171326109396  |grad|_K:  5.849e-09  alpha:  6.248e-01  linmin: -2.534e-07  t[s]:   6142.24
	Linear fluid (dielectric constant: 78.4, screening length: 5.74355 Bohr) occupying 0.746046 of unit cell:	Completed after 1 iterations at t[s]:   6158.88
	Linear fluid (dielectric constant: 78.4, screening length: 5.74355 Bohr) occupying 0.746045 of unit cell:	Completed after 0 iterations at t[s]:   6179.72
ElecMinimize: 	Step increased F by 5.114157e-08, reducing alpha to 4.232017e-03.
	Linear fluid (dielectric constant: 78.4, screening length: 5.74355 Bohr) occupying 0.746045 of unit cell:	Completed after 0 iterations at t[s]:   6219.38
ElecMinimize: 	Step increased F by 5.098536e-08, reducing alpha to 4.232017e-04.
	Linear fluid (dielectric constant: 78.4, screening length: 5.74355 Bohr) occupying 0.746045 of unit cell:	Completed after 0 iterations at t[s]:   6258.89
ElecMinimize: 	Step increased F by 5.097172e-08, reducing alpha to 4.232017e-05.
ElecMinimize: 	Step failed to reduce F after 3 attempts. Quitting step.
ElecMinimize: 	Undoing step.
	Linear fluid (dielectric constant: 78.4, screening length: 5.74355 Bohr) occupying 0.746045 of unit cell:	Completed after 0 iterations at t[s]:   6298.86
ElecMinimize: 	Step failed: resetting search direction.
	FillingsUpdate:  mu: -0.196336295  nElectrons: 415.000000  magneticMoment: [ Abs: 0.00000  Tot: +0.00000 ]
	SubspaceRotationAdjust: set factor to 0.643
ElecMinimize: Iter:  11  F: -1406.628171275120167  |grad|_K:  1.503e-08  alpha:  4.232e-05
	Linear fluid (dielectric constant: 78.4, screening length: 5.74355 Bohr) occupying 0.746045 of unit cell:	Completed after 0 iterations at t[s]:   6341.25
	Linear fluid (dielectric constant: 78.4, screening length: 5.74355 Bohr) occupying 0.746046 of unit cell:	Completed after 2 iterations at t[s]:   6361.57
ElecMinimize: 	Step increased F by 1.011686e-07, reducing alpha to 1.203169e-01.
	Linear fluid (dielectric constant: 78.4, screening length: 5.74355 Bohr) occupying 0.746045 of unit cell:	Completed after 2 iterations at t[s]:   6402.07
	FillingsUpdate:  mu: -0.196325767  nElectrons: 415.000000  magneticMoment: [ Abs: 0.00000  Tot: +0.00000 ]
	SubspaceRotationAdjust: set factor to 0.961
ElecMinimize: Iter:  12  F: -1406.628171281080768  |grad|_K:  1.165e-08  alpha:  1.203e-01  linmin: -1.702e-04  t[s]:   6428.84
	Linear fluid (dielectric constant: 78.4, screening length: 5.74355 Bohr) occupying 0.746045 of unit cell:	Completed after 0 iterations at t[s]:   6445.22
ElecMinimize: 	Predicted alpha/alphaT>3.000000, increasing alphaT to 3.609506e-01.
	Linear fluid (dielectric constant: 78.4, screening length: 5.74355 Bohr) occupying 0.746045 of unit cell:	Completed after 0 iterations at t[s]:   6464.95
	Linear fluid (dielectric constant: 78.4, screening length: 5.74355 Bohr) occupying 0.746045 of unit cell:	Completed after 0 iterations at t[s]:   6485.35
	FillingsUpdate:  mu: -0.196326633  nElectrons: 415.000000  magneticMoment: [ Abs: 0.00000  Tot: -0.00000 ]
	SubspaceRotationAdjust: set factor to 1.08
ElecMinimize: Iter:  13  F: -1406.628171313885787  |grad|_K:  1.181e-08  alpha:  7.026e-01  linmin: -1.021e-07  t[s]:   6511.19
	Linear fluid (dielectric constant: 78.4, screening length: 5.74355 Bohr) occupying 0.746045 of unit cell:	Completed after 3 iterations at t[s]:   6528.98
	Linear fluid (dielectric constant: 78.4, screening length: 5.74355 Bohr) occupying 0.746045 of unit cell:	Completed after 0 iterations at t[s]:   6549.53
	FillingsUpdate:  mu: -0.196301883  nElectrons: 415.000000  magneticMoment: [ Abs: 0.00000  Tot: -0.00000 ]
	SubspaceRotationAdjust: set factor to 0.683
ElecMinimize: Iter:  14  F: -1406.628171317478746  |grad|_K:  6.120e-08  alpha:  5.035e-02  linmin:  1.432e-04  t[s]:   6574.86
ElecMinimize: 	Bad step direction: g.d > 0.
ElecMinimize: 	Undoing step.
	Linear fluid (dielectric constant: 78.4, screening length: 5.74355 Bohr) occupying 0.746045 of unit cell:	Completed after 0 iterations at t[s]:   6591.14
ElecMinimize: 	Step failed: resetting search direction.
	FillingsUpdate:  mu: -0.196301883  nElectrons: 415.000000  magneticMoment: [ Abs: 0.00000  Tot: -0.00000 ]
	SubspaceRotationAdjust: set factor to 0.483
ElecMinimize: Iter:  15  F: -1406.628171317446913  |grad|_K:  5.148e-08  alpha:  0.000e+00
	Linear fluid (dielectric constant: 78.4, screening length: 5.74355 Bohr) occupying 0.746045 of unit cell:	Completed after 0 iterations at t[s]:   6633.75
ElecMinimize: 	Predicted alpha/alphaT>3.000000, increasing alphaT to 1.510456e-01.
	Linear fluid (dielectric constant: 78.4, screening length: 5.74355 Bohr) occupying 0.746045 of unit cell:	Completed after 1 iterations at t[s]:   6654.01
	Linear fluid (dielectric constant: 78.4, screening length: 5.74355 Bohr) occupying 0.746045 of unit cell:	Completed after 0 iterations at t[s]:   6674.70
ElecMinimize: 	Step increased F by 2.298998e-08, reducing alpha to 6.586947e-03.
	Linear fluid (dielectric constant: 78.4, screening length: 5.74355 Bohr) occupying 0.746045 of unit cell:	Completed after 0 iterations at t[s]:   6713.76
ElecMinimize: 	Step increased F by 2.487286e-08, reducing alpha to 6.586947e-04.
	Linear fluid (dielectric constant: 78.4, screening length: 5.74355 Bohr) occupying 0.746045 of unit cell:	Completed after 0 iterations at t[s]:   6752.34
ElecMinimize: 	Step increased F by 2.521119e-08, reducing alpha to 6.586947e-05.
ElecMinimize: 	Step failed to reduce F after 3 attempts. Quitting step.
ElecMinimize: 	Undoing step.
	Linear fluid (dielectric constant: 78.4, screening length: 5.74355 Bohr) occupying 0.746045 of unit cell:	Completed after 0 iterations at t[s]:   6791.42
ElecMinimize: 	Step failed along negative gradient direction.
ElecMinimize: Probably at roundoff error limit. (Stopping)
Setting wave functions to eigenvectors of Hamiltonian

# Ionic positions in lattice coordinates:
ion W   0.083334439986111   0.166665542472221   0.500000000000000 1
ion W   0.333334439986111   0.166665542472221   0.500000000000000 1
ion W   0.583334439986111   0.166665542472221   0.500000000000000 1
ion W   0.833334439986111   0.166665542472221   0.500000000000000 1
ion W   0.083334439986111   0.416665542472221   0.500000000000000 1
ion W   0.333334439986111   0.416665542472221   0.500000000000000 1
ion W   0.583334439986111   0.416665542472221   0.500000000000000 1
ion W   0.833334439986111   0.416665542472221   0.500000000000000 1
ion W   0.083334439986111   0.666665542472221   0.500000000000000 1
ion W   0.333334439986111   0.666665542472221   0.500000000000000 1
ion W   0.583334439986111   0.666665542472221   0.500000000000000 1
ion W   0.833334439986111   0.666665542472221   0.500000000000000 1
ion W   0.083334439986111   0.916665542472221   0.500000000000000 1
ion W   0.333334439986111   0.916665542472221   0.500000000000000 1
ion W   0.583334439986111   0.916665542472221   0.500000000000000 1
ion W   0.833334439986111   0.916665542472221   0.500000000000000 1
ion Se   0.166667773319445   0.083332209138888   0.406744355584645 1
ion Se   0.166667773319445   0.083332209138888   0.593255644415355 1
ion Se   0.416667773319445   0.083332209138888   0.406744355584645 1
ion Se   0.416667773319445   0.083332209138888   0.593255644415355 1
ion Se   0.666667773319445   0.083332209138888   0.406744355584645 1
ion Se   0.666667773319445   0.083332209138888   0.593255644415355 1
ion Se   0.916667773319445   0.083332209138888   0.406744355584645 1
ion Se   0.916667773319445   0.083332209138888   0.593255644415355 1
ion Se   0.166667773319445   0.333332209138888   0.406744355584645 1
ion Se   0.166667773319445   0.333332209138888   0.593255644415355 1
ion Se   0.416667773319445   0.333332209138888   0.406744355584645 1
ion Se   0.416667773319445   0.333332209138888   0.593255644415355 1
ion Se   0.666667773319445   0.333332209138888   0.406744355584645 1
ion Se   0.666667773319445   0.333332209138888   0.593255644415355 1
ion Se   0.916667773319445   0.333332209138888   0.406744355584645 1
ion Se   0.916667773319445   0.333332209138888   0.593255644415355 1
ion Se   0.166667773319445   0.583332209138888   0.406744355584645 1
ion Se   0.166667773319445   0.583332209138888   0.593255644415355 1
ion Se   0.416667773319445   0.583332209138888   0.406744355584645 1
ion Se   0.416667773319445   0.583332209138888   0.593255644415355 1
ion Se   0.666667773319445   0.583332209138888   0.406744355584645 1
ion Se   0.666667773319445   0.583332209138888   0.593255644415355 1
ion Se   0.916667773319445   0.583332209138888   0.406744355584645 1
ion Se   0.916667773319445   0.583332209138888   0.593255644415355 1
ion Se   0.166667773319445   0.833332209138888   0.406744355584645 1
ion Se   0.166667773319445   0.833332209138888   0.593255644415355 1
ion Se   0.416667773319445   0.833332209138888   0.406744355584645 1
ion Se   0.416667773319445   0.833332209138888   0.593255644415355 1
ion Se   0.666667773319445   0.833332209138888   0.406744355584645 1
ion Se   0.666667773319445   0.833332209138888   0.593255644415355 1
ion Se   0.916667773319445   0.833332209138888   0.406744355584645 1
ion Se   0.916667773319445   0.833332209138888   0.593255644415355 1


# Forces in Lattice coordinates:
force W   0.000000000000000   0.000000000000000   0.000000000000000 1
force W  -0.000000000000000   0.000000000000000  -0.000000000000000 1
force W  -0.000000000000000   0.000000000000000   0.000000000000000 1
force W   0.000000000000000   0.000000000000000   0.000000000000000 1
force W  -0.000000000000000   0.000000000000000   0.000000000000000 1
force W   0.000000000000000  -0.000000000000000   0.000000000000000 1
force W   0.000000000000000   0.000000000000000  -0.000000000000000 1
force W  -0.000000000000000   0.000000000000000  -0.000000000000000 1
force W  -0.000000000000000   0.000000000000000   0.000000000000000 1
force W   0.000000000000000   0.000000000000000   0.000000000000000 1
force W   0.000000000000000   0.000000000000000  -0.000000000000000 1
force W  -0.000000000000000   0.000000000000000  -0.000000000000000 1
force W   0.000000000000000   0.000000000000000   0.000000000000000 1
force W  -0.000000000000000   0.000000000000000   0.000000000000000 1
force W  -0.000000000000000   0.000000000000000   0.000000000000000 1
force W  -0.000000000000000  -0.000000000000000   0.000000000000000 1
force Se  -0.000000000000000   0.000000000000000  -0.001573467835524 1
force Se   0.000000000000000  -0.000000000000000   0.001573467835410 1
force Se  -0.000000000000000   0.000000000000000  -0.001573467835636 1
force Se   0.000000000000000  -0.000000000000000   0.001573467835409 1
force Se  -0.000000000000000   0.000000000000000  -0.001573467835412 1
force Se   0.000000000000000  -0.000000000000000   0.001573467835408 1
force Se  -0.000000000000000   0.000000000000000  -0.001573467835410 1
force Se   0.000000000000000  -0.000000000000000   0.001573467835409 1
force Se  -0.000000000000000   0.000000000000000  -0.001573467835412 1
force Se   0.000000000000000  -0.000000000000000   0.001573467835409 1
force Se  -0.000000000000000   0.000000000000000  -0.001573467835408 1
force Se   0.000000000000000  -0.000000000000000   0.001573467835412 1
force Se   0.000000000000000   0.000000000000000  -0.001573467835636 1
force Se   0.000000000000000  -0.000000000000000   0.001573467835412 1
force Se  -0.000000000000000   0.000000000000000  -0.001573467835412 1
force Se   0.000000000000000  -0.000000000000000   0.001573467835408 1
force Se  -0.000000000000000   0.000000000000000  -0.001573467835412 1
force Se   0.000000000000000  -0.000000000000000   0.001573467835408 1
force Se  -0.000000000000000   0.000000000000000  -0.001573467835409 1
force Se   0.000000000000000  -0.000000000000000   0.001573467835524 1
force Se  -0.000000000000000   0.000000000000000  -0.001573467835636 1
force Se   0.000000000000000  -0.000000000000000   0.001573467835412 1
force Se  -0.000000000000000   0.000000000000000  -0.001573467835636 1
force Se   0.000000000000000  -0.000000000000000   0.001573467835409 1
force Se   0.000000000000000   0.000000000000000  -0.001573467835524 1
force Se   0.000000000000000  -0.000000000000000   0.001573467835408 1
force Se  -0.000000000000000  -0.000000000000000  -0.001573467835412 1
force Se   0.000000000000000  -0.000000000000000   0.001573467835522 1
force Se  -0.000000000000000  -0.000000000000000  -0.001573467835410 1
force Se   0.000000000000000  -0.000000000000000   0.001573467835409 1
force Se  -0.000000000000000   0.000000000000000  -0.001573467835406 1
force Se   0.000000000000000  -0.000000000000000   0.001573467835410 1

# Energy components:
   A_diel =        0.0587654204079839
   Eewald =     7932.0541805940438280
       EH =     9038.7604592620991752
     Eloc =   -18457.6278536766658362
      Enl =     -154.8435393958212671
      Exc =     -805.3619633837914762
 Exc_core =      564.8999083956343839
       KE =      475.4381619724917982
  MuShift =        0.0112064139501076
-------------------------------------
     Etot =    -1406.6106743976520193
       TS =        0.0174968945969278
-------------------------------------
        F =    -1406.6281712922489078

IonicMinimize: Iter:   3  F: -1406.628171292248908  |grad|_K:  2.163e-05  alpha:  1.000e+00  linmin:  1.000e+00  t[s]:   6832.20
IonicMinimize: Converged (|grad|_K<1.000000e-04).

#--- Lowdin population analysis ---
# oxidation-state W -0.699 -0.699 -0.699 -0.699 -0.699 -0.699 -0.699 -0.699 -0.699 -0.699 -0.699 -0.699 -0.699 -0.699 -0.699 -0.699
# magnetic-moments W +0.000 +0.000 +0.000 +0.000 +0.000 +0.000 +0.000 +0.000 +0.000 +0.000 +0.000 +0.000 +0.000 +0.000 +0.000 +0.000
# oxidation-state Se +0.433 +0.433 +0.433 +0.433 +0.433 +0.433 +0.433 +0.433 +0.433 +0.433 +0.433 +0.433 +0.433 +0.433 +0.433 +0.433 +0.433 +0.433 +0.433 +0.433 +0.433 +0.433 +0.433 +0.433 +0.433 +0.433 +0.433 +0.433 +0.433 +0.433 +0.433 +0.433
# magnetic-moments Se -0.000 -0.000 -0.000 -0.000 -0.000 -0.000 -0.000 -0.000 -0.000 -0.000 -0.000 -0.000 -0.000 -0.000 -0.000 -0.000 -0.000 -0.000 -0.000 -0.000 -0.000 -0.000 -0.000 -0.000 -0.000 -0.000 -0.000 -0.000 -0.000 -0.000 -0.000 -0.000


Dumping 'NbTe2.fillings' ... done
Dumping 'NbTe2.wfns' ... done
Dumping 'NbTe2.fluidState' ... done
Dumping 'NbTe2.ionpos' ... done
Dumping 'NbTe2.eigenvals' ... done
End date and time: Fri Feb 12 09:20:00 2021  (Duration: 0-1:53:59.53)
Done!
