
*************** JDFTx 1.5.0  ***************

Start date and time: Sun Jan 17 17:04:45 2021
Executable jdftx_gpu with command-line: -i Charged.in -o Charged.out
Running on hosts (process indices):  amax (0-4)
Divided in process groups (process indices):  0 (0)  1 (1)  2 (2)  3 (3)  4 (4)
gpuInit: Found compatible cuda device 0 'Tesla K80'
gpuInit: Found compatible cuda device 1 'Tesla K80'
gpuInit: Found compatible cuda device 2 'Tesla K80'
gpuInit: Found compatible cuda device 3 'Tesla K80'
gpuInit: Found compatible cuda device 4 'Tesla K80'
gpuInit: Selected device 0
Resource initialization completed at t[s]:      3.03
Run totals: 5 processes, 24 threads, 5 GPUs


Input parsed successfully to the following command list (including defaults):

basis kpoint-dependent
cache-projectors no
coords-type Lattice
core-overlap-check none
coulomb-interaction Slab 001
coulomb-truncation-embed 0.5 0.5 0.5
davidson-band-ratio 1.1
dump End State
dump-name NbTe2.$VAR
elec-cutoff 20
elec-eigen-algo Davidson
elec-ex-corr gga-PBE
elec-initial-charge -0.500000
elec-initial-magnetization 5.000000 no
elec-smearing Gauss 0.0073499
electronic-minimize  \
	dirUpdateScheme      FletcherReeves \
	linminMethod         DirUpdateRecommended \
	nIterations          200 \
	history              15 \
	knormThreshold       0 \
	energyDiffThreshold  1e-08 \
	nEnergyDiff          2 \
	alphaTstart          1 \
	alphaTmin            1e-10 \
	updateTestStepSize   yes \
	alphaTreduceFactor   0.1 \
	alphaTincreaseFactor 3 \
	nAlphaAdjustMax      3 \
	wolfeEnergy          0.0001 \
	wolfeGradient        0.9 \
	fdTest               no
exchange-regularization WignerSeitzTruncated
fluid LinearPCM 298.000000 1.013250
fluid-anion F- 1 MeanFieldLJ \
	epsBulk 1 \
	pMol 0 \
	epsInf 1 \
	Pvap 0 \
	sigmaBulk 0 \
	Rvdw 2.24877 \
	Res 0 \
	tauNuc 343133
fluid-cation Na+ 1 MeanFieldLJ \
	epsBulk 1 \
	pMol 0 \
	epsInf 1 \
	Pvap 0 \
	sigmaBulk 0 \
	Rvdw 2.19208 \
	Res 0 \
	tauNuc 343133
fluid-ex-corr lda-TF lda-PZ
fluid-gummel-loop 10 1.000000e-05
fluid-minimize  \
	dirUpdateScheme      PolakRibiere \
	linminMethod         DirUpdateRecommended \
	nIterations          400 \
	history              15 \
	knormThreshold       1e-11 \
	energyDiffThreshold  0 \
	nEnergyDiff          2 \
	alphaTstart          1 \
	alphaTmin            1e-10 \
	updateTestStepSize   yes \
	alphaTreduceFactor   0.1 \
	alphaTincreaseFactor 3 \
	nAlphaAdjustMax      6 \
	wolfeEnergy          0.0001 \
	wolfeGradient        0.9 \
	fdTest               no
fluid-solvent H2O 55.338 ScalarEOS \
	epsBulk 78.4 \
	pMol 0.92466 \
	epsInf 1.77 \
	Pvap 1.06736e-10 \
	sigmaBulk 4.62e-05 \
	Rvdw 2.61727 \
	Res 1.42 \
	tauNuc 343133 \
	poleEl 15 7 1
forces-output-coords Positions
initial-state NbTe2.$VAR
ion W   0.083333770193438   0.166666215384150   0.500000009000000 1
ion W   0.333333770193438   0.166666215384150   0.500000009000000 1
ion W   0.583333770193438   0.166666215384150   0.500000009000000 1
ion W   0.833333770193438   0.166666215384150   0.500000009000000 1
ion W   0.083333770193438   0.416666215384150   0.500000009000000 1
ion W   0.333333770193438   0.416666215384150   0.500000009000000 1
ion W   0.583333770193438   0.416666215384150   0.500000009000000 1
ion W   0.833333770193438   0.416666215384150   0.500000009000000 1
ion W   0.083333770193438   0.666666215384150   0.500000009000000 1
ion W   0.333333770193438   0.666666215384150   0.500000009000000 1
ion W   0.583333770193438   0.666666215384150   0.500000009000000 1
ion W   0.833333770193438   0.666666215384150   0.500000009000000 1
ion W   0.083333770193438   0.916666215384150   0.500000009000000 1
ion W   0.333333770193438   0.916666215384150   0.500000009000000 1
ion W   0.583333770193438   0.916666215384150   0.500000009000000 1
ion W   0.833333770193438   0.916666215384150   0.500000009000000 1
ion S   0.166668108840782   0.083331876557926   0.413136339362868 1
ion S   0.166668108840782   0.083331876557926   0.586863678637132 1
ion S   0.416668108840782   0.083331876557926   0.413136339362868 1
ion S   0.416668108840782   0.083331876557926   0.586863678637132 1
ion S   0.666668108840782   0.083331876557926   0.413136339362868 1
ion S   0.666668108840782   0.083331876557926   0.586863678637132 1
ion S   0.916668108840782   0.083331876557926   0.413136339362868 1
ion S   0.916668108840782   0.083331876557926   0.586863678637132 1
ion S   0.166668108840782   0.333331876557926   0.413136339362868 1
ion S   0.166668108840782   0.333331876557926   0.586863678637132 1
ion S   0.416668108840782   0.333331876557926   0.413136339362868 1
ion S   0.416668108840782   0.333331876557926   0.586863678637132 1
ion S   0.666668108840782   0.333331876557926   0.413136339362868 1
ion S   0.666668108840782   0.333331876557926   0.586863678637132 1
ion S   0.916668108840782   0.333331876557926   0.413136339362868 1
ion S   0.916668108840782   0.333331876557926   0.586863678637132 1
ion S   0.166668108840782   0.583331876557926   0.413136339362868 1
ion S   0.166668108840782   0.583331876557926   0.586863678637132 1
ion S   0.416668108840782   0.583331876557926   0.413136339362868 1
ion S   0.416668108840782   0.583331876557926   0.586863678637132 1
ion S   0.666668108840782   0.583331876557926   0.413136339362868 1
ion S   0.666668108840782   0.583331876557926   0.586863678637132 1
ion S   0.916668108840782   0.583331876557926   0.413136339362868 1
ion S   0.916668108840782   0.583331876557926   0.586863678637132 1
ion S   0.166668108840782   0.833331876557926   0.413136339362868 1
ion S   0.166668108840782   0.833331876557926   0.586863678637132 1
ion S   0.416668108840782   0.833331876557926   0.413136339362868 1
ion S   0.416668108840782   0.833331876557926   0.586863678637132 1
ion S   0.666668108840782   0.833331876557926   0.413136339362868 1
ion S   0.666668108840782   0.833331876557926   0.586863678637132 1
ion S   0.916668108840782   0.833331876557926   0.413136339362868 1
ion S   0.916668108840782   0.833331876557926   0.586863678637132 1
ion-species GBRV/$ID_pbe.uspp
ion-width Ecut
ionic-minimize  \
	dirUpdateScheme      L-BFGS \
	linminMethod         DirUpdateRecommended \
	nIterations          500 \
	history              15 \
	knormThreshold       0.0001 \
	energyDiffThreshold  1e-06 \
	nEnergyDiff          2 \
	alphaTstart          1 \
	alphaTmin            1e-10 \
	updateTestStepSize   yes \
	alphaTreduceFactor   0.1 \
	alphaTincreaseFactor 3 \
	nAlphaAdjustMax      3 \
	wolfeEnergy          0.0001 \
	wolfeGradient        0.9 \
	fdTest               no
kpoint   0.000000000000   0.000000000000   0.000000000000  1.00000000000000
kpoint-folding 5 5 1 
latt-move-scale 1 1 1
latt-scale 1.88973 1.88973 1.88973 
lattice Triclinic 12.7007 12.7008 18.1461 90 90 120
lattice-minimize  \
	dirUpdateScheme      L-BFGS \
	linminMethod         DirUpdateRecommended \
	nIterations          0 \
	history              15 \
	knormThreshold       0 \
	energyDiffThreshold  1e-06 \
	nEnergyDiff          2 \
	alphaTstart          1 \
	alphaTmin            1e-10 \
	updateTestStepSize   yes \
	alphaTreduceFactor   0.1 \
	alphaTincreaseFactor 3 \
	nAlphaAdjustMax      3 \
	wolfeEnergy          0.0001 \
	wolfeGradient        0.9 \
	fdTest               no
lcao-params -1 1e-06 0.0073499
pcm-variant CANDLE
spintype z-spin
subspace-rotation-factor 1 yes
symmetries automatic
symmetry-threshold 0.0001



---------- Setting up symmetries ----------

Found 24 point-group symmetries of the bravais lattice
Found 192 space-group symmetries with basis
Applied RMS atom displacement 1.97026e-05 bohrs to make symmetries exact.

---------- Initializing the Grid ----------
R = 
[    24.0008   -12.0005          0  ]
[          0    20.7855          0  ]
[          0          0    34.2912  ]
unit cell volume = 17106.8
G =
[    0.26179   0.151145         -0  ]
[          0   0.302287          0  ]
[          0         -0    0.18323  ]
Minimum fftbox size, Smin = [  100  100  140  ]
Chosen fftbox size, S = [  100  100  140  ]

---------- Exchange Correlation functional ----------
Initalized PBE GGA exchange.
Initalized PBE GGA correlation.

---------- Setting up pseudopotentials ----------
Width of ionic core gaussian charges (only for fluid interactions / plotting) set to 0.397384

Reading pseudopotential file '/home/guoxy/vasp/jdftx-1.5.0/build/pseudopotentials/GBRV/w_pbe.uspp':
  Title: W.  Created by USPP 7.3.6 on 3-2-2014
  Reference state energy: -79.133630.  14 valence electrons in orbitals:
    |500>  occupation: 2  eigenvalue: -2.938934
    |510>  occupation: 6  eigenvalue: -1.620730
    |520>  occupation: 3.9  eigenvalue: -0.194511
    |600>  occupation: 2  eigenvalue: -0.234858
    |610>  occupation: 0  eigenvalue: -0.069444
  lMax: 3  lLocal: 3  QijEcut: 5
  8 projectors sampled on a log grid with 667 points:
    l: 0  eig: -2.938934  rCut: 1.45
    l: 0  eig: -0.234859  rCut: 1.45
    l: 0  eig: 0.500000  rCut: 1.45
    l: 1  eig: -1.620730  rCut: 1.5
    l: 1  eig: -0.069446  rCut: 1.5
    l: 2  eig: -0.194511  rCut: 1.7
    l: 2  eig: 0.150000  rCut: 1.7
    l: 3  eig: 0.500000  rCut: 2.3
  Partial core density with radius 1.2
  Transforming core density to a uniform radial grid of dG=0.02 with 1463 points.
  Transforming local potential to a uniform radial grid of dG=0.02 with 1463 points.
  Transforming nonlocal projectors to a uniform radial grid of dG=0.02 with 432 points.
  Transforming density augmentations to a uniform radial grid of dG=0.02 with 1463 points.
  Transforming atomic orbitals to a uniform radial grid of dG=0.02 with 432 points.
  Core radius for overlap checks: 2.30 bohrs.

Reading pseudopotential file '/home/guoxy/vasp/jdftx-1.5.0/build/pseudopotentials/GBRV/s_pbe.uspp':
  Title: S.  Created by USPP 7.3.6 on 1-4-15
  Reference state energy: -11.898476.  6 valence electrons in orbitals:
    |300>  occupation: 2  eigenvalue: -0.634167
    |310>  occupation: 4  eigenvalue: -0.257568
  lMax: 2  lLocal: 3  QijEcut: 6
  6 projectors sampled on a log grid with 635 points:
    l: 0  eig: -0.634161  rCut: 1.5
    l: 0  eig: 1.500000  rCut: 1.5
    l: 1  eig: -0.257567  rCut: 1.5
    l: 1  eig: 1.500000  rCut: 1.5
    l: 2  eig: -1.000000  rCut: 1.5
    l: 2  eig: 1.500000  rCut: 1.5
  Partial core density with radius 1.15
  Transforming core density to a uniform radial grid of dG=0.02 with 1463 points.
  Transforming local potential to a uniform radial grid of dG=0.02 with 1463 points.
  Transforming nonlocal projectors to a uniform radial grid of dG=0.02 with 432 points.
  Transforming density augmentations to a uniform radial grid of dG=0.02 with 1463 points.
  Transforming atomic orbitals to a uniform radial grid of dG=0.02 with 432 points.
  Core radius for overlap checks: 1.50 bohrs.

Initialized 2 species with 48 total atoms.

Folded 1 k-points by 5x5x1 to 25 k-points.

---------- Setting up k-points, bands, fillings ----------
Adding inversion symmetry to k-mesh for non-inversion-symmetric unit cell.
Reduced to 5 k-points under symmetry. 
Computing the number of bands and number of electrons
Calculating initial fillings.
nElectrons: 415.500000   nBands: 336   nStates: 10

----- Setting up reduced wavefunction bases (one per k-point) -----
average nbasis = 73092.360 , ideal nbasis = 73081.621

---------- Setting up coulomb interaction ----------
Fluid mode embedding: using embedded box, but periodic Coulomb kernel.
(Fluid response is responsible for (approximate) separation between periodic images.)
Setting up double-sized grid for truncated Coulomb potentials:
R = 
[    24.0008   -12.0005          0  ]
[          0    20.7855          0  ]
[          0          0    68.5823  ]
unit cell volume = 34213.6
G =
[    0.26179   0.151145         -0  ]
[          0   0.302287          0  ]
[          0         -0  0.0916152  ]
Chosen fftbox size, S = [  100  100  280  ]
Integer grid location selected as the embedding center:
   Grid: [  50  50  70  ]
   Lattice: [  0.5  0.5  0.5  ]
   Cartesian: [  6.00016  10.3928  17.1456  ]
Constructing Wigner-Seitz cell: 8 faces (6 quadrilaterals, 2 hexagons)
Range-separation parameter for embedded mesh potentials due to point charges: 0.624363 bohrs.

Initializing van der Waals corrections
	NOTE: vdW corrections apply only for interactions with fluid.
	 W:  C6:  815.23 Eh-a0^6  R0: 3.326 a0 (WARNING: beyond Grimme's data set)
	 S:  C6:   96.61 Eh-a0^6  R0: 3.180 a0

---------- Setting up ewald sum ----------
Optimum gaussian width for ewald sums = 6.793646 bohr.
Real space sum over 605 unit cells with max indices [  5  5  2  ]
Reciprocal space sum over 7875 terms with max indices [  7  7  17  ]

---------- Allocating electronic variables ----------
Initializing wave functions:  linear combination of atomic orbitals
W pseudo-atom occupations:   s ( 2 2 )  p ( 6 0 )  d ( 4 )
S pseudo-atom occupations:   s ( 2 )  p ( 4 )
	FillingsUpdate:  mu: +1.004455282  nElectrons: 415.500000  magneticMoment: [ Abs: 1.13042  Tot: +1.12083 ]
LCAOMinimize: Iter:   0  F: -1383.3047034202456871  |grad|_K:  2.345e-02  alpha:  1.000e+00
	FillingsUpdate:  mu: -0.768958729  nElectrons: 415.500000  magneticMoment: [ Abs: 0.73475  Tot: +0.71009 ]
LCAOMinimize: Iter:   1  F: -1391.4077096925693695  |grad|_K:  1.319e-02  alpha:  4.517e-01  linmin:  1.507e-01  cgtest: -1.862e+00  t[s]:    222.95
LCAOMinimize: 	Bad step direction: g.d > 0.
LCAOMinimize: 	Undoing step.
LCAOMinimize: 	Step failed: resetting search direction.
	FillingsUpdate:  mu: -0.768958729  nElectrons: 415.500000  magneticMoment: [ Abs: 0.73475  Tot: +0.71009 ]
LCAOMinimize: Iter:   2  F: -1391.4077096925693695  |grad|_K:  1.319e-02  alpha:  0.000e+00
	FillingsUpdate:  mu: -0.493512122  nElectrons: 415.500000  magneticMoment: [ Abs: 0.28379  Tot: +0.13525 ]
LCAOMinimize: Iter:   3  F: -1416.8923723907753356  |grad|_K:  7.539e-03  alpha:  1.834e-01  linmin: -3.958e-01  cgtest:  8.981e-01  t[s]:    342.14
LCAOMinimize: Encountered beta<0, resetting CG.
LCAOMinimize: 	Predicted alpha/alphaT>3.000000, increasing alphaT to 5.500930e-01.
	FillingsUpdate:  mu: -0.397587352  nElectrons: 415.500000  magneticMoment: [ Abs: 0.33001  Tot: +0.13592 ]
LCAOMinimize: Iter:   4  F: -1423.5738541809625985  |grad|_K:  5.498e-03  alpha:  1.076e-01  linmin: -4.043e-01  cgtest:  8.379e-01  t[s]:    432.28
LCAOMinimize: Encountered beta<0, resetting CG.
LCAOMinimize: 	Predicted alpha/alphaT>3.000000, increasing alphaT to 3.228501e-01.
	FillingsUpdate:  mu: -0.209534547  nElectrons: 415.500000  magneticMoment: [ Abs: 0.33560  Tot: +0.08708 ]
LCAOMinimize: Iter:   5  F: -1427.9017432698979064  |grad|_K:  1.874e-04  alpha:  2.050e-01  linmin: -4.222e-01  cgtest:  7.236e-01  t[s]:    521.49
LCAOMinimize: Encountered beta<0, resetting CG.
	FillingsUpdate:  mu: -0.200120899  nElectrons: 415.500000  magneticMoment: [ Abs: 0.28788  Tot: +0.06955 ]
LCAOMinimize: Iter:   6  F: -1427.9059706114039727  |grad|_K:  6.175e-05  alpha:  2.121e-01  linmin:  9.486e-03  cgtest: -2.653e-02  t[s]:    590.65
LCAOMinimize: 	Predicted alpha/alphaT>3.000000, increasing alphaT to 6.363390e-01.
	FillingsUpdate:  mu: -0.199127710  nElectrons: 415.500000  magneticMoment: [ Abs: 0.13132  Tot: +0.02038 ]
LCAOMinimize: Iter:   7  F: -1427.9074746788116954  |grad|_K:  8.429e-06  alpha:  6.999e-01  linmin:  2.363e-03  cgtest:  2.063e-01  t[s]:    680.93
LCAOMinimize: Encountered beta<0, resetting CG.
	FillingsUpdate:  mu: -0.199625999  nElectrons: 415.500000  magneticMoment: [ Abs: 0.09847  Tot: +0.01409 ]
LCAOMinimize: Iter:   8  F: -1427.9074895712233229  |grad|_K:  6.513e-06  alpha:  3.691e-01  linmin: -3.760e-05  cgtest: -3.456e-04  t[s]:    750.14
	FillingsUpdate:  mu: -0.199442073  nElectrons: 415.500000  magneticMoment: [ Abs: 0.04444  Tot: +0.00418 ]
LCAOMinimize: Iter:   9  F: -1427.9075004496185102  |grad|_K:  1.526e-06  alpha:  4.516e-01  linmin:  7.090e-04  cgtest: -3.963e-04  t[s]:    819.50
	FillingsUpdate:  mu: -0.199438524  nElectrons: 415.500000  magneticMoment: [ Abs: 0.00646  Tot: -0.00052 ]
LCAOMinimize: Iter:  10  F: -1427.9075018393893970  |grad|_K:  3.015e-07  alpha:  1.051e+00  linmin: -5.555e-04  cgtest:  6.444e-03  t[s]:    889.33
	FillingsUpdate:  mu: -0.199441570  nElectrons: 415.500000  magneticMoment: [ Abs: 0.00147  Tot: -0.00012 ]
LCAOMinimize: Iter:  11  F: -1427.9075018917872058  |grad|_K:  7.934e-08  alpha:  1.015e+00  linmin:  7.695e-04  cgtest: -3.160e-03  t[s]:    959.41
	FillingsUpdate:  mu: -0.199437804  nElectrons: 415.500000  magneticMoment: [ Abs: 0.00136  Tot: -0.00009 ]
LCAOMinimize: Iter:  12  F: -1427.9075018925332188  |grad|_K:  2.646e-08  alpha:  2.109e-01  linmin:  1.962e-04  cgtest:  1.095e-03  t[s]:   1029.28
LCAOMinimize: Converged (|Delta F|<1.000000e-06 for 2 iters).
----- createFluidSolver() ----- (Fluid-side solver setup)
   Initializing fluid molecule 'H2O'
     Initializing site 'O'
       Electron density: proportional to exp(-r/0.36935)*erfc((r-0.51523)/0.36823) with norm 6.826
       Charge density: gaussian nuclear width 0.478731 with net site charge 0.826
       Polarizability: cuspless exponential with width 0.32 and norm 3.73
       Hard sphere radius: 2.57003 bohrs
       Positions in reference frame:
         [ +0.000000 +0.000000 +0.000000 ]
     Initializing site 'H'
       Electron density: proportional to exp(-r/0.34641)*erfc((r-0)/0.390882) with norm 0.587
       Charge density: gaussian nuclear width 0.377945 with net site charge -0.413
       Polarizability: cuspless exponential with width 0.39 and norm 3.3
       Positions in reference frame:
         [ +0.000000 -1.441945 +1.122523 ]
         [ +0.000000 +1.441945 +1.122523 ]
     Net charge: 0   dipole magnitude: 0.927204
     Initializing spherical shell mfKernel with radius 2.61727 Bohr
     deltaS corrections:
       site 'O': -7.54299
       site 'H': -6.83917
   Initializing fluid molecule 'Na+'
     Initializing site 'Na'
       Electron density: proportional to exp(-r/0.19682)*erfc((r-0.71491)/0.41314) with norm 8.1383
       Charge density: gaussian nuclear width 0.365347 with net site charge -1
       Hard sphere radius: 1.86327 bohrs
       Positions in reference frame:
         [ +0.000000 +0.000000 +0.000000 ]
     Net charge: -1   dipole magnitude: 0
     Initializing gaussian mfKernel with width: 1.55004 Bohr
     deltaS corrections:
       site 'Na': -22.3555
   Initializing fluid molecule 'F-'
     Initializing site 'F'
       Electron density: proportional to exp(-r/0.38886)*erfc((r-0)/0.438782) with norm 8
       Charge density: gaussian nuclear width 0.374796 with net site charge 1
       Hard sphere radius: 2.39995 bohrs
       Positions in reference frame:
         [ +0.000000 +0.000000 +0.000000 ]
     Net charge: 1   dipole magnitude: 0
     Initializing gaussian mfKernel with width: 1.59012 Bohr
     deltaS corrections:
       site 'F': -9.04335

Correction to mu due to finite nuclear width = -0.0120641
   Cavity determined by nc: 0.00142 and sigma: 0.707107
   Nonlocal vdW cavity from gaussian model electron density with norm = 8 and sigma = 0.993594 bohr
   Charge asymmetry in cavity with sensitivity pCavity = 36.5 e-bohr/Eh
   Electrostatic cavity expanded by eta = 1.46 bohrs
   Weighted density cavitation model constrained by Nbulk: 0.0049383 bohr^-3, Pvap: 3.14029 kPa, Rvdw: 2.61727 bohr and sigmaBulk: 4.62e-05 Eh/bohr^2 at T: 298 K.
   Weighted density dispersion model using vdW pair potentials with single solvent site with sqrtC6eff: 0.77 SI.


---- Citations for features of the code used in this run ----

   Software package:
      R. Sundararaman, K. Letchworth-Weaver, K.A. Schwarz, D. Gunceler, Y. Ozhabes and T.A. Arias, 'JDFTx: software for joint density-functional theory', SoftwareX 6, 278 (2017)

   gga-PBE exchange-correlation functional:
      J.P. Perdew, K. Burke and M. Ernzerhof, Phys. Rev. Lett. 77, 3865 (1996)

   Pseudopotentials:
      KF Garrity, JW Bennett, KM Rabe and D Vanderbilt, Comput. Mater. Sci. 81, 446 (2014)

   Truncated Coulomb potentials:
      R. Sundararaman and T.A. Arias, Phys. Rev. B 87, 165122 (2013)

   Van der Waals correction pair-potentials:
      S. Grimme, J. Comput. Chem. 27, 1787 (2006)

   Charge-asymmetric nonlocally-determined local-electric (CANDLE) solvation model:
      R. Sundararaman and W.A. Goddard III, J. Chem. Phys. 142, 064107 (2015)

   Total energy minimization with Auxiliary Hamiltonian:
      C. Freysoldt, S. Boeck, and J. Neugebauer, Phys. Rev. B 79, 241103(R) (2009)

This list may not be complete. Please suggest additional citations or
report any other bugs at https://github.com/shankar1729/jdftx/issues

Initialization completed successfully at t[s]:   1038.52

Fluid solver invoked on fresh (partially random / LCAO) wavefunctions
Running a vacuum solve first:

-------- Initial electronic minimization -----------
	FillingsUpdate:  mu: -0.199437804  nElectrons: 415.500000  magneticMoment: [ Abs: 0.00136  Tot: -0.00009 ]
ElecMinimize: Iter:   0  F: -1427.907501892554592  |grad|_K:  9.129e-05  alpha:  1.000e+00
	FillingsUpdate:  mu: -0.105655514  nElectrons: 415.500000  magneticMoment: [ Abs: 0.00085  Tot: -0.00003 ]
	SubspaceRotationAdjust: set factor to 1
ElecMinimize: Iter:   1  F: -1429.493529397712791  |grad|_K:  4.711e-05  alpha:  7.765e-01  linmin: -1.518e-05  t[s]:   1191.01
	FillingsUpdate:  mu: -0.162349240  nElectrons: 415.500000  magneticMoment: [ Abs: 0.00060  Tot: -0.00001 ]
	SubspaceRotationAdjust: set factor to 0.73
ElecMinimize: Iter:   2  F: -1429.738471016471522  |grad|_K:  3.496e-05  alpha:  4.594e-01  linmin:  6.113e-05  t[s]:   1283.53
	FillingsUpdate:  mu: -0.131896808  nElectrons: 415.500000  magneticMoment: [ Abs: 0.00041  Tot: +0.00000 ]
	SubspaceRotationAdjust: set factor to 0.51
ElecMinimize: Iter:   3  F: -1429.846372080167839  |grad|_K:  1.623e-05  alpha:  3.570e-01  linmin:  5.245e-05  t[s]:   1375.65
	FillingsUpdate:  mu: -0.138880793  nElectrons: 415.500000  magneticMoment: [ Abs: 0.00026  Tot: +0.00001 ]
	SubspaceRotationAdjust: set factor to 0.574
ElecMinimize: Iter:   4  F: -1429.881248441613025  |grad|_K:  9.958e-06  alpha:  5.435e-01  linmin:  3.218e-05  t[s]:   1468.54
	FillingsUpdate:  mu: -0.145807543  nElectrons: 415.500000  magneticMoment: [ Abs: 0.00016  Tot: +0.00001 ]
	SubspaceRotationAdjust: set factor to 0.612
ElecMinimize: Iter:   5  F: -1429.894927888813527  |grad|_K:  5.978e-06  alpha:  5.651e-01  linmin:  2.820e-05  t[s]:   1561.13
	FillingsUpdate:  mu: -0.140752018  nElectrons: 415.500000  magneticMoment: [ Abs: 0.00010  Tot: +0.00001 ]
	SubspaceRotationAdjust: set factor to 0.65
ElecMinimize: Iter:   6  F: -1429.899832457299453  |grad|_K:  3.816e-06  alpha:  5.602e-01  linmin:  1.486e-05  t[s]:   1653.93
	FillingsUpdate:  mu: -0.141975544  nElectrons: 415.500000  magneticMoment: [ Abs: 0.00006  Tot: +0.00001 ]
	SubspaceRotationAdjust: set factor to 0.834
ElecMinimize: Iter:   7  F: -1429.901860333998229  |grad|_K:  2.302e-06  alpha:  5.687e-01  linmin:  5.547e-06  t[s]:   1746.43
	FillingsUpdate:  mu: -0.142924889  nElectrons: 415.500000  magneticMoment: [ Abs: 0.00003  Tot: +0.00000 ]
	SubspaceRotationAdjust: set factor to 0.922
ElecMinimize: Iter:   8  F: -1429.902543977617825  |grad|_K:  1.325e-06  alpha:  5.253e-01  linmin:  2.608e-06  t[s]:   1839.02
	FillingsUpdate:  mu: -0.141812482  nElectrons: 415.500000  magneticMoment: [ Abs: 0.00002  Tot: +0.00000 ]
	SubspaceRotationAdjust: set factor to 0.795
ElecMinimize: Iter:   9  F: -1429.902752401447060  |grad|_K:  9.344e-07  alpha:  4.828e-01  linmin:  2.267e-06  t[s]:   1932.36
	FillingsUpdate:  mu: -0.142745711  nElectrons: 415.500000  magneticMoment: [ Abs: 0.00001  Tot: +0.00000 ]
	SubspaceRotationAdjust: set factor to 0.652
ElecMinimize: Iter:  10  F: -1429.902842466723541  |grad|_K:  5.098e-07  alpha:  4.196e-01  linmin:  1.889e-06  t[s]:   2025.52
	FillingsUpdate:  mu: -0.142601419  nElectrons: 415.500000  magneticMoment: [ Abs: 0.00001  Tot: -0.00000 ]
	SubspaceRotationAdjust: set factor to 0.738
ElecMinimize: Iter:  11  F: -1429.902877556587782  |grad|_K:  3.303e-07  alpha:  5.497e-01  linmin:  2.142e-06  t[s]:   2117.95
	FillingsUpdate:  mu: -0.142540743  nElectrons: 415.500000  magneticMoment: [ Abs: 0.00001  Tot: -0.00000 ]
	SubspaceRotationAdjust: set factor to 0.876
ElecMinimize: Iter:  12  F: -1429.902891601678675  |grad|_K:  2.152e-07  alpha:  5.242e-01  linmin:  8.613e-07  t[s]:   2210.82
	FillingsUpdate:  mu: -0.142710899  nElectrons: 415.500000  magneticMoment: [ Abs: 0.00000  Tot: -0.00000 ]
	SubspaceRotationAdjust: set factor to 0.857
ElecMinimize: Iter:  13  F: -1429.902897845440748  |grad|_K:  1.473e-07  alpha:  5.482e-01  linmin:  1.017e-06  t[s]:   2303.19
	FillingsUpdate:  mu: -0.142587267  nElectrons: 415.500000  magneticMoment: [ Abs: 0.00000  Tot: -0.00000 ]
	SubspaceRotationAdjust: set factor to 0.77
ElecMinimize: Iter:  14  F: -1429.902900175810601  |grad|_K:  8.937e-08  alpha:  4.366e-01  linmin:  9.958e-08  t[s]:   2395.64
	FillingsUpdate:  mu: -0.142621025  nElectrons: 415.500000  magneticMoment: [ Abs: 0.00000  Tot: -0.00000 ]
	SubspaceRotationAdjust: set factor to 0.802
ElecMinimize: Iter:  15  F: -1429.902901191487445  |grad|_K:  5.355e-08  alpha:  5.168e-01  linmin:  2.508e-07  t[s]:   2488.21
	FillingsUpdate:  mu: -0.142621915  nElectrons: 415.500000  magneticMoment: [ Abs: 0.00000  Tot: +0.00000 ]
	SubspaceRotationAdjust: set factor to 0.891
ElecMinimize: Iter:  16  F: -1429.902901614866551  |grad|_K:  3.853e-08  alpha:  6.002e-01  linmin:  1.581e-07  t[s]:   2580.90
	FillingsUpdate:  mu: -0.142599685  nElectrons: 415.500000  magneticMoment: [ Abs: 0.00000  Tot: +0.00000 ]
	SubspaceRotationAdjust: set factor to 0.935
ElecMinimize: Iter:  17  F: -1429.902901812840128  |grad|_K:  2.735e-08  alpha:  5.419e-01  linmin:  6.768e-08  t[s]:   2673.63
	FillingsUpdate:  mu: -0.142618664  nElectrons: 415.500000  magneticMoment: [ Abs: 0.00000  Tot: +0.00000 ]
	SubspaceRotationAdjust: set factor to 0.886
ElecMinimize: Iter:  18  F: -1429.902901908840477  |grad|_K:  1.896e-08  alpha:  5.216e-01  linmin: -7.222e-09  t[s]:   2765.44
	FillingsUpdate:  mu: -0.142604787  nElectrons: 415.500000  magneticMoment: [ Abs: 0.00000  Tot: +0.00000 ]
	SubspaceRotationAdjust: set factor to 0.775
ElecMinimize: Iter:  19  F: -1429.902901951506919  |grad|_K:  1.275e-08  alpha:  4.822e-01  linmin: -2.897e-09  t[s]:   2858.15
	FillingsUpdate:  mu: -0.142614082  nElectrons: 415.500000  magneticMoment: [ Abs: 0.00000  Tot: +0.00000 ]
	SubspaceRotationAdjust: set factor to 0.752
ElecMinimize: Iter:  20  F: -1429.902901973538292  |grad|_K:  8.683e-09  alpha:  5.510e-01  linmin:  8.508e-08  t[s]:   2950.58
	FillingsUpdate:  mu: -0.142612865  nElectrons: 415.500000  magneticMoment: [ Abs: 0.00000  Tot: +0.00000 ]
	SubspaceRotationAdjust: set factor to 0.856
ElecMinimize: Iter:  21  F: -1429.902901983548645  |grad|_K:  6.058e-09  alpha:  5.393e-01  linmin: -4.924e-08  t[s]:   3043.35
	FillingsUpdate:  mu: -0.142611404  nElectrons: 415.500000  magneticMoment: [ Abs: 0.00000  Tot: -0.00000 ]
	SubspaceRotationAdjust: set factor to 0.961
ElecMinimize: Iter:  22  F: -1429.902901988601798  |grad|_K:  4.257e-09  alpha:  5.578e-01  linmin: -2.239e-08  t[s]:   3136.00
	FillingsUpdate:  mu: -0.142614262  nElectrons: 415.500000  magneticMoment: [ Abs: 0.00000  Tot: -0.00000 ]
	SubspaceRotationAdjust: set factor to 0.925
ElecMinimize: Iter:  23  F: -1429.902901990888950  |grad|_K:  2.856e-09  alpha:  5.122e-01  linmin: -8.977e-08  t[s]:   3228.27
ElecMinimize: Converged (|Delta F|<1.000000e-08 for 2 iters).
Setting wave functions to eigenvectors of Hamiltonian
Vacuum energy after initial minimize, F = -1429.902901990888950

	Linear fluid (dielectric constant: 78.4, screening length: 5.74355 Bohr) occupying 0.755677 of unit cell:	Completed after 15 iterations at t[s]:   3249.76

-------- Electronic minimization -----------
	Linear fluid (dielectric constant: 78.4, screening length: 5.74355 Bohr) occupying 0.755677 of unit cell:	Completed after 0 iterations at t[s]:   3275.14
	FillingsUpdate:  mu: -0.208196908  nElectrons: 415.500000  magneticMoment: [ Abs: 0.00000  Tot: +0.00000 ]
ElecMinimize: Iter:   0  F: -1429.855198649281192  |grad|_K:  1.162e-06  alpha:  1.000e+00
	Linear fluid (dielectric constant: 78.4, screening length: 5.74355 Bohr) occupying 0.756234 of unit cell:	Completed after 9 iterations at t[s]:   3347.67
	Linear fluid (dielectric constant: 78.4, screening length: 5.74355 Bohr) occupying 0.755873 of unit cell:	Completed after 11 iterations at t[s]:   3380.04
	FillingsUpdate:  mu: -0.205728365  nElectrons: 415.500000  magneticMoment: [ Abs: 0.00001  Tot: -0.00000 ]
	SubspaceRotationAdjust: set factor to 0.661
ElecMinimize: Iter:   1  F: -1429.855313552772941  |grad|_K:  8.140e-07  alpha:  3.475e-01  linmin:  1.133e-06  t[s]:   3424.07
	Linear fluid (dielectric constant: 78.4, screening length: 5.74355 Bohr) occupying 0.756057 of unit cell:	Completed after 8 iterations at t[s]:   3452.70
	Linear fluid (dielectric constant: 78.4, screening length: 5.74355 Bohr) occupying 0.756129 of unit cell:	Completed after 3 iterations at t[s]:   3484.29
	FillingsUpdate:  mu: -0.205593791  nElectrons: 415.500000  magneticMoment: [ Abs: 0.00001  Tot: -0.00000 ]
	SubspaceRotationAdjust: set factor to 0.459
ElecMinimize: Iter:   2  F: -1429.855392714937125  |grad|_K:  2.622e-07  alpha:  4.847e-01  linmin: -3.333e-06  t[s]:   3526.33
	Linear fluid (dielectric constant: 78.4, screening length: 5.74355 Bohr) occupying 0.756176 of unit cell:	Completed after 3 iterations at t[s]:   3554.11
	Linear fluid (dielectric constant: 78.4, screening length: 5.74355 Bohr) occupying 0.756197 of unit cell:	Completed after 2 iterations at t[s]:   3584.56
	FillingsUpdate:  mu: -0.205524958  nElectrons: 415.500000  magneticMoment: [ Abs: 0.00001  Tot: -0.00000 ]
	SubspaceRotationAdjust: set factor to 0.521
ElecMinimize: Iter:   3  F: -1429.855404762852913  |grad|_K:  1.446e-07  alpha:  6.948e-01  linmin: -4.646e-06  t[s]:   3626.08
	Linear fluid (dielectric constant: 78.4, screening length: 5.74355 Bohr) occupying 0.756223 of unit cell:	Completed after 2 iterations at t[s]:   3654.06
	Linear fluid (dielectric constant: 78.4, screening length: 5.74355 Bohr) occupying 0.756222 of unit cell:	Completed after 0 iterations at t[s]:   3683.20
	FillingsUpdate:  mu: -0.205540442  nElectrons: 415.500000  magneticMoment: [ Abs: 0.00001  Tot: -0.00000 ]
	SubspaceRotationAdjust: set factor to 0.582
ElecMinimize: Iter:   4  F: -1429.855408266704671  |grad|_K:  1.044e-07  alpha:  6.650e-01  linmin: -1.660e-06  t[s]:   3724.08
	Linear fluid (dielectric constant: 78.4, screening length: 5.74355 Bohr) occupying 0.756230 of unit cell:	Completed after 3 iterations at t[s]:   3752.21
	Linear fluid (dielectric constant: 78.4, screening length: 5.74355 Bohr) occupying 0.756230 of unit cell:	Completed after 0 iterations at t[s]:   3782.28
	FillingsUpdate:  mu: -0.205473622  nElectrons: 415.500000  magneticMoment: [ Abs: 0.00001  Tot: -0.00000 ]
	SubspaceRotationAdjust: set factor to 0.669
ElecMinimize: Iter:   5  F: -1429.855409942835422  |grad|_K:  6.833e-08  alpha:  6.221e-01  linmin: -8.034e-06  t[s]:   3823.33
	Linear fluid (dielectric constant: 78.4, screening length: 5.74355 Bohr) occupying 0.756224 of unit cell:	Completed after 0 iterations at t[s]:   3851.03
	Linear fluid (dielectric constant: 78.4, screening length: 5.74355 Bohr) occupying 0.756225 of unit cell:	Completed after 0 iterations at t[s]:   3879.80
	FillingsUpdate:  mu: -0.205472680  nElectrons: 415.500000  magneticMoment: [ Abs: 0.00000  Tot: -0.00000 ]
	SubspaceRotationAdjust: set factor to 0.844
ElecMinimize: Iter:   6  F: -1429.855410593916758  |grad|_K:  5.224e-08  alpha:  5.593e-01  linmin:  1.329e-07  t[s]:   3920.36
	Linear fluid (dielectric constant: 78.4, screening length: 5.74355 Bohr) occupying 0.756216 of unit cell:	Completed after 1 iterations at t[s]:   3948.23
	Linear fluid (dielectric constant: 78.4, screening length: 5.74355 Bohr) occupying 0.756221 of unit cell:	Completed after 0 iterations at t[s]:   3977.13
	FillingsUpdate:  mu: -0.205557047  nElectrons: 415.500000  magneticMoment: [ Abs: 0.00000  Tot: -0.00000 ]
	SubspaceRotationAdjust: set factor to 0.613
ElecMinimize: Iter:   7  F: -1429.855410714906839  |grad|_K:  6.605e-08  alpha:  2.597e-01  linmin:  1.821e-05  t[s]:   4018.34
	Linear fluid (dielectric constant: 78.4, screening length: 5.74355 Bohr) occupying 0.756213 of unit cell:	Completed after 2 iterations at t[s]:   4046.07
	Linear fluid (dielectric constant: 78.4, screening length: 5.74355 Bohr) occupying 0.756217 of unit cell:	Completed after 0 iterations at t[s]:   4075.34
	FillingsUpdate:  mu: -0.205499892  nElectrons: 415.500000  magneticMoment: [ Abs: 0.00000  Tot: -0.00000 ]
	SubspaceRotationAdjust: set factor to 0.901
ElecMinimize: Iter:   8  F: -1429.855410797938248  |grad|_K:  2.986e-08  alpha:  1.280e-01  linmin:  1.490e-06  t[s]:   4116.38
	Linear fluid (dielectric constant: 78.4, screening length: 5.74355 Bohr) occupying 0.756216 of unit cell:	Completed after 0 iterations at t[s]:   4144.01
ElecMinimize: 	Predicted alpha/alphaT>3.000000, increasing alphaT to 3.838781e-01.
	Linear fluid (dielectric constant: 78.4, screening length: 5.74355 Bohr) occupying 0.756213 of unit cell:	Completed after 0 iterations at t[s]:   4172.56
	Linear fluid (dielectric constant: 78.4, screening length: 5.74355 Bohr) occupying 0.756212 of unit cell:	Completed after 0 iterations at t[s]:   4201.78
	FillingsUpdate:  mu: -0.205500376  nElectrons: 415.500000  magneticMoment: [ Abs: 0.00000  Tot: -0.00000 ]
	SubspaceRotationAdjust: set factor to 0.966
ElecMinimize: Iter:   9  F: -1429.855410895940395  |grad|_K:  1.856e-08  alpha:  4.547e-01  linmin:  6.397e-08  t[s]:   4242.70
	Linear fluid (dielectric constant: 78.4, screening length: 5.74355 Bohr) occupying 0.756211 of unit cell:	Completed after 0 iterations at t[s]:   4270.57
	Linear fluid (dielectric constant: 78.4, screening length: 5.74355 Bohr) occupying 0.756210 of unit cell:	Completed after 0 iterations at t[s]:   4299.42
	FillingsUpdate:  mu: -0.205500979  nElectrons: 415.500000  magneticMoment: [ Abs: 0.00000  Tot: -0.00000 ]
	SubspaceRotationAdjust: set factor to 1.08
ElecMinimize: Iter:  10  F: -1429.855410946526717  |grad|_K:  1.313e-08  alpha:  5.976e-01  linmin:  1.657e-07  t[s]:   4340.04
	Linear fluid (dielectric constant: 78.4, screening length: 5.74355 Bohr) occupying 0.756210 of unit cell:	Completed after 1 iterations at t[s]:   4367.56
	Linear fluid (dielectric constant: 78.4, screening length: 5.74355 Bohr) occupying 0.756210 of unit cell:	Completed after 0 iterations at t[s]:   4396.95
ElecMinimize: 	Step increased F by 5.189372e-08, reducing alpha to 9.601011e-03.
	Linear fluid (dielectric constant: 78.4, screening length: 5.74355 Bohr) occupying 0.756210 of unit cell:	Completed after 0 iterations at t[s]:   4460.79
ElecMinimize: 	Step increased F by 4.622439e-08, reducing alpha to 9.601011e-04.
	Linear fluid (dielectric constant: 78.4, screening length: 5.74355 Bohr) occupying 0.756210 of unit cell:	Completed after 0 iterations at t[s]:   4524.28
ElecMinimize: 	Step increased F by 4.570848e-08, reducing alpha to 9.601011e-05.
ElecMinimize: 	Step failed to reduce F after 3 attempts. Quitting step.
ElecMinimize: 	Undoing step.
	Linear fluid (dielectric constant: 78.4, screening length: 5.74355 Bohr) occupying 0.756210 of unit cell:	Completed after 0 iterations at t[s]:   4587.48
ElecMinimize: 	Step failed: resetting search direction.
	FillingsUpdate:  mu: -0.205457339  nElectrons: 415.500000  magneticMoment: [ Abs: 0.00000  Tot: -0.00000 ]
	SubspaceRotationAdjust: set factor to 0.664
ElecMinimize: Iter:  11  F: -1429.855410900811421  |grad|_K:  4.665e-08  alpha:  9.601e-05
	Linear fluid (dielectric constant: 78.4, screening length: 5.74355 Bohr) occupying 0.756209 of unit cell:	Completed after 3 iterations at t[s]:   4656.06
	Linear fluid (dielectric constant: 78.4, screening length: 5.74355 Bohr) occupying 0.756210 of unit cell:	Completed after 2 iterations at t[s]:   4685.88
	FillingsUpdate:  mu: -0.205515429  nElectrons: 415.500000  magneticMoment: [ Abs: 0.00000  Tot: -0.00000 ]
	SubspaceRotationAdjust: set factor to 0.262
ElecMinimize: Iter:  12  F: -1429.855410943465358  |grad|_K:  1.341e-08  alpha:  1.562e-01  linmin:  1.576e-04  t[s]:   4727.43
	Linear fluid (dielectric constant: 78.4, screening length: 5.74355 Bohr) occupying 0.756210 of unit cell:	Completed after 0 iterations at t[s]:   4754.77
ElecMinimize: 	Predicted alpha/alphaT>3.000000, increasing alphaT to 4.685139e-01.
	Linear fluid (dielectric constant: 78.4, screening length: 5.74355 Bohr) occupying 0.756211 of unit cell:	Completed after 0 iterations at t[s]:   4783.30
	Linear fluid (dielectric constant: 78.4, screening length: 5.74355 Bohr) occupying 0.756211 of unit cell:	Completed after 0 iterations at t[s]:   4811.69
	FillingsUpdate:  mu: -0.205515587  nElectrons: 415.500000  magneticMoment: [ Abs: 0.00000  Tot: -0.00000 ]
	SubspaceRotationAdjust: set factor to 0.393
ElecMinimize: Iter:  13  F: -1429.855410974301094  |grad|_K:  1.262e-08  alpha:  8.556e-01  linmin: -7.253e-08  t[s]:   4852.84
	Linear fluid (dielectric constant: 78.4, screening length: 5.74355 Bohr) occupying 0.756212 of unit cell:	Completed after 2 iterations at t[s]:   4880.62
	Linear fluid (dielectric constant: 78.4, screening length: 5.74355 Bohr) occupying 0.756211 of unit cell:	Completed after 0 iterations at t[s]:   4910.27
ElecMinimize: 	Step increased F by 1.318404e-08, reducing alpha to 1.690220e-02.
	Linear fluid (dielectric constant: 78.4, screening length: 5.74355 Bohr) occupying 0.756211 of unit cell:	Completed after 0 iterations at t[s]:   4973.56
ElecMinimize: 	Step increased F by 1.849912e-09, reducing alpha to 1.690220e-03.
	Linear fluid (dielectric constant: 78.4, screening length: 5.74355 Bohr) occupying 0.756211 of unit cell:	Completed after 0 iterations at t[s]:   5036.98
ElecMinimize: 	Step increased F by 8.972165e-10, reducing alpha to 1.690220e-04.
ElecMinimize: 	Step failed to reduce F after 3 attempts. Quitting step.
ElecMinimize: 	Undoing step.
	Linear fluid (dielectric constant: 78.4, screening length: 5.74355 Bohr) occupying 0.756211 of unit cell:	Completed after 0 iterations at t[s]:   5099.99
ElecMinimize: 	Step failed: resetting search direction.
	FillingsUpdate:  mu: -0.205461756  nElectrons: 415.500000  magneticMoment: [ Abs: 0.00000  Tot: -0.00000 ]
	SubspaceRotationAdjust: set factor to 0.356
ElecMinimize: Iter:  14  F: -1429.855410973433663  |grad|_K:  2.658e-08  alpha:  1.690e-04
	Linear fluid (dielectric constant: 78.4, screening length: 5.74355 Bohr) occupying 0.756210 of unit cell:	Completed after 3 iterations at t[s]:   5169.28
	Linear fluid (dielectric constant: 78.4, screening length: 5.74355 Bohr) occupying 0.756211 of unit cell:	Completed after 2 iterations at t[s]:   5199.45
ElecMinimize: 	Step increased F by 1.516537e-08, reducing alpha to 2.360382e-02.
	Linear fluid (dielectric constant: 78.4, screening length: 5.74355 Bohr) occupying 0.756211 of unit cell:	Completed after 0 iterations at t[s]:   5263.68
ElecMinimize: 	Step increased F by 9.025598e-09, reducing alpha to 2.360382e-03.
	Linear fluid (dielectric constant: 78.4, screening length: 5.74355 Bohr) occupying 0.756211 of unit cell:	Completed after 0 iterations at t[s]:   5326.96
ElecMinimize: 	Step increased F by 9.413498e-09, reducing alpha to 2.360382e-04.
ElecMinimize: 	Step failed to reduce F after 3 attempts. Quitting step.
ElecMinimize: 	Undoing step.
	Linear fluid (dielectric constant: 78.4, screening length: 5.74355 Bohr) occupying 0.756211 of unit cell:	Completed after 0 iterations at t[s]:   5390.11
ElecMinimize: 	Step failed along negative gradient direction.
ElecMinimize: Probably at roundoff error limit. (Stopping)
Setting wave functions to eigenvectors of Hamiltonian
Single-point solvation energy estimate, DeltaF = +0.047491026845591

# Ionic positions in lattice coordinates:
ion W   0.083334440402778   0.166665545055556   0.500000009000000 1
ion W   0.333334440402778   0.166665545055556   0.500000009000000 1
ion W   0.583334440402778   0.166665545055556   0.500000009000000 1
ion W   0.833334440402778   0.166665545055556   0.500000009000000 1
ion W   0.083334440402778   0.416665545055556   0.500000009000000 1
ion W   0.333334440402778   0.416665545055556   0.500000009000000 1
ion W   0.583334440402778   0.416665545055556   0.500000009000000 1
ion W   0.833334440402778   0.416665545055556   0.500000009000000 1
ion W   0.083334440402778   0.666665545055556   0.500000009000000 1
ion W   0.333334440402778   0.666665545055556   0.500000009000000 1
ion W   0.583334440402778   0.666665545055556   0.500000009000000 1
ion W   0.833334440402778   0.666665545055556   0.500000009000000 1
ion W   0.083334440402778   0.916665545055556   0.500000009000000 1
ion W   0.333334440402778   0.916665545055556   0.500000009000000 1
ion W   0.583334440402778   0.916665545055556   0.500000009000000 1
ion W   0.833334440402778   0.916665545055556   0.500000009000000 1
ion S   0.166667773736112   0.083332211722223   0.413136339362868 1
ion S   0.166667773736112   0.083332211722223   0.586863678637132 1
ion S   0.416667773736112   0.083332211722223   0.413136339362868 1
ion S   0.416667773736112   0.083332211722223   0.586863678637132 1
ion S   0.666667773736112   0.083332211722223   0.413136339362868 1
ion S   0.666667773736112   0.083332211722223   0.586863678637132 1
ion S   0.916667773736112   0.083332211722223   0.413136339362868 1
ion S   0.916667773736112   0.083332211722223   0.586863678637132 1
ion S   0.166667773736112   0.333332211722223   0.413136339362868 1
ion S   0.166667773736112   0.333332211722223   0.586863678637132 1
ion S   0.416667773736112   0.333332211722223   0.413136339362868 1
ion S   0.416667773736112   0.333332211722223   0.586863678637132 1
ion S   0.666667773736112   0.333332211722223   0.413136339362868 1
ion S   0.666667773736112   0.333332211722223   0.586863678637132 1
ion S   0.916667773736112   0.333332211722223   0.413136339362868 1
ion S   0.916667773736112   0.333332211722223   0.586863678637132 1
ion S   0.166667773736112   0.583332211722223   0.413136339362868 1
ion S   0.166667773736112   0.583332211722223   0.586863678637132 1
ion S   0.416667773736112   0.583332211722223   0.413136339362868 1
ion S   0.416667773736112   0.583332211722223   0.586863678637132 1
ion S   0.666667773736112   0.583332211722223   0.413136339362868 1
ion S   0.666667773736112   0.583332211722223   0.586863678637132 1
ion S   0.916667773736112   0.583332211722223   0.413136339362868 1
ion S   0.916667773736112   0.583332211722223   0.586863678637132 1
ion S   0.166667773736112   0.833332211722223   0.413136339362868 1
ion S   0.166667773736112   0.833332211722223   0.586863678637132 1
ion S   0.416667773736112   0.833332211722223   0.413136339362868 1
ion S   0.416667773736112   0.833332211722223   0.586863678637132 1
ion S   0.666667773736112   0.833332211722223   0.413136339362868 1
ion S   0.666667773736112   0.833332211722223   0.586863678637132 1
ion S   0.916667773736112   0.833332211722223   0.413136339362868 1
ion S   0.916667773736112   0.833332211722223   0.586863678637132 1


# Forces in Lattice coordinates:
force W   0.000000000000000  -0.000000000000000  -0.000000000000000 1
force W  -0.000000000000000  -0.000000000000000  -0.000000000000000 1
force W   0.000000000000000  -0.000000000000000   0.000000000000000 1
force W   0.000000000000000  -0.000000000000000  -0.000000000000000 1
force W   0.000000000000000  -0.000000000000000  -0.000000000000000 1
force W  -0.000000000000000  -0.000000000000000  -0.000000000000000 1
force W  -0.000000000000000   0.000000000000000   0.000000000000000 1
force W   0.000000000000000   0.000000000000000   0.000000000000000 1
force W  -0.000000000000000  -0.000000000000000  -0.000000000000000 1
force W  -0.000000000000000  -0.000000000000000   0.000000000000000 1
force W   0.000000000000000   0.000000000000000  -0.000000000000000 1
force W  -0.000000000000000  -0.000000000000000   0.000000000000000 1
force W   0.000000000000000  -0.000000000000000  -0.000000000000000 1
force W   0.000000000000000  -0.000000000000000   0.000000000000000 1
force W  -0.000000000000000  -0.000000000000000  -0.000000000000000 1
force W  -0.000000000000000  -0.000000000000000  -0.000000000000000 1
force S  -0.000000000000000   0.000000000000000  -0.001232343714247 1
force S   0.000000000000000  -0.000000000000000   0.001232343714133 1
force S   0.000000000000000   0.000000000000000  -0.001232343714133 1
force S  -0.000000000000000  -0.000000000000000   0.001232343714020 1
force S   0.000000000000000   0.000000000000000  -0.001232343714133 1
force S  -0.000000000000000   0.000000000000000   0.001232343714134 1
force S  -0.000000000000000   0.000000000000000  -0.001232343714248 1
force S   0.000000000000000  -0.000000000000000   0.001232343714134 1
force S  -0.000000000000000  -0.000000000000000  -0.001232343714247 1
force S   0.000000000000000  -0.000000000000000   0.001232343714133 1
force S  -0.000000000000000   0.000000000000000  -0.001232343714133 1
force S   0.000000000000000  -0.000000000000000   0.001232343714133 1
force S  -0.000000000000000   0.000000000000000  -0.001232343714246 1
force S   0.000000000000000  -0.000000000000000   0.001232343714021 1
force S  -0.000000000000000   0.000000000000000  -0.001232343714133 1
force S  -0.000000000000000  -0.000000000000000   0.001232343714248 1
force S  -0.000000000000000  -0.000000000000000  -0.001232343714133 1
force S  -0.000000000000000   0.000000000000000   0.001232343714134 1
force S  -0.000000000000000   0.000000000000000  -0.001232343714248 1
force S   0.000000000000000   0.000000000000000   0.001232343714134 1
force S  -0.000000000000000   0.000000000000000  -0.001232343714133 1
force S   0.000000000000000  -0.000000000000000   0.001232343714133 1
force S  -0.000000000000000  -0.000000000000000  -0.001232343714246 1
force S  -0.000000000000000  -0.000000000000000   0.001232343714134 1
force S  -0.000000000000000   0.000000000000000  -0.001232343714246 1
force S  -0.000000000000000  -0.000000000000000   0.001232343714247 1
force S   0.000000000000000   0.000000000000000  -0.001232343714133 1
force S   0.000000000000000  -0.000000000000000   0.001232343714134 1
force S  -0.000000000000000   0.000000000000000  -0.001232343714134 1
force S  -0.000000000000000  -0.000000000000000   0.001232343714020 1
force S  -0.000000000000000   0.000000000000000  -0.001232343714134 1
force S   0.000000000000000  -0.000000000000000   0.001232343714133 1

# Energy components:
   A_diel =        0.0412451683825777
   Eewald =     8742.7957270371007326
       EH =     9879.6271599428837362
     Eloc =   -20136.1834237317416409
      Enl =     -179.1382386193712648
      Exc =     -465.3552679982295217
 Exc_core =      230.1592926414743374
       KE =      498.2017935045304853
  MuShift =        0.0060320336267309
-------------------------------------
     Etot =    -1429.8456800213457427
       TS =        0.0097309426977005
-------------------------------------
        F =    -1429.8554109640433580

IonicMinimize: Iter:   0  F: -1429.855410964043358  |grad|_K:  1.694e-05  t[s]:   5449.07
IonicMinimize: Converged (|grad|_K<1.000000e-04).

#--- Lowdin population analysis ---
# oxidation-state W -0.528 -0.528 -0.528 -0.528 -0.528 -0.528 -0.528 -0.528 -0.528 -0.528 -0.528 -0.528 -0.528 -0.528 -0.528 -0.528
# magnetic-moments W -0.000 -0.000 -0.000 -0.000 -0.000 -0.000 -0.000 -0.000 -0.000 -0.000 -0.000 -0.000 -0.000 -0.000 -0.000 -0.000
# oxidation-state S +0.348 +0.348 +0.348 +0.348 +0.348 +0.348 +0.348 +0.348 +0.348 +0.348 +0.348 +0.348 +0.348 +0.348 +0.348 +0.348 +0.348 +0.348 +0.348 +0.348 +0.348 +0.348 +0.348 +0.348 +0.348 +0.348 +0.348 +0.348 +0.348 +0.348 +0.348 +0.348
# magnetic-moments S +0.000 +0.000 +0.000 +0.000 +0.000 +0.000 +0.000 +0.000 +0.000 +0.000 +0.000 +0.000 +0.000 +0.000 +0.000 +0.000 +0.000 +0.000 +0.000 +0.000 +0.000 +0.000 +0.000 +0.000 +0.000 +0.000 +0.000 +0.000 +0.000 +0.000 +0.000 +0.000


Dumping 'NbTe2.fillings' ... done
Dumping 'NbTe2.wfns' ... done
Dumping 'NbTe2.fluidState' ... done
Dumping 'NbTe2.ionpos' ... done
Dumping 'NbTe2.eigenvals' ... done
End date and time: Sun Jan 17 18:35:44 2021  (Duration: 0-1:30:58.80)
Done!

*************** JDFTx 1.5.0  ***************

Start date and time: Fri Jan 22 07:00:13 2021
Executable jdftx_gpu with command-line: -i Charged.in -o Charged.out
Running on hosts (process indices):  amax (0-4)
Divided in process groups (process indices):  0 (0)  1 (1)  2 (2)  3 (3)  4 (4)
gpuInit: Found compatible cuda device 0 'Tesla K80'
gpuInit: Found compatible cuda device 1 'Tesla K80'
gpuInit: Found compatible cuda device 2 'Tesla K80'
gpuInit: Found compatible cuda device 3 'Tesla K80'
gpuInit: Found compatible cuda device 4 'Tesla K80'
gpuInit: Selected device 0
Resource initialization completed at t[s]:      2.83
Run totals: 5 processes, 24 threads, 5 GPUs


Input parsed successfully to the following command list (including defaults):

basis kpoint-dependent
cache-projectors no
coords-type Lattice
core-overlap-check none
coulomb-interaction Slab 001
coulomb-truncation-embed 0.5 0.5 0.5
davidson-band-ratio 1.1
dump End State
dump-name NbTe2.$VAR
elec-cutoff 20
elec-eigen-algo Davidson
elec-ex-corr gga-PBE
elec-initial-charge -0.500000
elec-initial-magnetization 5.000000 no
elec-smearing Gauss 0.0073499
electronic-minimize  \
	dirUpdateScheme      FletcherReeves \
	linminMethod         DirUpdateRecommended \
	nIterations          100 \
	history              15 \
	knormThreshold       0 \
	energyDiffThreshold  1e-08 \
	nEnergyDiff          2 \
	alphaTstart          1 \
	alphaTmin            1e-10 \
	updateTestStepSize   yes \
	alphaTreduceFactor   0.1 \
	alphaTincreaseFactor 3 \
	nAlphaAdjustMax      3 \
	wolfeEnergy          0.0001 \
	wolfeGradient        0.9 \
	fdTest               no
electronic-scf  \
	nIterations	200 \
	energyDiffThreshold	1e-08 \
	residualThreshold	1e-07 \
	mixFraction	0.5 \
	qMetric	0.8 \
	history	10 \
	nEigSteps	2 \
	eigDiffThreshold	1e-08 \
	mixedVariable	Density \
	qKerker	0.8 \
	qKappa	-1 \
	verbose	no \
	mixFractionMag	1.5
exchange-regularization WignerSeitzTruncated
fluid LinearPCM 298.000000 1.013250
fluid-anion F- 1 MeanFieldLJ \
	epsBulk 1 \
	pMol 0 \
	epsInf 1 \
	Pvap 0 \
	sigmaBulk 0 \
	Rvdw 2.24877 \
	Res 0 \
	tauNuc 343133
fluid-cation Na+ 1 MeanFieldLJ \
	epsBulk 1 \
	pMol 0 \
	epsInf 1 \
	Pvap 0 \
	sigmaBulk 0 \
	Rvdw 2.19208 \
	Res 0 \
	tauNuc 343133
fluid-ex-corr lda-TF lda-PZ
fluid-gummel-loop 10 1.000000e-05
fluid-minimize  \
	dirUpdateScheme      PolakRibiere \
	linminMethod         DirUpdateRecommended \
	nIterations          400 \
	history              15 \
	knormThreshold       1e-11 \
	energyDiffThreshold  0 \
	nEnergyDiff          2 \
	alphaTstart          1 \
	alphaTmin            1e-10 \
	updateTestStepSize   yes \
	alphaTreduceFactor   0.1 \
	alphaTincreaseFactor 3 \
	nAlphaAdjustMax      6 \
	wolfeEnergy          0.0001 \
	wolfeGradient        0.9 \
	fdTest               no
fluid-solvent H2O 55.338 ScalarEOS \
	epsBulk 78.4 \
	pMol 0.92466 \
	epsInf 1.77 \
	Pvap 1.06736e-10 \
	sigmaBulk 4.62e-05 \
	Rvdw 2.61727 \
	Res 1.42 \
	tauNuc 343133 \
	poleEl 15 7 1
forces-output-coords Positions
initial-state NbTe2.$VAR
ion W   0.083333770193438   0.166666215384150   0.500000009000000 1
ion W   0.333333770193438   0.166666215384150   0.500000009000000 1
ion W   0.583333770193438   0.166666215384150   0.500000009000000 1
ion W   0.833333770193438   0.166666215384150   0.500000009000000 1
ion W   0.083333770193438   0.416666215384150   0.500000009000000 1
ion W   0.333333770193438   0.416666215384150   0.500000009000000 1
ion W   0.583333770193438   0.416666215384150   0.500000009000000 1
ion W   0.833333770193438   0.416666215384150   0.500000009000000 1
ion W   0.083333770193438   0.666666215384150   0.500000009000000 1
ion W   0.333333770193438   0.666666215384150   0.500000009000000 1
ion W   0.583333770193438   0.666666215384150   0.500000009000000 1
ion W   0.833333770193438   0.666666215384150   0.500000009000000 1
ion W   0.083333770193438   0.916666215384150   0.500000009000000 1
ion W   0.333333770193438   0.916666215384150   0.500000009000000 1
ion W   0.583333770193438   0.916666215384150   0.500000009000000 1
ion W   0.833333770193438   0.916666215384150   0.500000009000000 1
ion S   0.166668108840782   0.083331876557926   0.413136339362868 1
ion S   0.166668108840782   0.083331876557926   0.586863678637132 1
ion S   0.416668108840782   0.083331876557926   0.413136339362868 1
ion S   0.416668108840782   0.083331876557926   0.586863678637132 1
ion S   0.666668108840782   0.083331876557926   0.413136339362868 1
ion S   0.666668108840782   0.083331876557926   0.586863678637132 1
ion S   0.916668108840782   0.083331876557926   0.413136339362868 1
ion S   0.916668108840782   0.083331876557926   0.586863678637132 1
ion S   0.166668108840782   0.333331876557926   0.413136339362868 1
ion S   0.166668108840782   0.333331876557926   0.586863678637132 1
ion S   0.416668108840782   0.333331876557926   0.413136339362868 1
ion S   0.416668108840782   0.333331876557926   0.586863678637132 1
ion S   0.666668108840782   0.333331876557926   0.413136339362868 1
ion S   0.666668108840782   0.333331876557926   0.586863678637132 1
ion S   0.916668108840782   0.333331876557926   0.413136339362868 1
ion S   0.916668108840782   0.333331876557926   0.586863678637132 1
ion S   0.166668108840782   0.583331876557926   0.413136339362868 1
ion S   0.166668108840782   0.583331876557926   0.586863678637132 1
ion S   0.416668108840782   0.583331876557926   0.413136339362868 1
ion S   0.416668108840782   0.583331876557926   0.586863678637132 1
ion S   0.666668108840782   0.583331876557926   0.413136339362868 1
ion S   0.666668108840782   0.583331876557926   0.586863678637132 1
ion S   0.916668108840782   0.583331876557926   0.413136339362868 1
ion S   0.916668108840782   0.583331876557926   0.586863678637132 1
ion S   0.166668108840782   0.833331876557926   0.413136339362868 1
ion S   0.166668108840782   0.833331876557926   0.586863678637132 1
ion S   0.416668108840782   0.833331876557926   0.413136339362868 1
ion S   0.416668108840782   0.833331876557926   0.586863678637132 1
ion S   0.666668108840782   0.833331876557926   0.413136339362868 1
ion S   0.666668108840782   0.833331876557926   0.586863678637132 1
ion S   0.916668108840782   0.833331876557926   0.413136339362868 1
ion S   0.916668108840782   0.833331876557926   0.586863678637132 1
ion-species GBRV/$ID_pbe.uspp
ion-width Ecut
ionic-minimize  \
	dirUpdateScheme      L-BFGS \
	linminMethod         DirUpdateRecommended \
	nIterations          500 \
	history              15 \
	knormThreshold       0.0001 \
	energyDiffThreshold  1e-06 \
	nEnergyDiff          2 \
	alphaTstart          1 \
	alphaTmin            1e-10 \
	updateTestStepSize   yes \
	alphaTreduceFactor   0.1 \
	alphaTincreaseFactor 3 \
	nAlphaAdjustMax      3 \
	wolfeEnergy          0.0001 \
	wolfeGradient        0.9 \
	fdTest               no
kpoint   0.000000000000   0.000000000000   0.000000000000  1.00000000000000
kpoint-folding 5 5 1 
latt-move-scale 1 1 1
latt-scale 1.88973 1.88973 1.88973 
lattice Triclinic 12.7007 12.7008 18.1461 90 90 120
lattice-minimize  \
	dirUpdateScheme      L-BFGS \
	linminMethod         DirUpdateRecommended \
	nIterations          0 \
	history              15 \
	knormThreshold       0 \
	energyDiffThreshold  1e-06 \
	nEnergyDiff          2 \
	alphaTstart          1 \
	alphaTmin            1e-10 \
	updateTestStepSize   yes \
	alphaTreduceFactor   0.1 \
	alphaTincreaseFactor 3 \
	nAlphaAdjustMax      3 \
	wolfeEnergy          0.0001 \
	wolfeGradient        0.9 \
	fdTest               no
lcao-params -1 1e-06 0.0073499
pcm-variant CANDLE
spintype z-spin
subspace-rotation-factor 1 yes
symmetries automatic
symmetry-threshold 0.0001



---------- Setting up symmetries ----------

Found 24 point-group symmetries of the bravais lattice
Found 192 space-group symmetries with basis
Applied RMS atom displacement 1.97026e-05 bohrs to make symmetries exact.

---------- Initializing the Grid ----------
R = 
[    24.0008   -12.0005          0  ]
[          0    20.7855          0  ]
[          0          0    34.2912  ]
unit cell volume = 17106.8
G =
[    0.26179   0.151145         -0  ]
[          0   0.302287          0  ]
[          0         -0    0.18323  ]
Minimum fftbox size, Smin = [  100  100  140  ]
Chosen fftbox size, S = [  100  100  140  ]

---------- Exchange Correlation functional ----------
Initalized PBE GGA exchange.
Initalized PBE GGA correlation.

---------- Setting up pseudopotentials ----------
Width of ionic core gaussian charges (only for fluid interactions / plotting) set to 0.397384

Reading pseudopotential file '/home/guoxy/vasp/jdftx-1.5.0/build/pseudopotentials/GBRV/w_pbe.uspp':
  Title: W.  Created by USPP 7.3.6 on 3-2-2014
  Reference state energy: -79.133630.  14 valence electrons in orbitals:
    |500>  occupation: 2  eigenvalue: -2.938934
    |510>  occupation: 6  eigenvalue: -1.620730
    |520>  occupation: 3.9  eigenvalue: -0.194511
    |600>  occupation: 2  eigenvalue: -0.234858
    |610>  occupation: 0  eigenvalue: -0.069444
  lMax: 3  lLocal: 3  QijEcut: 5
  8 projectors sampled on a log grid with 667 points:
    l: 0  eig: -2.938934  rCut: 1.45
    l: 0  eig: -0.234859  rCut: 1.45
    l: 0  eig: 0.500000  rCut: 1.45
    l: 1  eig: -1.620730  rCut: 1.5
    l: 1  eig: -0.069446  rCut: 1.5
    l: 2  eig: -0.194511  rCut: 1.7
    l: 2  eig: 0.150000  rCut: 1.7
    l: 3  eig: 0.500000  rCut: 2.3
  Partial core density with radius 1.2
  Transforming core density to a uniform radial grid of dG=0.02 with 1463 points.
  Transforming local potential to a uniform radial grid of dG=0.02 with 1463 points.
  Transforming nonlocal projectors to a uniform radial grid of dG=0.02 with 432 points.
  Transforming density augmentations to a uniform radial grid of dG=0.02 with 1463 points.
  Transforming atomic orbitals to a uniform radial grid of dG=0.02 with 432 points.
  Core radius for overlap checks: 2.30 bohrs.

Reading pseudopotential file '/home/guoxy/vasp/jdftx-1.5.0/build/pseudopotentials/GBRV/s_pbe.uspp':
  Title: S.  Created by USPP 7.3.6 on 1-4-15
  Reference state energy: -11.898476.  6 valence electrons in orbitals:
    |300>  occupation: 2  eigenvalue: -0.634167
    |310>  occupation: 4  eigenvalue: -0.257568
  lMax: 2  lLocal: 3  QijEcut: 6
  6 projectors sampled on a log grid with 635 points:
    l: 0  eig: -0.634161  rCut: 1.5
    l: 0  eig: 1.500000  rCut: 1.5
    l: 1  eig: -0.257567  rCut: 1.5
    l: 1  eig: 1.500000  rCut: 1.5
    l: 2  eig: -1.000000  rCut: 1.5
    l: 2  eig: 1.500000  rCut: 1.5
  Partial core density with radius 1.15
  Transforming core density to a uniform radial grid of dG=0.02 with 1463 points.
  Transforming local potential to a uniform radial grid of dG=0.02 with 1463 points.
  Transforming nonlocal projectors to a uniform radial grid of dG=0.02 with 432 points.
  Transforming density augmentations to a uniform radial grid of dG=0.02 with 1463 points.
  Transforming atomic orbitals to a uniform radial grid of dG=0.02 with 432 points.
  Core radius for overlap checks: 1.50 bohrs.

Initialized 2 species with 48 total atoms.

Folded 1 k-points by 5x5x1 to 25 k-points.

---------- Setting up k-points, bands, fillings ----------
Adding inversion symmetry to k-mesh for non-inversion-symmetric unit cell.
Reduced to 5 k-points under symmetry. 
Computing the number of bands and number of electrons
Reading initial fillings from file NbTe2.fillings.
nElectrons: 415.500000   nBands: 336   nStates: 10

----- Setting up reduced wavefunction bases (one per k-point) -----
average nbasis = 73092.360 , ideal nbasis = 73081.621

---------- Setting up coulomb interaction ----------
Fluid mode embedding: using embedded box, but periodic Coulomb kernel.
(Fluid response is responsible for (approximate) separation between periodic images.)
Setting up double-sized grid for truncated Coulomb potentials:
R = 
[    24.0008   -12.0005          0  ]
[          0    20.7855          0  ]
[          0          0    68.5823  ]
unit cell volume = 34213.6
G =
[    0.26179   0.151145         -0  ]
[          0   0.302287          0  ]
[          0         -0  0.0916152  ]
Chosen fftbox size, S = [  100  100  280  ]
Integer grid location selected as the embedding center:
   Grid: [  50  50  70  ]
   Lattice: [  0.5  0.5  0.5  ]
   Cartesian: [  6.00016  10.3928  17.1456  ]
Constructing Wigner-Seitz cell: 8 faces (6 quadrilaterals, 2 hexagons)
Range-separation parameter for embedded mesh potentials due to point charges: 0.624363 bohrs.

Initializing van der Waals corrections
	NOTE: vdW corrections apply only for interactions with fluid.
	 W:  C6:  815.23 Eh-a0^6  R0: 3.326 a0 (WARNING: beyond Grimme's data set)
	 S:  C6:   96.61 Eh-a0^6  R0: 3.180 a0

---------- Setting up ewald sum ----------
Optimum gaussian width for ewald sums = 6.793646 bohr.
Real space sum over 605 unit cells with max indices [  5  5  2  ]
Reciprocal space sum over 7875 terms with max indices [  7  7  17  ]

---------- Allocating electronic variables ----------
Initializing wave functions:  linear combination of atomic orbitals
W pseudo-atom occupations:   s ( 2 2 )  p ( 6 0 )  d ( 4 )
S pseudo-atom occupations:   s ( 2 )  p ( 4 )
	FillingsUpdate:  mu: +1.011431736  nElectrons: 415.500000  magneticMoment: [ Abs: 0.00159  Tot: +0.00036 ]
LCAOMinimize: Iter:   0  F: -1382.6899079955253455  |grad|_K:  2.345e-02  alpha:  1.000e+00
	FillingsUpdate:  mu: -0.774603557  nElectrons: 415.500000  magneticMoment: [ Abs: 0.00645  Tot: -0.00115 ]
LCAOMinimize: Iter:   1  F: -1390.9553674847682032  |grad|_K:  1.336e-02  alpha:  4.518e-01  linmin:  1.440e-01  cgtest: -1.836e+00  t[s]:    223.84
LCAOMinimize: 	Bad step direction: g.d > 0.
LCAOMinimize: 	Undoing step.
LCAOMinimize: 	Step failed: resetting search direction.
	FillingsUpdate:  mu: -0.774603557  nElectrons: 415.500000  magneticMoment: [ Abs: 0.00645  Tot: -0.00115 ]
LCAOMinimize: Iter:   2  F: -1390.9553674847682032  |grad|_K:  1.336e-02  alpha:  0.000e+00
	FillingsUpdate:  mu: -0.493676547  nElectrons: 415.500000  magneticMoment: [ Abs: 0.00069  Tot: -0.00020 ]
LCAOMinimize: Iter:   3  F: -1416.8750563777657590  |grad|_K:  7.542e-03  alpha:  1.844e-01  linmin: -3.960e-01  cgtest:  9.044e-01  t[s]:    342.91
LCAOMinimize: Encountered beta<0, resetting CG.
LCAOMinimize: 	Predicted alpha/alphaT>3.000000, increasing alphaT to 5.531010e-01.
	FillingsUpdate:  mu: -0.397818955  nElectrons: 415.500000  magneticMoment: [ Abs: 0.00085  Tot: -0.00012 ]
LCAOMinimize: Iter:   4  F: -1423.5592705410215331  |grad|_K:  5.506e-03  alpha:  1.075e-01  linmin: -4.042e-01  cgtest:  8.378e-01  t[s]:    433.13
LCAOMinimize: Encountered beta<0, resetting CG.
LCAOMinimize: 	Predicted alpha/alphaT>3.000000, increasing alphaT to 3.225613e-01.
	FillingsUpdate:  mu: -0.209340851  nElectrons: 415.500000  magneticMoment: [ Abs: 0.00111  Tot: -0.00000 ]
LCAOMinimize: Iter:   5  F: -1427.9020785931500086  |grad|_K:  1.829e-04  alpha:  2.052e-01  linmin: -4.251e-01  cgtest:  7.240e-01  t[s]:    523.80
LCAOMinimize: Encountered beta<0, resetting CG.
	FillingsUpdate:  mu: -0.200152147  nElectrons: 415.500000  magneticMoment: [ Abs: 0.00113  Tot: -0.00000 ]
LCAOMinimize: Iter:   6  F: -1427.9060957952881381  |grad|_K:  5.965e-05  alpha:  2.116e-01  linmin:  9.796e-03  cgtest: -2.687e-02  t[s]:    594.00
LCAOMinimize: 	Predicted alpha/alphaT>3.000000, increasing alphaT to 6.347928e-01.
	FillingsUpdate:  mu: -0.199154768  nElectrons: 415.500000  magneticMoment: [ Abs: 0.00117  Tot: -0.00000 ]
LCAOMinimize: Iter:   7  F: -1427.9074864386127501  |grad|_K:  7.320e-06  alpha:  6.935e-01  linmin:  4.495e-03  cgtest:  2.254e-01  t[s]:    684.61
LCAOMinimize: Encountered beta<0, resetting CG.
	FillingsUpdate:  mu: -0.199557260  nElectrons: 415.500000  magneticMoment: [ Abs: 0.00118  Tot: +0.00000 ]
LCAOMinimize: Iter:   8  F: -1427.9074958805522328  |grad|_K:  4.739e-06  alpha:  3.102e-01  linmin: -9.283e-05  cgtest: -1.012e-04  t[s]:    754.41
	FillingsUpdate:  mu: -0.199436675  nElectrons: 415.500000  magneticMoment: [ Abs: 0.00118  Tot: +0.00000 ]
LCAOMinimize: Iter:   9  F: -1427.9075017358884452  |grad|_K:  5.679e-07  alpha:  4.592e-01  linmin:  1.297e-03  cgtest: -2.624e-03  t[s]:    824.74
	FillingsUpdate:  mu: -0.199437383  nElectrons: 415.500000  magneticMoment: [ Abs: 0.00119  Tot: +0.00000 ]
LCAOMinimize: Iter:  10  F: -1427.9075018923115294  |grad|_K:  3.385e-08  alpha:  8.545e-01  linmin: -1.997e-03  cgtest:  1.503e-02  t[s]:    893.99
	FillingsUpdate:  mu: -0.199438819  nElectrons: 415.500000  magneticMoment: [ Abs: 0.00119  Tot: +0.00000 ]
LCAOMinimize: Iter:  11  F: -1427.9075018928742793  |grad|_K:  1.441e-08  alpha:  8.571e-01  linmin:  5.121e-03  cgtest: -2.337e-02  t[s]:    964.09
LCAOMinimize: Converged (|Delta F|<1.000000e-06 for 2 iters).
----- createFluidSolver() ----- (Fluid-side solver setup)
   Initializing fluid molecule 'H2O'
     Initializing site 'O'
       Electron density: proportional to exp(-r/0.36935)*erfc((r-0.51523)/0.36823) with norm 6.826
       Charge density: gaussian nuclear width 0.478731 with net site charge 0.826
       Polarizability: cuspless exponential with width 0.32 and norm 3.73
       Hard sphere radius: 2.57003 bohrs
       Positions in reference frame:
         [ +0.000000 +0.000000 +0.000000 ]
     Initializing site 'H'
       Electron density: proportional to exp(-r/0.34641)*erfc((r-0)/0.390882) with norm 0.587
       Charge density: gaussian nuclear width 0.377945 with net site charge -0.413
       Polarizability: cuspless exponential with width 0.39 and norm 3.3
       Positions in reference frame:
         [ +0.000000 -1.441945 +1.122523 ]
         [ +0.000000 +1.441945 +1.122523 ]
     Net charge: 0   dipole magnitude: 0.927204
     Initializing spherical shell mfKernel with radius 2.61727 Bohr
     deltaS corrections:
       site 'O': -7.54299
       site 'H': -6.83917
   Initializing fluid molecule 'Na+'
     Initializing site 'Na'
       Electron density: proportional to exp(-r/0.19682)*erfc((r-0.71491)/0.41314) with norm 8.1383
       Charge density: gaussian nuclear width 0.365347 with net site charge -1
       Hard sphere radius: 1.86327 bohrs
       Positions in reference frame:
         [ +0.000000 +0.000000 +0.000000 ]
     Net charge: -1   dipole magnitude: 0
     Initializing gaussian mfKernel with width: 1.55004 Bohr
     deltaS corrections:
       site 'Na': -22.3555
   Initializing fluid molecule 'F-'
     Initializing site 'F'
       Electron density: proportional to exp(-r/0.38886)*erfc((r-0)/0.438782) with norm 8
       Charge density: gaussian nuclear width 0.374796 with net site charge 1
       Hard sphere radius: 2.39995 bohrs
       Positions in reference frame:
         [ +0.000000 +0.000000 +0.000000 ]
     Net charge: 1   dipole magnitude: 0
     Initializing gaussian mfKernel with width: 1.59012 Bohr
     deltaS corrections:
       site 'F': -9.04335

Correction to mu due to finite nuclear width = -0.0120641
   Cavity determined by nc: 0.00142 and sigma: 0.707107
   Nonlocal vdW cavity from gaussian model electron density with norm = 8 and sigma = 0.993594 bohr
   Charge asymmetry in cavity with sensitivity pCavity = 36.5 e-bohr/Eh
   Electrostatic cavity expanded by eta = 1.46 bohrs
   Weighted density cavitation model constrained by Nbulk: 0.0049383 bohr^-3, Pvap: 3.14029 kPa, Rvdw: 2.61727 bohr and sigmaBulk: 4.62e-05 Eh/bohr^2 at T: 298 K.
   Weighted density dispersion model using vdW pair potentials with single solvent site with sqrtC6eff: 0.77 SI.
Reading fluid state from 'NbTe2.fluidState'


---- Citations for features of the code used in this run ----

   Software package:
      R. Sundararaman, K. Letchworth-Weaver, K.A. Schwarz, D. Gunceler, Y. Ozhabes and T.A. Arias, 'JDFTx: software for joint density-functional theory', SoftwareX 6, 278 (2017)

   gga-PBE exchange-correlation functional:
      J.P. Perdew, K. Burke and M. Ernzerhof, Phys. Rev. Lett. 77, 3865 (1996)

   Pseudopotentials:
      KF Garrity, JW Bennett, KM Rabe and D Vanderbilt, Comput. Mater. Sci. 81, 446 (2014)

   Truncated Coulomb potentials:
      R. Sundararaman and T.A. Arias, Phys. Rev. B 87, 165122 (2013)

   Van der Waals correction pair-potentials:
      S. Grimme, J. Comput. Chem. 27, 1787 (2006)

   Charge-asymmetric nonlocally-determined local-electric (CANDLE) solvation model:
      R. Sundararaman and W.A. Goddard III, J. Chem. Phys. 142, 064107 (2015)

This list may not be complete. Please suggest additional citations or
report any other bugs at https://github.com/shankar1729/jdftx/issues

Initialization completed successfully at t[s]:    973.45

Fluid solver invoked on fresh (partially random / LCAO) wavefunctions
Running a vacuum solve first:

-------- Initial electronic minimization -----------
Will mix electronic density at each iteration.
	FillingsUpdate:  mu: -0.199438819  nElectrons: 415.500000  magneticMoment: [ Abs: 0.00119  Tot: +0.00000 ]
	FillingsUpdate:  mu: -0.205417716  nElectrons: 415.500000  magneticMoment: [ Abs: 0.00119  Tot: +0.00000 ]
SCF: Cycle:  0   F: -1428.681299316398281   dF: -7.738e-01   |Residual|: 5.805e-01   |deigs|: 6.753e-02  t[s]:   1163.07
	FillingsUpdate:  mu: -0.198878412  nElectrons: 415.500000  magneticMoment: [ Abs: 0.00106  Tot: +0.00000 ]
SCF: Cycle:  1   F: -1429.612070896923569   dF: -9.308e-01   |Residual|: 2.657e-01   |deigs|: 1.319e-02  t[s]:   1306.18
	FillingsUpdate:  mu: -0.189622293  nElectrons: 415.500000  magneticMoment: [ Abs: 0.00118  Tot: +0.00000 ]
SCF: Cycle:  2   F: -1429.872946549060089   dF: -2.609e-01   |Residual|: 8.609e-02   |deigs|: 1.218e-02  t[s]:   1450.92
	FillingsUpdate:  mu: -0.185194813  nElectrons: 415.500000  magneticMoment: [ Abs: 0.00066  Tot: +0.00000 ]
SCF: Cycle:  3   F: -1429.890493992227448   dF: -1.755e-02   |Residual|: 5.241e-02   |deigs|: 4.317e-03  t[s]:   1596.29
	FillingsUpdate:  mu: -0.176212575  nElectrons: 415.500000  magneticMoment: [ Abs: 0.00076  Tot: +0.00000 ]
SCF: Cycle:  4   F: -1429.893130560478085   dF: -2.637e-03   |Residual|: 3.363e-02   |deigs|: 8.340e-03  t[s]:   1741.14
	FillingsUpdate:  mu: -0.172457304  nElectrons: 415.500000  magneticMoment: [ Abs: 0.00044  Tot: +0.00000 ]
SCF: Cycle:  5   F: -1429.900586494108666   dF: -7.456e-03   |Residual|: 1.695e-02   |deigs|: 3.720e-03  t[s]:   1885.20
	FillingsUpdate:  mu: -0.164562185  nElectrons: 415.500000  magneticMoment: [ Abs: 0.00169  Tot: +0.00000 ]
SCF: Cycle:  6   F: -1429.902245948906966   dF: -1.659e-03   |Residual|: 8.665e-03   |deigs|: 7.445e-03  t[s]:   2030.49
	FillingsUpdate:  mu: -0.160478809  nElectrons: 415.500000  magneticMoment: [ Abs: 0.00194  Tot: +0.00000 ]
SCF: Cycle:  7   F: -1429.902620786766192   dF: -3.748e-04   |Residual|: 7.291e-03   |deigs|: 3.927e-03  t[s]:   2174.47
	FillingsUpdate:  mu: -0.155442673  nElectrons: 415.500000  magneticMoment: [ Abs: 0.00247  Tot: -0.00000 ]
SCF: Cycle:  8   F: -1429.902704332458370   dF: -8.355e-05   |Residual|: 6.526e-03   |deigs|: 5.525e-03  t[s]:   2317.82
	FillingsUpdate:  mu: -0.150452427  nElectrons: 415.500000  magneticMoment: [ Abs: 0.00501  Tot: +0.00000 ]
SCF: Cycle:  9   F: -1429.902782579528548   dF: -7.825e-05   |Residual|: 4.184e-03   |deigs|: 5.030e-03  t[s]:   2462.67
	FillingsUpdate:  mu: -0.148470685  nElectrons: 415.500000  magneticMoment: [ Abs: 0.00746  Tot: -0.00000 ]
SCF: Cycle: 10   F: -1429.902813549031180   dF: -3.097e-05   |Residual|: 5.182e-03   |deigs|: 2.093e-03  t[s]:   2606.95
	FillingsUpdate:  mu: -0.145053797  nElectrons: 415.500000  magneticMoment: [ Abs: 0.01430  Tot: +0.00000 ]
SCF: Cycle: 11   F: -1429.902885976124935   dF: -7.243e-05   |Residual|: 3.555e-03   |deigs|: 3.422e-03  t[s]:   2752.19
	FillingsUpdate:  mu: -0.144188740  nElectrons: 415.500000  magneticMoment: [ Abs: 0.01450  Tot: +0.00000 ]
SCF: Cycle: 12   F: -1429.902898665176281   dF: -1.269e-05   |Residual|: 1.212e-03   |deigs|: 9.561e-04  t[s]:   2896.60
	FillingsUpdate:  mu: -0.143142186  nElectrons: 415.500000  magneticMoment: [ Abs: 0.00286  Tot: -0.00000 ]
SCF: Cycle: 13   F: -1429.902900745724537   dF: -2.081e-06   |Residual|: 7.958e-04   |deigs|: 1.271e-03  t[s]:   3042.28
	FillingsUpdate:  mu: -0.142880164  nElectrons: 415.500000  magneticMoment: [ Abs: 0.00178  Tot: +0.00000 ]
SCF: Cycle: 14   F: -1429.902901679076876   dF: -9.334e-07   |Residual|: 4.054e-04   |deigs|: 3.519e-04  t[s]:   3186.60
	FillingsUpdate:  mu: -0.142672069  nElectrons: 415.500000  magneticMoment: [ Abs: 0.00175  Tot: +0.00000 ]
SCF: Cycle: 15   F: -1429.902901904486953   dF: -2.254e-07   |Residual|: 1.966e-04   |deigs|: 5.094e-04  t[s]:   3331.77
	FillingsUpdate:  mu: -0.142631513  nElectrons: 415.500000  magneticMoment: [ Abs: 0.00094  Tot: +0.00000 ]
SCF: Cycle: 16   F: -1429.902901961508633   dF: -5.702e-08   |Residual|: 7.360e-05   |deigs|: 1.623e-04  t[s]:   3478.02
	FillingsUpdate:  mu: -0.142612267  nElectrons: 415.500000  magneticMoment: [ Abs: 0.00044  Tot: +0.00000 ]
SCF: Cycle: 17   F: -1429.902901981630976   dF: -2.012e-08   |Residual|: 3.921e-05   |deigs|: 1.407e-04  t[s]:   3622.71
	FillingsUpdate:  mu: -0.142615278  nElectrons: 415.500000  magneticMoment: [ Abs: 0.00013  Tot: +0.00000 ]
SCF: Cycle: 18   F: -1429.902901988258009   dF: -6.627e-09   |Residual|: 1.553e-05   |deigs|: 9.918e-05  t[s]:   3767.15
	FillingsUpdate:  mu: -0.142616930  nElectrons: 415.500000  magneticMoment: [ Abs: 0.00003  Tot: +0.00000 ]
SCF: Cycle: 19   F: -1429.902901990554028   dF: -2.296e-09   |Residual|: 9.637e-06   |deigs|: 5.309e-05  t[s]:   3905.78
SCF: Converged (|Delta E|<1.000000e-08 for 2 iters).

Vacuum energy after initial minimize, F = -1429.902901990554028

	FillingsUpdate:  mu: -0.142616930  nElectrons: 415.500000  magneticMoment: [ Abs: 0.00000  Tot: -0.00000 ]
	Linear fluid (dielectric constant: 78.4, screening length: 5.74355 Bohr) occupying 0.755677 of unit cell:	Completed after 10 iterations at t[s]:   3928.13

-------- Electronic minimization -----------
Will mix electronic density at each iteration.
	FillingsUpdate:  mu: -0.142616930  nElectrons: 415.500000  magneticMoment: [ Abs: 0.00000  Tot: -0.00000 ]
	Linear fluid (dielectric constant: 78.4, screening length: 5.74355 Bohr) occupying 0.755677 of unit cell:	Completed after 0 iterations at t[s]:   3951.37
	FillingsUpdate:  mu: -0.208205410  nElectrons: 415.500000  magneticMoment: [ Abs: 0.00000  Tot: -0.00000 ]
	Linear fluid (dielectric constant: 78.4, screening length: 5.74355 Bohr) occupying 0.756365 of unit cell:	Completed after 12 iterations at t[s]:   4124.08
SCF: Cycle:  0   F: -1429.854679012506040   dF: +5.194e-04   |Residual|: 7.353e-03   |deigs|: 1.061e-03  t[s]:   4132.90
	Linear fluid (dielectric constant: 78.4, screening length: 5.74355 Bohr) occupying 0.755431 of unit cell:	Completed after 10 iterations at t[s]:   4134.90
	FillingsUpdate:  mu: -0.207313533  nElectrons: 415.500000  magneticMoment: [ Abs: 0.00005  Tot: -0.00000 ]
	Linear fluid (dielectric constant: 78.4, screening length: 5.74355 Bohr) occupying 0.756304 of unit cell:	Completed after 12 iterations at t[s]:   4282.43
SCF: Cycle:  1   F: -1429.855351927615175   dF: -6.729e-04   |Residual|: 4.551e-03   |deigs|: 1.043e-03  t[s]:   4291.11
	Linear fluid (dielectric constant: 78.4, screening length: 5.74355 Bohr) occupying 0.755406 of unit cell:	Completed after 11 iterations at t[s]:   4293.36
	FillingsUpdate:  mu: -0.207137676  nElectrons: 415.500000  magneticMoment: [ Abs: 0.00002  Tot: -0.00000 ]
	Linear fluid (dielectric constant: 78.4, screening length: 5.74355 Bohr) occupying 0.756288 of unit cell:	Completed after 12 iterations at t[s]:   4441.26
SCF: Cycle:  2   F: -1429.855361090811812   dF: -9.163e-06   |Residual|: 1.827e-03   |deigs|: 3.520e-04  t[s]:   4450.45
	Linear fluid (dielectric constant: 78.4, screening length: 5.74355 Bohr) occupying 0.755397 of unit cell:	Completed after 10 iterations at t[s]:   4453.68
	FillingsUpdate:  mu: -0.206487342  nElectrons: 415.500000  magneticMoment: [ Abs: 0.00002  Tot: -0.00000 ]
	Linear fluid (dielectric constant: 78.4, screening length: 5.74355 Bohr) occupying 0.756243 of unit cell:	Completed after 9 iterations at t[s]:   4599.79
SCF: Cycle:  3   F: -1429.855402473035838   dF: -4.138e-05   |Residual|: 1.038e-03   |deigs|: 6.923e-04  t[s]:   4607.91
	Linear fluid (dielectric constant: 78.4, screening length: 5.74355 Bohr) occupying 0.755671 of unit cell:	Completed after 9 iterations at t[s]:   4610.23
	FillingsUpdate:  mu: -0.205987915  nElectrons: 415.500000  magneticMoment: [ Abs: 0.00004  Tot: -0.00000 ]
	Linear fluid (dielectric constant: 78.4, screening length: 5.74355 Bohr) occupying 0.756227 of unit cell:	Completed after 9 iterations at t[s]:   4756.70
SCF: Cycle:  4   F: -1429.855407447691050   dF: -4.975e-06   |Residual|: 5.078e-04   |deigs|: 5.475e-04  t[s]:   4765.06
	Linear fluid (dielectric constant: 78.4, screening length: 5.74355 Bohr) occupying 0.755931 of unit cell:	Completed after 8 iterations at t[s]:   4766.84
	FillingsUpdate:  mu: -0.205701399  nElectrons: 415.500000  magneticMoment: [ Abs: 0.00007  Tot: -0.00000 ]
	Linear fluid (dielectric constant: 78.4, screening length: 5.74355 Bohr) occupying 0.756217 of unit cell:	Completed after 7 iterations at t[s]:   4911.77
SCF: Cycle:  5   F: -1429.855410082815979   dF: -2.635e-06   |Residual|: 3.657e-04   |deigs|: 3.552e-04  t[s]:   4919.55
	Linear fluid (dielectric constant: 78.4, screening length: 5.74355 Bohr) occupying 0.756181 of unit cell:	Completed after 6 iterations at t[s]:   4921.39
	FillingsUpdate:  mu: -0.205597753  nElectrons: 415.500000  magneticMoment: [ Abs: 0.00006  Tot: -0.00000 ]
	Linear fluid (dielectric constant: 78.4, screening length: 5.74355 Bohr) occupying 0.756220 of unit cell:	Completed after 7 iterations at t[s]:   5065.79
SCF: Cycle:  6   F: -1429.855410275820077   dF: -1.930e-07   |Residual|: 2.309e-04   |deigs|: 1.570e-04  t[s]:   5073.68
	Linear fluid (dielectric constant: 78.4, screening length: 5.74355 Bohr) occupying 0.756347 of unit cell:	Completed after 2 iterations at t[s]:   5075.07
	FillingsUpdate:  mu: -0.205478012  nElectrons: 415.500000  magneticMoment: [ Abs: 0.00019  Tot: -0.00000 ]
	Linear fluid (dielectric constant: 78.4, screening length: 5.74355 Bohr) occupying 0.756217 of unit cell:	Completed after 2 iterations at t[s]:   5218.83
SCF: Cycle:  7   F: -1429.855410838021271   dF: -5.622e-07   |Residual|: 1.749e-04   |deigs|: 2.392e-04  t[s]:   5225.75
	Linear fluid (dielectric constant: 78.4, screening length: 5.74355 Bohr) occupying 0.756339 of unit cell:	Completed after 2 iterations at t[s]:   5227.07
	FillingsUpdate:  mu: -0.205511178  nElectrons: 415.500000  magneticMoment: [ Abs: 0.00035  Tot: +0.00000 ]
	Linear fluid (dielectric constant: 78.4, screening length: 5.74355 Bohr) occupying 0.756218 of unit cell:	Completed after 2 iterations at t[s]:   5370.91
SCF: Cycle:  8   F: -1429.855410840800687   dF: -2.779e-09   |Residual|: 1.680e-04   |deigs|: 1.800e-04  t[s]:   5378.04
	Linear fluid (dielectric constant: 78.4, screening length: 5.74355 Bohr) occupying 0.756286 of unit cell:	Completed after 2 iterations at t[s]:   5379.74
	FillingsUpdate:  mu: -0.205492570  nElectrons: 415.500000  magneticMoment: [ Abs: 0.00053  Tot: -0.00000 ]
	Linear fluid (dielectric constant: 78.4, screening length: 5.74355 Bohr) occupying 0.756216 of unit cell:	Completed after 0 iterations at t[s]:   5524.91
SCF: Cycle:  9   F: -1429.855410837946692   dF: +2.854e-09   |Residual|: 1.218e-04   |deigs|: 5.547e-04  t[s]:   5531.65
	Linear fluid (dielectric constant: 78.4, screening length: 5.74355 Bohr) occupying 0.756234 of unit cell:	Completed after 0 iterations at t[s]:   5532.79
	FillingsUpdate:  mu: -0.205488721  nElectrons: 415.500000  magneticMoment: [ Abs: 0.00093  Tot: +0.00000 ]
	Linear fluid (dielectric constant: 78.4, screening length: 5.74355 Bohr) occupying 0.756213 of unit cell:	Completed after 0 iterations at t[s]:   5675.12
SCF: Cycle: 10   F: -1429.855410859553103   dF: -2.161e-08   |Residual|: 7.347e-05   |deigs|: 4.031e-04  t[s]:   5681.38
	Linear fluid (dielectric constant: 78.4, screening length: 5.74355 Bohr) occupying 0.756198 of unit cell:	Completed after 0 iterations at t[s]:   5682.35
	FillingsUpdate:  mu: -0.205488687  nElectrons: 415.500000  magneticMoment: [ Abs: 0.00032  Tot: +0.00000 ]
	Linear fluid (dielectric constant: 78.4, screening length: 5.74355 Bohr) occupying 0.756210 of unit cell:	Completed after 0 iterations at t[s]:   5826.79
SCF: Cycle: 11   F: -1429.855410928737001   dF: -6.918e-08   |Residual|: 4.481e-05   |deigs|: 3.136e-04  t[s]:   5832.86
	Linear fluid (dielectric constant: 78.4, screening length: 5.74355 Bohr) occupying 0.756195 of unit cell:	Completed after 0 iterations at t[s]:   5833.79
	FillingsUpdate:  mu: -0.205488596  nElectrons: 415.500000  magneticMoment: [ Abs: 0.00019  Tot: +0.00000 ]
	Linear fluid (dielectric constant: 78.4, screening length: 5.74355 Bohr) occupying 0.756209 of unit cell:	Completed after 0 iterations at t[s]:   5972.34
SCF: Cycle: 12   F: -1429.855410958512493   dF: -2.978e-08   |Residual|: 4.050e-05   |deigs|: 1.496e-04  t[s]:   5978.63
	Linear fluid (dielectric constant: 78.4, screening length: 5.74355 Bohr) occupying 0.756207 of unit cell:	Completed after 2 iterations at t[s]:   5980.01
	FillingsUpdate:  mu: -0.205511497  nElectrons: 415.500000  magneticMoment: [ Abs: 0.00015  Tot: +0.00000 ]
	Linear fluid (dielectric constant: 78.4, screening length: 5.74355 Bohr) occupying 0.756210 of unit cell:	Completed after 2 iterations at t[s]:   6123.90
SCF: Cycle: 13   F: -1429.855410477790656   dF: +4.807e-07   |Residual|: 3.304e-04   |deigs|: 2.447e-04  t[s]:   6130.65
	Linear fluid (dielectric constant: 78.4, screening length: 5.74355 Bohr) occupying 0.756207 of unit cell:	Completed after 1 iterations at t[s]:   6131.89
	FillingsUpdate:  mu: -0.205501122  nElectrons: 415.500000  magneticMoment: [ Abs: 0.00016  Tot: +0.00000 ]
	Linear fluid (dielectric constant: 78.4, screening length: 5.74355 Bohr) occupying 0.756210 of unit cell:	Completed after 3 iterations at t[s]:   6275.03
SCF: Cycle: 14   F: -1429.855410738724231   dF: -2.609e-07   |Residual|: 2.530e-04   |deigs|: 3.128e-05  t[s]:   6281.73
	Linear fluid (dielectric constant: 78.4, screening length: 5.74355 Bohr) occupying 0.756208 of unit cell:	Completed after 2 iterations at t[s]:   6282.80
	FillingsUpdate:  mu: -0.205508689  nElectrons: 415.500000  magneticMoment: [ Abs: 0.00015  Tot: +0.00000 ]
	Linear fluid (dielectric constant: 78.4, screening length: 5.74355 Bohr) occupying 0.756210 of unit cell:	Completed after 2 iterations at t[s]:   6423.67
SCF: Cycle: 15   F: -1429.855410697748539   dF: +4.098e-08   |Residual|: 2.561e-04   |deigs|: 1.335e-05  t[s]:   6430.28
	Linear fluid (dielectric constant: 78.4, screening length: 5.74355 Bohr) occupying 0.756208 of unit cell:	Completed after 3 iterations at t[s]:   6431.90
	FillingsUpdate:  mu: -0.205506834  nElectrons: 415.500000  magneticMoment: [ Abs: 0.00007  Tot: +0.00000 ]
	Linear fluid (dielectric constant: 78.4, screening length: 5.74355 Bohr) occupying 0.756210 of unit cell:	Completed after 2 iterations at t[s]:   6574.13
SCF: Cycle: 16   F: -1429.855410813820754   dF: -1.161e-07   |Residual|: 1.769e-04   |deigs|: 2.603e-05  t[s]:   6581.10
	Linear fluid (dielectric constant: 78.4, screening length: 5.74355 Bohr) occupying 0.756208 of unit cell:	Completed after 2 iterations at t[s]:   6582.75
	FillingsUpdate:  mu: -0.205496584  nElectrons: 415.500000  magneticMoment: [ Abs: 0.00001  Tot: +0.00000 ]
	Linear fluid (dielectric constant: 78.4, screening length: 5.74355 Bohr) occupying 0.756210 of unit cell:	Completed after 0 iterations at t[s]:   6726.33
SCF: Cycle: 17   F: -1429.855410970958701   dF: -1.571e-07   |Residual|: 1.862e-05   |deigs|: 5.717e-05  t[s]:   6732.28
	Linear fluid (dielectric constant: 78.4, screening length: 5.74355 Bohr) occupying 0.756209 of unit cell:	Completed after 0 iterations at t[s]:   6733.11
	FillingsUpdate:  mu: -0.205496600  nElectrons: 415.500000  magneticMoment: [ Abs: 0.00000  Tot: +0.00000 ]
	Linear fluid (dielectric constant: 78.4, screening length: 5.74355 Bohr) occupying 0.756210 of unit cell:	Completed after 0 iterations at t[s]:   6871.34
SCF: Cycle: 18   F: -1429.855410971229503   dF: -2.708e-10   |Residual|: 1.791e-05   |deigs|: 1.727e-05  t[s]:   6877.63
	Linear fluid (dielectric constant: 78.4, screening length: 5.74355 Bohr) occupying 0.756209 of unit cell:	Completed after 0 iterations at t[s]:   6878.60
	FillingsUpdate:  mu: -0.205496574  nElectrons: 415.500000  magneticMoment: [ Abs: 0.00001  Tot: +0.00000 ]
	Linear fluid (dielectric constant: 78.4, screening length: 5.74355 Bohr) occupying 0.756210 of unit cell:	Completed after 0 iterations at t[s]:   7008.84
SCF: Cycle: 19   F: -1429.855410971278388   dF: -4.889e-11   |Residual|: 1.929e-05   |deigs|: 1.741e-05  t[s]:   7014.93
SCF: Converged (|Delta E|<1.000000e-08 for 2 iters).

Single-point solvation energy estimate, DeltaF = +0.047491019275640

# Ionic positions in lattice coordinates:
ion W   0.083334440402778   0.166665545055556   0.500000009000000 1
ion W   0.333334440402778   0.166665545055556   0.500000009000000 1
ion W   0.583334440402778   0.166665545055556   0.500000009000000 1
ion W   0.833334440402778   0.166665545055556   0.500000009000000 1
ion W   0.083334440402778   0.416665545055556   0.500000009000000 1
ion W   0.333334440402778   0.416665545055556   0.500000009000000 1
ion W   0.583334440402778   0.416665545055556   0.500000009000000 1
ion W   0.833334440402778   0.416665545055556   0.500000009000000 1
ion W   0.083334440402778   0.666665545055556   0.500000009000000 1
ion W   0.333334440402778   0.666665545055556   0.500000009000000 1
ion W   0.583334440402778   0.666665545055556   0.500000009000000 1
ion W   0.833334440402778   0.666665545055556   0.500000009000000 1
ion W   0.083334440402778   0.916665545055556   0.500000009000000 1
ion W   0.333334440402778   0.916665545055556   0.500000009000000 1
ion W   0.583334440402778   0.916665545055556   0.500000009000000 1
ion W   0.833334440402778   0.916665545055556   0.500000009000000 1
ion S   0.166667773736112   0.083332211722223   0.413136339362868 1
ion S   0.166667773736112   0.083332211722223   0.586863678637132 1
ion S   0.416667773736112   0.083332211722223   0.413136339362868 1
ion S   0.416667773736112   0.083332211722223   0.586863678637132 1
ion S   0.666667773736112   0.083332211722223   0.413136339362868 1
ion S   0.666667773736112   0.083332211722223   0.586863678637132 1
ion S   0.916667773736112   0.083332211722223   0.413136339362868 1
ion S   0.916667773736112   0.083332211722223   0.586863678637132 1
ion S   0.166667773736112   0.333332211722223   0.413136339362868 1
ion S   0.166667773736112   0.333332211722223   0.586863678637132 1
ion S   0.416667773736112   0.333332211722223   0.413136339362868 1
ion S   0.416667773736112   0.333332211722223   0.586863678637132 1
ion S   0.666667773736112   0.333332211722223   0.413136339362868 1
ion S   0.666667773736112   0.333332211722223   0.586863678637132 1
ion S   0.916667773736112   0.333332211722223   0.413136339362868 1
ion S   0.916667773736112   0.333332211722223   0.586863678637132 1
ion S   0.166667773736112   0.583332211722223   0.413136339362868 1
ion S   0.166667773736112   0.583332211722223   0.586863678637132 1
ion S   0.416667773736112   0.583332211722223   0.413136339362868 1
ion S   0.416667773736112   0.583332211722223   0.586863678637132 1
ion S   0.666667773736112   0.583332211722223   0.413136339362868 1
ion S   0.666667773736112   0.583332211722223   0.586863678637132 1
ion S   0.916667773736112   0.583332211722223   0.413136339362868 1
ion S   0.916667773736112   0.583332211722223   0.586863678637132 1
ion S   0.166667773736112   0.833332211722223   0.413136339362868 1
ion S   0.166667773736112   0.833332211722223   0.586863678637132 1
ion S   0.416667773736112   0.833332211722223   0.413136339362868 1
ion S   0.416667773736112   0.833332211722223   0.586863678637132 1
ion S   0.666667773736112   0.833332211722223   0.413136339362868 1
ion S   0.666667773736112   0.833332211722223   0.586863678637132 1
ion S   0.916667773736112   0.833332211722223   0.413136339362868 1
ion S   0.916667773736112   0.833332211722223   0.586863678637132 1


# Forces in Lattice coordinates:
force W  -0.000000000000000  -0.000000000000000  -0.000000000000000 1
force W  -0.000000000000000  -0.000000000000000  -0.000000000000000 1
force W  -0.000000000000000  -0.000000000000000   0.000000000000000 1
force W   0.000000000000000  -0.000000000000000  -0.000000000000000 1
force W   0.000000000000000  -0.000000000000000  -0.000000000000000 1
force W  -0.000000000000000  -0.000000000000000  -0.000000000000000 1
force W  -0.000000000000000  -0.000000000000000   0.000000000000000 1
force W   0.000000000000000   0.000000000000000  -0.000000000000000 1
force W   0.000000000000000  -0.000000000000000  -0.000000000000000 1
force W  -0.000000000000000  -0.000000000000000   0.000000000000000 1
force W   0.000000000000000  -0.000000000000000   0.000000000000000 1
force W   0.000000000000000  -0.000000000000000  -0.000000000000000 1
force W  -0.000000000000000  -0.000000000000000  -0.000000000000000 1
force W   0.000000000000000  -0.000000000000000   0.000000000000000 1
force W  -0.000000000000000  -0.000000000000000   0.000000000000000 1
force W   0.000000000000000  -0.000000000000000  -0.000000000000000 1
force S  -0.000000000000000  -0.000000000000000  -0.001096917344663 1
force S   0.000000000000000   0.000000000000000   0.001096917344664 1
force S  -0.000000000000000  -0.000000000000000  -0.001096917344550 1
force S   0.000000000000000  -0.000000000000000   0.001096917344665 1
force S  -0.000000000000000   0.000000000000000  -0.001096917344665 1
force S  -0.000000000000000   0.000000000000000   0.001096917344208 1
force S   0.000000000000000   0.000000000000000  -0.001096917344664 1
force S   0.000000000000000   0.000000000000000   0.001096917344663 1
force S   0.000000000000000  -0.000000000000000  -0.001096917344663 1
force S   0.000000000000000  -0.000000000000000   0.001096917344436 1
force S  -0.000000000000000  -0.000000000000000  -0.001096917344548 1
force S   0.000000000000000  -0.000000000000000   0.001096917344664 1
force S   0.000000000000000  -0.000000000000000  -0.001096917344550 1
force S  -0.000000000000000  -0.000000000000000   0.001096917344663 1
force S   0.000000000000000  -0.000000000000000  -0.001096917344551 1
force S  -0.000000000000000  -0.000000000000000   0.001096917344663 1
force S  -0.000000000000000  -0.000000000000000  -0.001096917344664 1
force S   0.000000000000000   0.000000000000000   0.001096917344891 1
force S  -0.000000000000000  -0.000000000000000  -0.001096917344663 1
force S   0.000000000000000   0.000000000000000   0.001096917344549 1
force S  -0.000000000000000  -0.000000000000000  -0.001096917344663 1
force S   0.000000000000000   0.000000000000000   0.001096917344665 1
force S  -0.000000000000000  -0.000000000000000  -0.001096917344664 1
force S   0.000000000000000   0.000000000000000   0.001096917344891 1
force S   0.000000000000000   0.000000000000000  -0.001096917344549 1
force S  -0.000000000000000   0.000000000000000   0.001096917344665 1
force S   0.000000000000000  -0.000000000000000  -0.001096917344891 1
force S  -0.000000000000000   0.000000000000000   0.001096917344663 1
force S  -0.000000000000000  -0.000000000000000  -0.001096917344891 1
force S   0.000000000000000   0.000000000000000   0.001096917344549 1
force S   0.000000000000000   0.000000000000000  -0.001096917344549 1
force S   0.000000000000000   0.000000000000000   0.001096917344891 1

# Energy components:
   A_diel =        0.0412467945009785
   Eewald =     8742.7957270371007326
       EH =     9879.6205113094019907
     Eloc =   -20136.1760775540133181
      Enl =     -179.1376136533027932
      Exc =     -465.3548896552759402
 Exc_core =      230.1592926414743374
       KE =      498.2000910008016490
  MuShift =        0.0060320336269243
-------------------------------------
     Etot =    -1429.8456800456856399
       TS =        0.0097309255928097
-------------------------------------
        F =    -1429.8554109712783884

IonicMinimize: Iter:   0  F: -1429.855410971278388  |grad|_K:  1.508e-05  t[s]:   7034.67
IonicMinimize: Converged (|grad|_K<1.000000e-04).

#--- Lowdin population analysis ---
# oxidation-state W -0.528 -0.528 -0.528 -0.528 -0.528 -0.528 -0.528 -0.528 -0.528 -0.528 -0.528 -0.528 -0.528 -0.528 -0.528 -0.528
# magnetic-moments W -0.000 -0.000 -0.000 -0.000 -0.000 -0.000 -0.000 -0.000 -0.000 -0.000 -0.000 -0.000 -0.000 -0.000 -0.000 -0.000
# oxidation-state S +0.348 +0.348 +0.348 +0.348 +0.348 +0.348 +0.348 +0.348 +0.348 +0.348 +0.348 +0.348 +0.348 +0.348 +0.348 +0.348 +0.348 +0.348 +0.348 +0.348 +0.348 +0.348 +0.348 +0.348 +0.348 +0.348 +0.348 +0.348 +0.348 +0.348 +0.348 +0.348
# magnetic-moments S +0.000 +0.000 +0.000 +0.000 +0.000 +0.000 +0.000 +0.000 +0.000 +0.000 +0.000 +0.000 +0.000 +0.000 +0.000 +0.000 +0.000 +0.000 +0.000 +0.000 +0.000 +0.000 +0.000 +0.000 +0.000 +0.000 +0.000 +0.000 +0.000 +0.000 +0.000 +0.000


Dumping 'NbTe2.fillings' ... done
Dumping 'NbTe2.wfns' ... done
Dumping 'NbTe2.fluidState' ... done
Dumping 'NbTe2.ionpos' ... done
Dumping 'NbTe2.eigenvals' ... done
End date and time: Fri Jan 22 08:57:39 2021  (Duration: 0-1:57:26.24)
Done!
