
*************** JDFTx 1.5.0  ***************

Start date and time: Fri Jul 10 14:33:59 2020
Executable jdftx_gpu with command-line: -i Charged.in -o Charged.out
Running on hosts (process indices):  amax (0)
Divided in process groups (process indices):  0 (0)
gpuInit: Found compatible cuda device 0 'Tesla K80'
gpuInit: Selected device 0
Resource initialization completed at t[s]:     16.45
Run totals: 1 processes, 24 threads, 1 GPUs


Input parsed successfully to the following command list (including defaults):

basis kpoint-dependent
cache-projectors no
coords-type Lattice
core-overlap-check none
coulomb-interaction Slab 001
coulomb-truncation-embed 0 0 0.5
davidson-band-ratio 1.1
dump End State
dump-name NbTe2.$VAR
elec-cutoff 20 100
elec-eigen-algo Davidson
elec-ex-corr gga-PBE
elec-smearing Gauss 0.0073499
electronic-minimize  \
	dirUpdateScheme      FletcherReeves \
	linminMethod         DirUpdateRecommended \
	nIterations          500 \
	history              15 \
	knormThreshold       0 \
	energyDiffThreshold  1e-08 \
	nEnergyDiff          2 \
	alphaTstart          1 \
	alphaTmin            1e-10 \
	updateTestStepSize   yes \
	alphaTreduceFactor   0.1 \
	alphaTincreaseFactor 3 \
	nAlphaAdjustMax      3 \
	wolfeEnergy          0.0001 \
	wolfeGradient        0.9 \
	fdTest               no
exchange-regularization WignerSeitzTruncated
fluid LinearPCM 298.000000 1.013250
fluid-anion F- 1 MeanFieldLJ \
	epsBulk 1 \
	pMol 0 \
	epsInf 1 \
	Pvap 0 \
	sigmaBulk 0 \
	Rvdw 2.24877 \
	Res 0 \
	tauNuc 343133
fluid-cation Na+ 1 MeanFieldLJ \
	epsBulk 1 \
	pMol 0 \
	epsInf 1 \
	Pvap 0 \
	sigmaBulk 0 \
	Rvdw 2.19208 \
	Res 0 \
	tauNuc 343133
fluid-ex-corr lda-TF lda-PZ
fluid-gummel-loop 10 1.000000e-05
fluid-minimize  \
	dirUpdateScheme      PolakRibiere \
	linminMethod         DirUpdateRecommended \
	nIterations          400 \
	history              15 \
	knormThreshold       1e-11 \
	energyDiffThreshold  0 \
	nEnergyDiff          2 \
	alphaTstart          1 \
	alphaTmin            1e-10 \
	updateTestStepSize   yes \
	alphaTreduceFactor   0.1 \
	alphaTincreaseFactor 3 \
	nAlphaAdjustMax      6 \
	wolfeEnergy          0.0001 \
	wolfeGradient        0.9 \
	fdTest               no
fluid-solvent H2O 55.338 ScalarEOS \
	epsBulk 78.4 \
	pMol 0.92466 \
	epsInf 1.77 \
	Pvap 1.06736e-10 \
	sigmaBulk 4.62e-05 \
	Rvdw 2.61727 \
	Res 1.42 \
	tauNuc 343133 \
	poleEl 15 7 1
forces-output-coords Positions
initial-state NbTe2.$VAR
ion Nb   0.171056516910880   0.183785760875219   0.502996258784355 0
ion Nb   0.011228634651550   0.978361803012719   0.496227089822118 0
ion Nb   0.800825987166474   0.801511341113457   0.499258931678658 0
ion Nb   0.587846370996898   0.623268650882456   0.501546725404750 0
ion Nb   0.501910886307493  -0.017068875021085   0.498093426466957 0
ion Nb   0.377846394593316   0.424328582424802   0.505543833561041 0
ion Nb   0.299210080461383   0.803688045811647   0.499529621583513 0
ion Nb   0.091548535471230   0.622020003259719   0.501065393206628 0
ion Nb   0.887448123244524   0.382988266068806   0.498493407949521 0
ion Ir   0.737600938107144   0.210115485207994   0.498704399430130 0
ion Se   0.940390986320072   0.266441468867774   0.597968971983462 0
ion Se   0.168208941189456   0.335183896773771   0.415681799136954 0
ion Se   0.736260257720267   0.070840813074457   0.575079881923716 0
ion Se   0.967203950763204   0.128062994415855   0.407161769084807 0
ion Se   0.535823523617193   0.865439227834846   0.595151430094873 0
ion Se   0.442459665646364   0.267052925618411   0.573024915077766 0
ion Se   0.764300945751420   0.932552080100940   0.402841721751652 0
ion Se   0.655063828579504   0.335711626989312   0.409502082345969 0
ion Se   0.327629681338209   0.673533149795838   0.596850042855847 0
ion Se   0.228807919460989   0.057712841785805   0.590738130141944 0
ion Se   0.482355055435204   0.139677387187171   0.424020029036295 0
ion Se   0.564110456027055   0.740166564400058   0.404143821004716 0
ion Se   0.117647288773673   0.474573619875488   0.590700595209513 0
ion Se   0.032085350688003   0.863627894963915   0.595330667589639 0
ion Se   0.359192648526983   0.543598888873841   0.409978992118082 0
ion Se   0.270567238915319   0.933186326460050   0.400467008415275 0
ion Se   0.828489149234575   0.672206764471261   0.596380888271113 0
ion Se   0.063448476163298   0.739679839341776   0.404059214602159 0
ion Se   0.636320591374670   0.473796121505641   0.587564761768442 0
ion Se   0.860066576563641   0.535576504028105   0.421894189700057 0
ion-species GBRV/$ID_pbe.uspp
ion-width Ecut
ionic-minimize  \
	dirUpdateScheme      L-BFGS \
	linminMethod         DirUpdateRecommended \
	nIterations          0 \
	history              15 \
	knormThreshold       0.0001 \
	energyDiffThreshold  1e-06 \
	nEnergyDiff          2 \
	alphaTstart          1 \
	alphaTmin            1e-10 \
	updateTestStepSize   yes \
	alphaTreduceFactor   0.1 \
	alphaTincreaseFactor 3 \
	nAlphaAdjustMax      3 \
	wolfeEnergy          0.0001 \
	wolfeGradient        0.9 \
	fdTest               no
kpoint   0.000000000000   0.000000000000   0.000000000000  1.00000000000000
kpoint-folding 5 2 1 
latt-move-scale 1 1 1
latt-scale 1 1 1 
lattice Triclinic 13.0583 28.5428 34.8986 90 90 83.5088
lattice-minimize  \
	dirUpdateScheme      L-BFGS \
	linminMethod         DirUpdateRecommended \
	nIterations          0 \
	history              15 \
	knormThreshold       0 \
	energyDiffThreshold  1e-06 \
	nEnergyDiff          2 \
	alphaTstart          1 \
	alphaTmin            1e-10 \
	updateTestStepSize   yes \
	alphaTreduceFactor   0.1 \
	alphaTincreaseFactor 3 \
	nAlphaAdjustMax      3 \
	wolfeEnergy          0.0001 \
	wolfeGradient        0.9 \
	fdTest               no
lcao-params -1 1e-06 0.0073499
pcm-variant CANDLE
spintype no-spin
subspace-rotation-factor 1 yes
symmetries automatic
symmetry-threshold 0.0001
target-mu -0.171252 no




---------- Setting up symmetries ----------

Found 4 point-group symmetries of the bravais lattice
Found 1 space-group symmetries with basis
Applied RMS atom displacement 0 bohrs to make symmetries exact.

---------- Initializing the Grid ----------
R = 
[    13.0583    3.22678          0  ]
[          0    28.3598          0  ]
[          0          0    34.8986  ]
unit cell volume = 12924.1
G =
[   0.481163 -0.0547467          0  ]
[          0   0.221552          0  ]
[          0          0   0.180041  ]
Minimum fftbox size, Smin = [  60  132  160  ]
Chosen fftbox size, S = [  60  140  160  ]

---------- Initializing tighter grid for wavefunction operations ----------
R = 
[    13.0583    3.22678          0  ]
[          0    28.3598          0  ]
[          0          0    34.8986  ]
unit cell volume = 12924.1
G =
[   0.481163 -0.0547467          0  ]
[          0   0.221552          0  ]
[          0          0   0.180041  ]
Minimum fftbox size, Smin = [  56  116  144  ]
Chosen fftbox size, S = [  56  120  144  ]

---------- Exchange Correlation functional ----------
Initalized PBE GGA exchange.
Initalized PBE GGA correlation.

---------- Setting up pseudopotentials ----------
Width of ionic core gaussian charges (only for fluid interactions / plotting) set to 0.397384

Reading pseudopotential file '/home/guoxy/vasp/jdftx-1.5.0/build/pseudopotentials/GBRV/nb_pbe.uspp':
  Title: Nb.  Created by USPP 7.3.6 on 14-9-2013
  Reference state energy: -58.592548.  13 valence electrons in orbitals:
    |400>  occupation: 2  eigenvalue: -2.145853
    |410>  occupation: 6  eigenvalue: -1.268635
    |420>  occupation: 4  eigenvalue: -0.111734
    |500>  occupation: 1  eigenvalue: -0.146332
    |510>  occupation: 0  eigenvalue: -0.040820
  lMax: 2  lLocal: 3  QijEcut: 5
  6 projectors sampled on a log grid with 627 points:
    l: 0  eig: -2.145854  rCut: 1.8
    l: 0  eig: -0.146334  rCut: 1.8
    l: 1  eig: -1.268634  rCut: 2
    l: 1  eig: 0.150000  rCut: 2
    l: 2  eig: -0.040820  rCut: 2.2
    l: 2  eig: 0.150000  rCut: 2.2
  Partial core density with radius 1.2
  Transforming core density to a uniform radial grid of dG=0.02 with 1338 points.
  Transforming local potential to a uniform radial grid of dG=0.02 with 1338 points.
  Transforming nonlocal projectors to a uniform radial grid of dG=0.02 with 432 points.
  Transforming density augmentations to a uniform radial grid of dG=0.02 with 1338 points.
  Transforming atomic orbitals to a uniform radial grid of dG=0.02 with 432 points.
  Core radius for overlap checks: 2.20 bohrs.

Reading pseudopotential file '/home/guoxy/vasp/jdftx-1.5.0/build/pseudopotentials/GBRV/ir_pbe.uspp':
  Title: Ir.  Created by USPP 7.3.6 on 3-2-2014
  Reference state energy: -90.436894.  15 valence electrons in orbitals:
    |510>  occupation: 6  eigenvalue: -2.019590
    |520>  occupation: 8.5  eigenvalue: -0.306422
    |600>  occupation: 0  eigenvalue: -0.312524
    |610>  occupation: 0  eigenvalue: -0.124096
  lMax: 2  lLocal: 3  QijEcut: 5
  7 projectors sampled on a log grid with 745 points:
    l: 0  eig: -0.312523  rCut: 2.55
    l: 0  eig: 0.250000  rCut: 2.55
    l: 1  eig: -2.019590  rCut: 1.62
    l: 1  eig: -0.124096  rCut: 1.62
    l: 1  eig: 1.000000  rCut: 1.62
    l: 2  eig: -0.500000  rCut: 1.65
    l: 2  eig: -0.306421  rCut: 1.65
  Partial core density with radius 1.15
  Transforming core density to a uniform radial grid of dG=0.02 with 1338 points.
  Transforming local potential to a uniform radial grid of dG=0.02 with 1338 points.
  Transforming nonlocal projectors to a uniform radial grid of dG=0.02 with 432 points.
  Transforming density augmentations to a uniform radial grid of dG=0.02 with 1338 points.
  Transforming atomic orbitals to a uniform radial grid of dG=0.02 with 432 points.
  Core radius for overlap checks: 2.55 bohrs.

Reading pseudopotential file '/home/guoxy/vasp/jdftx-1.5.0/build/pseudopotentials/GBRV/se_pbe.uspp':
  Title: Se.  Created by USPP 7.3.6 on 14-9-2013
  Reference state energy: -21.672887.  6 valence electrons in orbitals:
    |400>  occupation: 2  eigenvalue: -0.635284
    |410>  occupation: 4  eigenvalue: -0.239295
  lMax: 2  lLocal: 3  QijEcut: 5
  6 projectors sampled on a log grid with 625 points:
    l: 0  eig: -0.635278  rCut: 1.5
    l: 0  eig: 0.500000  rCut: 1.5
    l: 1  eig: -0.239295  rCut: 1.5
    l: 1  eig: 0.500000  rCut: 1.5
    l: 2  eig: 0.000000  rCut: 1.8
    l: 2  eig: 1.000000  rCut: 1.8
  Partial core density with radius 1.2
  Transforming core density to a uniform radial grid of dG=0.02 with 1338 points.
  Transforming local potential to a uniform radial grid of dG=0.02 with 1338 points.
  Transforming nonlocal projectors to a uniform radial grid of dG=0.02 with 432 points.
  Transforming density augmentations to a uniform radial grid of dG=0.02 with 1338 points.
  Transforming atomic orbitals to a uniform radial grid of dG=0.02 with 432 points.
  Core radius for overlap checks: 1.80 bohrs.

Initialized 3 species with 30 total atoms.

Folded 1 k-points by 5x2x1 to 10 k-points.

---------- Setting up k-points, bands, fillings ----------
Adding inversion symmetry to k-mesh for non-inversion-symmetric unit cell.
Reduced to 6 k-points under symmetry. 
Computing the number of bands and number of electrons
Reading initial fillings from file NbTe2.fillings.
nElectrons: 252.000000   nBands: 209   nStates: 6

----- Setting up reduced wavefunction bases (one per k-point) -----
average nbasis = 55213.300 , ideal nbasis = 55212.649

---------- Setting up coulomb interaction ----------
Fluid mode embedding: using embedded box, but periodic Coulomb kernel.
(Fluid response is responsible for (approximate) separation between periodic images.)
Setting up double-sized grid for truncated Coulomb potentials:
R = 
[    13.0583    3.22678          0  ]
[          0    28.3598          0  ]
[          0          0    69.7973  ]
unit cell volume = 25848.2
G =
[   0.481163 -0.0547467          0  ]
[          0   0.221552          0  ]
[          0          0  0.0900205  ]
Chosen fftbox size, S = [  60  140  320  ]
Integer grid location selected as the embedding center:
   Grid: [  0  0  80  ]
   Lattice: [  0  0  0.5  ]
   Cartesian: [  0  0  17.4493  ]
Constructing Wigner-Seitz cell: 8 faces (6 quadrilaterals, 2 hexagons)
Range-separation parameter for embedded mesh potentials due to point charges: 0.589189 bohrs.

Initializing van der Waals corrections
	NOTE: vdW corrections apply only for interactions with fluid.
	Nb:  C6:  427.91 Eh-a0^6  R0: 3.097 a0
	Ir:  C6:  815.23 Eh-a0^6  R0: 3.326 a0 (WARNING: beyond Grimme's data set)
	Se:  C6:  219.24 Eh-a0^6  R0: 3.347 a0

---------- Setting up ewald sum ----------
Optimum gaussian width for ewald sums = 6.691647 bohr.
Real space sum over 585 unit cells with max indices [  6  4  2  ]
Reciprocal space sum over 5355 terms with max indices [  4  8  17  ]

---------- Allocating electronic variables ----------
Initializing wave functions:  reading from 'NbTe2.wfns'
----- createFluidSolver() ----- (Fluid-side solver setup)
   Initializing fluid molecule 'H2O'
     Initializing site 'O'
       Electron density: proportional to exp(-r/0.36935)*erfc((r-0.51523)/0.36823) with norm 6.826
       Charge density: gaussian nuclear width 0.478731 with net site charge 0.826
       Polarizability: cuspless exponential with width 0.32 and norm 3.73
       Hard sphere radius: 2.57003 bohrs
       Positions in reference frame:
         [ +0.000000 +0.000000 +0.000000 ]
     Initializing site 'H'
       Electron density: proportional to exp(-r/0.34641)*erfc((r-0)/0.390882) with norm 0.587
       Charge density: gaussian nuclear width 0.377945 with net site charge -0.413
       Polarizability: cuspless exponential with width 0.39 and norm 3.3
       Positions in reference frame:
         [ +0.000000 -1.441945 +1.122523 ]
         [ +0.000000 +1.441945 +1.122523 ]
     Net charge: 0   dipole magnitude: 0.927204
     Initializing spherical shell mfKernel with radius 2.61727 Bohr
     deltaS corrections:
       site 'O': -7.54299
       site 'H': -6.83917
   Initializing fluid molecule 'Na+'
     Initializing site 'Na'
       Electron density: proportional to exp(-r/0.19682)*erfc((r-0.71491)/0.41314) with norm 8.1383
       Charge density: gaussian nuclear width 0.365347 with net site charge -1
       Hard sphere radius: 1.86327 bohrs
       Positions in reference frame:
         [ +0.000000 +0.000000 +0.000000 ]
     Net charge: -1   dipole magnitude: 0
     Initializing gaussian mfKernel with width: 1.55004 Bohr
     deltaS corrections:
       site 'Na': -22.3555
   Initializing fluid molecule 'F-'
     Initializing site 'F'
       Electron density: proportional to exp(-r/0.38886)*erfc((r-0)/0.438782) with norm 8
       Charge density: gaussian nuclear width 0.374796 with net site charge 1
       Hard sphere radius: 2.39995 bohrs
       Positions in reference frame:
         [ +0.000000 +0.000000 +0.000000 ]
     Net charge: 1   dipole magnitude: 0
     Initializing gaussian mfKernel with width: 1.59012 Bohr
     deltaS corrections:
       site 'F': -9.04335

Correction to mu due to finite nuclear width = -0.00967321
   Cavity determined by nc: 0.00142 and sigma: 0.707107
   Nonlocal vdW cavity from gaussian model electron density with norm = 8 and sigma = 0.993594 bohr
   Charge asymmetry in cavity with sensitivity pCavity = 36.5 e-bohr/Eh
   Electrostatic cavity expanded by eta = 1.46 bohrs
   Weighted density cavitation model constrained by Nbulk: 0.0049383 bohr^-3, Pvap: 3.14029 kPa, Rvdw: 2.61727 bohr and sigmaBulk: 4.62e-05 Eh/bohr^2 at T: 298 K.
   Weighted density dispersion model using vdW pair potentials with single solvent site with sqrtC6eff: 0.77 SI.
Reading fluid state from 'NbTe2.fluidState'


---- Citations for features of the code used in this run ----

   Software package:
      R. Sundararaman, K. Letchworth-Weaver, K.A. Schwarz, D. Gunceler, Y. Ozhabes and T.A. Arias, 'JDFTx: software for joint density-functional theory', SoftwareX 6, 278 (2017)

   gga-PBE exchange-correlation functional:
      J.P. Perdew, K. Burke and M. Ernzerhof, Phys. Rev. Lett. 77, 3865 (1996)

   Pseudopotentials:
      KF Garrity, JW Bennett, KM Rabe and D Vanderbilt, Comput. Mater. Sci. 81, 446 (2014)

   Truncated Coulomb potentials:
      R. Sundararaman and T.A. Arias, Phys. Rev. B 87, 165122 (2013)

   Van der Waals correction pair-potentials:
      S. Grimme, J. Comput. Chem. 27, 1787 (2006)

   Charge-asymmetric nonlocally-determined local-electric (CANDLE) solvation model:
      R. Sundararaman and W.A. Goddard III, J. Chem. Phys. 142, 064107 (2015)

   Total energy minimization with Auxiliary Hamiltonian:
      C. Freysoldt, S. Boeck, and J. Neugebauer, Phys. Rev. B 79, 241103(R) (2009)

   Grand-canonical (fixed-potential) DFT:
      R. Sundararaman, W. A. Goddard III and T. A. Arias, J. Chem. Phys. 146, 114104 (2017)

This list may not be complete. Please suggest additional citations or
report any other bugs at https://github.com/shankar1729/jdftx/issues

Initialization completed successfully at t[s]:     26.75

Shifting auxilliary hamiltonian by 0.006999 to set nElectrons=252.000000
	Linear fluid (dielectric constant: 78.4, screening length: 5.74355 Bohr) occupying 0.751596 of unit cell:	Completed after 0 iterations at t[s]:     31.60

-------- Electronic minimization -----------
	Linear fluid (dielectric constant: 78.4, screening length: 5.74355 Bohr) occupying 0.751596 of unit cell:	Completed after 0 iterations at t[s]:     36.81
	FillingsUpdate:  mu: -0.171251800  nElectrons: 252.000000
ElecMinimize: Iter:   0  G: -740.933388545003254  |grad|_K:  9.677e-06  alpha:  1.000e+00
	Linear fluid (dielectric constant: 78.4, screening length: 5.74355 Bohr) occupying 0.773024 of unit cell:	Completed after 23 iterations at t[s]:     58.14
	Linear fluid (dielectric constant: 78.4, screening length: 5.74355 Bohr) occupying 0.751596 of unit cell:	Completed after 21 iterations at t[s]:     67.73
	FillingsUpdate:  mu: -0.171251800  nElectrons: 252.115032
	SubspaceRotationAdjust: set factor to 0.541
ElecMinimize: Iter:   1  G: -740.933673045772025  |grad|_K:  5.807e-06  alpha:  6.218e-02  linmin:  1.042e-02  t[s]:     77.72
	Linear fluid (dielectric constant: 78.4, screening length: 5.74355 Bohr) occupying 0.751556 of unit cell:	Completed after 8 iterations at t[s]:     86.41
	Linear fluid (dielectric constant: 78.4, screening length: 5.74355 Bohr) occupying 0.751506 of unit cell:	Completed after 8 iterations at t[s]:     94.32
	FillingsUpdate:  mu: -0.171251800  nElectrons: 252.135748
	SubspaceRotationAdjust: set factor to 0.278
ElecMinimize: Iter:   2  G: -740.933915093328210  |grad|_K:  2.535e-06  alpha:  1.438e-01  linmin:  2.573e-05  t[s]:    103.75
	Linear fluid (dielectric constant: 78.4, screening length: 5.74355 Bohr) occupying 0.751466 of unit cell:	Completed after 10 iterations at t[s]:    112.48
	Linear fluid (dielectric constant: 78.4, screening length: 5.74355 Bohr) occupying 0.751443 of unit cell:	Completed after 10 iterations at t[s]:    120.55
	FillingsUpdate:  mu: -0.171251800  nElectrons: 252.176869
	SubspaceRotationAdjust: set factor to 0.145
ElecMinimize: Iter:   3  G: -740.934022119206588  |grad|_K:  1.550e-06  alpha:  2.407e-01  linmin:  2.886e-05  t[s]:    129.99
	Linear fluid (dielectric constant: 78.4, screening length: 5.74355 Bohr) occupying 0.751374 of unit cell:	Completed after 9 iterations at t[s]:    138.47
	Linear fluid (dielectric constant: 78.4, screening length: 5.74355 Bohr) occupying 0.751267 of unit cell:	Completed after 9 iterations at t[s]:    146.32
	FillingsUpdate:  mu: -0.171251800  nElectrons: 252.190737
	SubspaceRotationAdjust: set factor to 0.0906
	SubspaceRotationAdjust: resetting CG because factor has changed by 0.0905908
	Linear fluid (dielectric constant: 78.4, screening length: 5.74355 Bohr) occupying 0.751267 of unit cell:	Completed after 0 iterations at t[s]:    159.98
ElecMinimize: 	State modified externally: resetting search direction.
ElecMinimize: Iter:   4  G: -740.934124130600367  |grad|_K:  1.050e-06  alpha:  6.169e-01
	Linear fluid (dielectric constant: 78.4, screening length: 5.74355 Bohr) occupying 0.751271 of unit cell:	Completed after 10 iterations at t[s]:    178.37
	Linear fluid (dielectric constant: 78.4, screening length: 5.74355 Bohr) occupying 0.751269 of unit cell:	Completed after 8 iterations at t[s]:    186.27
	FillingsUpdate:  mu: -0.171251800  nElectrons: 252.212702
	SubspaceRotationAdjust: set factor to 0.143
ElecMinimize: Iter:   5  G: -740.934162687312778  |grad|_K:  5.053e-07  alpha:  5.042e-01  linmin:  2.557e-04  t[s]:    195.67
	Linear fluid (dielectric constant: 78.4, screening length: 5.74355 Bohr) occupying 0.751236 of unit cell:	Completed after 4 iterations at t[s]:    204.20
	Linear fluid (dielectric constant: 78.4, screening length: 5.74355 Bohr) occupying 0.751190 of unit cell:	Completed after 6 iterations at t[s]:    212.15
	FillingsUpdate:  mu: -0.171251800  nElectrons: 252.219177
	SubspaceRotationAdjust: set factor to 0.143
ElecMinimize: Iter:   6  G: -740.934183576264559  |grad|_K:  5.101e-07  alpha:  1.200e+00  linmin:  2.993e-04  t[s]:    221.62
	Linear fluid (dielectric constant: 78.4, screening length: 5.74355 Bohr) occupying 0.751079 of unit cell:	Completed after 6 iterations at t[s]:    230.28
	Linear fluid (dielectric constant: 78.4, screening length: 5.74355 Bohr) occupying 0.751113 of unit cell:	Completed after 3 iterations at t[s]:    237.89
	FillingsUpdate:  mu: -0.171251800  nElectrons: 252.229577
	SubspaceRotationAdjust: set factor to 0.189
ElecMinimize: Iter:   7  G: -740.934198302143841  |grad|_K:  3.315e-07  alpha:  8.296e-01  linmin:  6.761e-05  t[s]:    247.50
	Linear fluid (dielectric constant: 78.4, screening length: 5.74355 Bohr) occupying 0.751078 of unit cell:	Completed after 3 iterations at t[s]:    255.69
	Linear fluid (dielectric constant: 78.4, screening length: 5.74355 Bohr) occupying 0.751065 of unit cell:	Completed after 3 iterations at t[s]:    263.51
	FillingsUpdate:  mu: -0.171251800  nElectrons: 252.240141
	SubspaceRotationAdjust: set factor to 0.232
ElecMinimize: Iter:   8  G: -740.934206859897586  |grad|_K:  3.616e-07  alpha:  1.139e+00  linmin:  1.005e-04  t[s]:    273.10
	Linear fluid (dielectric constant: 78.4, screening length: 5.74355 Bohr) occupying 0.751022 of unit cell:	Completed after 8 iterations at t[s]:    281.79
	Linear fluid (dielectric constant: 78.4, screening length: 5.74355 Bohr) occupying 0.751040 of unit cell:	Completed after 6 iterations at t[s]:    289.63
	FillingsUpdate:  mu: -0.171251800  nElectrons: 252.252292
	SubspaceRotationAdjust: set factor to 0.179
ElecMinimize: Iter:   9  G: -740.934212431083893  |grad|_K:  3.361e-07  alpha:  6.506e-01  linmin: -2.911e-05  t[s]:    299.09
	Linear fluid (dielectric constant: 78.4, screening length: 5.74355 Bohr) occupying 0.750975 of unit cell:	Completed after 8 iterations at t[s]:    307.80
	Linear fluid (dielectric constant: 78.4, screening length: 5.74355 Bohr) occupying 0.750998 of unit cell:	Completed after 3 iterations at t[s]:    315.40
	FillingsUpdate:  mu: -0.171251800  nElectrons: 252.250725
	SubspaceRotationAdjust: set factor to 0.128
ElecMinimize: Iter:  10  G: -740.934215768954118  |grad|_K:  2.855e-07  alpha:  4.210e-01  linmin:  1.649e-04  t[s]:    324.82
	Linear fluid (dielectric constant: 78.4, screening length: 5.74355 Bohr) occupying 0.750976 of unit cell:	Completed after 3 iterations at t[s]:    333.13
	Linear fluid (dielectric constant: 78.4, screening length: 5.74355 Bohr) occupying 0.750970 of unit cell:	Completed after 3 iterations at t[s]:    340.75
	FillingsUpdate:  mu: -0.171251800  nElectrons: 252.253960
	SubspaceRotationAdjust: set factor to 0.14
ElecMinimize: Iter:  11  G: -740.934218658567829  |grad|_K:  1.919e-07  alpha:  5.308e-01  linmin: -8.819e-05  t[s]:    350.19
	Linear fluid (dielectric constant: 78.4, screening length: 5.74355 Bohr) occupying 0.750958 of unit cell:	Completed after 3 iterations at t[s]:    358.77
	Linear fluid (dielectric constant: 78.4, screening length: 5.74355 Bohr) occupying 0.750959 of unit cell:	Completed after 0 iterations at t[s]:    366.23
	FillingsUpdate:  mu: -0.171251800  nElectrons: 252.255319
	SubspaceRotationAdjust: set factor to 0.142
ElecMinimize: Iter:  12  G: -740.934219966663363  |grad|_K:  1.065e-07  alpha:  5.033e-01  linmin:  5.398e-05  t[s]:    375.73
	Linear fluid (dielectric constant: 78.4, screening length: 5.74355 Bohr) occupying 0.750951 of unit cell:	Completed after 2 iterations at t[s]:    384.26
	Linear fluid (dielectric constant: 78.4, screening length: 5.74355 Bohr) occupying 0.750948 of unit cell:	Completed after 0 iterations at t[s]:    391.67
	FillingsUpdate:  mu: -0.171251800  nElectrons: 252.253322
	SubspaceRotationAdjust: set factor to 0.186
ElecMinimize: Iter:  13  G: -740.934220537038300  |grad|_K:  7.299e-08  alpha:  7.054e-01  linmin: -1.296e-03  t[s]:    401.21
	Linear fluid (dielectric constant: 78.4, screening length: 5.74355 Bohr) occupying 0.750941 of unit cell:	Completed after 3 iterations at t[s]:    410.03
	Linear fluid (dielectric constant: 78.4, screening length: 5.74355 Bohr) occupying 0.750945 of unit cell:	Completed after 1 iterations at t[s]:    417.73
	FillingsUpdate:  mu: -0.171251800  nElectrons: 252.252284
	SubspaceRotationAdjust: set factor to 0.144
ElecMinimize: Iter:  14  G: -740.934220586629635  |grad|_K:  9.067e-08  alpha:  3.349e-01  linmin:  1.203e-03  t[s]:    427.15
	Linear fluid (dielectric constant: 78.4, screening length: 5.74355 Bohr) occupying 0.750945 of unit cell:	Completed after 2 iterations at t[s]:    435.60
	Linear fluid (dielectric constant: 78.4, screening length: 5.74355 Bohr) occupying 0.750945 of unit cell:	Completed after 0 iterations at t[s]:    442.94
	FillingsUpdate:  mu: -0.171251800  nElectrons: 252.252242
	SubspaceRotationAdjust: set factor to 0.22
ElecMinimize: Iter:  15  G: -740.934220695746035  |grad|_K:  6.271e-08  alpha:  2.094e-01  linmin:  1.329e-03  t[s]:    452.44
	Linear fluid (dielectric constant: 78.4, screening length: 5.74355 Bohr) occupying 0.750947 of unit cell:	Completed after 0 iterations at t[s]:    460.48
ElecMinimize: 	Predicted alpha/alphaT>3.000000, increasing alphaT to 6.282009e-01.
	Linear fluid (dielectric constant: 78.4, screening length: 5.74355 Bohr) occupying 0.750951 of unit cell:	Completed after 3 iterations at t[s]:    467.97
	Linear fluid (dielectric constant: 78.4, screening length: 5.74355 Bohr) occupying 0.750948 of unit cell:	Completed after 0 iterations at t[s]:    475.31
	FillingsUpdate:  mu: -0.171251800  nElectrons: 252.252821
	SubspaceRotationAdjust: set factor to 0.173
ElecMinimize: Iter:  16  G: -740.934220822314842  |grad|_K:  7.902e-08  alpha:  3.050e-01  linmin:  9.117e-03  t[s]:    484.69
	Linear fluid (dielectric constant: 78.4, screening length: 5.74355 Bohr) occupying 0.750951 of unit cell:	Completed after 1 iterations at t[s]:    493.25
	Linear fluid (dielectric constant: 78.4, screening length: 5.74355 Bohr) occupying 0.750949 of unit cell:	Completed after 0 iterations at t[s]:    500.63
ElecMinimize: 	Step increased G by 1.421324e-08, reducing alpha to 1.106617e-02.
	Linear fluid (dielectric constant: 78.4, screening length: 5.74355 Bohr) occupying 0.750948 of unit cell:	Completed after 0 iterations at t[s]:    516.52
ElecMinimize: 	Step increased G by 3.012394e-08, reducing alpha to 1.106617e-03.
	Linear fluid (dielectric constant: 78.4, screening length: 5.74355 Bohr) occupying 0.750948 of unit cell:	Completed after 0 iterations at t[s]:    532.72
ElecMinimize: 	Step increased G by 3.286743e-08, reducing alpha to 1.106617e-04.
ElecMinimize: 	Step failed to reduce G after 3 attempts. Quitting step.
ElecMinimize: 	Undoing step.
	Linear fluid (dielectric constant: 78.4, screening length: 5.74355 Bohr) occupying 0.750948 of unit cell:	Completed after 0 iterations at t[s]:    548.96
ElecMinimize: 	Step failed: resetting search direction.
	FillingsUpdate:  mu: -0.171251800  nElectrons: 252.252820
	SubspaceRotationAdjust: set factor to 0.227
ElecMinimize: Iter:  17  G: -740.934220789412052  |grad|_K:  4.296e-08  alpha:  1.107e-04
	Linear fluid (dielectric constant: 78.4, screening length: 5.74355 Bohr) occupying 0.750948 of unit cell:	Completed after 1 iterations at t[s]:    566.63
	Linear fluid (dielectric constant: 78.4, screening length: 5.74355 Bohr) occupying 0.750948 of unit cell:	Completed after 0 iterations at t[s]:    573.91
	FillingsUpdate:  mu: -0.171251800  nElectrons: 252.252368
	SubspaceRotationAdjust: set factor to 0.181
ElecMinimize: Iter:  18  G: -740.934220833018003  |grad|_K:  2.680e-08  alpha:  3.236e-01  linmin: -1.922e-02  t[s]:    583.25
	Linear fluid (dielectric constant: 78.4, screening length: 5.74355 Bohr) occupying 0.750949 of unit cell:	Completed after 2 iterations at t[s]:    591.44
	Linear fluid (dielectric constant: 78.4, screening length: 5.74355 Bohr) occupying 0.750948 of unit cell:	Completed after 0 iterations at t[s]:    598.76
ElecMinimize: 	Step increased G by 7.017206e-09, reducing alpha to 1.226925e-02.
	Linear fluid (dielectric constant: 78.4, screening length: 5.74355 Bohr) occupying 0.750948 of unit cell:	Completed after 0 iterations at t[s]:    614.44
ElecMinimize: 	Step increased G by 4.928097e-09, reducing alpha to 1.226925e-03.
	Linear fluid (dielectric constant: 78.4, screening length: 5.74355 Bohr) occupying 0.750948 of unit cell:	Completed after 0 iterations at t[s]:    630.10
ElecMinimize: 	Step increased G by 4.806452e-09, reducing alpha to 1.226925e-04.
ElecMinimize: 	Step failed to reduce G after 3 attempts. Quitting step.
ElecMinimize: 	Undoing step.
	Linear fluid (dielectric constant: 78.4, screening length: 5.74355 Bohr) occupying 0.750948 of unit cell:	Completed after 0 iterations at t[s]:    646.10
ElecMinimize: 	Step failed: resetting search direction.
	FillingsUpdate:  mu: -0.171251800  nElectrons: 252.252366
	SubspaceRotationAdjust: set factor to 0.113
ElecMinimize: Iter:  19  G: -740.934220828203024  |grad|_K:  4.599e-08  alpha:  1.227e-04
	Linear fluid (dielectric constant: 78.4, screening length: 5.74355 Bohr) occupying 0.750951 of unit cell:	Completed after 2 iterations at t[s]:    664.10
	Linear fluid (dielectric constant: 78.4, screening length: 5.74355 Bohr) occupying 0.750950 of unit cell:	Completed after 0 iterations at t[s]:    671.47
	FillingsUpdate:  mu: -0.171251800  nElectrons: 252.252754
	SubspaceRotationAdjust: set factor to 0.0683
ElecMinimize: Iter:  20  G: -740.934220837992257  |grad|_K:  3.148e-08  alpha:  1.565e-01  linmin:  7.881e-03  t[s]:    680.86
	Linear fluid (dielectric constant: 78.4, screening length: 5.74355 Bohr) occupying 0.750950 of unit cell:	Completed after 0 iterations at t[s]:    688.99
ElecMinimize: 	Predicted alpha/alphaT>3.000000, increasing alphaT to 4.693830e-01.
	Linear fluid (dielectric constant: 78.4, screening length: 5.74355 Bohr) occupying 0.750952 of unit cell:	Completed after 0 iterations at t[s]:    696.24
	Linear fluid (dielectric constant: 78.4, screening length: 5.74355 Bohr) occupying 0.750955 of unit cell:	Completed after 2 iterations at t[s]:    703.72
	FillingsUpdate:  mu: -0.171251800  nElectrons: 252.253160
	SubspaceRotationAdjust: set factor to 0.0733
ElecMinimize: Iter:  21  G: -740.934220843988783  |grad|_K:  4.016e-08  alpha:  1.288e+00  linmin:  4.182e-03  t[s]:    713.11
ElecMinimize: Converged (|Delta G|<1.000000e-08 for 2 iters).
Setting wave functions to eigenvectors of Hamiltonian

# Ionic positions in lattice coordinates:
ion Nb   0.171056516910880   0.183785760875219   0.502996258784355 0
ion Nb   0.011228634651550   0.978361803012719   0.496227089822118 0
ion Nb   0.800825987166474   0.801511341113457   0.499258931678658 0
ion Nb   0.587846370996898   0.623268650882456   0.501546725404750 0
ion Nb   0.501910886307493  -0.017068875021085   0.498093426466957 0
ion Nb   0.377846394593316   0.424328582424802   0.505543833561041 0
ion Nb   0.299210080461383   0.803688045811647   0.499529621583513 0
ion Nb   0.091548535471230   0.622020003259719   0.501065393206628 0
ion Nb   0.887448123244524   0.382988266068806   0.498493407949521 0
ion Ir   0.737600938107144   0.210115485207994   0.498704399430130 0
ion Se   0.940390986320072   0.266441468867774   0.597968971983462 0
ion Se   0.168208941189456   0.335183896773771   0.415681799136954 0
ion Se   0.736260257720267   0.070840813074457   0.575079881923716 0
ion Se   0.967203950763204   0.128062994415855   0.407161769084807 0
ion Se   0.535823523617193   0.865439227834846   0.595151430094873 0
ion Se   0.442459665646364   0.267052925618411   0.573024915077766 0
ion Se   0.764300945751420   0.932552080100940   0.402841721751652 0
ion Se   0.655063828579504   0.335711626989312   0.409502082345969 0
ion Se   0.327629681338209   0.673533149795838   0.596850042855847 0
ion Se   0.228807919460989   0.057712841785805   0.590738130141944 0
ion Se   0.482355055435204   0.139677387187171   0.424020029036295 0
ion Se   0.564110456027055   0.740166564400058   0.404143821004716 0
ion Se   0.117647288773673   0.474573619875488   0.590700595209513 0
ion Se   0.032085350688003   0.863627894963915   0.595330667589639 0
ion Se   0.359192648526983   0.543598888873841   0.409978992118082 0
ion Se   0.270567238915319   0.933186326460050   0.400467008415275 0
ion Se   0.828489149234575   0.672206764471261   0.596380888271113 0
ion Se   0.063448476163298   0.739679839341776   0.404059214602159 0
ion Se   0.636320591374670   0.473796121505641   0.587564761768442 0
ion Se   0.860066576563641   0.535576504028105   0.421894189700057 0


# Forces in Lattice coordinates:
force Nb  -0.006435395081395   0.048054149297737  -0.001110150471875 0
force Nb   0.000077818765018   0.034833283411626  -0.014259329067026 0
force Nb  -0.004593212659426  -0.001760066257220   0.006696848668339 0
force Nb  -0.002882733535805  -0.024806619398277  -0.000144431428452 0
force Nb  -0.016875349789071   0.014158725233373  -0.011980549542762 0
force Nb   0.028807739034710  -0.001611564926006  -0.042940854576693 0
force Nb  -0.004585318615267  -0.005490289789001   0.005094749667965 0
force Nb   0.011495867633407  -0.012942177869126   0.003161940993355 0
force Nb   0.021605176884216   0.033762264116380   0.042991130464285 0
force Ir  -0.011342231443059  -0.028019830971491  -0.001806568975752 0
force Se  -0.003421289106631  -0.015193172042822   0.008798517450440 0
force Se  -0.004781083638215  -0.027344251797318   0.002527463559284 0
force Se   0.002972570400333   0.015662268196223   0.010675258820130 0
force Se  -0.002160407467314   0.003433516710374  -0.004029776216000 0
force Se  -0.001065319396773   0.003382721745187   0.003554563353127 0
force Se   0.008360357109818   0.003910013607408  -0.001949138265191 0
force Se   0.002899730175582   0.004759261694156  -0.022092639952074 0
force Se  -0.013538764420045  -0.001715632522517   0.004283341962813 0
force Se   0.000428159568719  -0.006068279594516   0.014529847511593 0
force Se   0.002723026547196   0.002828354415881   0.010815517556739 0
force Se   0.001937645211230  -0.011174269645936   0.008924691732973 0
force Se   0.002218901298694  -0.004215952978915  -0.011725523232585 0
force Se  -0.012643792836446  -0.003541880815766   0.022528684003643 0
force Se   0.000812199187601   0.006798006367028   0.006510855256127 0
force Se  -0.001439530222221  -0.009331754720688  -0.011992966107067 0
force Se   0.005609374417716   0.007153901249305  -0.018076797867081 0
force Se  -0.001552444504524  -0.012264432101146   0.008827066119786 0
force Se   0.002232634910169   0.004709451672665  -0.013267979122807 0
force Se  -0.007305352150011  -0.003852505743315   0.023203639379844 0
force Se  -0.000866450768744  -0.015121950526440  -0.016325462387552 0

# Energy components:
   A_diel =       -0.0157600183256055
   Eewald =     4299.9325941193565086
       EH =     4953.8903862164606835
     Eloc =   -10257.1785584581502917
      Enl =      140.5466353564694657
      Exc =     -405.2101411261560315
 Exc_core =      274.4062494290332666
       KE =      209.5262678641122420
  MuShift =       -0.0024488701832042
-------------------------------------
     Etot =     -784.1047754873821987
       TS =        0.0282530753339990
-------------------------------------
        F =     -784.1330285627161629
      muN =      -43.1988077187273944
-------------------------------------
        G =     -740.9342208439887827

IonicMinimize: Iter:   0  G: -740.934220843988783  |grad|_K:  0.000e+00  t[s]:    718.42
IonicMinimize: Converged (|grad|_K<1.000000e-04).

#--- Lowdin population analysis ---
# oxidation-state Nb -0.503 -0.558 -0.604 -0.557 -0.559 -0.521 -0.590 -0.559 -0.516
# oxidation-state Ir -0.887
# oxidation-state Se +0.402 +0.274 +0.323 +0.366 +0.339 +0.259 +0.343 +0.377 +0.319 +0.319 +0.315 +0.351 +0.282 +0.351 +0.305 +0.314 +0.348 +0.356 +0.274 +0.220


Dumping 'NbTe2.fillings' ... done
Dumping 'NbTe2.wfns' ... done
Dumping 'NbTe2.fluidState' ... done
Dumping 'NbTe2.eigenvals' ... done
End date and time: Fri Jul 10 14:46:01 2020  (Duration: 0-0:12:01.92)
Done!
