
*************** JDFTx 1.5.0  ***************

Start date and time: Tue Apr 27 08:28:25 2021
Executable jdftx_gpu with command-line: -i Charged.in -o Charged.out
Running on hosts (process indices):  amax (0-6)
Divided in process groups (process indices):  0 (0)  1 (1)  2 (2)  3 (3)  4 (4)  5 (5)  6 (6)
gpuInit: Found compatible cuda device 0 'Tesla K80'
gpuInit: Found compatible cuda device 1 'Tesla K80'
gpuInit: Found compatible cuda device 2 'Tesla K80'
gpuInit: Found compatible cuda device 3 'Tesla K80'
gpuInit: Found compatible cuda device 4 'Tesla K80'
gpuInit: Found compatible cuda device 5 'Tesla K80'
gpuInit: Found compatible cuda device 6 'Tesla K80'
gpuInit: Selected device 0
Resource initialization completed at t[s]:      3.68
Run totals: 7 processes, 24 threads, 7 GPUs


Input parsed successfully to the following command list (including defaults):

basis kpoint-dependent
cache-projectors no
coords-type Lattice
core-overlap-check none
coulomb-interaction Slab 001
coulomb-truncation-embed 0.5 0.5 0.5
davidson-band-ratio 1.1
dump End State
dump-name NbTe2.$VAR
elec-cutoff 20
elec-eigen-algo Davidson
elec-ex-corr gga-PBE
elec-initial-charge 0.500000
elec-smearing Gauss 0.0073499
electronic-minimize  \
	dirUpdateScheme      FletcherReeves \
	linminMethod         DirUpdateRecommended \
	nIterations          200 \
	history              15 \
	knormThreshold       0 \
	energyDiffThreshold  1e-08 \
	nEnergyDiff          2 \
	alphaTstart          1 \
	alphaTmin            1e-10 \
	updateTestStepSize   yes \
	alphaTreduceFactor   0.1 \
	alphaTincreaseFactor 3 \
	nAlphaAdjustMax      3 \
	wolfeEnergy          0.0001 \
	wolfeGradient        0.9 \
	fdTest               no
exchange-regularization WignerSeitzTruncated
fluid LinearPCM 298.000000 1.013250
fluid-anion F- 1 MeanFieldLJ \
	epsBulk 1 \
	pMol 0 \
	epsInf 1 \
	Pvap 0 \
	sigmaBulk 0 \
	Rvdw 2.24877 \
	Res 0 \
	tauNuc 343133
fluid-cation Na+ 1 MeanFieldLJ \
	epsBulk 1 \
	pMol 0 \
	epsInf 1 \
	Pvap 0 \
	sigmaBulk 0 \
	Rvdw 2.19208 \
	Res 0 \
	tauNuc 343133
fluid-ex-corr lda-TF lda-PZ
fluid-gummel-loop 10 1.000000e-05
fluid-minimize  \
	dirUpdateScheme      PolakRibiere \
	linminMethod         DirUpdateRecommended \
	nIterations          400 \
	history              15 \
	knormThreshold       1e-11 \
	energyDiffThreshold  0 \
	nEnergyDiff          2 \
	alphaTstart          1 \
	alphaTmin            1e-10 \
	updateTestStepSize   yes \
	alphaTreduceFactor   0.1 \
	alphaTincreaseFactor 3 \
	nAlphaAdjustMax      6 \
	wolfeEnergy          0.0001 \
	wolfeGradient        0.9 \
	fdTest               no
fluid-solvent H2O 55.338 ScalarEOS \
	epsBulk 78.4 \
	pMol 0.92466 \
	epsInf 1.77 \
	Pvap 1.06736e-10 \
	sigmaBulk 4.62e-05 \
	Rvdw 2.61727 \
	Res 1.42 \
	tauNuc 343133 \
	poleEl 15 7 1
forces-output-coords Positions
initial-state NbTe2.$VAR
ion V   0.166667052761642   0.166667064367456   0.618872350374505 1
ion V   0.000000001037037   0.166667065049296   0.499999667855423 1
ion V   0.166667052769470   0.166667064359414   0.381126289430597 1
ion V   0.500000001037037   0.166667064368715   0.618872351277120 1
ion V   0.333332948556404   0.166667065049570   0.499999667859065 1
ion V   0.500000001037037   0.166667064360826   0.381126288510940 1
ion V   0.833332949312432   0.166667064367456   0.618872350374505 1
ion V   0.666667053517670   0.166667065049570   0.499999667859065 1
ion V   0.833332949304604   0.166667064359414   0.381126289430597 1
ion V   0.166667052763018   0.500000000000000   0.618872349101079 1
ion V   0.000000001037037   0.500000000000000   0.499999667855274 1
ion V   0.166667052771287   0.500000000000000   0.381126290709042 1
ion V   0.500000001037037   0.500000000000000   0.618872350004712 1
ion V   0.333332948556603   0.500000000000000   0.499999667858959 1
ion V   0.500000001037037   0.500000000000000   0.381126289787843 1
ion V   0.833332949311056   0.500000000000000   0.618872349101079 1
ion V   0.666667053517471   0.500000000000000   0.499999667858959 1
ion V   0.833332949302787   0.500000000000000   0.381126290709042 1
ion V   0.166667052761642   0.833332935632545   0.618872350374505 1
ion V   0.000000001037037   0.833332934950704   0.499999667855423 1
ion V   0.166667052769470   0.833332935640587   0.381126289430597 1
ion V   0.500000001037037   0.833332935631285   0.618872351277120 1
ion V   0.333332948556404   0.833332934950430   0.499999667859065 1
ion V   0.500000001037037   0.833332935639174   0.381126288510940 1
ion V   0.833332949312432   0.833332935632545   0.618872350374505 1
ion V   0.666667053517670   0.833332934950430   0.499999667859065 1
ion V   0.833332949304604   0.833332935640587   0.381126289430597 1
ion B   0.000000001037037   0.000000000000000   0.575866967191817 1
ion B   0.166667135277784  -0.000000000000000   0.539746264868507 1
ion B   0.000000001037037  -0.000000000000000   0.424131901741930 1
ion B   0.166667135278052  -0.000000000000000   0.460252691262105 1
ion B   0.333332871288067   0.000000000000000   0.575866964561529 1
ion B   0.500000001037037  -0.000000000000000   0.539746262802621 1
ion B   0.333332871289000  -0.000000000000000   0.424131904371369 1
ion B   0.500000001037037  -0.000000000000000   0.460252693325236 1
ion B   0.666667130786007   0.000000000000000   0.575866964561529 1
ion B   0.833332866796290   0.000000000000000   0.539746264868507 1
ion B   0.666667130785075  -0.000000000000000   0.424131904371369 1
ion B   0.833332866796022  -0.000000000000000   0.460252691262105 1
ion B   0.000000001037037   0.333332857532070   0.575866967007305 1
ion B   0.166667135277867   0.333332858101126   0.539746264887003 1
ion B   0.000000001037037   0.333332857528512   0.424131901925852 1
ion B   0.166667135278015   0.333332858101007   0.460252691244605 1
ion B   0.333332871287952   0.333332857532244   0.575866964377298 1
ion B   0.500000001037037   0.333332858101111   0.539746262821122 1
ion B   0.333332871289462   0.333332857528641   0.424131904555230 1
ion B   0.500000001037037   0.333332858101125   0.460252693307660 1
ion B   0.666667130786122   0.333332857532244   0.575866964377298 1
ion B   0.833332866796207   0.333332858101126   0.539746264887003 1
ion B   0.666667130784612   0.333332857528641   0.424131904555230 1
ion B   0.833332866796059   0.333332858101007   0.460252691244605 1
ion B   0.000000001037037   0.666667142467930   0.575866967007305 1
ion B   0.166667135277867   0.666667141898874   0.539746264887003 1
ion B   0.000000001037037   0.666667142471489   0.424131901925852 1
ion B   0.166667135278015   0.666667141898993   0.460252691244605 1
ion B   0.333332871287952   0.666667142467755   0.575866964377298 1
ion B   0.500000001037037   0.666667141898889   0.539746262821122 1
ion B   0.333332871289462   0.666667142471359   0.424131904555230 1
ion B   0.500000001037037   0.666667141898875   0.460252693307660 1
ion B   0.666667130786122   0.666667142467755   0.575866964377298 1
ion B   0.833332866796207   0.666667141898874   0.539746264887003 1
ion B   0.666667130784612   0.666667142471359   0.424131904555230 1
ion B   0.833332866796059   0.666667141898993   0.460252691244605 1
ion O   0.000000001037037   0.166667118307555   0.668664938098192 1
ion O   0.000000001037037   0.166667118305148   0.331333871111091 1
ion O   0.333332867557218   0.166667118309262   0.668664940619860 1
ion O   0.333332867557168   0.166667118306899   0.331333868594275 1
ion O   0.666667134516856   0.166667118309262   0.668664940619860 1
ion O   0.666667134516906   0.166667118306899   0.331333868594275 1
ion O   0.000000001037037   0.500000000000000   0.668664938628743 1
ion O   0.000000001037037   0.500000000000000   0.331333870585628 1
ion O   0.333332867558710   0.500000000000000   0.668664941152482 1
ion O   0.333332867559213   0.500000000000000   0.331333868066481 1
ion O   0.666667134515364   0.500000000000000   0.668664941152482 1
ion O   0.666667134514861   0.500000000000000   0.331333868066481 1
ion O   0.000000001037037   0.833332881692445   0.668664938098192 1
ion O   0.000000001037037   0.833332881694852   0.331333871111091 1
ion O   0.333332867557218   0.833332881690738   0.668664940619860 1
ion O   0.333332867557168   0.833332881693101   0.331333868594275 1
ion O   0.666667134516856   0.833332881690738   0.668664940619860 1
ion O   0.666667134516906   0.833332881693101   0.331333868594275 1
ion-species GBRV/$ID_pbe.uspp
ion-width Ecut
ionic-minimize  \
	dirUpdateScheme      L-BFGS \
	linminMethod         DirUpdateRecommended \
	nIterations          500 \
	history              15 \
	knormThreshold       0.0001 \
	energyDiffThreshold  1e-06 \
	nEnergyDiff          2 \
	alphaTstart          1 \
	alphaTmin            1e-10 \
	updateTestStepSize   yes \
	alphaTreduceFactor   0.1 \
	alphaTincreaseFactor 3 \
	nAlphaAdjustMax      3 \
	wolfeEnergy          0.0001 \
	wolfeGradient        0.9 \
	fdTest               no
kpoint   0.000000000000   0.000000000000   0.000000000000  1.00000000000000
kpoint-folding 4 4 1 
latt-move-scale 1 1 1
latt-scale 1.88973 1.88973 1.88973 
lattice Triclinic 8.6349 8.9695 22.5806 90 90 90
lattice-minimize  \
	dirUpdateScheme      L-BFGS \
	linminMethod         DirUpdateRecommended \
	nIterations          0 \
	history              15 \
	knormThreshold       0 \
	energyDiffThreshold  1e-06 \
	nEnergyDiff          2 \
	alphaTstart          1 \
	alphaTmin            1e-10 \
	updateTestStepSize   yes \
	alphaTreduceFactor   0.1 \
	alphaTincreaseFactor 3 \
	nAlphaAdjustMax      3 \
	wolfeEnergy          0.0001 \
	wolfeGradient        0.9 \
	fdTest               no
lcao-params -1 1e-06 0.0073499
pcm-variant CANDLE
spintype no-spin
subspace-rotation-factor 1 yes
symmetries automatic
symmetry-threshold 0.0001



---------- Setting up symmetries ----------

Found 8 point-group symmetries of the bravais lattice
Found 72 space-group symmetries with basis
Applied RMS atom displacement 9.48387e-06 bohrs to make symmetries exact.

---------- Initializing the Grid ----------
R = 
[    16.3176          0          0  ]
[          0    16.9499          0  ]
[          0          0    42.6711  ]
unit cell volume = 11802
G =
[   0.385056          0          0  ]
[          0   0.370692          0  ]
[          0          0   0.147247  ]
Minimum fftbox size, Smin = [  68  72  172  ]
Chosen fftbox size, S = [  70  72  180  ]

---------- Exchange Correlation functional ----------
Initalized PBE GGA exchange.
Initalized PBE GGA correlation.

---------- Setting up pseudopotentials ----------
Width of ionic core gaussian charges (only for fluid interactions / plotting) set to 0.397384

Reading pseudopotential file '/home/guoxy/vasp/jdftx-1.5.0/build/pseudopotentials/GBRV/v_pbe.uspp':
  Title: V.  Created by USPP 7.3.6 on 31-3-15
  Reference state energy: -72.228583.  13 valence electrons in orbitals:
    |300>  occupation: 2  eigenvalue: -2.581040
    |310>  occupation: 6  eigenvalue: -1.618497
    |400>  occupation: 2  eigenvalue: -0.172800
    |320>  occupation: 3  eigenvalue: -0.189802
  lMax: 2  lLocal: 3  QijEcut: 6
  6 projectors sampled on a log grid with 593 points:
    l: 0  eig: -2.581041  rCut: 1.5
    l: 0  eig: -0.172801  rCut: 1.5
    l: 1  eig: -1.618497  rCut: 1.6
    l: 1  eig: 0.150000  rCut: 1.6
    l: 2  eig: -0.189802  rCut: 1.7
    l: 2  eig: 0.150000  rCut: 1.7
  Partial core density with radius 0.8
  Transforming core density to a uniform radial grid of dG=0.02 with 1162 points.
  Transforming local potential to a uniform radial grid of dG=0.02 with 1162 points.
  Transforming nonlocal projectors to a uniform radial grid of dG=0.02 with 432 points.
  Transforming density augmentations to a uniform radial grid of dG=0.02 with 1162 points.
  Transforming atomic orbitals to a uniform radial grid of dG=0.02 with 432 points.
  Core radius for overlap checks: 1.80 bohrs.

Reading pseudopotential file '/home/guoxy/vasp/jdftx-1.5.0/build/pseudopotentials/GBRV/b_pbe.uspp':
  Title: B.  Created by USPP 7.3.6 on 8-4-15
  Reference state energy: -2.950027.  3 valence electrons in orbitals:
    |200>  occupation: 2  eigenvalue: -0.346865
    |210>  occupation: 1  eigenvalue: -0.132618
  lMax: 1  lLocal: 2  QijEcut: 6
  4 projectors sampled on a log grid with 559 points:
    l: 0  eig: -0.346865  rCut: 1.25
    l: 0  eig: -0.500000  rCut: 1.25
    l: 1  eig: -0.346865  rCut: 1.25
    l: 1  eig: -1.000000  rCut: 1.25
  Partial core density with radius 0.9
  Transforming core density to a uniform radial grid of dG=0.02 with 1162 points.
  Transforming local potential to a uniform radial grid of dG=0.02 with 1162 points.
  Transforming nonlocal projectors to a uniform radial grid of dG=0.02 with 432 points.
  Transforming density augmentations to a uniform radial grid of dG=0.02 with 1162 points.
  Transforming atomic orbitals to a uniform radial grid of dG=0.02 with 432 points.
  Core radius for overlap checks: 1.25 bohrs.

Reading pseudopotential file '/home/guoxy/vasp/jdftx-1.5.0/build/pseudopotentials/GBRV/o_pbe.uspp':
  Title: O.  Created by USPP 7.3.6 on 3-2-2014
  Reference state energy: -15.894388.  6 valence electrons in orbitals:
    |200>  occupation: 2  eigenvalue: -0.878823
    |210>  occupation: 4  eigenvalue: -0.332131
  lMax: 2  lLocal: 2  QijEcut: 6
  5 projectors sampled on a log grid with 511 points:
    l: 0  eig: -0.878823  rCut: 1.25
    l: 0  eig: 0.000000  rCut: 1.25
    l: 1  eig: -0.332132  rCut: 1.25
    l: 1  eig: 0.000000  rCut: 1.25
    l: 2  eig: 1.000000  rCut: 1.25
  Partial core density with radius 0.7
  Transforming core density to a uniform radial grid of dG=0.02 with 1162 points.
  Transforming local potential to a uniform radial grid of dG=0.02 with 1162 points.
  Transforming nonlocal projectors to a uniform radial grid of dG=0.02 with 432 points.
  Transforming density augmentations to a uniform radial grid of dG=0.02 with 1162 points.
  Transforming atomic orbitals to a uniform radial grid of dG=0.02 with 432 points.
  Core radius for overlap checks: 1.25 bohrs.

Initialized 3 species with 81 total atoms.

Folded 1 k-points by 4x4x1 to 16 k-points.

---------- Setting up k-points, bands, fillings ----------
Reduced to 9 k-points under symmetry. 
Computing the number of bands and number of electrons
Calculating initial fillings.
nElectrons: 567.500000   nBands: 486   nStates: 9

----- Setting up reduced wavefunction bases (one per k-point) -----
average nbasis = 50406.688 , ideal nbasis = 50419.178

---------- Setting up coulomb interaction ----------
Fluid mode embedding: using embedded box, but periodic Coulomb kernel.
(Fluid response is responsible for (approximate) separation between periodic images.)
Setting up double-sized grid for truncated Coulomb potentials:
R = 
[    16.3176          0          0  ]
[          0    16.9499          0  ]
[          0          0    85.3421  ]
unit cell volume = 23604.1
G =
[   0.385056          0          0  ]
[          0   0.370692          0  ]
[          0          0  0.0736235  ]
Chosen fftbox size, S = [  70  72  360  ]
Integer grid location selected as the embedding center:
   Grid: [  35  36  90  ]
   Lattice: [  0.5  0.5  0.5  ]
   Cartesian: [  8.1588  8.47495  21.3355  ]
Constructing Wigner-Seitz cell: 6 faces (6 quadrilaterals, 0 hexagons)
Range-separation parameter for embedded mesh potentials due to point charges: 0.614244 bohrs.

Initializing van der Waals corrections
	NOTE: vdW corrections apply only for interactions with fluid.
	 V:  C6:  187.33 Eh-a0^6  R0: 2.952 a0
	 B:  C6:   54.29 Eh-a0^6  R0: 2.806 a0
	 O:  C6:   12.14 Eh-a0^6  R0: 2.536 a0

---------- Setting up ewald sum ----------
Optimum gaussian width for ewald sums = 5.501631 bohr.
Real space sum over 605 unit cells with max indices [  5  5  2  ]
Reciprocal space sum over 8619 terms with max indices [  6  6  25  ]

---------- Allocating electronic variables ----------
Initializing wave functions:  linear combination of atomic orbitals
V pseudo-atom occupations:   s ( 2 0 )  p ( 6 )  d ( 5 )
B pseudo-atom occupations:   s ( 2 )  p ( 1 )
O pseudo-atom occupations:   s ( 2 )  p ( 4 )
	FillingsUpdate:  mu: +3.374939377  nElectrons: 567.500000
LCAOMinimize: Iter:   0  F: -1929.5316408863002380  |grad|_K:  1.806e-02  alpha:  1.000e+00
	FillingsUpdate:  mu: -2.756218057  nElectrons: 567.500000
LCAOMinimize: Iter:   1  F: -1954.5471311568846886  |grad|_K:  6.233e-02  alpha:  3.594e-01  linmin: -7.587e-02  cgtest: -4.646e-01  t[s]:    178.69
LCAOMinimize: 	Step increased F by 5.232218e+02, reducing alpha to 1.736226e-02.
	FillingsUpdate:  mu: -2.335825378  nElectrons: 567.500000
LCAOMinimize: Iter:   2  F: -2137.4252201251224506  |grad|_K:  2.681e-02  alpha:  1.736e-02  linmin:  1.159e-01  cgtest:  4.719e-01  t[s]:    273.45
LCAOMinimize: Encountered beta<0, resetting CG.
LCAOMinimize: 	Predicted alpha/alphaT>3.000000, increasing alphaT to 5.208678e-02.
	FillingsUpdate:  mu: -2.257207440  nElectrons: 567.500000
LCAOMinimize: Iter:   3  F: -2202.8441909502457747  |grad|_K:  1.581e-02  alpha:  7.233e-02  linmin: -7.643e-02  cgtest:  1.225e+00  t[s]:    344.90
LCAOMinimize: Encountered beta<0, resetting CG.
	FillingsUpdate:  mu: -1.849576670  nElectrons: 567.500000
LCAOMinimize: Iter:   4  F: -2251.8993337402303041  |grad|_K:  8.237e-03  alpha:  1.476e-01  linmin: -8.739e-02  cgtest:  9.281e-01  t[s]:    399.77
LCAOMinimize: Encountered beta<0, resetting CG.
LCAOMinimize: 	Wrong curvature in test step, increasing alphaT to 4.428735e-01.
	FillingsUpdate:  mu: -0.937198073  nElectrons: 567.500000
LCAOMinimize: Iter:   5  F: -2280.5137291011542402  |grad|_K:  8.628e-03  alpha: -2.182e-01  linmin: -1.476e-01  cgtest:  4.758e-01  t[s]:    454.24
LCAOMinimize: 	Step increased F by 4.794785e+01, reducing alpha to 1.748716e-02.
	FillingsUpdate:  mu: -0.741264175  nElectrons: 567.500000
LCAOMinimize: Iter:   6  F: -2285.8511132553271636  |grad|_K:  8.093e-03  alpha:  1.749e-02  linmin: -1.568e-01  cgtest:  9.352e-01  t[s]:    548.69
LCAOMinimize: 	Wrong curvature in test step, increasing alphaT to 5.246149e-02.
	FillingsUpdate:  mu: -0.701998933  nElectrons: 567.500000
LCAOMinimize: Iter:   7  F: -2288.3229177452867589  |grad|_K:  7.942e-03  alpha: -1.635e+00  linmin: -1.612e-01  cgtest:  9.701e-01  t[s]:    603.21
	FillingsUpdate:  mu: -0.595380548  nElectrons: 567.500000
LCAOMinimize: Iter:   8  F: -2302.8473890635209500  |grad|_K:  6.715e-03  alpha:  1.109e-01  linmin: -2.388e-01  cgtest:  8.374e-01  t[s]:    658.64
LCAOMinimize: 	Wrong curvature in test step, increasing alphaT to 3.326771e-01.
	FillingsUpdate:  mu: -0.674809555  nElectrons: 567.500000
LCAOMinimize: Iter:   9  F: -2314.1072469003674996  |grad|_K:  5.968e-03  alpha: -1.219e+00  linmin: -2.576e-01  cgtest:  7.059e-01  t[s]:    712.66
	FillingsUpdate:  mu: -0.489947673  nElectrons: 567.500000
LCAOMinimize: Iter:  10  F: -2321.7585047589072929  |grad|_K:  5.021e-03  alpha:  7.806e-02  linmin: -3.062e-01  cgtest:  7.512e-01  t[s]:    768.01
LCAOMinimize: 	Predicted alpha/alphaT>3.000000, increasing alphaT to 2.341808e-01.
	FillingsUpdate:  mu: -0.278145573  nElectrons: 567.500000
LCAOMinimize: Iter:  11  F: -2325.9435752062317988  |grad|_K:  3.671e-03  alpha:  7.020e-02  linmin: -3.326e-01  cgtest:  8.064e-01  t[s]:    839.40
LCAOMinimize: Encountered beta<0, resetting CG.
LCAOMinimize: 	Predicted alpha/alphaT>3.000000, increasing alphaT to 2.105991e-01.
	FillingsUpdate:  mu: -0.043757692  nElectrons: 567.500000
LCAOMinimize: Iter:  12  F: -2328.3679028865080909  |grad|_K:  8.957e-04  alpha:  1.171e-01  linmin: -3.483e-01  cgtest:  6.923e-01  t[s]:    910.84
LCAOMinimize: Encountered beta<0, resetting CG.
	FillingsUpdate:  mu: +0.018893811  nElectrons: 567.500000
LCAOMinimize: Iter:  13  F: -2328.5140756173882437  |grad|_K:  5.487e-04  alpha:  1.764e-01  linmin:  4.090e-02  cgtest: -8.321e-02  t[s]:    966.68
	FillingsUpdate:  mu: +0.000184520  nElectrons: 567.500000
LCAOMinimize: Iter:  14  F: -2328.5780352620904523  |grad|_K:  2.062e-04  alpha:  2.201e-01  linmin:  6.776e-03  cgtest:  3.245e-01  t[s]:   1022.12
	FillingsUpdate:  mu: -0.007995802  nElectrons: 567.500000
LCAOMinimize: Iter:  15  F: -2328.5880695068076420  |grad|_K:  1.222e-04  alpha:  2.215e-01  linmin: -3.091e-04  cgtest: -3.842e-03  t[s]:   1073.05
	FillingsUpdate:  mu: +0.000003790  nElectrons: 567.500000
LCAOMinimize: Iter:  16  F: -2328.5909668611102461  |grad|_K:  7.034e-05  alpha:  1.808e-01  linmin:  2.291e-03  cgtest: -5.141e-03  t[s]:   1123.85
	FillingsUpdate:  mu: +0.003528122  nElectrons: 567.500000
LCAOMinimize: Iter:  17  F: -2328.5927983664628300  |grad|_K:  9.227e-05  alpha:  3.506e-01  linmin:  1.256e-03  cgtest:  8.468e-03  t[s]:   1174.42
	FillingsUpdate:  mu: +0.000589801  nElectrons: 567.500000
LCAOMinimize: Iter:  18  F: -2328.5933199237201734  |grad|_K:  9.289e-06  alpha:  5.734e-02  linmin: -2.003e-02  cgtest:  2.270e-01  t[s]:   1225.05
LCAOMinimize: Encountered beta<0, resetting CG.
LCAOMinimize: 	Predicted alpha/alphaT>3.000000, increasing alphaT to 1.720338e-01.
	FillingsUpdate:  mu: -0.000267443  nElectrons: 567.500000
LCAOMinimize: Iter:  19  F: -2328.5933485428276981  |grad|_K:  1.150e-05  alpha:  3.107e-01  linmin: -4.708e-05  cgtest: -2.368e-05  t[s]:   1290.15
	FillingsUpdate:  mu: +0.000314782  nElectrons: 567.500000
LCAOMinimize: Iter:  20  F: -2328.5933643455896345  |grad|_K:  9.258e-06  alpha:  1.117e-01  linmin: -1.431e-04  cgtest:  1.118e-03  t[s]:   1341.11
	FillingsUpdate:  mu: +0.000454945  nElectrons: 567.500000
LCAOMinimize: Iter:  21  F: -2328.5933733079250487  |grad|_K:  3.095e-06  alpha:  9.787e-02  linmin:  1.007e-04  cgtest: -4.359e-03  t[s]:   1392.00
	FillingsUpdate:  mu: +0.000380826  nElectrons: 567.500000
LCAOMinimize: Iter:  22  F: -2328.5933757944849276  |grad|_K:  8.671e-07  alpha:  2.433e-01  linmin:  3.555e-04  cgtest:  1.589e-03  t[s]:   1442.84
	FillingsUpdate:  mu: +0.000371024  nElectrons: 567.500000
LCAOMinimize: Iter:  23  F: -2328.5933763588086549  |grad|_K:  3.032e-07  alpha:  7.034e-01  linmin: -2.384e-05  cgtest:  1.297e-03  t[s]:   1493.79
	FillingsUpdate:  mu: +0.000384442  nElectrons: 567.500000
LCAOMinimize: Iter:  24  F: -2328.5933763645139152  |grad|_K:  1.548e-07  alpha:  5.845e-02  linmin: -1.322e-04  cgtest:  3.458e-04  t[s]:   1544.64
LCAOMinimize: Converged (|Delta F|<1.000000e-06 for 2 iters).
----- createFluidSolver() ----- (Fluid-side solver setup)
   Initializing fluid molecule 'H2O'
     Initializing site 'O'
       Electron density: proportional to exp(-r/0.36935)*erfc((r-0.51523)/0.36823) with norm 6.826
       Charge density: gaussian nuclear width 0.478731 with net site charge 0.826
       Polarizability: cuspless exponential with width 0.32 and norm 3.73
       Hard sphere radius: 2.57003 bohrs
       Positions in reference frame:
         [ +0.000000 +0.000000 +0.000000 ]
     Initializing site 'H'
       Electron density: proportional to exp(-r/0.34641)*erfc((r-0)/0.390882) with norm 0.587
       Charge density: gaussian nuclear width 0.377945 with net site charge -0.413
       Polarizability: cuspless exponential with width 0.39 and norm 3.3
       Positions in reference frame:
         [ +0.000000 -1.441945 +1.122523 ]
         [ +0.000000 +1.441945 +1.122523 ]
     Net charge: 0   dipole magnitude: 0.927204
     Initializing spherical shell mfKernel with radius 2.61727 Bohr
     deltaS corrections:
       site 'O': -7.54299
       site 'H': -6.83917
   Initializing fluid molecule 'Na+'
     Initializing site 'Na'
       Electron density: proportional to exp(-r/0.19682)*erfc((r-0.71491)/0.41314) with norm 8.1383
       Charge density: gaussian nuclear width 0.365347 with net site charge -1
       Hard sphere radius: 1.86327 bohrs
       Positions in reference frame:
         [ +0.000000 +0.000000 +0.000000 ]
     Net charge: -1   dipole magnitude: 0
     Initializing gaussian mfKernel with width: 1.55004 Bohr
     deltaS corrections:
       site 'Na': -22.3555
   Initializing fluid molecule 'F-'
     Initializing site 'F'
       Electron density: proportional to exp(-r/0.38886)*erfc((r-0)/0.438782) with norm 8
       Charge density: gaussian nuclear width 0.374796 with net site charge 1
       Hard sphere radius: 2.39995 bohrs
       Positions in reference frame:
         [ +0.000000 +0.000000 +0.000000 ]
     Net charge: 1   dipole magnitude: 0
     Initializing gaussian mfKernel with width: 1.59012 Bohr
     deltaS corrections:
       site 'F': -9.04335

Correction to mu due to finite nuclear width = -0.0238339
   Cavity determined by nc: 0.00142 and sigma: 0.707107
   Nonlocal vdW cavity from gaussian model electron density with norm = 8 and sigma = 0.993594 bohr
   Charge asymmetry in cavity with sensitivity pCavity = 36.5 e-bohr/Eh
   Electrostatic cavity expanded by eta = 1.46 bohrs
   Weighted density cavitation model constrained by Nbulk: 0.0049383 bohr^-3, Pvap: 3.14029 kPa, Rvdw: 2.61727 bohr and sigmaBulk: 4.62e-05 Eh/bohr^2 at T: 298 K.
   Weighted density dispersion model using vdW pair potentials with single solvent site with sqrtC6eff: 0.77 SI.


---- Citations for features of the code used in this run ----

   Software package:
      R. Sundararaman, K. Letchworth-Weaver, K.A. Schwarz, D. Gunceler, Y. Ozhabes and T.A. Arias, 'JDFTx: software for joint density-functional theory', SoftwareX 6, 278 (2017)

   gga-PBE exchange-correlation functional:
      J.P. Perdew, K. Burke and M. Ernzerhof, Phys. Rev. Lett. 77, 3865 (1996)

   Pseudopotentials:
      KF Garrity, JW Bennett, KM Rabe and D Vanderbilt, Comput. Mater. Sci. 81, 446 (2014)

   Truncated Coulomb potentials:
      R. Sundararaman and T.A. Arias, Phys. Rev. B 87, 165122 (2013)

   Van der Waals correction pair-potentials:
      S. Grimme, J. Comput. Chem. 27, 1787 (2006)

   Charge-asymmetric nonlocally-determined local-electric (CANDLE) solvation model:
      R. Sundararaman and W.A. Goddard III, J. Chem. Phys. 142, 064107 (2015)

   Total energy minimization with Auxiliary Hamiltonian:
      C. Freysoldt, S. Boeck, and J. Neugebauer, Phys. Rev. B 79, 241103(R) (2009)

This list may not be complete. Please suggest additional citations or
report any other bugs at https://github.com/shankar1729/jdftx/issues

Initialization completed successfully at t[s]:   1554.31

Fluid solver invoked on fresh (partially random / LCAO) wavefunctions
Running a vacuum solve first:

-------- Initial electronic minimization -----------
	FillingsUpdate:  mu: +0.000384442  nElectrons: 567.500000
ElecMinimize: Iter:   0  F: -2328.593376364569849  |grad|_K:  1.044e-04  alpha:  1.000e+00
	FillingsUpdate:  mu: +0.032327993  nElectrons: 567.500000
	SubspaceRotationAdjust: set factor to 1
ElecMinimize: Iter:   1  F: -2329.909726860250430  |grad|_K:  7.099e-05  alpha:  5.443e-01  linmin:  6.067e-07  t[s]:   1680.45
	FillingsUpdate:  mu: -0.051521540  nElectrons: 567.500000
	SubspaceRotationAdjust: set factor to 0.666
ElecMinimize: Iter:   2  F: -2330.153490888292708  |grad|_K:  5.977e-05  alpha:  2.477e-01  linmin:  7.222e-05  t[s]:   1757.81
	FillingsUpdate:  mu: -0.004952452  nElectrons: 567.500000
	SubspaceRotationAdjust: set factor to 0.461
ElecMinimize: Iter:   3  F: -2330.249466383295385  |grad|_K:  4.900e-05  alpha:  1.255e-01  linmin: -1.490e-05  t[s]:   1835.45
	FillingsUpdate:  mu: +0.015854606  nElectrons: 567.500000
	SubspaceRotationAdjust: set factor to 0.41
ElecMinimize: Iter:   4  F: -2330.328519379636873  |grad|_K:  2.614e-05  alpha:  1.467e-01  linmin:  2.922e-06  t[s]:   1913.15
	FillingsUpdate:  mu: +0.000385638  nElectrons: 567.500000
	SubspaceRotationAdjust: set factor to 0.354
ElecMinimize: Iter:   5  F: -2330.380414521475814  |grad|_K:  1.879e-05  alpha:  3.451e-01  linmin:  1.347e-05  t[s]:   1990.59
	FillingsUpdate:  mu: +0.006088556  nElectrons: 567.500000
	SubspaceRotationAdjust: set factor to 0.267
ElecMinimize: Iter:   6  F: -2330.393029250533800  |grad|_K:  1.205e-05  alpha:  1.613e-01  linmin: -1.057e-05  t[s]:   2068.36
	FillingsUpdate:  mu: -0.001116460  nElectrons: 567.500000
	SubspaceRotationAdjust: set factor to 0.312
ElecMinimize: Iter:   7  F: -2330.405682912767588  |grad|_K:  8.511e-06  alpha:  3.921e-01  linmin:  9.869e-06  t[s]:   2146.18
	FillingsUpdate:  mu: -0.005174259  nElectrons: 567.500000
	SubspaceRotationAdjust: set factor to 0.272
ElecMinimize: Iter:   8  F: -2330.409291500691779  |grad|_K:  6.002e-06  alpha:  2.253e-01  linmin:  1.422e-07  t[s]:   2224.15
	FillingsUpdate:  mu: +0.000736321  nElectrons: 567.500000
	SubspaceRotationAdjust: set factor to 0.337
ElecMinimize: Iter:   9  F: -2330.412356920368893  |grad|_K:  4.286e-06  alpha:  3.855e-01  linmin:  1.783e-05  t[s]:   2302.22
	FillingsUpdate:  mu: +0.002516905  nElectrons: 567.500000
	SubspaceRotationAdjust: set factor to 0.287
ElecMinimize: Iter:  10  F: -2330.413555592359899  |grad|_K:  3.621e-06  alpha:  2.967e-01  linmin:  1.066e-06  t[s]:   2380.01
	FillingsUpdate:  mu: -0.000835848  nElectrons: 567.500000
	SubspaceRotationAdjust: set factor to 0.259
ElecMinimize: Iter:  11  F: -2330.414312940397849  |grad|_K:  2.414e-06  alpha:  2.608e-01  linmin:  3.679e-07  t[s]:   2457.67
	FillingsUpdate:  mu: -0.001136560  nElectrons: 567.500000
	SubspaceRotationAdjust: set factor to 0.263
ElecMinimize: Iter:  12  F: -2330.414834722147589  |grad|_K:  1.877e-06  alpha:  4.047e-01  linmin:  1.256e-06  t[s]:   2535.44
	FillingsUpdate:  mu: +0.000500662  nElectrons: 567.500000
	SubspaceRotationAdjust: set factor to 0.205
ElecMinimize: Iter:  13  F: -2330.415049016762623  |grad|_K:  1.304e-06  alpha:  2.747e-01  linmin:  1.359e-08  t[s]:   2613.01
	FillingsUpdate:  mu: +0.000232072  nElectrons: 567.500000
	SubspaceRotationAdjust: set factor to 0.271
ElecMinimize: Iter:  14  F: -2330.415183296458508  |grad|_K:  8.805e-07  alpha:  3.568e-01  linmin:  9.413e-07  t[s]:   2690.62
	FillingsUpdate:  mu: -0.000400472  nElectrons: 567.500000
	SubspaceRotationAdjust: set factor to 0.242
ElecMinimize: Iter:  15  F: -2330.415249392138321  |grad|_K:  6.674e-07  alpha:  3.854e-01  linmin: -1.557e-07  t[s]:   2768.60
	FillingsUpdate:  mu: -0.000000168  nElectrons: 567.500000
	SubspaceRotationAdjust: set factor to 0.234
ElecMinimize: Iter:  16  F: -2330.415278589651280  |grad|_K:  4.323e-07  alpha:  2.959e-01  linmin: -6.144e-08  t[s]:   2846.33
	FillingsUpdate:  mu: +0.000109252  nElectrons: 567.500000
	SubspaceRotationAdjust: set factor to 0.274
ElecMinimize: Iter:  17  F: -2330.415296265019606  |grad|_K:  2.952e-07  alpha:  4.268e-01  linmin: -1.732e-07  t[s]:   2924.02
	FillingsUpdate:  mu: -0.000094236  nElectrons: 567.500000
	SubspaceRotationAdjust: set factor to 0.284
ElecMinimize: Iter:  18  F: -2330.415302840932327  |grad|_K:  2.180e-07  alpha:  3.405e-01  linmin: -7.125e-09  t[s]:   3002.13
	FillingsUpdate:  mu: -0.000041024  nElectrons: 567.500000
	SubspaceRotationAdjust: set factor to 0.265
ElecMinimize: Iter:  19  F: -2330.415306595234597  |grad|_K:  1.691e-07  alpha:  3.567e-01  linmin:  4.023e-08  t[s]:   3080.18
	FillingsUpdate:  mu: -0.000030672  nElectrons: 567.500000
	SubspaceRotationAdjust: set factor to 0.335
ElecMinimize: Iter:  20  F: -2330.415308987821845  |grad|_K:  1.085e-07  alpha:  3.777e-01  linmin: -4.286e-09  t[s]:   3157.92
	FillingsUpdate:  mu: -0.000054463  nElectrons: 567.500000
	SubspaceRotationAdjust: set factor to 0.359
ElecMinimize: Iter:  21  F: -2330.415310215326372  |grad|_K:  9.755e-08  alpha:  4.705e-01  linmin:  6.793e-08  t[s]:   3235.94
	FillingsUpdate:  mu: -0.000027775  nElectrons: 567.500000
	SubspaceRotationAdjust: set factor to 0.296
ElecMinimize: Iter:  22  F: -2330.415310773877081  |grad|_K:  7.012e-08  alpha:  2.649e-01  linmin: -3.307e-08  t[s]:   3313.74
	FillingsUpdate:  mu: -0.000089900  nElectrons: 567.500000
	SubspaceRotationAdjust: set factor to 0.287
ElecMinimize: Iter:  23  F: -2330.415311138119705  |grad|_K:  5.062e-08  alpha:  3.345e-01  linmin:  7.300e-08  t[s]:   3391.29
	FillingsUpdate:  mu: -0.000063468  nElectrons: 567.500000
	SubspaceRotationAdjust: set factor to 0.359
ElecMinimize: Iter:  24  F: -2330.415311365239631  |grad|_K:  3.229e-08  alpha:  4.007e-01  linmin:  5.633e-08  t[s]:   3469.13
	FillingsUpdate:  mu: -0.000034425  nElectrons: 567.500000
	SubspaceRotationAdjust: set factor to 0.332
ElecMinimize: Iter:  25  F: -2330.415311456797554  |grad|_K:  2.657e-08  alpha:  3.964e-01  linmin: -6.839e-09  t[s]:   3547.07
	FillingsUpdate:  mu: -0.000055679  nElectrons: 567.500000
	SubspaceRotationAdjust: set factor to 0.257
ElecMinimize: Iter:  26  F: -2330.415311497702987  |grad|_K:  1.848e-08  alpha:  2.618e-01  linmin: -7.641e-09  t[s]:   3625.29
	FillingsUpdate:  mu: -0.000057715  nElectrons: 567.500000
	SubspaceRotationAdjust: set factor to 0.254
ElecMinimize: Iter:  27  F: -2330.415311522256616  |grad|_K:  1.183e-08  alpha:  3.249e-01  linmin:  3.395e-08  t[s]:   3709.38
	FillingsUpdate:  mu: -0.000053947  nElectrons: 567.500000
	SubspaceRotationAdjust: set factor to 0.306
ElecMinimize: Iter:  28  F: -2330.415311534393823  |grad|_K:  7.899e-09  alpha:  3.916e-01  linmin: -5.802e-08  t[s]:   3792.37
	FillingsUpdate:  mu: -0.000055597  nElectrons: 567.500000
	SubspaceRotationAdjust: set factor to 0.289
ElecMinimize: Iter:  29  F: -2330.415311539602044  |grad|_K:  6.410e-09  alpha:  3.781e-01  linmin:  7.272e-09  t[s]:   3875.87
	FillingsUpdate:  mu: -0.000053081  nElectrons: 567.500000
	SubspaceRotationAdjust: set factor to 0.282
ElecMinimize: Iter:  30  F: -2330.415311542516520  |grad|_K:  4.401e-09  alpha:  3.162e-01  linmin:  1.212e-07  t[s]:   3959.31
ElecMinimize: Converged (|Delta F|<1.000000e-08 for 2 iters).
Setting wave functions to eigenvectors of Hamiltonian
Vacuum energy after initial minimize, F = -2330.415311542516520

	Linear fluid (dielectric constant: 78.4, screening length: 5.74355 Bohr) occupying 0.724947 of unit cell:	Completed after 20 iterations at t[s]:   3980.11

-------- Electronic minimization -----------
	Linear fluid (dielectric constant: 78.4, screening length: 5.74355 Bohr) occupying 0.724947 of unit cell:	Completed after 0 iterations at t[s]:   3999.86
	FillingsUpdate:  mu: -0.209884155  nElectrons: 567.500000
ElecMinimize: Iter:   0  F: -2330.502384402450389  |grad|_K:  2.088e-06  alpha:  1.000e+00
	Linear fluid (dielectric constant: 78.4, screening length: 5.74355 Bohr) occupying 0.725004 of unit cell:	Completed after 13 iterations at t[s]:   4067.78
	Linear fluid (dielectric constant: 78.4, screening length: 5.74355 Bohr) occupying 0.724959 of unit cell:	Completed after 15 iterations at t[s]:   4096.79
	FillingsUpdate:  mu: -0.213699300  nElectrons: 567.500000
	SubspaceRotationAdjust: set factor to 0.191
ElecMinimize: Iter:   1  F: -2330.502580555281384  |grad|_K:  9.909e-07  alpha:  2.043e-01  linmin:  2.529e-06  t[s]:   4132.20
	Linear fluid (dielectric constant: 78.4, screening length: 5.74355 Bohr) occupying 0.724976 of unit cell:	Completed after 11 iterations at t[s]:   4162.18
	Linear fluid (dielectric constant: 78.4, screening length: 5.74355 Bohr) occupying 0.724985 of unit cell:	Completed after 10 iterations at t[s]:   4190.61
	FillingsUpdate:  mu: -0.214850111  nElectrons: 567.500000
	SubspaceRotationAdjust: set factor to 0.159
ElecMinimize: Iter:   2  F: -2330.502649366108017  |grad|_K:  4.585e-07  alpha:  3.178e-01  linmin: -1.067e-07  t[s]:   4225.23
	Linear fluid (dielectric constant: 78.4, screening length: 5.74355 Bohr) occupying 0.725004 of unit cell:	Completed after 2 iterations at t[s]:   4253.20
	Linear fluid (dielectric constant: 78.4, screening length: 5.74355 Bohr) occupying 0.725013 of unit cell:	Completed after 3 iterations at t[s]:   4279.61
	FillingsUpdate:  mu: -0.214897205  nElectrons: 567.500000
	SubspaceRotationAdjust: set factor to 0.199
ElecMinimize: Iter:   3  F: -2330.502670836360267  |grad|_K:  2.428e-07  alpha:  4.624e-01  linmin:  4.952e-07  t[s]:   4313.74
	Linear fluid (dielectric constant: 78.4, screening length: 5.74355 Bohr) occupying 0.725031 of unit cell:	Completed after 2 iterations at t[s]:   4341.83
	Linear fluid (dielectric constant: 78.4, screening length: 5.74355 Bohr) occupying 0.725039 of unit cell:	Completed after 2 iterations at t[s]:   4368.40
	FillingsUpdate:  mu: -0.214968743  nElectrons: 567.500000
	SubspaceRotationAdjust: set factor to 0.254
ElecMinimize: Iter:   4  F: -2330.502679217475816  |grad|_K:  1.753e-07  alpha:  6.452e-01  linmin: -1.749e-07  t[s]:   4402.64
	Linear fluid (dielectric constant: 78.4, screening length: 5.74355 Bohr) occupying 0.725061 of unit cell:	Completed after 3 iterations at t[s]:   4430.66
	Linear fluid (dielectric constant: 78.4, screening length: 5.74355 Bohr) occupying 0.725062 of unit cell:	Completed after 0 iterations at t[s]:   4456.49
	FillingsUpdate:  mu: -0.214855437  nElectrons: 567.500000
	SubspaceRotationAdjust: set factor to 0.321
ElecMinimize: Iter:   5  F: -2330.502683812502710  |grad|_K:  1.596e-07  alpha:  6.717e-01  linmin: -1.200e-07  t[s]:   4490.82
	Linear fluid (dielectric constant: 78.4, screening length: 5.74355 Bohr) occupying 0.725088 of unit cell:	Completed after 2 iterations at t[s]:   4518.79
	Linear fluid (dielectric constant: 78.4, screening length: 5.74355 Bohr) occupying 0.725084 of unit cell:	Completed after 2 iterations at t[s]:   4545.11
	FillingsUpdate:  mu: -0.214807556  nElectrons: 567.500000
	SubspaceRotationAdjust: set factor to 0.389
ElecMinimize: Iter:   6  F: -2330.502686990575057  |grad|_K:  1.304e-07  alpha:  5.630e-01  linmin: -5.445e-08  t[s]:   4579.17
	Linear fluid (dielectric constant: 78.4, screening length: 5.74355 Bohr) occupying 0.725102 of unit cell:	Completed after 6 iterations at t[s]:   4607.67
	Linear fluid (dielectric constant: 78.4, screening length: 5.74355 Bohr) occupying 0.725098 of unit cell:	Completed after 2 iterations at t[s]:   4634.51
	FillingsUpdate:  mu: -0.214647596  nElectrons: 567.500000
	SubspaceRotationAdjust: set factor to 0.322
ElecMinimize: Iter:   7  F: -2330.502688639352527  |grad|_K:  1.325e-07  alpha:  4.423e-01  linmin: -1.070e-07  t[s]:   4668.65
	Linear fluid (dielectric constant: 78.4, screening length: 5.74355 Bohr) occupying 0.725112 of unit cell:	Completed after 6 iterations at t[s]:   4697.10
	Linear fluid (dielectric constant: 78.4, screening length: 5.74355 Bohr) occupying 0.725106 of unit cell:	Completed after 2 iterations at t[s]:   4723.88
	FillingsUpdate:  mu: -0.214776465  nElectrons: 567.500000
	SubspaceRotationAdjust: set factor to 0.207
ElecMinimize: Iter:   8  F: -2330.502689584785003  |grad|_K:  8.664e-08  alpha:  2.427e-01  linmin:  1.805e-07  t[s]:   4758.07
	Linear fluid (dielectric constant: 78.4, screening length: 5.74355 Bohr) occupying 0.725108 of unit cell:	Completed after 2 iterations at t[s]:   4786.11
	Linear fluid (dielectric constant: 78.4, screening length: 5.74355 Bohr) occupying 0.725109 of unit cell:	Completed after 1 iterations at t[s]:   4812.28
	FillingsUpdate:  mu: -0.214711438  nElectrons: 567.500000
	SubspaceRotationAdjust: set factor to 0.263
ElecMinimize: Iter:   9  F: -2330.502690127962524  |grad|_K:  4.833e-08  alpha:  3.262e-01  linmin: -1.465e-06  t[s]:   4846.70
	Linear fluid (dielectric constant: 78.4, screening length: 5.74355 Bohr) occupying 0.725109 of unit cell:	Completed after 2 iterations at t[s]:   4874.88
	Linear fluid (dielectric constant: 78.4, screening length: 5.74355 Bohr) occupying 0.725109 of unit cell:	Completed after 0 iterations at t[s]:   4901.22
	FillingsUpdate:  mu: -0.214674530  nElectrons: 567.500000
	SubspaceRotationAdjust: set factor to 0.247
ElecMinimize: Iter:  10  F: -2330.502690353132039  |grad|_K:  4.082e-08  alpha:  3.858e-01  linmin: -4.478e-06  t[s]:   4935.09
	Linear fluid (dielectric constant: 78.4, screening length: 5.74355 Bohr) occupying 0.725108 of unit cell:	Completed after 2 iterations at t[s]:   4962.53
	Linear fluid (dielectric constant: 78.4, screening length: 5.74355 Bohr) occupying 0.725108 of unit cell:	Completed after 0 iterations at t[s]:   4988.40
	FillingsUpdate:  mu: -0.214693404  nElectrons: 567.500000
	SubspaceRotationAdjust: set factor to 0.238
ElecMinimize: Iter:  11  F: -2330.502690489937777  |grad|_K:  2.726e-08  alpha:  3.017e-01  linmin:  2.848e-06  t[s]:   5022.07
	Linear fluid (dielectric constant: 78.4, screening length: 5.74355 Bohr) occupying 0.725107 of unit cell:	Completed after 0 iterations at t[s]:   5050.01
	Linear fluid (dielectric constant: 78.4, screening length: 5.74355 Bohr) occupying 0.725106 of unit cell:	Completed after 2 iterations at t[s]:   5076.23
	FillingsUpdate:  mu: -0.214702625  nElectrons: 567.500000
	SubspaceRotationAdjust: set factor to 0.277
ElecMinimize: Iter:  12  F: -2330.502690540788535  |grad|_K:  1.647e-08  alpha:  4.982e-01  linmin:  9.772e-06  t[s]:   5110.25
	Linear fluid (dielectric constant: 78.4, screening length: 5.74355 Bohr) occupying 0.725105 of unit cell:	Completed after 0 iterations at t[s]:   5137.78
	Linear fluid (dielectric constant: 78.4, screening length: 5.74355 Bohr) occupying 0.725105 of unit cell:	Completed after 0 iterations at t[s]:   5163.51
	FillingsUpdate:  mu: -0.214702533  nElectrons: 567.500000
	SubspaceRotationAdjust: set factor to 0.368
ElecMinimize: Iter:  13  F: -2330.502690565203920  |grad|_K:  1.249e-08  alpha:  4.935e-01  linmin: -7.543e-08  t[s]:   5197.94
	Linear fluid (dielectric constant: 78.4, screening length: 5.74355 Bohr) occupying 0.725105 of unit cell:	Completed after 0 iterations at t[s]:   5225.63
	Linear fluid (dielectric constant: 78.4, screening length: 5.74355 Bohr) occupying 0.725104 of unit cell:	Completed after 1 iterations at t[s]:   5251.35
	FillingsUpdate:  mu: -0.214700386  nElectrons: 567.500000
	SubspaceRotationAdjust: set factor to 0.382
ElecMinimize: Iter:  14  F: -2330.502690566867386  |grad|_K:  1.443e-08  alpha:  5.892e-01  linmin:  1.086e-05  t[s]:   5285.44
	Linear fluid (dielectric constant: 78.4, screening length: 5.74355 Bohr) occupying 0.725103 of unit cell:	Completed after 0 iterations at t[s]:   5312.90
	Linear fluid (dielectric constant: 78.4, screening length: 5.74355 Bohr) occupying 0.725104 of unit cell:	Completed after 0 iterations at t[s]:   5338.36
	FillingsUpdate:  mu: -0.214700606  nElectrons: 567.500000
	SubspaceRotationAdjust: set factor to 0.512
ElecMinimize: Iter:  15  F: -2330.502690572240226  |grad|_K:  1.395e-08  alpha:  2.802e-01  linmin: -6.172e-07  t[s]:   5372.35
ElecMinimize: Converged (|Delta F|<1.000000e-08 for 2 iters).
Setting wave functions to eigenvectors of Hamiltonian
Single-point solvation energy estimate, DeltaF = -0.087379029723706

# Ionic positions in lattice coordinates:
ion V   0.166666667703704   0.166666666666667   0.618872468343411 1
ion V   0.000000001037037   0.166666666666667   0.499999437992914 1
ion V   0.166666667703704   0.166666666666667   0.381126407642418 1
ion V   0.500000001037037   0.166666666666667   0.618872468343411 1
ion V   0.333333334370370   0.166666666666667   0.499999437992914 1
ion V   0.500000001037037   0.166666666666667   0.381126407642418 1
ion V   0.833333334370370   0.166666666666667   0.618872468343411 1
ion V   0.666666667703704   0.166666666666667   0.499999437992914 1
ion V   0.833333334370370   0.166666666666667   0.381126407642418 1
ion V   0.166666667703704   0.500000000000000   0.618872468343411 1
ion V   0.000000001037037   0.500000000000000   0.499999437992914 1
ion V   0.166666667703704   0.500000000000000   0.381126407642418 1
ion V   0.500000001037037   0.500000000000000   0.618872468343411 1
ion V   0.333333334370370   0.500000000000000   0.499999437992915 1
ion V   0.500000001037037   0.500000000000000   0.381126407642418 1
ion V   0.833333334370370   0.500000000000000   0.618872468343411 1
ion V   0.666666667703704   0.500000000000000   0.499999437992915 1
ion V   0.833333334370370   0.500000000000000   0.381126407642418 1
ion V   0.166666667703704   0.833333333333333   0.618872468343411 1
ion V   0.000000001037037   0.833333333333333   0.499999437992914 1
ion V   0.166666667703704   0.833333333333333   0.381126407642418 1
ion V   0.500000001037037   0.833333333333333   0.618872468343411 1
ion V   0.333333334370370   0.833333333333333   0.499999437992914 1
ion V   0.500000001037037   0.833333333333333   0.381126407642418 1
ion V   0.833333334370370   0.833333333333333   0.618872468343411 1
ion V   0.666666667703704   0.833333333333333   0.499999437992914 1
ion V   0.833333334370370   0.833333333333333   0.381126407642418 1
ion B   0.000000001037037   0.000000000000000   0.575866968841880 1
ion B   0.166666667703704   0.000000000000000   0.539746224119954 1
ion B   0.000000001037037   0.000000000000000   0.424131907143949 1
ion B   0.166666667703704   0.000000000000000   0.460252651865875 1
ion B   0.333333334370370   0.000000000000000   0.575866968841880 1
ion B   0.500000001037037   0.000000000000000   0.539746224119954 1
ion B   0.333333334370370   0.000000000000000   0.424131907143949 1
ion B   0.500000001037037   0.000000000000000   0.460252651865875 1
ion B   0.666666667703704   0.000000000000000   0.575866968841880 1
ion B   0.833333334370370   0.000000000000000   0.539746224119954 1
ion B   0.666666667703704   0.000000000000000   0.424131907143949 1
ion B   0.833333334370370   0.000000000000000   0.460252651865875 1
ion B   0.000000001037037   0.333333333333333   0.575866968841880 1
ion B   0.166666667703704   0.333333333333333   0.539746224119954 1
ion B   0.000000001037037   0.333333333333333   0.424131907143949 1
ion B   0.166666667703704   0.333333333333333   0.460252651865875 1
ion B   0.333333334370370   0.333333333333333   0.575866968841880 1
ion B   0.500000001037037   0.333333333333333   0.539746224119954 1
ion B   0.333333334370370   0.333333333333333   0.424131907143949 1
ion B   0.500000001037037   0.333333333333333   0.460252651865875 1
ion B   0.666666667703704   0.333333333333333   0.575866968841880 1
ion B   0.833333334370370   0.333333333333333   0.539746224119954 1
ion B   0.666666667703704   0.333333333333333   0.424131907143949 1
ion B   0.833333334370370   0.333333333333333   0.460252651865875 1
ion B   0.000000001037037   0.666666666666667   0.575866968841880 1
ion B   0.166666667703704   0.666666666666667   0.539746224119954 1
ion B   0.000000001037037   0.666666666666667   0.424131907143949 1
ion B   0.166666667703704   0.666666666666667   0.460252651865875 1
ion B   0.333333334370370   0.666666666666667   0.575866968841880 1
ion B   0.500000001037037   0.666666666666667   0.539746224119954 1
ion B   0.333333334370370   0.666666666666667   0.424131907143949 1
ion B   0.500000001037037   0.666666666666667   0.460252651865875 1
ion B   0.666666667703704   0.666666666666667   0.575866968841880 1
ion B   0.833333334370370   0.666666666666667   0.539746224119954 1
ion B   0.666666667703704   0.666666666666667   0.424131907143949 1
ion B   0.833333334370370   0.666666666666667   0.460252651865875 1
ion O   0.000000001037037   0.166666666666667   0.668664973342451 1
ion O   0.000000001037037   0.166666666666667   0.331333902643378 1
ion O   0.333333334370370   0.166666666666667   0.668664973342451 1
ion O   0.333333334370370   0.166666666666667   0.331333902643378 1
ion O   0.666666667703704   0.166666666666667   0.668664973342451 1
ion O   0.666666667703704   0.166666666666667   0.331333902643378 1
ion O   0.000000001037037   0.500000000000000   0.668664973342451 1
ion O   0.000000001037037   0.500000000000000   0.331333902643378 1
ion O   0.333333334370370   0.500000000000000   0.668664973342451 1
ion O   0.333333334370370   0.500000000000000   0.331333902643378 1
ion O   0.666666667703704   0.500000000000000   0.668664973342451 1
ion O   0.666666667703704   0.500000000000000   0.331333902643378 1
ion O   0.000000001037037   0.833333333333333   0.668664973342451 1
ion O   0.000000001037037   0.833333333333333   0.331333902643378 1
ion O   0.333333334370370   0.833333333333333   0.668664973342451 1
ion O   0.333333334370370   0.833333333333333   0.331333902643378 1
ion O   0.666666667703704   0.833333333333333   0.668664973342451 1
ion O   0.666666667703704   0.833333333333333   0.331333902643378 1


# Forces in Lattice coordinates:
force V   0.000000000000000  -0.000000000000000  -0.141033747722036 1
force V   0.000000000000000  -0.000000000000000  -0.000000000000000 1
force V   0.000000000000000  -0.000000000000000   0.141033747722035 1
force V   0.000000000000000  -0.000000000000000  -0.141033747722036 1
force V  -0.000000000000000  -0.000000000000000  -0.000000000000000 1
force V   0.000000000000000   0.000000000000000   0.141033747722036 1
force V  -0.000000000000000   0.000000000000000  -0.141033747722491 1
force V  -0.000000000000000   0.000000000000000  -0.000000000000000 1
force V  -0.000000000000000   0.000000000000000   0.141033747722036 1
force V  -0.000000000000000   0.000000000000000  -0.141033747722490 1
force V  -0.000000000000000  -0.000000000000000   0.000000000000000 1
force V  -0.000000000000000  -0.000000000000000   0.141033747722491 1
force V  -0.000000000000000  -0.000000000000000  -0.141033747722490 1
force V  -0.000000000000000   0.000000000000000   0.000000000000000 1
force V  -0.000000000000000  -0.000000000000000   0.141033747722035 1
force V   0.000000000000000   0.000000000000000  -0.141033747722490 1
force V  -0.000000000000000   0.000000000000000  -0.000000000000000 1
force V   0.000000000000000  -0.000000000000000   0.141033747722490 1
force V  -0.000000000000000  -0.000000000000000  -0.141033747722035 1
force V   0.000000000000000  -0.000000000000000  -0.000000000000000 1
force V  -0.000000000000000   0.000000000000000   0.141033747722035 1
force V  -0.000000000000000  -0.000000000000000  -0.141033747722035 1
force V  -0.000000000000000  -0.000000000000000  -0.000000000000000 1
force V   0.000000000000000   0.000000000000000   0.141033747722490 1
force V  -0.000000000000000  -0.000000000000000  -0.141033747722490 1
force V  -0.000000000000000   0.000000000000000   0.000000000000000 1
force V  -0.000000000000000   0.000000000000000   0.141033747722036 1
force B  -0.000000000000000   0.000000000000000   0.000592403035225 1
force B   0.000000000000000  -0.000000000000000  -0.011630110111485 1
force B   0.000000000000000   0.000000000000000  -0.000592403035225 1
force B  -0.000000000000000   0.000000000000000   0.011630110111542 1
force B   0.000000000000000   0.000000000000000   0.000592403035225 1
force B   0.000000000000000  -0.000000000000000  -0.011630110111371 1
force B   0.000000000000000  -0.000000000000000  -0.000592403035225 1
force B   0.000000000000000   0.000000000000000   0.011630110111485 1
force B  -0.000000000000000   0.000000000000000   0.000592403035225 1
force B   0.000000000000000  -0.000000000000000  -0.011630110111428 1
force B  -0.000000000000000   0.000000000000000  -0.000592403035225 1
force B   0.000000000000000   0.000000000000000   0.011630110111485 1
force B  -0.000000000000000  -0.000000000000000   0.000592403035338 1
force B   0.000000000000000   0.000000000000000  -0.011630110111599 1
force B   0.000000000000000   0.000000000000000  -0.000592403035225 1
force B   0.000000000000000  -0.000000000000000   0.011630110111485 1
force B  -0.000000000000000  -0.000000000000000   0.000592403035225 1
force B   0.000000000000000   0.000000000000000  -0.011630110111542 1
force B  -0.000000000000000   0.000000000000000  -0.000592403035111 1
force B  -0.000000000000000   0.000000000000000   0.011630110111428 1
force B  -0.000000000000000   0.000000000000000   0.000592403035338 1
force B  -0.000000000000000   0.000000000000000  -0.011630110111485 1
force B  -0.000000000000000  -0.000000000000000  -0.000592403035111 1
force B  -0.000000000000000  -0.000000000000000   0.011630110111371 1
force B  -0.000000000000000  -0.000000000000000   0.000592403035338 1
force B   0.000000000000000   0.000000000000000  -0.011630110111542 1
force B  -0.000000000000000  -0.000000000000000  -0.000592403035111 1
force B   0.000000000000000   0.000000000000000   0.011630110111542 1
force B  -0.000000000000000  -0.000000000000000   0.000592403035338 1
force B   0.000000000000000  -0.000000000000000  -0.011630110111485 1
force B  -0.000000000000000   0.000000000000000  -0.000592403035225 1
force B   0.000000000000000  -0.000000000000000   0.011630110111542 1
force B  -0.000000000000000   0.000000000000000   0.000592403035452 1
force B  -0.000000000000000   0.000000000000000  -0.011630110111485 1
force B  -0.000000000000000  -0.000000000000000  -0.000592403035111 1
force B  -0.000000000000000  -0.000000000000000   0.011630110111485 1
force O  -0.000000000000000   0.000000000000000   0.140514789767742 1
force O  -0.000000000000000   0.000000000000000  -0.140514789767739 1
force O  -0.000000000000000   0.000000000000000   0.140514789768648 1
force O  -0.000000000000000   0.000000000000000  -0.140514789767735 1
force O   0.000000000000000   0.000000000000000   0.140514789767739 1
force O   0.000000000000000   0.000000000000000  -0.140514789768194 1
force O  -0.000000000000000   0.000000000000000   0.140514789768190 1
force O  -0.000000000000000  -0.000000000000000  -0.140514789767742 1
force O   0.000000000000000   0.000000000000000   0.140514789768190 1
force O   0.000000000000000  -0.000000000000000  -0.140514789768190 1
force O  -0.000000000000000   0.000000000000000   0.140514789768645 1
force O  -0.000000000000000  -0.000000000000000  -0.140514789768194 1
force O   0.000000000000000  -0.000000000000000   0.140514789768194 1
force O  -0.000000000000000   0.000000000000000  -0.140514789768648 1
force O   0.000000000000000  -0.000000000000000   0.140514789768190 1
force O  -0.000000000000000   0.000000000000000  -0.140514789768648 1
force O  -0.000000000000000  -0.000000000000000   0.140514789768190 1
force O  -0.000000000000000   0.000000000000000  -0.140514789768194 1

# Energy components:
   A_diel =       -0.0757700505624846
   Eewald =    32372.1387224106110807
       EH =    34355.1686645208974369
     Eloc =   -69497.5689111369865714
      Enl =       90.2289944064207106
      Exc =     -385.4983948501351847
 Exc_core =       35.3999596528635720
       KE =      699.8028642562592267
  MuShift =       -0.0119169713129694
-------------------------------------
     Etot =    -2330.4157877619431929
       TS =        0.0869028102968886
-------------------------------------
        F =    -2330.5026905722402262

IonicMinimize: Iter:   0  F: -2330.502690572240226  |grad|_K:  1.272e-03  t[s]:   5390.30

#--- Lowdin population analysis ---
# oxidation-state V +1.022 +0.822 +1.022 +1.022 +0.822 +1.022 +1.022 +0.822 +1.022 +1.022 +0.822 +1.022 +1.022 +0.822 +1.022 +1.022 +0.822 +1.022 +1.022 +0.822 +1.022 +1.022 +0.822 +1.022 +1.022 +0.822 +1.022
# oxidation-state B -0.492 -0.403 -0.492 -0.403 -0.492 -0.403 -0.492 -0.403 -0.492 -0.403 -0.492 -0.403 -0.492 -0.403 -0.492 -0.403 -0.492 -0.403 -0.492 -0.403 -0.492 -0.403 -0.492 -0.403 -0.492 -0.403 -0.492 -0.403 -0.492 -0.403 -0.492 -0.403 -0.492 -0.403 -0.492 -0.403
# oxidation-state O -0.477 -0.477 -0.477 -0.477 -0.477 -0.477 -0.477 -0.477 -0.477 -0.477 -0.477 -0.477 -0.477 -0.477 -0.477 -0.477 -0.477 -0.477

	Linear fluid (dielectric constant: 78.4, screening length: 5.74355 Bohr) occupying 0.725017 of unit cell:	Completed after 12 iterations at t[s]:   5421.44

-------- Electronic minimization -----------
	Linear fluid (dielectric constant: 78.4, screening length: 5.74355 Bohr) occupying 0.725017 of unit cell:	Completed after 0 iterations at t[s]:   5440.67
	FillingsUpdate:  mu: -0.216889168  nElectrons: 567.500000
ElecMinimize: Iter:   0  F: -2330.502786772790387  |grad|_K:  1.081e-06  alpha:  1.000e+00
	Linear fluid (dielectric constant: 78.4, screening length: 5.74355 Bohr) occupying 0.725051 of unit cell:	Completed after 15 iterations at t[s]:   5509.78
	Linear fluid (dielectric constant: 78.4, screening length: 5.74355 Bohr) occupying 0.725023 of unit cell:	Completed after 15 iterations at t[s]:   5538.78
	FillingsUpdate:  mu: -0.215373064  nElectrons: 567.500000
	SubspaceRotationAdjust: set factor to 0.293
ElecMinimize: Iter:   1  F: -2330.502830619975612  |grad|_K:  9.948e-07  alpha:  1.697e-01  linmin: -1.630e-05  t[s]:   5573.33
	Linear fluid (dielectric constant: 78.4, screening length: 5.74355 Bohr) occupying 0.725030 of unit cell:	Completed after 8 iterations at t[s]:   5602.31
	Linear fluid (dielectric constant: 78.4, screening length: 5.74355 Bohr) occupying 0.725041 of unit cell:	Completed after 10 iterations at t[s]:   5630.34
	FillingsUpdate:  mu: -0.214567625  nElectrons: 567.500000
	SubspaceRotationAdjust: set factor to 0.268
ElecMinimize: Iter:   2  F: -2330.502926725075213  |grad|_K:  6.556e-07  alpha:  4.383e-01  linmin:  1.319e-05  t[s]:   5664.93
	Linear fluid (dielectric constant: 78.4, screening length: 5.74355 Bohr) occupying 0.725047 of unit cell:	Completed after 12 iterations at t[s]:   5694.50
	Linear fluid (dielectric constant: 78.4, screening length: 5.74355 Bohr) occupying 0.725048 of unit cell:	Completed after 2 iterations at t[s]:   5721.15
	FillingsUpdate:  mu: -0.215367003  nElectrons: 567.500000
	SubspaceRotationAdjust: set factor to 0.294
ElecMinimize: Iter:   3  F: -2330.502974519575218  |grad|_K:  4.051e-07  alpha:  5.028e-01  linmin: -2.286e-05  t[s]:   5755.64
	Linear fluid (dielectric constant: 78.4, screening length: 5.74355 Bohr) occupying 0.725050 of unit cell:	Completed after 7 iterations at t[s]:   5784.28
	Linear fluid (dielectric constant: 78.4, screening length: 5.74355 Bohr) occupying 0.725050 of unit cell:	Completed after 0 iterations at t[s]:   5810.22
	FillingsUpdate:  mu: -0.215542860  nElectrons: 567.500000
	SubspaceRotationAdjust: set factor to 0.341
ElecMinimize: Iter:   4  F: -2330.502992697759964  |grad|_K:  1.994e-07  alpha:  4.988e-01  linmin: -2.568e-05  t[s]:   5843.98
	Linear fluid (dielectric constant: 78.4, screening length: 5.74355 Bohr) occupying 0.725050 of unit cell:	Completed after 6 iterations at t[s]:   5872.53
	Linear fluid (dielectric constant: 78.4, screening length: 5.74355 Bohr) occupying 0.725050 of unit cell:	Completed after 3 iterations at t[s]:   5899.43
	FillingsUpdate:  mu: -0.215345637  nElectrons: 567.500000
	SubspaceRotationAdjust: set factor to 0.228
ElecMinimize: Iter:   5  F: -2330.502995593577452  |grad|_K:  1.574e-07  alpha:  3.313e-01  linmin:  2.230e-05  t[s]:   5933.10
	Linear fluid (dielectric constant: 78.4, screening length: 5.74355 Bohr) occupying 0.725049 of unit cell:	Completed after 5 iterations at t[s]:   5959.14
	Linear fluid (dielectric constant: 78.4, screening length: 5.74355 Bohr) occupying 0.725049 of unit cell:	Completed after 3 iterations at t[s]:   5984.80
	FillingsUpdate:  mu: -0.215491301  nElectrons: 567.500000
	SubspaceRotationAdjust: set factor to 0.16
ElecMinimize: Iter:   6  F: -2330.502996840664309  |grad|_K:  7.346e-08  alpha:  2.322e-01  linmin:  9.527e-06  t[s]:   6019.07
	Linear fluid (dielectric constant: 78.4, screening length: 5.74355 Bohr) occupying 0.725048 of unit cell:	Completed after 2 iterations at t[s]:   6047.01
	Linear fluid (dielectric constant: 78.4, screening length: 5.74355 Bohr) occupying 0.725048 of unit cell:	Completed after 1 iterations at t[s]:   6073.29
	FillingsUpdate:  mu: -0.215457018  nElectrons: 567.500000
	SubspaceRotationAdjust: set factor to 0.228
ElecMinimize: Iter:   7  F: -2330.502997394463364  |grad|_K:  4.177e-08  alpha:  4.591e-01  linmin: -3.369e-05  t[s]:   6107.05
	Linear fluid (dielectric constant: 78.4, screening length: 5.74355 Bohr) occupying 0.725048 of unit cell:	Completed after 0 iterations at t[s]:   6134.63
	Linear fluid (dielectric constant: 78.4, screening length: 5.74355 Bohr) occupying 0.725047 of unit cell:	Completed after 0 iterations at t[s]:   6160.44
	FillingsUpdate:  mu: -0.215456760  nElectrons: 567.500000
	SubspaceRotationAdjust: set factor to 0.284
ElecMinimize: Iter:   8  F: -2330.502997622433213  |grad|_K:  3.209e-08  alpha:  5.756e-01  linmin: -8.550e-06  t[s]:   6194.42
	Linear fluid (dielectric constant: 78.4, screening length: 5.74355 Bohr) occupying 0.725047 of unit cell:	Completed after 1 iterations at t[s]:   6221.73
	Linear fluid (dielectric constant: 78.4, screening length: 5.74355 Bohr) occupying 0.725047 of unit cell:	Completed after 0 iterations at t[s]:   6248.17
	FillingsUpdate:  mu: -0.215452664  nElectrons: 567.500000
	SubspaceRotationAdjust: set factor to 0.233
ElecMinimize: Iter:   9  F: -2330.502997681110173  |grad|_K:  3.863e-08  alpha:  3.409e-01  linmin: -3.180e-06  t[s]:   6282.16
	Linear fluid (dielectric constant: 78.4, screening length: 5.74355 Bohr) occupying 0.725047 of unit cell:	Completed after 3 iterations at t[s]:   6310.00
	Linear fluid (dielectric constant: 78.4, screening length: 5.74355 Bohr) occupying 0.725047 of unit cell:	Completed after 0 iterations at t[s]:   6336.11
	FillingsUpdate:  mu: -0.215463496  nElectrons: 567.500000
	SubspaceRotationAdjust: set factor to 0.188
ElecMinimize: Iter:  10  F: -2330.502997756458171  |grad|_K:  3.347e-08  alpha:  2.161e-01  linmin:  1.665e-05  t[s]:   6369.95
	Linear fluid (dielectric constant: 78.4, screening length: 5.74355 Bohr) occupying 0.725046 of unit cell:	Completed after 0 iterations at t[s]:   6397.15
	Linear fluid (dielectric constant: 78.4, screening length: 5.74355 Bohr) occupying 0.725046 of unit cell:	Completed after 0 iterations at t[s]:   6422.64
	FillingsUpdate:  mu: -0.215463722  nElectrons: 567.500000
	SubspaceRotationAdjust: set factor to 0.253
ElecMinimize: Iter:  11  F: -2330.502997834879352  |grad|_K:  2.485e-08  alpha:  3.726e-01  linmin:  1.267e-07  t[s]:   6456.51
	Linear fluid (dielectric constant: 78.4, screening length: 5.74355 Bohr) occupying 0.725046 of unit cell:	Completed after 1 iterations at t[s]:   6484.84
	Linear fluid (dielectric constant: 78.4, screening length: 5.74355 Bohr) occupying 0.725046 of unit cell:	Completed after 1 iterations at t[s]:   6510.73
ElecMinimize: 	Step increased F by 2.114029e-08, reducing alpha to 1.019192e-02.
	Linear fluid (dielectric constant: 78.4, screening length: 5.74355 Bohr) occupying 0.725046 of unit cell:	Completed after 0 iterations at t[s]:   6567.12
ElecMinimize: 	Step increased F by 1.128774e-08, reducing alpha to 1.019192e-03.
	Linear fluid (dielectric constant: 78.4, screening length: 5.74355 Bohr) occupying 0.725046 of unit cell:	Completed after 0 iterations at t[s]:   6622.79
ElecMinimize: 	Step increased F by 1.062017e-08, reducing alpha to 1.019192e-04.
ElecMinimize: 	Step failed to reduce F after 3 attempts. Quitting step.
ElecMinimize: 	Undoing step.
	Linear fluid (dielectric constant: 78.4, screening length: 5.74355 Bohr) occupying 0.725046 of unit cell:	Completed after 0 iterations at t[s]:   6678.96
ElecMinimize: 	Step failed: resetting search direction.
	FillingsUpdate:  mu: -0.215463707  nElectrons: 567.500000
	SubspaceRotationAdjust: set factor to 0.218
ElecMinimize: Iter:  12  F: -2330.502997824290560  |grad|_K:  3.365e-08  alpha:  1.019e-04
	Linear fluid (dielectric constant: 78.4, screening length: 5.74355 Bohr) occupying 0.725046 of unit cell:	Completed after 2 iterations at t[s]:   6740.31
	Linear fluid (dielectric constant: 78.4, screening length: 5.74355 Bohr) occupying 0.725046 of unit cell:	Completed after 1 iterations at t[s]:   6766.52
ElecMinimize: 	Step increased F by 1.861281e-09, reducing alpha to 1.317655e-02.
	Linear fluid (dielectric constant: 78.4, screening length: 5.74355 Bohr) occupying 0.725046 of unit cell:	Completed after 0 iterations at t[s]:   6822.37
ElecMinimize: 	Step increased F by 1.777607e-09, reducing alpha to 1.317655e-03.
	Linear fluid (dielectric constant: 78.4, screening length: 5.74355 Bohr) occupying 0.725046 of unit cell:	Completed after 0 iterations at t[s]:   6877.97
ElecMinimize: 	Step increased F by 2.152774e-09, reducing alpha to 1.317655e-04.
ElecMinimize: 	Step failed to reduce F after 3 attempts. Quitting step.
ElecMinimize: 	Undoing step.
	Linear fluid (dielectric constant: 78.4, screening length: 5.74355 Bohr) occupying 0.725046 of unit cell:	Completed after 0 iterations at t[s]:   6933.74
ElecMinimize: 	Step failed along negative gradient direction.
ElecMinimize: Probably at roundoff error limit. (Stopping)
Setting wave functions to eigenvectors of Hamiltonian

# Ionic positions in lattice coordinates:
ion V   0.166666667703704   0.166666666666667   0.618795012185029 1
ion V   0.000000001037037   0.166666666666667   0.499999437992914 1
ion V   0.166666667703704   0.166666666666667   0.381203863800800 1
ion V   0.500000001037037   0.166666666666667   0.618795012185029 1
ion V   0.333333334370370   0.166666666666667   0.499999437992914 1
ion V   0.500000001037037   0.166666666666667   0.381203863800800 1
ion V   0.833333334370370   0.166666666666667   0.618795012185029 1
ion V   0.666666667703704   0.166666666666667   0.499999437992914 1
ion V   0.833333334370370   0.166666666666667   0.381203863800800 1
ion V   0.166666667703704   0.500000000000000   0.618795012185029 1
ion V   0.000000001037037   0.500000000000000   0.499999437992914 1
ion V   0.166666667703704   0.500000000000000   0.381203863800800 1
ion V   0.500000001037037   0.500000000000000   0.618795012185029 1
ion V   0.333333334370370   0.500000000000000   0.499999437992915 1
ion V   0.500000001037037   0.500000000000000   0.381203863800800 1
ion V   0.833333334370370   0.500000000000000   0.618795012185029 1
ion V   0.666666667703704   0.500000000000000   0.499999437992915 1
ion V   0.833333334370370   0.500000000000000   0.381203863800800 1
ion V   0.166666667703704   0.833333333333333   0.618795012185029 1
ion V   0.000000001037037   0.833333333333333   0.499999437992914 1
ion V   0.166666667703704   0.833333333333333   0.381203863800800 1
ion V   0.500000001037037   0.833333333333333   0.618795012185029 1
ion V   0.333333334370370   0.833333333333333   0.499999437992914 1
ion V   0.500000001037037   0.833333333333333   0.381203863800800 1
ion V   0.833333334370370   0.833333333333333   0.618795012185029 1
ion V   0.666666667703704   0.833333333333333   0.499999437992914 1
ion V   0.833333334370370   0.833333333333333   0.381203863800800 1
ion B   0.000000001037037   0.000000000000000   0.575867294191409 1
ion B   0.166666667703704   0.000000000000000   0.539739836828505 1
ion B   0.000000001037037   0.000000000000000   0.424131581794420 1
ion B   0.166666667703704   0.000000000000000   0.460259039157324 1
ion B   0.333333334370370   0.000000000000000   0.575867294191409 1
ion B   0.500000001037037   0.000000000000000   0.539739836828505 1
ion B   0.333333334370370   0.000000000000000   0.424131581794420 1
ion B   0.500000001037037   0.000000000000000   0.460259039157324 1
ion B   0.666666667703704   0.000000000000000   0.575867294191409 1
ion B   0.833333334370370   0.000000000000000   0.539739836828505 1
ion B   0.666666667703704   0.000000000000000   0.424131581794420 1
ion B   0.833333334370370   0.000000000000000   0.460259039157324 1
ion B   0.000000001037037   0.333333333333333   0.575867294191409 1
ion B   0.166666667703704   0.333333333333333   0.539739836828505 1
ion B   0.000000001037037   0.333333333333333   0.424131581794420 1
ion B   0.166666667703704   0.333333333333333   0.460259039157324 1
ion B   0.333333334370370   0.333333333333333   0.575867294191409 1
ion B   0.500000001037037   0.333333333333333   0.539739836828505 1
ion B   0.333333334370370   0.333333333333333   0.424131581794420 1
ion B   0.500000001037037   0.333333333333333   0.460259039157324 1
ion B   0.666666667703704   0.333333333333333   0.575867294191409 1
ion B   0.833333334370370   0.333333333333333   0.539739836828505 1
ion B   0.666666667703704   0.333333333333333   0.424131581794420 1
ion B   0.833333334370370   0.333333333333333   0.460259039157324 1
ion B   0.000000001037037   0.666666666666667   0.575867294191409 1
ion B   0.166666667703704   0.666666666666667   0.539739836828505 1
ion B   0.000000001037037   0.666666666666667   0.424131581794420 1
ion B   0.166666667703704   0.666666666666667   0.460259039157324 1
ion B   0.333333334370370   0.666666666666667   0.575867294191409 1
ion B   0.500000001037037   0.666666666666667   0.539739836828505 1
ion B   0.333333334370370   0.666666666666667   0.424131581794420 1
ion B   0.500000001037037   0.666666666666667   0.460259039157324 1
ion B   0.666666667703704   0.666666666666667   0.575867294191409 1
ion B   0.833333334370370   0.666666666666667   0.539739836828505 1
ion B   0.666666667703704   0.666666666666667   0.424131581794420 1
ion B   0.833333334370370   0.666666666666667   0.460259039157324 1
ion O   0.000000001037037   0.166666666666667   0.668742144487564 1
ion O   0.000000001037037   0.166666666666667   0.331256731498265 1
ion O   0.333333334370370   0.166666666666667   0.668742144487564 1
ion O   0.333333334370370   0.166666666666667   0.331256731498265 1
ion O   0.666666667703704   0.166666666666667   0.668742144487564 1
ion O   0.666666667703704   0.166666666666667   0.331256731498265 1
ion O   0.000000001037037   0.500000000000000   0.668742144487564 1
ion O   0.000000001037037   0.500000000000000   0.331256731498265 1
ion O   0.333333334370370   0.500000000000000   0.668742144487564 1
ion O   0.333333334370370   0.500000000000000   0.331256731498265 1
ion O   0.666666667703704   0.500000000000000   0.668742144487564 1
ion O   0.666666667703704   0.500000000000000   0.331256731498265 1
ion O   0.000000001037037   0.833333333333333   0.668742144487564 1
ion O   0.000000001037037   0.833333333333333   0.331256731498265 1
ion O   0.333333334370370   0.833333333333333   0.668742144487564 1
ion O   0.333333334370370   0.833333333333333   0.331256731498265 1
ion O   0.666666667703704   0.833333333333333   0.668742144487564 1
ion O   0.666666667703704   0.833333333333333   0.331256731498265 1


# Forces in Lattice coordinates:
force V  -0.000000000000000  -0.000000000000000  -0.073080700666198 1
force V   0.000000000000000  -0.000000000000000  -0.000000000000000 1
force V   0.000000000000000  -0.000000000000000   0.073080700667562 1
force V  -0.000000000000000   0.000000000000000  -0.073080700667562 1
force V   0.000000000000000  -0.000000000000000   0.000000000000000 1
force V  -0.000000000000000   0.000000000000000   0.073080700667563 1
force V  -0.000000000000000  -0.000000000000000  -0.073080700668017 1
force V  -0.000000000000000   0.000000000000000  -0.000000000000000 1
force V  -0.000000000000000  -0.000000000000000   0.073080700667563 1
force V  -0.000000000000000   0.000000000000000  -0.073080700667108 1
force V  -0.000000000000000  -0.000000000000000  -0.000000000000000 1
force V  -0.000000000000000   0.000000000000000   0.073080700667108 1
force V   0.000000000000000  -0.000000000000000  -0.073080700667563 1
force V   0.000000000000000  -0.000000000000000   0.000000000000000 1
force V  -0.000000000000000  -0.000000000000000   0.073080700667107 1
force V  -0.000000000000000  -0.000000000000000  -0.073080700666653 1
force V   0.000000000000000  -0.000000000000000  -0.000000000000000 1
force V  -0.000000000000000   0.000000000000000   0.073080700666198 1
force V  -0.000000000000000  -0.000000000000000  -0.073080700667562 1
force V   0.000000000000000   0.000000000000000  -0.000000000000000 1
force V   0.000000000000000  -0.000000000000000   0.073080700667563 1
force V   0.000000000000000   0.000000000000000  -0.073080700667108 1
force V   0.000000000000000  -0.000000000000000   0.000000000000000 1
force V  -0.000000000000000   0.000000000000000   0.073080700667108 1
force V  -0.000000000000000   0.000000000000000  -0.073080700666198 1
force V   0.000000000000000  -0.000000000000000  -0.000000000000000 1
force V  -0.000000000000000   0.000000000000000   0.073080700667562 1
force B  -0.000000000000000  -0.000000000000000   0.002245915886354 1
force B   0.000000000000000  -0.000000000000000  -0.013895393500272 1
force B  -0.000000000000000  -0.000000000000000  -0.002245915886241 1
force B   0.000000000000000   0.000000000000000   0.013895393500271 1
force B   0.000000000000000   0.000000000000000   0.002245915886468 1
force B   0.000000000000000   0.000000000000000  -0.013895393500272 1
force B  -0.000000000000000  -0.000000000000000  -0.002245915886241 1
force B  -0.000000000000000  -0.000000000000000   0.013895393500271 1
force B   0.000000000000000  -0.000000000000000   0.002245915886241 1
force B  -0.000000000000000   0.000000000000000  -0.013895393500158 1
force B  -0.000000000000000   0.000000000000000  -0.002245915886354 1
force B   0.000000000000000  -0.000000000000000   0.013895393500271 1
force B  -0.000000000000000  -0.000000000000000   0.002245915886127 1
force B   0.000000000000000  -0.000000000000000  -0.013895393500158 1
force B  -0.000000000000000   0.000000000000000  -0.002245915886127 1
force B   0.000000000000000  -0.000000000000000   0.013895393500215 1
force B  -0.000000000000000   0.000000000000000   0.002245915886127 1
force B  -0.000000000000000  -0.000000000000000  -0.013895393500215 1
force B  -0.000000000000000  -0.000000000000000  -0.002245915886241 1
force B   0.000000000000000  -0.000000000000000   0.013895393500272 1
force B  -0.000000000000000   0.000000000000000   0.002245915886127 1
force B  -0.000000000000000  -0.000000000000000  -0.013895393500158 1
force B  -0.000000000000000   0.000000000000000  -0.002245915886354 1
force B  -0.000000000000000  -0.000000000000000   0.013895393500215 1
force B  -0.000000000000000   0.000000000000000   0.002245915886241 1
force B  -0.000000000000000   0.000000000000000  -0.013895393500271 1
force B   0.000000000000000   0.000000000000000  -0.002245915886241 1
force B  -0.000000000000000   0.000000000000000   0.013895393500215 1
force B   0.000000000000000  -0.000000000000000   0.002245915886241 1
force B   0.000000000000000   0.000000000000000  -0.013895393500271 1
force B   0.000000000000000  -0.000000000000000  -0.002245915886241 1
force B   0.000000000000000  -0.000000000000000   0.013895393500215 1
force B   0.000000000000000  -0.000000000000000   0.002245915886241 1
force B   0.000000000000000  -0.000000000000000  -0.013895393500272 1
force B   0.000000000000000   0.000000000000000  -0.002245915886241 1
force B   0.000000000000000  -0.000000000000000   0.013895393500215 1
force O   0.000000000000000   0.000000000000000   0.085254827152781 1
force O   0.000000000000000  -0.000000000000000  -0.085254827152337 1
force O   0.000000000000000  -0.000000000000000   0.085254827152326 1
force O   0.000000000000000  -0.000000000000000  -0.085254827152788 1
force O   0.000000000000000  -0.000000000000000   0.085254827152781 1
force O   0.000000000000000  -0.000000000000000  -0.085254827152788 1
force O   0.000000000000000  -0.000000000000000   0.085254827152788 1
force O  -0.000000000000000  -0.000000000000000  -0.085254827152784 1
force O   0.000000000000000   0.000000000000000   0.085254827151875 1
force O   0.000000000000000  -0.000000000000000  -0.085254827152784 1
force O   0.000000000000000   0.000000000000000   0.085254827152788 1
force O   0.000000000000000   0.000000000000000  -0.085254827152777 1
force O   0.000000000000000  -0.000000000000000   0.085254827152330 1
force O  -0.000000000000000   0.000000000000000  -0.085254827152784 1
force O   0.000000000000000  -0.000000000000000   0.085254827152784 1
force O   0.000000000000000   0.000000000000000  -0.085254827152781 1
force O   0.000000000000000   0.000000000000000   0.085254827152788 1
force O  -0.000000000000000  -0.000000000000000  -0.085254827152781 1

# Energy components:
   A_diel =       -0.0757926569973293
   Eewald =    32373.6336915097926976
       EH =    34356.3912989798554918
     Eloc =   -69500.2475713586318307
      Enl =       90.2228968597448784
      Exc =     -385.4818543811767881
 Exc_core =       35.3999844243527804
       KE =      699.7531658501528682
  MuShift =       -0.0119169713129694
-------------------------------------
     Etot =    -2330.4160977442161311
       TS =        0.0869000779489777
-------------------------------------
        F =    -2330.5029978221650708

IonicMinimize: Iter:   1  F: -2330.502997822165071  |grad|_K:  7.218e-04  alpha:  1.000e+00  linmin: -9.947e-01  t[s]:   6985.62

#--- Lowdin population analysis ---
# oxidation-state V +1.023 +0.820 +1.023 +1.023 +0.820 +1.023 +1.023 +0.820 +1.023 +1.023 +0.820 +1.023 +1.023 +0.820 +1.023 +1.023 +0.820 +1.023 +1.023 +0.820 +1.023 +1.023 +0.820 +1.023 +1.023 +0.820 +1.023
# oxidation-state B -0.492 -0.404 -0.492 -0.404 -0.492 -0.404 -0.492 -0.404 -0.492 -0.404 -0.492 -0.404 -0.492 -0.404 -0.492 -0.404 -0.492 -0.404 -0.492 -0.404 -0.492 -0.404 -0.492 -0.404 -0.492 -0.404 -0.492 -0.404 -0.492 -0.404 -0.492 -0.404 -0.492 -0.404 -0.492 -0.404
# oxidation-state O -0.477 -0.477 -0.477 -0.477 -0.477 -0.477 -0.477 -0.477 -0.477 -0.477 -0.477 -0.477 -0.477 -0.477 -0.477 -0.477 -0.477 -0.477

	Linear fluid (dielectric constant: 78.4, screening length: 5.74355 Bohr) occupying 0.724919 of unit cell:	Completed after 12 iterations at t[s]:   7016.74

-------- Electronic minimization -----------
	Linear fluid (dielectric constant: 78.4, screening length: 5.74355 Bohr) occupying 0.724919 of unit cell:	Completed after 0 iterations at t[s]:   7036.46
	FillingsUpdate:  mu: -0.217509719  nElectrons: 567.500000
ElecMinimize: Iter:   0  F: -2330.502827314727256  |grad|_K:  8.358e-07  alpha:  1.000e+00
	Linear fluid (dielectric constant: 78.4, screening length: 5.74355 Bohr) occupying 0.724930 of unit cell:	Completed after 11 iterations at t[s]:   7103.51
	Linear fluid (dielectric constant: 78.4, screening length: 5.74355 Bohr) occupying 0.724928 of unit cell:	Completed after 7 iterations at t[s]:   7130.68
	FillingsUpdate:  mu: -0.216022519  nElectrons: 567.500000
	SubspaceRotationAdjust: set factor to 0.214
ElecMinimize: Iter:   1  F: -2330.502949703015020  |grad|_K:  7.328e-07  alpha:  7.908e-01  linmin:  1.013e-05  t[s]:   7164.96
	Linear fluid (dielectric constant: 78.4, screening length: 5.74355 Bohr) occupying 0.724939 of unit cell:	Completed after 7 iterations at t[s]:   7193.95
	Linear fluid (dielectric constant: 78.4, screening length: 5.74355 Bohr) occupying 0.724938 of unit cell:	Completed after 2 iterations at t[s]:   7220.51
	FillingsUpdate:  mu: -0.215949151  nElectrons: 567.500000
	SubspaceRotationAdjust: set factor to 0.242
ElecMinimize: Iter:   2  F: -2330.503032774886378  |grad|_K:  8.364e-07  alpha:  6.995e-01  linmin: -5.512e-06  t[s]:   7254.51
	Linear fluid (dielectric constant: 78.4, screening length: 5.74355 Bohr) occupying 0.724951 of unit cell:	Completed after 12 iterations at t[s]:   7284.38
	Linear fluid (dielectric constant: 78.4, screening length: 5.74355 Bohr) occupying 0.724948 of unit cell:	Completed after 6 iterations at t[s]:   7312.78
	FillingsUpdate:  mu: -0.217175359  nElectrons: 567.500000
	SubspaceRotationAdjust: set factor to 0.184
ElecMinimize: Iter:   3  F: -2330.503113429041605  |grad|_K:  6.738e-07  alpha:  5.199e-01  linmin:  9.295e-06  t[s]:   7347.02
	Linear fluid (dielectric constant: 78.4, screening length: 5.74355 Bohr) occupying 0.724957 of unit cell:	Completed after 12 iterations at t[s]:   7376.79
	Linear fluid (dielectric constant: 78.4, screening length: 5.74355 Bohr) occupying 0.724955 of unit cell:	Completed after 6 iterations at t[s]:   7404.70
	FillingsUpdate:  mu: -0.216192908  nElectrons: 567.500000
	SubspaceRotationAdjust: set factor to 0.119
ElecMinimize: Iter:   4  F: -2330.503151476078074  |grad|_K:  3.335e-07  alpha:  3.790e-01  linmin:  5.687e-06  t[s]:   7439.08
	Linear fluid (dielectric constant: 78.4, screening length: 5.74355 Bohr) occupying 0.724955 of unit cell:	Completed after 3 iterations at t[s]:   7467.32
	Linear fluid (dielectric constant: 78.4, screening length: 5.74355 Bohr) occupying 0.724956 of unit cell:	Completed after 3 iterations at t[s]:   7493.58
	FillingsUpdate:  mu: -0.216391873  nElectrons: 567.500000
	SubspaceRotationAdjust: set factor to 0.13
ElecMinimize: Iter:   5  F: -2330.503164831323829  |grad|_K:  1.806e-07  alpha:  5.439e-01  linmin:  9.265e-06  t[s]:   7528.08
[...]
	Linear fluid (dielectric constant: 78.4, screening length: 5.74355 Bohr) occupying 0.724930 of unit cell:	Completed after 0 iterations at t[s]:  10820.90
	FillingsUpdate:  mu: -0.216625414  nElectrons: 567.500000
	SubspaceRotationAdjust: set factor to 0.131
ElecMinimize: Iter:   7  F: -2330.503175277038736  |grad|_K:  2.280e-08  alpha:  4.102e-01  linmin: -3.228e-05  t[s]:  10854.51
	Linear fluid (dielectric constant: 78.4, screening length: 5.74355 Bohr) occupying 0.724930 of unit cell:	Completed after 0 iterations at t[s]:  10881.46
	Linear fluid (dielectric constant: 78.4, screening length: 5.74355 Bohr) occupying 0.724930 of unit cell:	Completed after 0 iterations at t[s]:  10907.70
	FillingsUpdate:  mu: -0.216625553  nElectrons: 567.500000
	SubspaceRotationAdjust: set factor to 0.161
ElecMinimize: Iter:   8  F: -2330.503175333800755  |grad|_K:  1.665e-08  alpha:  4.635e-01  linmin:  6.395e-07  t[s]:  10941.54
	Linear fluid (dielectric constant: 78.4, screening length: 5.74355 Bohr) occupying 0.724930 of unit cell:	Completed after 0 iterations at t[s]:  10968.91
	Linear fluid (dielectric constant: 78.4, screening length: 5.74355 Bohr) occupying 0.724930 of unit cell:	Completed after 0 iterations at t[s]:  10994.69
	FillingsUpdate:  mu: -0.216625713  nElectrons: 567.500000
	SubspaceRotationAdjust: set factor to 0.204
ElecMinimize: Iter:   9  F: -2330.503175365050538  |grad|_K:  1.202e-08  alpha:  5.085e-01  linmin: -5.877e-07  t[s]:  11028.58
	Linear fluid (dielectric constant: 78.4, screening length: 5.74355 Bohr) occupying 0.724930 of unit cell:	Completed after 2 iterations at t[s]:  11056.23
	Linear fluid (dielectric constant: 78.4, screening length: 5.74355 Bohr) occupying 0.724930 of unit cell:	Completed after 0 iterations at t[s]:  11081.80
ElecMinimize: 	Step increased F by 1.021726e-08, reducing alpha to 1.147005e-02.
	Linear fluid (dielectric constant: 78.4, screening length: 5.74355 Bohr) occupying 0.724930 of unit cell:	Completed after 0 iterations at t[s]:  11137.90
ElecMinimize: 	Step increased F by 7.749350e-09, reducing alpha to 1.147005e-03.
	Linear fluid (dielectric constant: 78.4, screening length: 5.74355 Bohr) occupying 0.724930 of unit cell:	Completed after 0 iterations at t[s]:  11194.00
ElecMinimize: 	Step increased F by 7.264134e-09, reducing alpha to 1.147005e-04.
ElecMinimize: 	Step failed to reduce F after 3 attempts. Quitting step.
ElecMinimize: 	Undoing step.
	Linear fluid (dielectric constant: 78.4, screening length: 5.74355 Bohr) occupying 0.724930 of unit cell:	Completed after 0 iterations at t[s]:  11249.66
ElecMinimize: 	Step failed: resetting search direction.
	FillingsUpdate:  mu: -0.216598669  nElectrons: 567.500000
	SubspaceRotationAdjust: set factor to 0.18
ElecMinimize: Iter:  10  F: -2330.503175357801865  |grad|_K:  2.761e-08  alpha:  1.147e-04
	Linear fluid (dielectric constant: 78.4, screening length: 5.74355 Bohr) occupying 0.724930 of unit cell:	Completed after 2 iterations at t[s]:  11311.21
	Linear fluid (dielectric constant: 78.4, screening length: 5.74355 Bohr) occupying 0.724930 of unit cell:	Completed after 2 iterations at t[s]:  11336.92
	FillingsUpdate:  mu: -0.216633485  nElectrons: 567.500000
	SubspaceRotationAdjust: set factor to 0.0844
ElecMinimize: Iter:  11  F: -2330.503175360121531  |grad|_K:  1.469e-08  alpha:  1.448e-01  linmin:  3.050e-04  t[s]:  11370.97
	Linear fluid (dielectric constant: 78.4, screening length: 5.74355 Bohr) occupying 0.724930 of unit cell:	Completed after 0 iterations at t[s]:  11398.35
ElecMinimize: 	Predicted alpha/alphaT>3.000000, increasing alphaT to 4.343324e-01.
	Linear fluid (dielectric constant: 78.4, screening length: 5.74355 Bohr) occupying 0.724930 of unit cell:	Completed after 0 iterations at t[s]:  11424.35
	Linear fluid (dielectric constant: 78.4, screening length: 5.74355 Bohr) occupying 0.724930 of unit cell:	Completed after 0 iterations at t[s]:  11449.91
	FillingsUpdate:  mu: -0.216632269  nElectrons: 567.500000
	SubspaceRotationAdjust: set factor to 0.0937
ElecMinimize: Iter:  12  F: -2330.503175381238179  |grad|_K:  1.170e-08  alpha:  5.811e-01  linmin: -3.384e-05  t[s]:  11483.97
	Linear fluid (dielectric constant: 78.4, screening length: 5.74355 Bohr) occupying 0.724930 of unit cell:	Completed after 2 iterations at t[s]:  11512.41
	Linear fluid (dielectric constant: 78.4, screening length: 5.74355 Bohr) occupying 0.724930 of unit cell:	Completed after 0 iterations at t[s]:  11538.37
ElecMinimize: 	Step increased F by 5.888978e-09, reducing alpha to 1.148659e-02.
	Linear fluid (dielectric constant: 78.4, screening length: 5.74355 Bohr) occupying 0.724930 of unit cell:	Completed after 0 iterations at t[s]:  11594.09
	FillingsUpdate:  mu: -0.216592582  nElectrons: 567.500000
	SubspaceRotationAdjust: set factor to 0.0696
ElecMinimize: Iter:  13  F: -2330.503175386999374  |grad|_K:  2.304e-08  alpha:  1.149e-02  linmin:  1.514e-04  t[s]:  11627.37
ElecMinimize: 	Bad step direction: g.d > 0.
ElecMinimize: 	Undoing step.
	Linear fluid (dielectric constant: 78.4, screening length: 5.74355 Bohr) occupying 0.724930 of unit cell:	Completed after 0 iterations at t[s]:  11654.77
ElecMinimize: 	Step failed: resetting search direction.
	FillingsUpdate:  mu: -0.216592582  nElectrons: 567.500000
	SubspaceRotationAdjust: set factor to 0.0576
ElecMinimize: Iter:  14  F: -2330.503175386998919  |grad|_K:  2.096e-08  alpha:  0.000e+00
	Linear fluid (dielectric constant: 78.4, screening length: 5.74355 Bohr) occupying 0.724930 of unit cell:	Completed after 0 iterations at t[s]:  11715.74
ElecMinimize: 	Predicted alpha/alphaT>3.000000, increasing alphaT to 3.445978e-02.
	Linear fluid (dielectric constant: 78.4, screening length: 5.74355 Bohr) occupying 0.724930 of unit cell:	Completed after 1 iterations at t[s]:  11741.82
	Linear fluid (dielectric constant: 78.4, screening length: 5.74355 Bohr) occupying 0.724930 of unit cell:	Completed after 0 iterations at t[s]:  11767.12
ElecMinimize: 	Step increased F by 2.217575e-08, reducing alpha to 4.335059e-04.
	Linear fluid (dielectric constant: 78.4, screening length: 5.74355 Bohr) occupying 0.724930 of unit cell:	Completed after 0 iterations at t[s]:  11822.76
ElecMinimize: 	Step increased F by 2.248998e-08, reducing alpha to 4.335059e-05.
	Linear fluid (dielectric constant: 78.4, screening length: 5.74355 Bohr) occupying 0.724930 of unit cell:	Completed after 0 iterations at t[s]:  11878.22
ElecMinimize: 	Step increased F by 2.258184e-08, reducing alpha to 4.335059e-06.
ElecMinimize: 	Step failed to reduce F after 3 attempts. Quitting step.
ElecMinimize: 	Undoing step.
	Linear fluid (dielectric constant: 78.4, screening length: 5.74355 Bohr) occupying 0.724930 of unit cell:	Completed after 0 iterations at t[s]:  11933.77
ElecMinimize: 	Step failed along negative gradient direction.
ElecMinimize: Probably at roundoff error limit. (Stopping)
Setting wave functions to eigenvectors of Hamiltonian

# Ionic positions in lattice coordinates:
ion V   0.166666667703704   0.166666666666667   0.618709126233352 1
ion V   0.000000001037037   0.166666666666667   0.499999437992914 1
ion V   0.166666667703704   0.166666666666667   0.381289749752478 1
ion V   0.500000001037037   0.166666666666667   0.618709126233352 1
ion V   0.333333334370370   0.166666666666667   0.499999437992914 1
ion V   0.500000001037037   0.166666666666667   0.381289749752478 1
ion V   0.833333334370370   0.166666666666667   0.618709126233352 1
ion V   0.666666667703704   0.166666666666667   0.499999437992914 1
ion V   0.833333334370370   0.166666666666667   0.381289749752478 1
ion V   0.166666667703704   0.500000000000000   0.618709126233352 1
ion V   0.000000001037037   0.500000000000000   0.499999437992914 1
ion V   0.166666667703704   0.500000000000000   0.381289749752478 1
ion V   0.500000001037037   0.500000000000000   0.618709126233352 1
ion V   0.333333334370370   0.500000000000000   0.499999437992915 1
ion V   0.500000001037037   0.500000000000000   0.381289749752478 1
ion V   0.833333334370370   0.500000000000000   0.618709126233352 1
ion V   0.666666667703704   0.500000000000000   0.499999437992915 1
ion V   0.833333334370370   0.500000000000000   0.381289749752478 1
ion V   0.166666667703704   0.833333333333333   0.618709126233352 1
ion V   0.000000001037037   0.833333333333333   0.499999437992914 1
ion V   0.166666667703704   0.833333333333333   0.381289749752478 1
ion V   0.500000001037037   0.833333333333333   0.618709126233352 1
ion V   0.333333334370370   0.833333333333333   0.499999437992914 1
ion V   0.500000001037037   0.833333333333333   0.381289749752478 1
ion V   0.833333334370370   0.833333333333333   0.618709126233352 1
ion V   0.666666667703704   0.833333333333333   0.499999437992914 1
ion V   0.833333334370370   0.833333333333333   0.381289749752478 1
ion B   0.000000001037037   0.000000000000000   0.575876353172278 1
ion B   0.166666667703704   0.000000000000000   0.539697083510506 1
ion B   0.000000001037037   0.000000000000000   0.424122522813551 1
ion B   0.166666667703704   0.000000000000000   0.460301792475323 1
ion B   0.333333334370370   0.000000000000000   0.575876353172278 1
ion B   0.500000001037037   0.000000000000000   0.539697083510506 1
ion B   0.333333334370370   0.000000000000000   0.424122522813551 1
ion B   0.500000001037037   0.000000000000000   0.460301792475323 1
ion B   0.666666667703704   0.000000000000000   0.575876353172278 1
ion B   0.833333334370370   0.000000000000000   0.539697083510506 1
ion B   0.666666667703704   0.000000000000000   0.424122522813551 1
ion B   0.833333334370370   0.000000000000000   0.460301792475323 1
ion B   0.000000001037037   0.333333333333333   0.575876353172278 1
ion B   0.166666667703704   0.333333333333333   0.539697083510506 1
ion B   0.000000001037037   0.333333333333333   0.424122522813551 1
ion B   0.166666667703704   0.333333333333333   0.460301792475323 1
ion B   0.333333334370370   0.333333333333333   0.575876353172278 1
ion B   0.500000001037037   0.333333333333333   0.539697083510506 1
ion B   0.333333334370370   0.333333333333333   0.424122522813551 1
ion B   0.500000001037037   0.333333333333333   0.460301792475323 1
ion B   0.666666667703704   0.333333333333333   0.575876353172278 1
ion B   0.833333334370370   0.333333333333333   0.539697083510506 1
ion B   0.666666667703704   0.333333333333333   0.424122522813551 1
ion B   0.833333334370370   0.333333333333333   0.460301792475323 1
ion B   0.000000001037037   0.666666666666667   0.575876353172278 1
ion B   0.166666667703704   0.666666666666667   0.539697083510506 1
ion B   0.000000001037037   0.666666666666667   0.424122522813551 1
ion B   0.166666667703704   0.666666666666667   0.460301792475323 1
ion B   0.333333334370370   0.666666666666667   0.575876353172278 1
ion B   0.500000001037037   0.666666666666667   0.539697083510506 1
ion B   0.333333334370370   0.666666666666667   0.424122522813551 1
ion B   0.500000001037037   0.666666666666667   0.460301792475323 1
ion B   0.666666667703704   0.666666666666667   0.575876353172278 1
ion B   0.833333334370370   0.666666666666667   0.539697083510506 1
ion B   0.666666667703704   0.666666666666667   0.424122522813551 1
ion B   0.833333334370370   0.666666666666667   0.460301792475323 1
ion O   0.000000001037037   0.166666666666667   0.668887578596263 1
ion O   0.000000001037037   0.166666666666667   0.331111297389566 1
ion O   0.333333334370370   0.166666666666667   0.668887578596263 1
ion O   0.333333334370370   0.166666666666667   0.331111297389566 1
ion O   0.666666667703704   0.166666666666667   0.668887578596263 1
ion O   0.666666667703704   0.166666666666667   0.331111297389566 1
ion O   0.000000001037037   0.500000000000000   0.668887578596263 1
ion O   0.000000001037037   0.500000000000000   0.331111297389566 1
ion O   0.333333334370370   0.500000000000000   0.668887578596263 1
ion O   0.333333334370370   0.500000000000000   0.331111297389566 1
ion O   0.666666667703704   0.500000000000000   0.668887578596263 1
ion O   0.666666667703704   0.500000000000000   0.331111297389566 1
ion O   0.000000001037037   0.833333333333333   0.668887578596263 1
ion O   0.000000001037037   0.833333333333333   0.331111297389566 1
ion O   0.333333334370370   0.833333333333333   0.668887578596263 1
ion O   0.333333334370370   0.833333333333333   0.331111297389566 1
ion O   0.666666667703704   0.833333333333333   0.668887578596263 1
ion O   0.666666667703704   0.833333333333333   0.331111297389566 1


# Forces in Lattice coordinates:
force V   0.000000000000000  -0.000000000000000   0.004695932597074 1
force V  -0.000000000000000   0.000000000000000   0.000000000000000 1
force V   0.000000000000000  -0.000000000000000  -0.004695932597528 1
force V  -0.000000000000000  -0.000000000000000   0.004695932597528 1
force V   0.000000000000000  -0.000000000000000   0.000000000000000 1
force V  -0.000000000000000  -0.000000000000000  -0.004695932597528 1
force V  -0.000000000000000  -0.000000000000000   0.004695932597528 1
force V  -0.000000000000000  -0.000000000000000   0.000000000000000 1
force V  -0.000000000000000   0.000000000000000  -0.004695932598437 1
force V   0.000000000000000   0.000000000000000   0.004695932597073 1
force V  -0.000000000000000  -0.000000000000000  -0.000000000000000 1
force V   0.000000000000000   0.000000000000000  -0.004695932597528 1
force V  -0.000000000000000   0.000000000000000   0.004695932597073 1
force V   0.000000000000000  -0.000000000000000   0.000000000000000 1
force V  -0.000000000000000   0.000000000000000  -0.004695932597528 1
force V  -0.000000000000000   0.000000000000000   0.004695932597529 1
force V  -0.000000000000000   0.000000000000000   0.000000000000000 1
force V  -0.000000000000000   0.000000000000000  -0.004695932597528 1
force V   0.000000000000000  -0.000000000000000   0.004695932596618 1
force V  -0.000000000000000  -0.000000000000000   0.000000000000000 1
force V   0.000000000000000  -0.000000000000000  -0.004695932597983 1
force V   0.000000000000000  -0.000000000000000   0.004695932596618 1
force V   0.000000000000000  -0.000000000000000  -0.000000000000000 1
force V  -0.000000000000000  -0.000000000000000  -0.004695932597073 1
force V   0.000000000000000  -0.000000000000000   0.004695932597073 1
force V  -0.000000000000000  -0.000000000000000  -0.000000000000000 1
force V   0.000000000000000  -0.000000000000000  -0.004695932597074 1
force B  -0.000000000000000   0.000000000000000   0.001548907806311 1
force B   0.000000000000000  -0.000000000000000  -0.003055852475766 1
force B   0.000000000000000   0.000000000000000  -0.001548907806538 1
force B  -0.000000000000000  -0.000000000000000   0.003055852475879 1
force B  -0.000000000000000  -0.000000000000000   0.001548907806425 1
force B  -0.000000000000000  -0.000000000000000  -0.003055852475709 1
force B  -0.000000000000000  -0.000000000000000  -0.001548907806425 1
force B   0.000000000000000  -0.000000000000000   0.003055852475879 1
force B   0.000000000000000   0.000000000000000   0.001548907806311 1
force B   0.000000000000000  -0.000000000000000  -0.003055852475766 1
force B  -0.000000000000000   0.000000000000000  -0.001548907806425 1
force B   0.000000000000000  -0.000000000000000   0.003055852475879 1
force B  -0.000000000000000   0.000000000000000   0.001548907806425 1
force B   0.000000000000000  -0.000000000000000  -0.003055852475709 1
force B   0.000000000000000  -0.000000000000000  -0.001548907806425 1
force B   0.000000000000000   0.000000000000000   0.003055852475822 1
force B   0.000000000000000   0.000000000000000   0.001548907806425 1
force B  -0.000000000000000   0.000000000000000  -0.003055852475765 1
force B  -0.000000000000000   0.000000000000000  -0.001548907806425 1
force B  -0.000000000000000   0.000000000000000   0.003055852475822 1
force B  -0.000000000000000   0.000000000000000   0.001548907806425 1
force B   0.000000000000000   0.000000000000000  -0.003055852475709 1
force B   0.000000000000000  -0.000000000000000  -0.001548907806539 1
force B   0.000000000000000   0.000000000000000   0.003055852475879 1
force B   0.000000000000000   0.000000000000000   0.001548907806425 1
force B   0.000000000000000   0.000000000000000  -0.003055852475766 1
force B  -0.000000000000000   0.000000000000000  -0.001548907806539 1
force B   0.000000000000000   0.000000000000000   0.003055852475879 1
force B   0.000000000000000  -0.000000000000000   0.001548907806539 1
force B  -0.000000000000000   0.000000000000000  -0.003055852475765 1
force B   0.000000000000000  -0.000000000000000  -0.001548907806539 1
force B  -0.000000000000000  -0.000000000000000   0.003055852475822 1
force B   0.000000000000000  -0.000000000000000   0.001548907806425 1
force B   0.000000000000000   0.000000000000000  -0.003055852475766 1
force B   0.000000000000000   0.000000000000000  -0.001548907806539 1
force B   0.000000000000000  -0.000000000000000   0.003055852475879 1
force O   0.000000000000000   0.000000000000000   0.004302694988919 1
force O   0.000000000000000  -0.000000000000000  -0.004302694988457 1
force O   0.000000000000000   0.000000000000000   0.004302694988009 1
force O   0.000000000000000   0.000000000000000  -0.004302694989367 1
force O   0.000000000000000  -0.000000000000000   0.004302694988009 1
force O   0.000000000000000  -0.000000000000000  -0.004302694988908 1
force O  -0.000000000000000  -0.000000000000000   0.004302694988915 1
force O   0.000000000000000   0.000000000000000  -0.004302694988919 1
force O  -0.000000000000000  -0.000000000000000   0.004302694988457 1
force O   0.000000000000000   0.000000000000000  -0.004302694988464 1
force O   0.000000000000000  -0.000000000000000   0.004302694988919 1
force O   0.000000000000000  -0.000000000000000  -0.004302694988919 1
force O   0.000000000000000  -0.000000000000000   0.004302694989370 1
force O   0.000000000000000  -0.000000000000000  -0.004302694989374 1
force O   0.000000000000000  -0.000000000000000   0.004302694988002 1
force O  -0.000000000000000  -0.000000000000000  -0.004302694988915 1
force O   0.000000000000000   0.000000000000000   0.004302694988009 1
force O   0.000000000000000   0.000000000000000  -0.004302694988919 1

# Energy components:
   A_diel =       -0.0758193358510911
   Eewald =    32372.8312404659773165
       EH =    34355.1955747350148158
     Eloc =   -69498.1772031200234778
      Enl =       90.2101730891221933
      Exc =     -385.4510206170708670
 Exc_core =       35.4000171201276217
       KE =      699.6627066835376354
  MuShift =       -0.0119169713129694
-------------------------------------
     Etot =    -2330.4162479504871044
       TS =        0.0869274139030936
-------------------------------------
        F =    -2330.5031753643902448

IonicMinimize: Iter:   3  F: -2330.503175364390245  |grad|_K:  4.613e-05  alpha:  1.000e+00  linmin: -7.211e-01  t[s]:  11985.86
IonicMinimize: Converged (|grad|_K<1.000000e-04).

#--- Lowdin population analysis ---
# oxidation-state V +1.023 +0.822 +1.023 +1.023 +0.822 +1.023 +1.023 +0.822 +1.023 +1.023 +0.822 +1.023 +1.023 +0.822 +1.023 +1.023 +0.822 +1.023 +1.023 +0.822 +1.023 +1.023 +0.822 +1.023 +1.023 +0.822 +1.023
# oxidation-state B -0.492 -0.404 -0.492 -0.404 -0.492 -0.404 -0.492 -0.404 -0.492 -0.404 -0.492 -0.404 -0.492 -0.404 -0.492 -0.404 -0.492 -0.404 -0.492 -0.404 -0.492 -0.404 -0.492 -0.404 -0.492 -0.404 -0.492 -0.404 -0.492 -0.404 -0.492 -0.404 -0.492 -0.404 -0.492 -0.404
# oxidation-state O -0.478 -0.478 -0.478 -0.478 -0.478 -0.478 -0.478 -0.478 -0.478 -0.478 -0.478 -0.478 -0.478 -0.478 -0.478 -0.478 -0.478 -0.478


Dumping 'NbTe2.fillings' ... done
Dumping 'NbTe2.wfns' ... done
Dumping 'NbTe2.fluidState' ... done
Dumping 'NbTe2.ionpos' ... done
Dumping 'NbTe2.eigenvals' ... done
End date and time: Tue Apr 27 11:48:21 2021  (Duration: 0-3:19:56.61)
Done!
