
*************** JDFTx 1.5.0  ***************

Start date and time: Thu Jan 21 20:12:27 2021
Executable jdftx_gpu with command-line: -i Charged.in -o Charged.out
Running on hosts (process indices):  amax (0-4)
Divided in process groups (process indices):  0 (0)  1 (1)  2 (2)  3 (3)  4 (4)
gpuInit: Found compatible cuda device 0 'Tesla K80'
gpuInit: Found compatible cuda device 1 'Tesla K80'
gpuInit: Found compatible cuda device 2 'Tesla K80'
gpuInit: Found compatible cuda device 3 'Tesla K80'
gpuInit: Found compatible cuda device 4 'Tesla K80'
gpuInit: Selected device 0
Resource initialization completed at t[s]:      3.08
Run totals: 5 processes, 24 threads, 5 GPUs


Input parsed successfully to the following command list (including defaults):

basis kpoint-dependent
cache-projectors no
coords-type Lattice
core-overlap-check none
coulomb-interaction Slab 001
coulomb-truncation-embed 0.5 0.5 0.5
davidson-band-ratio 1.1
dump End State
dump-name NbTe2.$VAR
elec-cutoff 20
elec-eigen-algo Davidson
elec-ex-corr gga-PBE
elec-initial-charge -1.000000
elec-initial-magnetization 5.000000 no
elec-smearing Gauss 0.0073499
electronic-minimize  \
	dirUpdateScheme      FletcherReeves \
	linminMethod         DirUpdateRecommended \
	nIterations          200 \
	history              15 \
	knormThreshold       0 \
	energyDiffThreshold  1e-08 \
	nEnergyDiff          2 \
	alphaTstart          1 \
	alphaTmin            1e-10 \
	updateTestStepSize   yes \
	alphaTreduceFactor   0.1 \
	alphaTincreaseFactor 3 \
	nAlphaAdjustMax      3 \
	wolfeEnergy          0.0001 \
	wolfeGradient        0.9 \
	fdTest               no
exchange-regularization WignerSeitzTruncated
fluid LinearPCM 298.000000 1.013250
fluid-anion F- 1 MeanFieldLJ \
	epsBulk 1 \
	pMol 0 \
	epsInf 1 \
	Pvap 0 \
	sigmaBulk 0 \
	Rvdw 2.24877 \
	Res 0 \
	tauNuc 343133
fluid-cation Na+ 1 MeanFieldLJ \
	epsBulk 1 \
	pMol 0 \
	epsInf 1 \
	Pvap 0 \
	sigmaBulk 0 \
	Rvdw 2.19208 \
	Res 0 \
	tauNuc 343133
fluid-ex-corr lda-TF lda-PZ
fluid-gummel-loop 10 1.000000e-05
fluid-minimize  \
	dirUpdateScheme      PolakRibiere \
	linminMethod         DirUpdateRecommended \
	nIterations          400 \
	history              15 \
	knormThreshold       1e-11 \
	energyDiffThreshold  0 \
	nEnergyDiff          2 \
	alphaTstart          1 \
	alphaTmin            1e-10 \
	updateTestStepSize   yes \
	alphaTreduceFactor   0.1 \
	alphaTincreaseFactor 3 \
	nAlphaAdjustMax      6 \
	wolfeEnergy          0.0001 \
	wolfeGradient        0.9 \
	fdTest               no
fluid-solvent H2O 55.338 ScalarEOS \
	epsBulk 78.4 \
	pMol 0.92466 \
	epsInf 1.77 \
	Pvap 1.06736e-10 \
	sigmaBulk 4.62e-05 \
	Rvdw 2.61727 \
	Res 1.42 \
	tauNuc 343133 \
	poleEl 15 7 1
forces-output-coords Positions
initial-state NbTe2.$VAR
ion B   0.166670001000000   0.083329999999997   0.500000000000000 1
ion B   0.416670013000001   0.083329999999997   0.500000000000000 1
ion B   0.666670035999999   0.083329999999997   0.500000000000000 1
ion B   0.916669964999997   0.083329999999997   0.500000000000000 1
ion B   0.166669992999999   0.333330009000001   0.500000000000000 1
ion B   0.416670005000000   0.333330009000001   0.500000000000000 1
ion B   0.666670005000000   0.333330009000001   0.500000000000000 1
ion B   0.916669980999998   0.333330009000001   0.500000000000000 1
ion B   0.166670009999997   0.583330017999998   0.500000000000000 1
ion B   0.416670021999998   0.583330017999998   0.500000000000000 1
ion B   0.666670046000000   0.583330017999998   0.500000000000000 1
ion B   0.916669998000003   0.583330017999998   0.500000000000000 1
ion B   0.166669990999999   0.833330027999999   0.500000000000000 1
ion B   0.416670013999997   0.833330027999999   0.500000000000000 1
ion B   0.666670037999999   0.833330027999999   0.500000000000000 1
ion B   0.916670013999997   0.833330027999999   0.500000000000000 1
ion N   0.083329997000000   0.166669994999999   0.500000000000000 1
ion N   0.333330021000002   0.166669994999999   0.500000000000000 1
ion N   0.583329997000000   0.166669994999999   0.500000000000000 1
ion N   0.833330021000002   0.166669994999999   0.500000000000000 1
ion N   0.083329997000000   0.416670017999998   0.500000000000000 1
ion N   0.333330019999998   0.416670017999998   0.500000000000000 1
ion N   0.583329997000000   0.416670017999998   0.500000000000000 1
ion N   0.833329997000000   0.416670017999998   0.500000000000000 1
ion N   0.083329988999999   0.666670027000002   0.500000000000000 1
ion N   0.333330013000001   0.666670027000002   0.500000000000000 1
ion N   0.583329988999999   0.666670027000002   0.500000000000000 1
ion N   0.833330013000001   0.666670027000002   0.500000000000000 1
ion N   0.083330005999997   0.916670035999999   0.500000000000000 1
ion N   0.333330029000003   0.916670035999999   0.500000000000000 1
ion N   0.583330005999997   0.916670035999999   0.500000000000000 1
ion N   0.833330029000003   0.916670035999999   0.500000000000000 1
ion-species GBRV/$ID_pbe.uspp
ion-width Ecut
ionic-minimize  \
	dirUpdateScheme      L-BFGS \
	linminMethod         DirUpdateRecommended \
	nIterations          500 \
	history              15 \
	knormThreshold       0.0001 \
	energyDiffThreshold  1e-06 \
	nEnergyDiff          2 \
	alphaTstart          1 \
	alphaTmin            1e-10 \
	updateTestStepSize   yes \
	alphaTreduceFactor   0.1 \
	alphaTincreaseFactor 3 \
	nAlphaAdjustMax      3 \
	wolfeEnergy          0.0001 \
	wolfeGradient        0.9 \
	fdTest               no
kpoint   0.000000000000   0.000000000000   0.000000000000  1.00000000000000
kpoint-folding 6 6 1 
latt-move-scale 1 1 1
latt-scale 1.88973 1.88973 1.88973 
lattice Triclinic 10.0123 10.0123 15 90 90 120
lattice-minimize  \
	dirUpdateScheme      L-BFGS \
	linminMethod         DirUpdateRecommended \
	nIterations          0 \
	history              15 \
	knormThreshold       0 \
	energyDiffThreshold  1e-06 \
	nEnergyDiff          2 \
	alphaTstart          1 \
	alphaTmin            1e-10 \
	updateTestStepSize   yes \
	alphaTreduceFactor   0.1 \
	alphaTincreaseFactor 3 \
	nAlphaAdjustMax      3 \
	wolfeEnergy          0.0001 \
	wolfeGradient        0.9 \
	fdTest               no
lcao-params -1 1e-06 0.0073499
pcm-variant CANDLE
spintype z-spin
subspace-rotation-factor 1 yes
symmetries automatic
symmetry-threshold 0.0001



---------- Setting up symmetries ----------

Found 24 point-group symmetries of the bravais lattice
Found 64 space-group symmetries with basis
Applied RMS atom displacement 3.8962e-07 bohrs to make symmetries exact.

---------- Initializing the Grid ----------
R = 
[    18.9205   -9.46025          0  ]
[          0    16.3856          0  ]
[          0          0    28.3459  ]
unit cell volume = 8787.92
G =
[   0.332083   0.191728         -0  ]
[          0   0.383457          0  ]
[          0         -0   0.221661  ]
Minimum fftbox size, Smin = [  80  80  116  ]
Chosen fftbox size, S = [  80  80  120  ]

---------- Exchange Correlation functional ----------
Initalized PBE GGA exchange.
Initalized PBE GGA correlation.

---------- Setting up pseudopotentials ----------
Width of ionic core gaussian charges (only for fluid interactions / plotting) set to 0.397384

Reading pseudopotential file '/home/guoxy/vasp/jdftx-1.5.0/build/pseudopotentials/GBRV/b_pbe.uspp':
  Title: B.  Created by USPP 7.3.6 on 8-4-15
  Reference state energy: -2.950027.  3 valence electrons in orbitals:
    |200>  occupation: 2  eigenvalue: -0.346865
    |210>  occupation: 1  eigenvalue: -0.132618
  lMax: 1  lLocal: 2  QijEcut: 6
  4 projectors sampled on a log grid with 559 points:
    l: 0  eig: -0.346865  rCut: 1.25
    l: 0  eig: -0.500000  rCut: 1.25
    l: 1  eig: -0.346865  rCut: 1.25
    l: 1  eig: -1.000000  rCut: 1.25
  Partial core density with radius 0.9
  Transforming core density to a uniform radial grid of dG=0.02 with 1491 points.
  Transforming local potential to a uniform radial grid of dG=0.02 with 1491 points.
  Transforming nonlocal projectors to a uniform radial grid of dG=0.02 with 432 points.
  Transforming density augmentations to a uniform radial grid of dG=0.02 with 1491 points.
  Transforming atomic orbitals to a uniform radial grid of dG=0.02 with 432 points.
  Core radius for overlap checks: 1.25 bohrs.

Reading pseudopotential file '/home/guoxy/vasp/jdftx-1.5.0/build/pseudopotentials/GBRV/n_pbe.uspp':
  Title: N.  Created by USPP 7.3.6 on 3-2-2014
  Reference state energy: -9.763716.  5 valence electrons in orbitals:
    |200>  occupation: 2  eigenvalue: -0.681964
    |210>  occupation: 3  eigenvalue: -0.260726
  lMax: 1  lLocal: 2  QijEcut: 6
  4 projectors sampled on a log grid with 491 points:
    l: 0  eig: -0.681964  rCut: 1.15
    l: 0  eig: 0.000000  rCut: 1.15
    l: 1  eig: -0.260729  rCut: 1.2
    l: 1  eig: 0.500000  rCut: 1.2
  Partial core density with radius 0.8
  Transforming core density to a uniform radial grid of dG=0.02 with 1491 points.
  Transforming local potential to a uniform radial grid of dG=0.02 with 1491 points.
  Transforming nonlocal projectors to a uniform radial grid of dG=0.02 with 432 points.
  Transforming density augmentations to a uniform radial grid of dG=0.02 with 1491 points.
  Transforming atomic orbitals to a uniform radial grid of dG=0.02 with 432 points.
  Core radius for overlap checks: 1.20 bohrs.

Initialized 2 species with 32 total atoms.

Folded 1 k-points by 6x6x1 to 36 k-points.

---------- Setting up k-points, bands, fillings ----------
Adding inversion symmetry to k-mesh for non-inversion-symmetric unit cell.
Reduced to 13 k-points under symmetry. 
Computing the number of bands and number of electrons
Calculating initial fillings.
nElectrons: 127.000000   nBands: 128   nStates: 26

----- Setting up reduced wavefunction bases (one per k-point) -----
average nbasis = 37544.417 , ideal nbasis = 37542.666

---------- Setting up coulomb interaction ----------
Fluid mode embedding: using embedded box, but periodic Coulomb kernel.
(Fluid response is responsible for (approximate) separation between periodic images.)
Setting up double-sized grid for truncated Coulomb potentials:
R = 
[    18.9205   -9.46025          0  ]
[          0    16.3856          0  ]
[          0          0    56.6918  ]
unit cell volume = 17575.8
G =
[   0.332083   0.191728         -0  ]
[          0   0.383457          0  ]
[          0         -0   0.110831  ]
Chosen fftbox size, S = [  80  80  240  ]
Integer grid location selected as the embedding center:
   Grid: [  40  40  60  ]
   Lattice: [  0.5  0.5  0.5  ]
   Cartesian: [  4.73013  8.19282  14.1729  ]
Constructing Wigner-Seitz cell: 8 faces (6 quadrilaterals, 2 hexagons)
Range-separation parameter for embedded mesh potentials due to point charges: 0.613524 bohrs.

Initializing van der Waals corrections
	NOTE: vdW corrections apply only for interactions with fluid.
	 B:  C6:   54.29 Eh-a0^6  R0: 2.806 a0
	 N:  C6:   21.33 Eh-a0^6  R0: 2.640 a0

---------- Setting up ewald sum ----------
Optimum gaussian width for ewald sums = 5.821351 bohr.
Real space sum over 605 unit cells with max indices [  5  5  2  ]
Reciprocal space sum over 5577 terms with max indices [  6  6  16  ]

---------- Allocating electronic variables ----------
Initializing wave functions:  linear combination of atomic orbitals
B pseudo-atom occupations:   s ( 2 )  p ( 1 )
N pseudo-atom occupations:   s ( 2 )  p ( 3 )
	FillingsUpdate:  mu: -0.571437982  nElectrons: 127.000000  magneticMoment: [ Abs: 0.70389  Tot: +0.67731 ]
LCAOMinimize: Iter:   0  F: -203.9230562866025025  |grad|_K:  3.756e-03  alpha:  1.000e+00
	FillingsUpdate:  mu: -0.403459803  nElectrons: 127.000000  magneticMoment: [ Abs: 0.68653  Tot: +0.66971 ]
LCAOMinimize: Iter:   1  F: -204.9949236747422390  |grad|_K:  4.435e-04  alpha:  4.284e-01  linmin:  6.083e-01  cgtest: -1.076e+00  t[s]:    104.99
LCAOMinimize: 	Bad step direction: g.d > 0.
LCAOMinimize: 	Undoing step.
LCAOMinimize: 	Step failed: resetting search direction.
	FillingsUpdate:  mu: -0.403459803  nElectrons: 127.000000  magneticMoment: [ Abs: 0.68653  Tot: +0.66971 ]
LCAOMinimize: Iter:   2  F: -204.9949236747422390  |grad|_K:  4.435e-04  alpha:  0.000e+00
	FillingsUpdate:  mu: -0.422213459  nElectrons: 127.000000  magneticMoment: [ Abs: 0.51592  Tot: +0.49591 ]
LCAOMinimize: Iter:   3  F: -205.0123520112863673  |grad|_K:  4.940e-05  alpha:  4.093e-01  linmin:  1.688e-02  cgtest: -1.096e-01  t[s]:    161.61
LCAOMinimize: 	Predicted alpha/alphaT>3.000000, increasing alphaT to 1.227758e+00.
	FillingsUpdate:  mu: -0.422038554  nElectrons: 127.000000  magneticMoment: [ Abs: 0.21570  Tot: +0.02524 ]
LCAOMinimize: Iter:   4  F: -205.0130790437462451  |grad|_K:  1.640e-05  alpha:  1.434e+00  linmin:  1.146e-01  cgtest: -1.346e-01  t[s]:    205.19
	FillingsUpdate:  mu: -0.421337505  nElectrons: 127.000000  magneticMoment: [ Abs: 0.10174  Tot: -0.01024 ]
LCAOMinimize: Iter:   5  F: -205.0131233231198564  |grad|_K:  1.293e-05  alpha:  8.708e-01  linmin:  2.680e-04  cgtest:  1.867e-01  t[s]:    237.52
	FillingsUpdate:  mu: -0.421837446  nElectrons: 127.000000  magneticMoment: [ Abs: 0.01916  Tot: -0.00870 ]
LCAOMinimize: Iter:   6  F: -205.0131505555742706  |grad|_K:  2.701e-06  alpha:  7.528e-01  linmin:  1.455e-03  cgtest: -1.978e-01  t[s]:    270.44
	FillingsUpdate:  mu: -0.421734626  nElectrons: 127.000000  magneticMoment: [ Abs: 0.00677  Tot: -0.00325 ]
LCAOMinimize: Iter:   7  F: -205.0131517762838200  |grad|_K:  1.035e-06  alpha:  7.753e-01  linmin: -7.741e-05  cgtest:  5.651e-03  t[s]:    303.87
	FillingsUpdate:  mu: -0.421769964  nElectrons: 127.000000  magneticMoment: [ Abs: 0.00503  Tot: -0.00141 ]
LCAOMinimize: Iter:   8  F: -205.0131519544627281  |grad|_K:  4.169e-07  alpha:  7.686e-01  linmin:  3.900e-05  cgtest: -8.574e-04  t[s]:    336.07
	FillingsUpdate:  mu: -0.421753296  nElectrons: 127.000000  magneticMoment: [ Abs: 0.00392  Tot: -0.00093 ]
LCAOMinimize: Iter:   9  F: -205.0131519842100829  |grad|_K:  1.973e-07  alpha:  7.905e-01  linmin:  6.183e-05  cgtest:  1.370e-04  t[s]:    369.18
LCAOMinimize: Converged (|Delta F|<1.000000e-06 for 2 iters).
----- createFluidSolver() ----- (Fluid-side solver setup)
   Initializing fluid molecule 'H2O'
     Initializing site 'O'
       Electron density: proportional to exp(-r/0.36935)*erfc((r-0.51523)/0.36823) with norm 6.826
       Charge density: gaussian nuclear width 0.478731 with net site charge 0.826
       Polarizability: cuspless exponential with width 0.32 and norm 3.73
       Hard sphere radius: 2.57003 bohrs
       Positions in reference frame:
         [ +0.000000 +0.000000 +0.000000 ]
     Initializing site 'H'
       Electron density: proportional to exp(-r/0.34641)*erfc((r-0)/0.390882) with norm 0.587
       Charge density: gaussian nuclear width 0.377945 with net site charge -0.413
       Polarizability: cuspless exponential with width 0.39 and norm 3.3
       Positions in reference frame:
         [ +0.000000 -1.441945 +1.122523 ]
         [ +0.000000 +1.441945 +1.122523 ]
     Net charge: 0   dipole magnitude: 0.927204
     Initializing spherical shell mfKernel with radius 2.61727 Bohr
     deltaS corrections:
       site 'O': -7.54299
       site 'H': -6.83917
   Initializing fluid molecule 'Na+'
     Initializing site 'Na'
       Electron density: proportional to exp(-r/0.19682)*erfc((r-0.71491)/0.41314) with norm 8.1383
       Charge density: gaussian nuclear width 0.365347 with net site charge -1
       Hard sphere radius: 1.86327 bohrs
       Positions in reference frame:
         [ +0.000000 +0.000000 +0.000000 ]
     Net charge: -1   dipole magnitude: 0
     Initializing gaussian mfKernel with width: 1.55004 Bohr
     deltaS corrections:
       site 'Na': -22.3555
   Initializing fluid molecule 'F-'
     Initializing site 'F'
       Electron density: proportional to exp(-r/0.38886)*erfc((r-0)/0.438782) with norm 8
       Charge density: gaussian nuclear width 0.374796 with net site charge 1
       Hard sphere radius: 2.39995 bohrs
       Positions in reference frame:
         [ +0.000000 +0.000000 +0.000000 ]
     Net charge: 1   dipole magnitude: 0
     Initializing gaussian mfKernel with width: 1.59012 Bohr
     deltaS corrections:
       site 'F': -9.04335

Correction to mu due to finite nuclear width = -0.00722593
   Cavity determined by nc: 0.00142 and sigma: 0.707107
   Nonlocal vdW cavity from gaussian model electron density with norm = 8 and sigma = 0.993594 bohr
   Charge asymmetry in cavity with sensitivity pCavity = 36.5 e-bohr/Eh
   Electrostatic cavity expanded by eta = 1.46 bohrs
   Weighted density cavitation model constrained by Nbulk: 0.0049383 bohr^-3, Pvap: 3.14029 kPa, Rvdw: 2.61727 bohr and sigmaBulk: 4.62e-05 Eh/bohr^2 at T: 298 K.
   Weighted density dispersion model using vdW pair potentials with single solvent site with sqrtC6eff: 0.77 SI.


---- Citations for features of the code used in this run ----

   Software package:
      R. Sundararaman, K. Letchworth-Weaver, K.A. Schwarz, D. Gunceler, Y. Ozhabes and T.A. Arias, 'JDFTx: software for joint density-functional theory', SoftwareX 6, 278 (2017)

   gga-PBE exchange-correlation functional:
      J.P. Perdew, K. Burke and M. Ernzerhof, Phys. Rev. Lett. 77, 3865 (1996)

   Pseudopotentials:
      KF Garrity, JW Bennett, KM Rabe and D Vanderbilt, Comput. Mater. Sci. 81, 446 (2014)

   Truncated Coulomb potentials:
      R. Sundararaman and T.A. Arias, Phys. Rev. B 87, 165122 (2013)

   Van der Waals correction pair-potentials:
      S. Grimme, J. Comput. Chem. 27, 1787 (2006)

   Charge-asymmetric nonlocally-determined local-electric (CANDLE) solvation model:
      R. Sundararaman and W.A. Goddard III, J. Chem. Phys. 142, 064107 (2015)

   Total energy minimization with Auxiliary Hamiltonian:
      C. Freysoldt, S. Boeck, and J. Neugebauer, Phys. Rev. B 79, 241103(R) (2009)

This list may not be complete. Please suggest additional citations or
report any other bugs at https://github.com/shankar1729/jdftx/issues

Initialization completed successfully at t[s]:    373.01

Fluid solver invoked on fresh (partially random / LCAO) wavefunctions
Running a vacuum solve first:

-------- Initial electronic minimization -----------
	FillingsUpdate:  mu: -0.421753296  nElectrons: 127.000000  magneticMoment: [ Abs: 0.00392  Tot: -0.00093 ]
ElecMinimize: Iter:   0  F: -205.013151984209202  |grad|_K:  1.259e-04  alpha:  1.000e+00
	FillingsUpdate:  mu: -0.349349828  nElectrons: 127.000000  magneticMoment: [ Abs: 0.00261  Tot: -0.00077 ]
	SubspaceRotationAdjust: set factor to 1
ElecMinimize: Iter:   1  F: -206.480210701963273  |grad|_K:  3.553e-05  alpha:  7.402e-01  linmin:  2.446e-05  t[s]:    437.05
	FillingsUpdate:  mu: -0.319652138  nElectrons: 127.000000  magneticMoment: [ Abs: 0.00187  Tot: -0.00045 ]
	SubspaceRotationAdjust: set factor to 0.696
ElecMinimize: Iter:   2  F: -206.605913410034503  |grad|_K:  1.693e-05  alpha:  7.951e-01  linmin: -7.934e-05  t[s]:    476.46
	FillingsUpdate:  mu: -0.331838705  nElectrons: 127.000000  magneticMoment: [ Abs: 0.00108  Tot: -0.00019 ]
	SubspaceRotationAdjust: set factor to 0.553
ElecMinimize: Iter:   3  F: -206.628410405911268  |grad|_K:  8.454e-06  alpha:  6.199e-01  linmin:  1.215e-05  t[s]:    515.42
	FillingsUpdate:  mu: -0.328960041  nElectrons: 127.000000  magneticMoment: [ Abs: 0.00040  Tot: -0.00003 ]
	SubspaceRotationAdjust: set factor to 0.684
ElecMinimize: Iter:   4  F: -206.635271745609231  |grad|_K:  3.528e-06  alpha:  7.703e-01  linmin:  3.689e-05  t[s]:    555.30
	FillingsUpdate:  mu: -0.327263692  nElectrons: 127.000000  magneticMoment: [ Abs: 0.00029  Tot: +0.00002 ]
	SubspaceRotationAdjust: set factor to 0.891
ElecMinimize: Iter:   5  F: -206.636509328851417  |grad|_K:  1.855e-06  alpha:  7.983e-01  linmin:  2.191e-05  t[s]:    593.67
	FillingsUpdate:  mu: -0.327740132  nElectrons: 127.000000  magneticMoment: [ Abs: 0.00023  Tot: +0.00003 ]
	SubspaceRotationAdjust: set factor to 1.17
ElecMinimize: Iter:   6  F: -206.636849834213336  |grad|_K:  9.646e-07  alpha:  7.950e-01  linmin:  9.570e-06  t[s]:    632.54
	FillingsUpdate:  mu: -0.327455978  nElectrons: 127.000000  magneticMoment: [ Abs: 0.00013  Tot: +0.00003 ]
	SubspaceRotationAdjust: set factor to 1.28
ElecMinimize: Iter:   7  F: -206.636919362410680  |grad|_K:  4.219e-07  alpha:  6.001e-01  linmin:  1.279e-06  t[s]:    671.62
	FillingsUpdate:  mu: -0.327442565  nElectrons: 127.000000  magneticMoment: [ Abs: 0.00005  Tot: +0.00001 ]
	SubspaceRotationAdjust: set factor to 1.41
ElecMinimize: Iter:   8  F: -206.636935313289342  |grad|_K:  2.332e-07  alpha:  7.184e-01  linmin:  2.546e-06  t[s]:    710.67
	FillingsUpdate:  mu: -0.327564179  nElectrons: 127.000000  magneticMoment: [ Abs: 0.00002  Tot: +0.00000 ]
	SubspaceRotationAdjust: set factor to 1.74
ElecMinimize: Iter:   9  F: -206.636939892382259  |grad|_K:  1.442e-07  alpha:  6.764e-01  linmin:  2.083e-06  t[s]:    749.48
	FillingsUpdate:  mu: -0.327521493  nElectrons: 127.000000  magneticMoment: [ Abs: 0.00002  Tot: -0.00000 ]
	SubspaceRotationAdjust: set factor to 1.58
ElecMinimize: Iter:  10  F: -206.636941334461454  |grad|_K:  7.530e-08  alpha:  5.584e-01  linmin:  4.866e-07  t[s]:    787.67
	FillingsUpdate:  mu: -0.327539426  nElectrons: 127.000000  magneticMoment: [ Abs: 0.00001  Tot: -0.00000 ]
	SubspaceRotationAdjust: set factor to 1.79
ElecMinimize: Iter:  11  F: -206.636941756934561  |grad|_K:  3.946e-08  alpha:  5.964e-01  linmin:  2.938e-07  t[s]:    825.93
	FillingsUpdate:  mu: -0.327536818  nElectrons: 127.000000  magneticMoment: [ Abs: 0.00001  Tot: +0.00000 ]
	SubspaceRotationAdjust: set factor to 2.09
ElecMinimize: Iter:  12  F: -206.636941880064455  |grad|_K:  1.968e-08  alpha:  6.332e-01  linmin:  2.930e-07  t[s]:    865.29
	FillingsUpdate:  mu: -0.327531792  nElectrons: 127.000000  magneticMoment: [ Abs: 0.00001  Tot: +0.00000 ]
	SubspaceRotationAdjust: set factor to 1.97
ElecMinimize: Iter:  13  F: -206.636941908270956  |grad|_K:  1.145e-08  alpha:  5.832e-01  linmin:  2.579e-08  t[s]:    904.84
	FillingsUpdate:  mu: -0.327537821  nElectrons: 127.000000  magneticMoment: [ Abs: 0.00000  Tot: +0.00000 ]
	SubspaceRotationAdjust: set factor to 1.62
ElecMinimize: Iter:  14  F: -206.636941916436228  |grad|_K:  6.788e-09  alpha:  4.984e-01  linmin: -9.203e-09  t[s]:    943.89
	FillingsUpdate:  mu: -0.327535024  nElectrons: 127.000000  magneticMoment: [ Abs: 0.00000  Tot: +0.00000 ]
	SubspaceRotationAdjust: set factor to 1.69
ElecMinimize: Iter:  15  F: -206.636941919278826  |grad|_K:  3.537e-09  alpha:  4.932e-01  linmin:  3.711e-09  t[s]:    981.67
ElecMinimize: Converged (|Delta F|<1.000000e-08 for 2 iters).
Setting wave functions to eigenvectors of Hamiltonian
Vacuum energy after initial minimize, F = -206.636941919278826

	Linear fluid (dielectric constant: 78.4, screening length: 5.74355 Bohr) occupying 0.811650 of unit cell:	Completed after 13 iterations at t[s]:    993.77

-------- Electronic minimization -----------
	Linear fluid (dielectric constant: 78.4, screening length: 5.74355 Bohr) occupying 0.811650 of unit cell:	Completed after 0 iterations at t[s]:   1005.46
	FillingsUpdate:  mu: -0.247859348  nElectrons: 127.000000  magneticMoment: [ Abs: 0.00000  Tot: +0.00000 ]
ElecMinimize: Iter:   0  F: -206.658390244416637  |grad|_K:  1.777e-06  alpha:  1.000e+00
	Linear fluid (dielectric constant: 78.4, screening length: 5.74355 Bohr) occupying 0.812450 of unit cell:	Completed after 9 iterations at t[s]:   1036.69
	Linear fluid (dielectric constant: 78.4, screening length: 5.74355 Bohr) occupying 0.812048 of unit cell:	Completed after 7 iterations at t[s]:   1052.53
	FillingsUpdate:  mu: -0.245422268  nElectrons: 127.000000  magneticMoment: [ Abs: 0.00001  Tot: +0.00000 ]
	SubspaceRotationAdjust: set factor to 1.02
ElecMinimize: Iter:   1  F: -206.658582258988361  |grad|_K:  9.973e-07  alpha:  4.925e-01  linmin:  1.625e-06  t[s]:   1070.20
	Linear fluid (dielectric constant: 78.4, screening length: 5.74355 Bohr) occupying 0.812211 of unit cell:	Completed after 7 iterations at t[s]:   1081.97
	Linear fluid (dielectric constant: 78.4, screening length: 5.74355 Bohr) occupying 0.812213 of unit cell:	Completed after 0 iterations at t[s]:   1095.85
	FillingsUpdate:  mu: -0.245512206  nElectrons: 127.000000  magneticMoment: [ Abs: 0.00003  Tot: +0.00000 ]
	SubspaceRotationAdjust: set factor to 0.684
ElecMinimize: Iter:   2  F: -206.658643766761173  |grad|_K:  4.086e-07  alpha:  4.975e-01  linmin: -1.504e-06  t[s]:   1112.51
	Linear fluid (dielectric constant: 78.4, screening length: 5.74355 Bohr) occupying 0.812260 of unit cell:	Completed after 2 iterations at t[s]:   1125.55
	Linear fluid (dielectric constant: 78.4, screening length: 5.74355 Bohr) occupying 0.812313 of unit cell:	Completed after 5 iterations at t[s]:   1139.63
	FillingsUpdate:  mu: -0.245272518  nElectrons: 127.000000  magneticMoment: [ Abs: 0.00002  Tot: -0.00000 ]
	SubspaceRotationAdjust: set factor to 1.13
ElecMinimize: Iter:   3  F: -206.658665516523655  |grad|_K:  1.823e-07  alpha:  1.045e+00  linmin:  5.821e-06  t[s]:   1157.17
	Linear fluid (dielectric constant: 78.4, screening length: 5.74355 Bohr) occupying 0.812322 of unit cell:	Completed after 1 iterations at t[s]:   1169.32
	Linear fluid (dielectric constant: 78.4, screening length: 5.74355 Bohr) occupying 0.812319 of unit cell:	Completed after 2 iterations at t[s]:   1183.55
	FillingsUpdate:  mu: -0.245227785  nElectrons: 127.000000  magneticMoment: [ Abs: 0.00001  Tot: -0.00000 ]
	SubspaceRotationAdjust: set factor to 1.42
ElecMinimize: Iter:   4  F: -206.658668446110198  |grad|_K:  6.596e-08  alpha:  7.127e-01  linmin:  3.568e-07  t[s]:   1200.32
	Linear fluid (dielectric constant: 78.4, screening length: 5.74355 Bohr) occupying 0.812310 of unit cell:	Completed after 0 iterations at t[s]:   1212.20
	Linear fluid (dielectric constant: 78.4, screening length: 5.74355 Bohr) occupying 0.812308 of unit cell:	Completed after 0 iterations at t[s]:   1225.83
	FillingsUpdate:  mu: -0.245225700  nElectrons: 127.000000  magneticMoment: [ Abs: 0.00000  Tot: -0.00000 ]
	SubspaceRotationAdjust: set factor to 1.22
ElecMinimize: Iter:   5  F: -206.658668911256854  |grad|_K:  2.496e-08  alpha:  8.554e-01  linmin:  2.366e-07  t[s]:   1243.51
	Linear fluid (dielectric constant: 78.4, screening length: 5.74355 Bohr) occupying 0.812306 of unit cell:	Completed after 2 iterations at t[s]:   1255.30
	Linear fluid (dielectric constant: 78.4, screening length: 5.74355 Bohr) occupying 0.812307 of unit cell:	Completed after 0 iterations at t[s]:   1270.41
	FillingsUpdate:  mu: -0.245261365  nElectrons: 127.000000  magneticMoment: [ Abs: 0.00000  Tot: -0.00000 ]
	SubspaceRotationAdjust: set factor to 1.36
ElecMinimize: Iter:   6  F: -206.658668941842336  |grad|_K:  1.616e-08  alpha:  5.820e-01  linmin: -1.662e-05  t[s]:   1289.04
	Linear fluid (dielectric constant: 78.4, screening length: 5.74355 Bohr) occupying 0.812307 of unit cell:	Completed after 0 iterations at t[s]:   1301.19
	Linear fluid (dielectric constant: 78.4, screening length: 5.74355 Bohr) occupying 0.812307 of unit cell:	Completed after 0 iterations at t[s]:   1316.20
	FillingsUpdate:  mu: -0.245262145  nElectrons: 127.000000  magneticMoment: [ Abs: 0.00000  Tot: -0.00000 ]
	SubspaceRotationAdjust: set factor to 1.99
ElecMinimize: Iter:   7  F: -206.658668968877947  |grad|_K:  8.549e-09  alpha:  6.616e-01  linmin:  2.589e-08  t[s]:   1333.95
	Linear fluid (dielectric constant: 78.4, screening length: 5.74355 Bohr) occupying 0.812307 of unit cell:	Completed after 0 iterations at t[s]:   1345.75
	Linear fluid (dielectric constant: 78.4, screening length: 5.74355 Bohr) occupying 0.812307 of unit cell:	Completed after 0 iterations at t[s]:   1359.80
	FillingsUpdate:  mu: -0.245263117  nElectrons: 127.000000  magneticMoment: [ Abs: 0.00000  Tot: +0.00000 ]
	SubspaceRotationAdjust: set factor to 2.51
ElecMinimize: Iter:   8  F: -206.658668974821893  |grad|_K:  4.540e-09  alpha:  6.490e-01  linmin: -2.991e-09  t[s]:   1376.84
	Linear fluid (dielectric constant: 78.4, screening length: 5.74355 Bohr) occupying 0.812307 of unit cell:	Completed after 0 iterations at t[s]:   1387.75
	Linear fluid (dielectric constant: 78.4, screening length: 5.74355 Bohr) occupying 0.812307 of unit cell:	Completed after 0 iterations at t[s]:   1401.69
	FillingsUpdate:  mu: -0.245263621  nElectrons: 127.000000  magneticMoment: [ Abs: 0.00000  Tot: +0.00000 ]
	SubspaceRotationAdjust: set factor to 2.52
ElecMinimize: Iter:   9  F: -206.658668976281547  |grad|_K:  2.640e-09  alpha:  5.659e-01  linmin: -6.095e-08  t[s]:   1418.27
ElecMinimize: Converged (|Delta F|<1.000000e-08 for 2 iters).
Setting wave functions to eigenvectors of Hamiltonian
Single-point solvation energy estimate, DeltaF = -0.021727057002721

# Ionic positions in lattice coordinates:
ion B   0.166670009390625   0.083330014890624   0.500000000000000 1
ion B   0.416670009390625   0.083330014890624   0.500000000000000 1
ion B   0.666670009390625   0.083330014890624   0.500000000000000 1
ion B   0.916670009390625   0.083330014890624   0.500000000000000 1
ion B   0.166670009390625   0.333330014890624   0.500000000000000 1
ion B   0.416670009390625   0.333330014890624   0.500000000000000 1
ion B   0.666670009390625   0.333330014890624   0.500000000000000 1
ion B   0.916670009390625   0.333330014890624   0.500000000000000 1
ion B   0.166670009390625   0.583330014890624   0.500000000000000 1
ion B   0.416670009390625   0.583330014890624   0.500000000000000 1
ion B   0.666670009390625   0.583330014890624   0.500000000000000 1
ion B   0.916670009390625   0.583330014890624   0.500000000000000 1
ion B   0.166670009390625   0.833330014890624   0.500000000000000 1
ion B   0.416670009390625   0.833330014890624   0.500000000000000 1
ion B   0.666670009390625   0.833330014890624   0.500000000000000 1
ion B   0.916670009390625   0.833330014890624   0.500000000000000 1
ion N   0.083330006421875   0.166670017859374   0.500000000000000 1
ion N   0.333330006421875   0.166670017859374   0.500000000000000 1
ion N   0.583330006421875   0.166670017859374   0.500000000000000 1
ion N   0.833330006421875   0.166670017859374   0.500000000000000 1
ion N   0.083330006421875   0.416670017859374   0.500000000000000 1
ion N   0.333330006421875   0.416670017859374   0.500000000000000 1
ion N   0.583330006421875   0.416670017859374   0.500000000000000 1
ion N   0.833330006421875   0.416670017859374   0.500000000000000 1
ion N   0.083330006421875   0.666670017859374   0.500000000000000 1
ion N   0.333330006421875   0.666670017859374   0.500000000000000 1
ion N   0.583330006421875   0.666670017859374   0.500000000000000 1
ion N   0.833330006421875   0.666670017859374   0.500000000000000 1
ion N   0.083330006421875   0.916670017859374   0.500000000000000 1
ion N   0.333330006421875   0.916670017859374   0.500000000000000 1
ion N   0.583330006421875   0.916670017859374   0.500000000000000 1
ion N   0.833330006421875   0.916670017859374   0.500000000000000 1


# Forces in Lattice coordinates:
force B  -0.001548530288823   0.001548530288823   0.000000000000000 1
force B  -0.001548530288823   0.001548530288823   0.000000000000000 1
force B  -0.001548530288823   0.001548530288823   0.000000000000000 1
force B  -0.001548530288823   0.001548530288823  -0.000000000000000 1
force B  -0.001548530288823   0.001548530288823   0.000000000000000 1
force B  -0.001548530288823   0.001548530288823  -0.000000000000000 1
force B  -0.001548530288823   0.001548530288823  -0.000000000000000 1
force B  -0.001548530288823   0.001548530288823   0.000000000000000 1
force B  -0.001548530288823   0.001548530288823   0.000000000000000 1
force B  -0.001548530288823   0.001548530288823   0.000000000000000 1
force B  -0.001548530288823   0.001548530288823  -0.000000000000000 1
force B  -0.001548530288823   0.001548530288823   0.000000000000000 1
force B  -0.001548530288823   0.001548530288823  -0.000000000000000 1
force B  -0.001548530288823   0.001548530288823   0.000000000000000 1
force B  -0.001548530288823   0.001548530288823  -0.000000000000000 1
force B  -0.001548530288823   0.001548530288823   0.000000000000000 1
force N   0.001579688600521  -0.001579688600521  -0.000000000000000 1
force N   0.001579688600521  -0.001579688600521  -0.000000000000000 1
force N   0.001579688600521  -0.001579688600521  -0.000000000000000 1
force N   0.001579688600521  -0.001579688600521  -0.000000000000000 1
force N   0.001579688600521  -0.001579688600521  -0.000000000000000 1
force N   0.001579688600521  -0.001579688600521   0.000000000000000 1
force N   0.001579688600521  -0.001579688600521  -0.000000000000000 1
force N   0.001579688600521  -0.001579688600521  -0.000000000000000 1
force N   0.001579688600521  -0.001579688600521   0.000000000000000 1
force N   0.001579688600521  -0.001579688600521   0.000000000000000 1
force N   0.001579688600521  -0.001579688600521  -0.000000000000000 1
force N   0.001579688600521  -0.001579688600521   0.000000000000000 1
force N   0.001579688600521  -0.001579688600521  -0.000000000000000 1
force N   0.001579688600521  -0.001579688600521   0.000000000000000 1
force N   0.001579688600521  -0.001579688600521   0.000000000000000 1
force N   0.001579688600521  -0.001579688600521   0.000000000000000 1

# Energy components:
   A_diel =       -0.0292306284199857
   Eewald =     1248.1722017259053246
       EH =     1397.2716291602519050
     Eloc =    -2940.9684575258506811
      Enl =       30.1296124679033603
      Exc =      -67.4815023091956903
 Exc_core =        6.8944935515921957
       KE =      119.3570913268863478
  MuShift =        0.0072259251153818
-------------------------------------
     Etot =     -206.6469363058118347
       TS =        0.0117326704697194
-------------------------------------
        F =     -206.6586689762815467

IonicMinimize: Iter:   0  F: -206.658668976281547  |grad|_K:  5.511e-05  t[s]:   1425.20
IonicMinimize: Converged (|grad|_K<1.000000e-04).

#--- Lowdin population analysis ---
# oxidation-state B +0.509 +0.509 +0.509 +0.509 +0.509 +0.509 +0.509 +0.509 +0.509 +0.509 +0.509 +0.509 +0.509 +0.509 +0.509 +0.509
# magnetic-moments B -0.000 -0.000 -0.000 -0.000 -0.000 -0.000 -0.000 -0.000 -0.000 -0.000 -0.000 -0.000 -0.000 -0.000 -0.000 -0.000
# oxidation-state N -0.372 -0.372 -0.372 -0.372 -0.372 -0.372 -0.372 -0.372 -0.372 -0.372 -0.372 -0.372 -0.372 -0.372 -0.372 -0.372
# magnetic-moments N +0.000 +0.000 +0.000 +0.000 +0.000 +0.000 +0.000 +0.000 +0.000 +0.000 +0.000 +0.000 +0.000 +0.000 +0.000 +0.000


Dumping 'NbTe2.fillings' ... done
Dumping 'NbTe2.wfns' ... done
Dumping 'NbTe2.fluidState' ... done
Dumping 'NbTe2.ionpos' ... done
Dumping 'NbTe2.eigenvals' ... done
End date and time: Thu Jan 21 20:36:16 2021  (Duration: 0-0:23:49.21)
Done!
