
*************** JDFTx 1.5.0  ***************

Start date and time: Sun Jul 12 15:11:29 2020
Executable jdftx_gpu with command-line: -i Charged.in -o Charged.out
Running on hosts (process indices):  amax (0-1)
Divided in process groups (process indices):  0 (0)  1 (1)
gpuInit: Found compatible cuda device 0 'Tesla K80'
gpuInit: Found compatible cuda device 1 'Tesla K80'
gpuInit: Selected device 0
Resource initialization completed at t[s]:     18.70
Run totals: 2 processes, 24 threads, 2 GPUs


Input parsed successfully to the following command list (including defaults):

basis kpoint-dependent
cache-projectors no
coords-type Lattice
core-overlap-check none
coulomb-interaction Slab 001
coulomb-truncation-embed 0 0 0.5
davidson-band-ratio 1.1
dump End State
dump-name NbTe2.$VAR
elec-cutoff 20 100
elec-eigen-algo Davidson
elec-ex-corr gga-PBE
elec-smearing Gauss 0.0073499
electronic-minimize  \
	dirUpdateScheme      FletcherReeves \
	linminMethod         DirUpdateRecommended \
	nIterations          500 \
	history              15 \
	knormThreshold       0 \
	energyDiffThreshold  1e-08 \
	nEnergyDiff          2 \
	alphaTstart          1 \
	alphaTmin            1e-10 \
	updateTestStepSize   yes \
	alphaTreduceFactor   0.1 \
	alphaTincreaseFactor 3 \
	nAlphaAdjustMax      3 \
	wolfeEnergy          0.0001 \
	wolfeGradient        0.9 \
	fdTest               no
exchange-regularization WignerSeitzTruncated
fluid LinearPCM 298.000000 1.013250
fluid-anion F- 1 MeanFieldLJ \
	epsBulk 1 \
	pMol 0 \
	epsInf 1 \
	Pvap 0 \
	sigmaBulk 0 \
	Rvdw 2.24877 \
	Res 0 \
	tauNuc 343133
fluid-cation Na+ 1 MeanFieldLJ \
	epsBulk 1 \
	pMol 0 \
	epsInf 1 \
	Pvap 0 \
	sigmaBulk 0 \
	Rvdw 2.19208 \
	Res 0 \
	tauNuc 343133
fluid-ex-corr lda-TF lda-PZ
fluid-gummel-loop 10 1.000000e-05
fluid-minimize  \
	dirUpdateScheme      PolakRibiere \
	linminMethod         DirUpdateRecommended \
	nIterations          400 \
	history              15 \
	knormThreshold       1e-11 \
	energyDiffThreshold  0 \
	nEnergyDiff          2 \
	alphaTstart          1 \
	alphaTmin            1e-10 \
	updateTestStepSize   yes \
	alphaTreduceFactor   0.1 \
	alphaTincreaseFactor 3 \
	nAlphaAdjustMax      6 \
	wolfeEnergy          0.0001 \
	wolfeGradient        0.9 \
	fdTest               no
fluid-solvent H2O 55.338 ScalarEOS \
	epsBulk 78.4 \
	pMol 0.92466 \
	epsInf 1.77 \
	Pvap 1.06736e-10 \
	sigmaBulk 4.62e-05 \
	Rvdw 2.61727 \
	Res 1.42 \
	tauNuc 343133 \
	poleEl 15 7 1
forces-output-coords Positions
initial-state NbTe2.$VAR
ion Ta   0.005378951935249  -0.005378951935249   0.498052389322442 0
ion Ta   0.322575353129501  -0.005378951935249   0.498052389322442 0
ion Ta   0.667234080788049   0.001135043576098   0.498118161470622 0
ion Ta  -0.001135053576099   0.332765868211951   0.498118161470622 0
ion Ta   0.307803422809234   0.282273741618470   0.496792743053319 0
ion Ta   0.667234048788046   0.332765868211951   0.498118161470622 0
ion Ta   0.005378951935249   0.677424630870498   0.498052389322442 0
ion Ta   0.307803431809238   0.692196551190764   0.496792743053319 0
ion Ta   0.717726207381530   0.692196551190764   0.496792743053319 0
ion Se   0.105092817799137   0.220011311475575   0.403182578685420 0
ion Se   0.448251640676436   0.220011311475575   0.403182578685420 0
ion Se   0.777777735000001   0.222222299999999   0.407015159620801 0
ion Se   0.105092796799138   0.551748391323567   0.403182578685420 0
ion Se   0.444444388999997   0.555555623000004   0.465067426949447 0
ion Se   0.779988703524423   0.551748391323567   0.403182578685420 0
ion Se   0.111111014000002   0.888888934000001   0.401866048920963 0
ion Se   0.448251616676434   0.894907154200861   0.403182578685420 0
ion Se   0.779988676524424   0.894907154200861   0.403182578685420 0
ion Se   0.109324508080638   0.223541409212961   0.592212923838225 0
ion Se   0.447550048132320   0.223541409212961   0.592212923838225 0
ion Se   0.777777735000001   0.222222299999999   0.589528770797045 0
ion Se   0.109324487080640   0.552449983867682   0.592212923838225 0
ion Se   0.776458605787038   0.552449983867682   0.592212923838225 0
ion Se   0.111111014000002   0.888888934000001   0.593791911030727 0
ion Se   0.447550024132318   0.890675463919360   0.592212923838225 0
ion Se   0.776458578787039   0.890675463919360   0.592212923838225 0
ion-species GBRV/$ID_pbe.uspp
ion-width Ecut
ionic-minimize  \
	dirUpdateScheme      L-BFGS \
	linminMethod         DirUpdateRecommended \
	nIterations          0 \
	history              15 \
	knormThreshold       0.0001 \
	energyDiffThreshold  1e-06 \
	nEnergyDiff          2 \
	alphaTstart          1 \
	alphaTmin            1e-10 \
	updateTestStepSize   yes \
	alphaTreduceFactor   0.1 \
	alphaTincreaseFactor 3 \
	nAlphaAdjustMax      3 \
	wolfeEnergy          0.0001 \
	wolfeGradient        0.9 \
	fdTest               no
kpoint   0.000000000000   0.000000000000   0.000000000000  1.00000000000000
kpoint-folding 4 4 1 
latt-move-scale 1 1 1
latt-scale 1 1 1 
lattice Triclinic 19.6191 19.6191 34.6845 90 90 120
lattice-minimize  \
	dirUpdateScheme      L-BFGS \
	linminMethod         DirUpdateRecommended \
	nIterations          0 \
	history              15 \
	knormThreshold       0 \
	energyDiffThreshold  1e-06 \
	nEnergyDiff          2 \
	alphaTstart          1 \
	alphaTmin            1e-10 \
	updateTestStepSize   yes \
	alphaTreduceFactor   0.1 \
	alphaTincreaseFactor 3 \
	nAlphaAdjustMax      3 \
	wolfeEnergy          0.0001 \
	wolfeGradient        0.9 \
	fdTest               no
lcao-params -1 1e-06 0.0073499
pcm-variant CANDLE
spintype no-spin
subspace-rotation-factor 1 yes
symmetries automatic
symmetry-threshold 0.0001
target-mu -0.171252 no




---------- Setting up symmetries ----------

Found 24 point-group symmetries of the bravais lattice
Found 6 space-group symmetries with basis
Applied RMS atom displacement 6.28027e-07 bohrs to make symmetries exact.

---------- Initializing the Grid ----------
R = 
[    19.6191   -9.80956          0  ]
[          0    16.9907          0  ]
[          0          0    34.6845  ]
unit cell volume = 11561.8
G =
[   0.320258   0.184901         -0  ]
[          0   0.369802          0  ]
[          0         -0   0.181152  ]
Minimum fftbox size, Smin = [  92  92  160  ]
Chosen fftbox size, S = [  96  96  160  ]

---------- Initializing tighter grid for wavefunction operations ----------
R = 
[    19.6191   -9.80956          0  ]
[          0    16.9907          0  ]
[          0          0    34.6845  ]
unit cell volume = 11561.8
G =
[   0.320258   0.184901         -0  ]
[          0   0.369802          0  ]
[          0         -0   0.181152  ]
Minimum fftbox size, Smin = [  80  80  140  ]
Chosen fftbox size, S = [  80  80  140  ]

---------- Exchange Correlation functional ----------
Initalized PBE GGA exchange.
Initalized PBE GGA correlation.

---------- Setting up pseudopotentials ----------
Width of ionic core gaussian charges (only for fluid interactions / plotting) set to 0.397384

Reading pseudopotential file '/home/guoxy/vasp/jdftx-1.5.0/build/pseudopotentials/GBRV/ta_pbe.uspp':
  Title: Ta.  Created by USPP 7.3.6 on 14-9-2013
  Reference state energy: -70.583193.  13 valence electrons in orbitals:
    |500>  occupation: 2  eigenvalue: -2.682396
    |510>  occupation: 6  eigenvalue: -1.447928
    |520>  occupation: 3  eigenvalue: -0.131987
    |600>  occupation: 2  eigenvalue: -0.199982
    |610>  occupation: 0  eigenvalue: -0.051129
  lMax: 3  lLocal: 3  QijEcut: 5
  7 projectors sampled on a log grid with 667 points:
    l: 0  eig: -2.682397  rCut: 1.4
    l: 0  eig: -0.199983  rCut: 1.4
    l: 1  eig: -1.447928  rCut: 1.5
    l: 1  eig: -0.051130  rCut: 1.5
    l: 2  eig: -0.131987  rCut: 1.7
    l: 2  eig: 0.150000  rCut: 1.7
    l: 3  eig: 0.250000  rCut: 2.3
  Partial core density with radius 1.2
  Transforming core density to a uniform radial grid of dG=0.02 with 1705 points.
  Transforming local potential to a uniform radial grid of dG=0.02 with 1705 points.
  Transforming nonlocal projectors to a uniform radial grid of dG=0.02 with 432 points.
  Transforming density augmentations to a uniform radial grid of dG=0.02 with 1705 points.
  Transforming atomic orbitals to a uniform radial grid of dG=0.02 with 432 points.
  Core radius for overlap checks: 2.30 bohrs.

Reading pseudopotential file '/home/guoxy/vasp/jdftx-1.5.0/build/pseudopotentials/GBRV/se_pbe.uspp':
  Title: Se.  Created by USPP 7.3.6 on 14-9-2013
  Reference state energy: -21.672887.  6 valence electrons in orbitals:
    |400>  occupation: 2  eigenvalue: -0.635284
    |410>  occupation: 4  eigenvalue: -0.239295
  lMax: 2  lLocal: 3  QijEcut: 5
  6 projectors sampled on a log grid with 625 points:
    l: 0  eig: -0.635278  rCut: 1.5
    l: 0  eig: 0.500000  rCut: 1.5
    l: 1  eig: -0.239295  rCut: 1.5
    l: 1  eig: 0.500000  rCut: 1.5
    l: 2  eig: 0.000000  rCut: 1.8
    l: 2  eig: 1.000000  rCut: 1.8
  Partial core density with radius 1.2
  Transforming core density to a uniform radial grid of dG=0.02 with 1705 points.
  Transforming local potential to a uniform radial grid of dG=0.02 with 1705 points.
  Transforming nonlocal projectors to a uniform radial grid of dG=0.02 with 432 points.
  Transforming density augmentations to a uniform radial grid of dG=0.02 with 1705 points.
  Transforming atomic orbitals to a uniform radial grid of dG=0.02 with 432 points.
  Core radius for overlap checks: 1.80 bohrs.

Initialized 2 species with 26 total atoms.

Folded 1 k-points by 4x4x1 to 16 k-points.

---------- Setting up k-points, bands, fillings ----------
Adding inversion symmetry to k-mesh for non-inversion-symmetric unit cell.
Reduced to 4 k-points under symmetry. 
Computing the number of bands and number of electrons
Reading initial fillings from file NbTe2.fillings.
nElectrons: 219.000000   nBands: 185   nStates: 4

----- Setting up reduced wavefunction bases (one per k-point) -----
average nbasis = 49385.438 , ideal nbasis = 49392.913

---------- Setting up coulomb interaction ----------
Fluid mode embedding: using embedded box, but periodic Coulomb kernel.
(Fluid response is responsible for (approximate) separation between periodic images.)
Setting up double-sized grid for truncated Coulomb potentials:
R = 
[    19.6191   -9.80956          0  ]
[          0    16.9907          0  ]
[          0          0     69.369  ]
unit cell volume = 23123.6
G =
[   0.320258   0.184901         -0  ]
[          0   0.369802          0  ]
[          0         -0  0.0905762  ]
Chosen fftbox size, S = [  96  96  320  ]
Integer grid location selected as the embedding center:
   Grid: [  0  0  80  ]
   Lattice: [  0  0  0.5  ]
   Cartesian: [  0  0  17.3423  ]
Constructing Wigner-Seitz cell: 8 faces (6 quadrilaterals, 2 hexagons)
Range-separation parameter for embedded mesh potentials due to point charges: 0.587378 bohrs.

Initializing van der Waals corrections
	NOTE: vdW corrections apply only for interactions with fluid.
	Ta:  C6:  815.23 Eh-a0^6  R0: 3.326 a0 (WARNING: beyond Grimme's data set)
	Se:  C6:  219.24 Eh-a0^6  R0: 3.347 a0

---------- Setting up ewald sum ----------
Optimum gaussian width for ewald sums = 6.603382 bohr.
Real space sum over 605 unit cells with max indices [  5  5  2  ]
Reciprocal space sum over 5915 terms with max indices [  6  6  17  ]

---------- Allocating electronic variables ----------
Initializing wave functions:  reading from 'NbTe2.wfns'
----- createFluidSolver() ----- (Fluid-side solver setup)
   Initializing fluid molecule 'H2O'
     Initializing site 'O'
       Electron density: proportional to exp(-r/0.36935)*erfc((r-0.51523)/0.36823) with norm 6.826
       Charge density: gaussian nuclear width 0.478731 with net site charge 0.826
       Polarizability: cuspless exponential with width 0.32 and norm 3.73
       Hard sphere radius: 2.57003 bohrs
       Positions in reference frame:
         [ +0.000000 +0.000000 +0.000000 ]
     Initializing site 'H'
       Electron density: proportional to exp(-r/0.34641)*erfc((r-0)/0.390882) with norm 0.587
       Charge density: gaussian nuclear width 0.377945 with net site charge -0.413
       Polarizability: cuspless exponential with width 0.39 and norm 3.3
       Positions in reference frame:
         [ +0.000000 -1.441945 +1.122523 ]
         [ +0.000000 +1.441945 +1.122523 ]
     Net charge: 0   dipole magnitude: 0.927204
     Initializing spherical shell mfKernel with radius 2.61727 Bohr
     deltaS corrections:
       site 'O': -7.54299
       site 'H': -6.83917
   Initializing fluid molecule 'Na+'
     Initializing site 'Na'
       Electron density: proportional to exp(-r/0.19682)*erfc((r-0.71491)/0.41314) with norm 8.1383
       Charge density: gaussian nuclear width 0.365347 with net site charge -1
       Hard sphere radius: 1.86327 bohrs
       Positions in reference frame:
         [ +0.000000 +0.000000 +0.000000 ]
     Net charge: -1   dipole magnitude: 0
     Initializing gaussian mfKernel with width: 1.55004 Bohr
     deltaS corrections:
       site 'Na': -22.3555
   Initializing fluid molecule 'F-'
     Initializing site 'F'
       Electron density: proportional to exp(-r/0.38886)*erfc((r-0)/0.438782) with norm 8
       Charge density: gaussian nuclear width 0.374796 with net site charge 1
       Hard sphere radius: 2.39995 bohrs
       Positions in reference frame:
         [ +0.000000 +0.000000 +0.000000 ]
     Net charge: 1   dipole magnitude: 0
     Initializing gaussian mfKernel with width: 1.59012 Bohr
     deltaS corrections:
       site 'F': -9.04335

Correction to mu due to finite nuclear width = -0.00939697
   Cavity determined by nc: 0.00142 and sigma: 0.707107
   Nonlocal vdW cavity from gaussian model electron density with norm = 8 and sigma = 0.993594 bohr
   Charge asymmetry in cavity with sensitivity pCavity = 36.5 e-bohr/Eh
   Electrostatic cavity expanded by eta = 1.46 bohrs
   Weighted density cavitation model constrained by Nbulk: 0.0049383 bohr^-3, Pvap: 3.14029 kPa, Rvdw: 2.61727 bohr and sigmaBulk: 4.62e-05 Eh/bohr^2 at T: 298 K.
   Weighted density dispersion model using vdW pair potentials with single solvent site with sqrtC6eff: 0.77 SI.
Reading fluid state from 'NbTe2.fluidState'


---- Citations for features of the code used in this run ----

   Software package:
      R. Sundararaman, K. Letchworth-Weaver, K.A. Schwarz, D. Gunceler, Y. Ozhabes and T.A. Arias, 'JDFTx: software for joint density-functional theory', SoftwareX 6, 278 (2017)

   gga-PBE exchange-correlation functional:
      J.P. Perdew, K. Burke and M. Ernzerhof, Phys. Rev. Lett. 77, 3865 (1996)

   Pseudopotentials:
      KF Garrity, JW Bennett, KM Rabe and D Vanderbilt, Comput. Mater. Sci. 81, 446 (2014)

   Truncated Coulomb potentials:
      R. Sundararaman and T.A. Arias, Phys. Rev. B 87, 165122 (2013)

   Van der Waals correction pair-potentials:
      S. Grimme, J. Comput. Chem. 27, 1787 (2006)

   Charge-asymmetric nonlocally-determined local-electric (CANDLE) solvation model:
      R. Sundararaman and W.A. Goddard III, J. Chem. Phys. 142, 064107 (2015)

   Total energy minimization with Auxiliary Hamiltonian:
      C. Freysoldt, S. Boeck, and J. Neugebauer, Phys. Rev. B 79, 241103(R) (2009)

   Grand-canonical (fixed-potential) DFT:
      R. Sundararaman, W. A. Goddard III and T. A. Arias, J. Chem. Phys. 146, 114104 (2017)

This list may not be complete. Please suggest additional citations or
report any other bugs at https://github.com/shankar1729/jdftx/issues

Initialization completed successfully at t[s]:     34.51

Shifting auxilliary hamiltonian by 0.005578 to set nElectrons=219.000000
	Linear fluid (dielectric constant: 78.4, screening length: 5.74355 Bohr) occupying 0.751667 of unit cell:	Completed after 3 iterations at t[s]:     37.60

-------- Electronic minimization -----------
	Linear fluid (dielectric constant: 78.4, screening length: 5.74355 Bohr) occupying 0.751667 of unit cell:	Completed after 0 iterations at t[s]:     40.50
	FillingsUpdate:  mu: -0.171251800  nElectrons: 219.000000
ElecMinimize: Iter:   0  G: -654.188829423270590  |grad|_K:  1.100e-05  alpha:  1.000e+00
	Linear fluid (dielectric constant: 78.4, screening length: 5.74355 Bohr) occupying 0.771721 of unit cell:	Completed after 21 iterations at t[s]:     50.76
	Linear fluid (dielectric constant: 78.4, screening length: 5.74355 Bohr) occupying 0.751660 of unit cell:	Completed after 18 iterations at t[s]:     56.51
	FillingsUpdate:  mu: -0.171251800  nElectrons: 219.086085
	SubspaceRotationAdjust: set factor to 0.482
ElecMinimize: Iter:   1  G: -654.189004243708723  |grad|_K:  5.396e-06  alpha:  5.418e-02  linmin:  1.240e-02  t[s]:     61.02
	Linear fluid (dielectric constant: 78.4, screening length: 5.74355 Bohr) occupying 0.751630 of unit cell:	Completed after 9 iterations at t[s]:     65.65
ElecMinimize: 	Predicted alpha/alphaT>3.000000, increasing alphaT to 1.625338e-01.
	Linear fluid (dielectric constant: 78.4, screening length: 5.74355 Bohr) occupying 0.751570 of unit cell:	Completed after 11 iterations at t[s]:     71.04
	Linear fluid (dielectric constant: 78.4, screening length: 5.74355 Bohr) occupying 0.751568 of unit cell:	Completed after 0 iterations at t[s]:     75.10
	FillingsUpdate:  mu: -0.171251800  nElectrons: 219.081134
	SubspaceRotationAdjust: set factor to 0.216
ElecMinimize: Iter:   2  G: -654.189135097664007  |grad|_K:  2.704e-06  alpha:  1.651e-01  linmin: -5.984e-04  t[s]:     79.30
	Linear fluid (dielectric constant: 78.4, screening length: 5.74355 Bohr) occupying 0.751543 of unit cell:	Completed after 11 iterations at t[s]:     84.23
	Linear fluid (dielectric constant: 78.4, screening length: 5.74355 Bohr) occupying 0.751540 of unit cell:	Completed after 8 iterations at t[s]:     89.65
	FillingsUpdate:  mu: -0.171251800  nElectrons: 219.131027
	SubspaceRotationAdjust: set factor to 0.104
	SubspaceRotationAdjust: resetting CG because factor has changed by 0.104064
	Linear fluid (dielectric constant: 78.4, screening length: 5.74355 Bohr) occupying 0.751540 of unit cell:	Completed after 0 iterations at t[s]:     95.87
ElecMinimize: 	State modified externally: resetting search direction.
ElecMinimize: Iter:   3  G: -654.189190332341923  |grad|_K:  1.365e-06  alpha:  2.046e-01
	Linear fluid (dielectric constant: 78.4, screening length: 5.74355 Bohr) occupying 0.751518 of unit cell:	Completed after 9 iterations at t[s]:    105.29
	Linear fluid (dielectric constant: 78.4, screening length: 5.74355 Bohr) occupying 0.751485 of unit cell:	Completed after 9 iterations at t[s]:    110.54
	FillingsUpdate:  mu: -0.171251800  nElectrons: 219.116513
	SubspaceRotationAdjust: set factor to 0.0723
ElecMinimize: Iter:   4  G: -654.189226301741314  |grad|_K:  8.702e-07  alpha:  5.244e-01  linmin: -5.570e-04  t[s]:    114.98
	Linear fluid (dielectric constant: 78.4, screening length: 5.74355 Bohr) occupying 0.751442 of unit cell:	Completed after 8 iterations at t[s]:    119.53
	Linear fluid (dielectric constant: 78.4, screening length: 5.74355 Bohr) occupying 0.751387 of unit cell:	Completed after 8 iterations at t[s]:    125.06
	FillingsUpdate:  mu: -0.171251800  nElectrons: 219.142999
	SubspaceRotationAdjust: set factor to 0.0909
ElecMinimize: Iter:   5  G: -654.189261333629020  |grad|_K:  6.313e-07  alpha:  1.245e+00  linmin: -2.202e-04  t[s]:    128.97
	Linear fluid (dielectric constant: 78.4, screening length: 5.74355 Bohr) occupying 0.751301 of unit cell:	Completed after 9 iterations at t[s]:    134.18
	Linear fluid (dielectric constant: 78.4, screening length: 5.74355 Bohr) occupying 0.751315 of unit cell:	Completed after 3 iterations at t[s]:    139.76
	FillingsUpdate:  mu: -0.171251800  nElectrons: 219.157951
	SubspaceRotationAdjust: set factor to 0.12
ElecMinimize: Iter:   6  G: -654.189276549985948  |grad|_K:  4.668e-07  alpha:  1.032e+00  linmin:  3.782e-05  t[s]:    143.87
	Linear fluid (dielectric constant: 78.4, screening length: 5.74355 Bohr) occupying 0.751259 of unit cell:	Completed after 2 iterations at t[s]:    148.73
	Linear fluid (dielectric constant: 78.4, screening length: 5.74355 Bohr) occupying 0.751263 of unit cell:	Completed after 0 iterations at t[s]:    153.21
	FillingsUpdate:  mu: -0.171251800  nElectrons: 219.164653
	SubspaceRotationAdjust: set factor to 0.148
ElecMinimize: Iter:   7  G: -654.189284216057331  |grad|_K:  4.542e-07  alpha:  9.624e-01  linmin:  6.547e-05  t[s]:    157.28
	Linear fluid (dielectric constant: 78.4, screening length: 5.74355 Bohr) occupying 0.751211 of unit cell:	Completed after 7 iterations at t[s]:    161.69
	Linear fluid (dielectric constant: 78.4, screening length: 5.74355 Bohr) occupying 0.751208 of unit cell:	Completed after 0 iterations at t[s]:    165.71
	FillingsUpdate:  mu: -0.171251800  nElectrons: 219.173617
	SubspaceRotationAdjust: set factor to 0.172
ElecMinimize: Iter:   8  G: -654.189291785022874  |grad|_K:  4.515e-07  alpha:  1.015e+00  linmin: -2.700e-05  t[s]:    169.92
	Linear fluid (dielectric constant: 78.4, screening length: 5.74355 Bohr) occupying 0.751142 of unit cell:	Completed after 2 iterations at t[s]:    173.21
	Linear fluid (dielectric constant: 78.4, screening length: 5.74355 Bohr) occupying 0.751153 of unit cell:	Completed after 0 iterations at t[s]:    178.74
	FillingsUpdate:  mu: -0.171251800  nElectrons: 219.177618
	SubspaceRotationAdjust: set factor to 0.189
ElecMinimize: Iter:   9  G: -654.189298154614562  |grad|_K:  3.725e-07  alpha:  8.415e-01  linmin:  2.035e-05  t[s]:    183.77
	Linear fluid (dielectric constant: 78.4, screening length: 5.74355 Bohr) occupying 0.751117 of unit cell:	Completed after 3 iterations at t[s]:    187.74
	Linear fluid (dielectric constant: 78.4, screening length: 5.74355 Bohr) occupying 0.751123 of unit cell:	Completed after 0 iterations at t[s]:    191.83
	FillingsUpdate:  mu: -0.171251800  nElectrons: 219.180942
	SubspaceRotationAdjust: set factor to 0.203
ElecMinimize: Iter:  10  G: -654.189301674027547  |grad|_K:  2.490e-07  alpha:  7.020e-01  linmin:  6.496e-06  t[s]:    196.74
	Linear fluid (dielectric constant: 78.4, screening length: 5.74355 Bohr) occupying 0.751106 of unit cell:	Completed after 2 iterations at t[s]:    200.63
	Linear fluid (dielectric constant: 78.4, screening length: 5.74355 Bohr) occupying 0.751109 of unit cell:	Completed after 0 iterations at t[s]:    204.68
	FillingsUpdate:  mu: -0.171251800  nElectrons: 219.180728
	SubspaceRotationAdjust: set factor to 0.213
ElecMinimize: Iter:  11  G: -654.189303005306897  |grad|_K:  1.554e-07  alpha:  5.892e-01  linmin:  5.431e-06  t[s]:    209.49
	Linear fluid (dielectric constant: 78.4, screening length: 5.74355 Bohr) occupying 0.751106 of unit cell:	Completed after 0 iterations at t[s]:    213.43
	Linear fluid (dielectric constant: 78.4, screening length: 5.74355 Bohr) occupying 0.751105 of unit cell:	Completed after 0 iterations at t[s]:    217.19
	FillingsUpdate:  mu: -0.171251800  nElectrons: 219.181074
	SubspaceRotationAdjust: set factor to 0.25
ElecMinimize: Iter:  12  G: -654.189303598426136  |grad|_K:  1.119e-07  alpha:  6.736e-01  linmin:  3.633e-08  t[s]:    221.08
	Linear fluid (dielectric constant: 78.4, screening length: 5.74355 Bohr) occupying 0.751108 of unit cell:	Completed after 2 iterations at t[s]:    224.90
	Linear fluid (dielectric constant: 78.4, screening length: 5.74355 Bohr) occupying 0.751107 of unit cell:	Completed after 0 iterations at t[s]:    229.36
	FillingsUpdate:  mu: -0.171251800  nElectrons: 219.181536
	SubspaceRotationAdjust: set factor to 0.216
ElecMinimize: Iter:  13  G: -654.189303745993811  |grad|_K:  1.129e-07  alpha:  4.026e-01  linmin:  6.460e-06  t[s]:    233.31
	Linear fluid (dielectric constant: 78.4, screening length: 5.74355 Bohr) occupying 0.751105 of unit cell:	Completed after 3 iterations at t[s]:    237.56
	Linear fluid (dielectric constant: 78.4, screening length: 5.74355 Bohr) occupying 0.751106 of unit cell:	Completed after 0 iterations at t[s]:    241.56
	FillingsUpdate:  mu: -0.171251800  nElectrons: 219.180368
	SubspaceRotationAdjust: set factor to 0.142
ElecMinimize: Iter:  14  G: -654.189303857699088  |grad|_K:  7.185e-08  alpha:  2.497e-01  linmin:  5.811e-05  t[s]:    245.19
	Linear fluid (dielectric constant: 78.4, screening length: 5.74355 Bohr) occupying 0.751107 of unit cell:	Completed after 0 iterations at t[s]:    249.14
	Linear fluid (dielectric constant: 78.4, screening length: 5.74355 Bohr) occupying 0.751109 of unit cell:	Completed after 0 iterations at t[s]:    253.74
	FillingsUpdate:  mu: -0.171251800  nElectrons: 219.180205
	SubspaceRotationAdjust: set factor to 0.217
ElecMinimize: Iter:  15  G: -654.189303949770647  |grad|_K:  5.218e-08  alpha:  5.540e-01  linmin:  1.316e-07  t[s]:    257.98
	Linear fluid (dielectric constant: 78.4, screening length: 5.74355 Bohr) occupying 0.751112 of unit cell:	Completed after 1 iterations at t[s]:    261.93
	Linear fluid (dielectric constant: 78.4, screening length: 5.74355 Bohr) occupying 0.751110 of unit cell:	Completed after 0 iterations at t[s]:    266.43
ElecMinimize: 	Step increased G by 5.833726e-09, reducing alpha to 2.238851e-02.
	Linear fluid (dielectric constant: 78.4, screening length: 5.74355 Bohr) occupying 0.751109 of unit cell:	Completed after 0 iterations at t[s]:    273.60
ElecMinimize: 	Step increased G by 1.578496e-08, reducing alpha to 2.238851e-03.
	Linear fluid (dielectric constant: 78.4, screening length: 5.74355 Bohr) occupying 0.751109 of unit cell:	Completed after 0 iterations at t[s]:    282.14
ElecMinimize: 	Step increased G by 1.658407e-08, reducing alpha to 2.238851e-04.
ElecMinimize: 	Step failed to reduce G after 3 attempts. Quitting step.
ElecMinimize: 	Undoing step.
	Linear fluid (dielectric constant: 78.4, screening length: 5.74355 Bohr) occupying 0.751109 of unit cell:	Completed after 0 iterations at t[s]:    289.47
ElecMinimize: 	Step failed: resetting search direction.
	FillingsUpdate:  mu: -0.171251800  nElectrons: 219.180207
	SubspaceRotationAdjust: set factor to 0.186
ElecMinimize: Iter:  16  G: -654.189303933173392  |grad|_K:  6.188e-08  alpha:  2.239e-04
	Linear fluid (dielectric constant: 78.4, screening length: 5.74355 Bohr) occupying 0.751107 of unit cell:	Completed after 3 iterations at t[s]:    298.01
	Linear fluid (dielectric constant: 78.4, screening length: 5.74355 Bohr) occupying 0.751108 of unit cell:	Completed after 0 iterations at t[s]:    301.34
	FillingsUpdate:  mu: -0.171251800  nElectrons: 219.179628
	SubspaceRotationAdjust: set factor to 0.113
ElecMinimize: Iter:  17  G: -654.189303967492606  |grad|_K:  8.807e-08  alpha:  2.165e-01  linmin:  8.488e-04  t[s]:    305.96
	Linear fluid (dielectric constant: 78.4, screening length: 5.74355 Bohr) occupying 0.751109 of unit cell:	Completed after 0 iterations at t[s]:    309.84
	Linear fluid (dielectric constant: 78.4, screening length: 5.74355 Bohr) occupying 0.751108 of unit cell:	Completed after 0 iterations at t[s]:    314.30
	FillingsUpdate:  mu: -0.171251800  nElectrons: 219.179498
	SubspaceRotationAdjust: set factor to 0.0749
ElecMinimize: Iter:  18  G: -654.189303977606983  |grad|_K:  7.095e-08  alpha:  1.112e-01  linmin:  5.213e-08  t[s]:    318.62
	Linear fluid (dielectric constant: 78.4, screening length: 5.74355 Bohr) occupying 0.751109 of unit cell:	Completed after 1 iterations at t[s]:    322.83
	Linear fluid (dielectric constant: 78.4, screening length: 5.74355 Bohr) occupying 0.751109 of unit cell:	Completed after 0 iterations at t[s]:    327.10
ElecMinimize: 	Step increased G by 1.755939e-08, reducing alpha to 4.848334e-03.
	Linear fluid (dielectric constant: 78.4, screening length: 5.74355 Bohr) occupying 0.751108 of unit cell:	Completed after 0 iterations at t[s]:    334.08
ElecMinimize: 	Step increased G by 2.685454e-08, reducing alpha to 4.848334e-04.
	Linear fluid (dielectric constant: 78.4, screening length: 5.74355 Bohr) occupying 0.751108 of unit cell:	Completed after 0 iterations at t[s]:    341.51
ElecMinimize: 	Step increased G by 2.784384e-08, reducing alpha to 4.848334e-05.
ElecMinimize: 	Step failed to reduce G after 3 attempts. Quitting step.
ElecMinimize: 	Undoing step.
	Linear fluid (dielectric constant: 78.4, screening length: 5.74355 Bohr) occupying 0.751108 of unit cell:	Completed after 0 iterations at t[s]:    348.91
ElecMinimize: 	Step failed: resetting search direction.
	FillingsUpdate:  mu: -0.171251800  nElectrons: 219.179498
	SubspaceRotationAdjust: set factor to 0.0768
ElecMinimize: Iter:  19  G: -654.189303949756777  |grad|_K:  3.788e-08  alpha:  4.848e-05
	Linear fluid (dielectric constant: 78.4, screening length: 5.74355 Bohr) occupying 0.751108 of unit cell:	Completed after 0 iterations at t[s]:    356.98
ElecMinimize: 	Predicted alpha/alphaT>3.000000, increasing alphaT to 3.336881e-01.
	Linear fluid (dielectric constant: 78.4, screening length: 5.74355 Bohr) occupying 0.751109 of unit cell:	Completed after 0 iterations at t[s]:    360.43
	Linear fluid (dielectric constant: 78.4, screening length: 5.74355 Bohr) occupying 0.751111 of unit cell:	Completed after 0 iterations at t[s]:    364.56
	FillingsUpdate:  mu: -0.171251800  nElectrons: 219.180293
	SubspaceRotationAdjust: set factor to 0.0945
ElecMinimize: Iter:  20  G: -654.189304001045798  |grad|_K:  5.978e-08  alpha:  9.754e-01  linmin: -5.248e-07  t[s]:    368.49
	Linear fluid (dielectric constant: 78.4, screening length: 5.74355 Bohr) occupying 0.751119 of unit cell:	Completed after 6 iterations at t[s]:    373.12
	Linear fluid (dielectric constant: 78.4, screening length: 5.74355 Bohr) occupying 0.751111 of unit cell:	Completed after 6 iterations at t[s]:    377.71
ElecMinimize: 	Step increased G by 8.209975e-08, reducing alpha to 9.617194e-03.
	Linear fluid (dielectric constant: 78.4, screening length: 5.74355 Bohr) occupying 0.751111 of unit cell:	Completed after 0 iterations at t[s]:    386.29
ElecMinimize: 	Step increased G by 5.138702e-08, reducing alpha to 9.617194e-04.
	Linear fluid (dielectric constant: 78.4, screening length: 5.74355 Bohr) occupying 0.751111 of unit cell:	Completed after 0 iterations at t[s]:    394.07
ElecMinimize: 	Step increased G by 4.836079e-08, reducing alpha to 9.617194e-05.
ElecMinimize: 	Step failed to reduce G after 3 attempts. Quitting step.
ElecMinimize: 	Undoing step.
	Linear fluid (dielectric constant: 78.4, screening length: 5.74355 Bohr) occupying 0.751111 of unit cell:	Completed after 0 iterations at t[s]:    400.75
ElecMinimize: 	Step failed: resetting search direction.
	FillingsUpdate:  mu: -0.171251800  nElectrons: 219.180296
	SubspaceRotationAdjust: set factor to 0.0784
ElecMinimize: Iter:  21  G: -654.189303952713772  |grad|_K:  8.274e-08  alpha:  9.617e-05
	Linear fluid (dielectric constant: 78.4, screening length: 5.74355 Bohr) occupying 0.751107 of unit cell:	Completed after 5 iterations at t[s]:    409.18
	Linear fluid (dielectric constant: 78.4, screening length: 5.74355 Bohr) occupying 0.751109 of unit cell:	Completed after 3 iterations at t[s]:    414.30
	FillingsUpdate:  mu: -0.171251800  nElectrons: 219.179647
	SubspaceRotationAdjust: set factor to 0.0339
ElecMinimize: Iter:  22  G: -654.189303989259429  |grad|_K:  3.339e-08  alpha:  2.740e-01  linmin:  4.390e-03  t[s]:    418.67
	Linear fluid (dielectric constant: 78.4, screening length: 5.74355 Bohr) occupying 0.751110 of unit cell:	Completed after 0 iterations at t[s]:    421.82
ElecMinimize: 	Predicted alpha/alphaT>3.000000, increasing alphaT to 8.219468e-01.
	Linear fluid (dielectric constant: 78.4, screening length: 5.74355 Bohr) occupying 0.751112 of unit cell:	Completed after 0 iterations at t[s]:    426.26
ElecMinimize: 	Predicted alpha/alphaT>3.000000, increasing alphaT to 2.465840e+00.
	Linear fluid (dielectric constant: 78.4, screening length: 5.74355 Bohr) occupying 0.751116 of unit cell:	Completed after 4 iterations at t[s]:    430.45
	Linear fluid (dielectric constant: 78.4, screening length: 5.74355 Bohr) occupying 0.751111 of unit cell:	Completed after 2 iterations at t[s]:    434.44
	FillingsUpdate:  mu: -0.171251800  nElectrons: 219.180108
	SubspaceRotationAdjust: set factor to 0.0173
ElecMinimize: Iter:  23  G: -654.189303992016448  |grad|_K:  2.787e-08  alpha:  6.487e-01  linmin:  6.272e-04  t[s]:    438.67
	Linear fluid (dielectric constant: 78.4, screening length: 5.74355 Bohr) occupying 0.751112 of unit cell:	Completed after 0 iterations at t[s]:    442.36
	Linear fluid (dielectric constant: 78.4, screening length: 5.74355 Bohr) occupying 0.751112 of unit cell:	Completed after 0 iterations at t[s]:    446.75
	FillingsUpdate:  mu: -0.171251800  nElectrons: 219.180148
	SubspaceRotationAdjust: set factor to 0.0269
ElecMinimize: Iter:  24  G: -654.189304003793836  |grad|_K:  2.477e-08  alpha:  7.723e-01  linmin:  2.474e-07  t[s]:    450.94
	Linear fluid (dielectric constant: 78.4, screening length: 5.74355 Bohr) occupying 0.751113 of unit cell:	Completed after 0 iterations at t[s]:    454.80
	Linear fluid (dielectric constant: 78.4, screening length: 5.74355 Bohr) occupying 0.751112 of unit cell:	Completed after 0 iterations at t[s]:    458.49
	FillingsUpdate:  mu: -0.171251800  nElectrons: 219.180055
	SubspaceRotationAdjust: set factor to 0.0198
ElecMinimize: Iter:  25  G: -654.189304010926094  |grad|_K:  1.774e-08  alpha:  5.013e-01  linmin: -2.865e-04  t[s]:    462.72
	Linear fluid (dielectric constant: 78.4, screening length: 5.74355 Bohr) occupying 0.751112 of unit cell:	Completed after 0 iterations at t[s]:    466.30
ElecMinimize: 	Predicted alpha/alphaT>3.000000, increasing alphaT to 1.503918e+00.
	Linear fluid (dielectric constant: 78.4, screening length: 5.74355 Bohr) occupying 0.751111 of unit cell:	Completed after 2 iterations at t[s]:    470.41
	Linear fluid (dielectric constant: 78.4, screening length: 5.74355 Bohr) occupying 0.751112 of unit cell:	Completed after 0 iterations at t[s]:    474.24
ElecMinimize: 	Step increased G by 9.881319e-09, reducing alpha to 2.575913e-02.
	Linear fluid (dielectric constant: 78.4, screening length: 5.74355 Bohr) occupying 0.751112 of unit cell:	Completed after 0 iterations at t[s]:    481.73
	FillingsUpdate:  mu: -0.171251800  nElectrons: 219.180044
	SubspaceRotationAdjust: set factor to 0.0171
ElecMinimize: Iter:  26  G: -654.189304012920502  |grad|_K:  4.033e-08  alpha:  2.576e-02  linmin:  4.485e-04  t[s]:    486.14
ElecMinimize: Converged (|Delta G|<1.000000e-08 for 2 iters).
Setting wave functions to eigenvectors of Hamiltonian

# Ionic positions in lattice coordinates:
ion Ta   0.005378906653197  -0.005378919883967   0.498052389322442 0
ion Ta   0.322575315847450  -0.005378919883967   0.498052389322442 0
ion Ta   0.667234089339330   0.001135036294047   0.498118161470622 0
ion Ta  -0.001135049524816   0.332765897429900   0.498118161470622 0
ion Ta   0.307803445527184   0.282273748669754   0.496792743053319 0
ion Ta   0.667234089339330   0.332765897429900   0.498118161470622 0
ion Ta   0.005378906653197   0.677424670921781   0.498052389322442 0
ion Ta   0.307803445527184   0.692196541242047   0.496792743053319 0
ion Ta   0.717726238099477   0.692196541242047   0.496792743053319 0
ion Se   0.105092820517087   0.220011295526857   0.403182578685420 0
ion Se   0.448251617394383   0.220011295526857   0.403182578685420 0
ion Se   0.777777709717948   0.222222277051282   0.407015159620801 0
ion Se   0.105092820517087   0.551748369374847   0.403182578685420 0
ion Se   0.444444376384615   0.555555610384616   0.465067426949447 0
ion Se   0.779988691242373   0.551748369374847   0.403182578685420 0
ion Se   0.111111043051281   0.888888943717949   0.401866048920963 0
ion Se   0.448251617394383   0.894907166252143   0.403182578685420 0
ion Se   0.779988691242373   0.894907166252143   0.403182578685420 0
ion Se   0.109324510798589   0.223541393264243   0.592212923838225 0
ion Se   0.447550024850268   0.223541393264243   0.592212923838225 0
ion Se   0.777777709717948   0.222222277051282   0.589528770797045 0
ion Se   0.109324510798589   0.552449961918963   0.592212923838225 0
ion Se   0.776458593504988   0.552449961918963   0.592212923838225 0
ion Se   0.111111043051281   0.888888943717949   0.593791911030727 0
ion Se   0.447550024850268   0.890675475970642   0.592212923838225 0
ion Se   0.776458593504988   0.890675475970642   0.592212923838225 0


# Forces in Lattice coordinates:
force Ta  -0.027651570439477   0.027651570439473   0.009971929360449 0
force Ta   0.027651570439477   0.000000000000000   0.009971929360449 0
force Ta   0.000000000000000  -0.034965015598440  -0.007726144021857 0
force Ta   0.034965015598444  -0.000000000000000  -0.007726144021850 0
force Ta   0.000000000000000   0.026500100690749  -0.002283555584123 0
force Ta  -0.034965015598444   0.034965015598444  -0.007726144021850 0
force Ta   0.000000000000000  -0.027651570439473   0.009971929360445 0
force Ta   0.026500100690749  -0.026500100690749  -0.002283555584123 0
force Ta  -0.026500100690777   0.000000000000000  -0.002283555584123 0
force Se  -0.001600403172766   0.000981452371661  -0.033522530380322 0
force Se   0.001600403172765  -0.000618950801104  -0.033522530380322 0
force Se   0.000000000000000   0.000000000000000  -0.031022247936274 0
force Se  -0.000618950801105  -0.000981452371661  -0.033522530380322 0
force Se   0.000000000000000  -0.000000000000000  -0.039666081892452 0
force Se   0.000618950801102  -0.001600403172765  -0.033522530380322 0
force Se   0.000000000000000   0.000000000000000   0.019807320809599 0
force Se   0.000981452371661   0.000618950801107  -0.033522530380322 0
force Se  -0.000981452371661   0.001600403172765  -0.033522530380436 0
force Se  -0.010228389219728  -0.007968999627698   0.043157192851260 0
force Se   0.010228389219728  -0.018197388847427   0.043157192851260 0
force Se   0.000000000000000   0.000000000000000   0.043182979835314 0
force Se  -0.018197388847427   0.007968999627698   0.043157192851260 0
force Se   0.018197388847424  -0.010228389219728   0.043157192851260 0
force Se   0.000000000000000  -0.000000000000000  -0.005470559102757 0
force Se  -0.007968999627702   0.018197388847427   0.043157192851033 0
force Se   0.007968999627698   0.010228389219728   0.043157192851033 0

# Energy components:
   A_diel =       -0.0108450535564895
   Eewald =     3574.3385966174100759
       EH =     4129.6885349855683671
     Eloc =    -8392.4952403682618751
      Enl =     -114.3928209827855227
      Exc =     -442.6964143619253491
 Exc_core =      318.1415012451689108
       KE =      235.7349840239284049
  MuShift =       -0.0016918716723989
-------------------------------------
     Etot =     -691.6933957661257182
       TS =        0.0308853554764243
-------------------------------------
        F =     -691.7242811216021892
      muN =      -37.5349771086817441
-------------------------------------
        G =     -654.1893040129205019

IonicMinimize: Iter:   0  G: -654.189304012920502  |grad|_K:  0.000e+00  t[s]:    489.23
IonicMinimize: Converged (|grad|_K<1.000000e-04).

#--- Lowdin population analysis ---
# oxidation-state Ta -0.568 -0.568 -0.583 -0.583 -0.467 -0.583 -0.568 -0.467 -0.467
# oxidation-state Se +0.310 +0.310 +0.321 +0.310 +0.365 +0.310 +0.382 +0.310 +0.310 +0.298 +0.298 +0.319 +0.298 +0.298 +0.391 +0.298 +0.298


Dumping 'NbTe2.fillings' ... done
Dumping 'NbTe2.wfns' ... done
Dumping 'NbTe2.fluidState' ... done
Dumping 'NbTe2.eigenvals' ... done
End date and time: Sun Jul 12 15:19:39 2020  (Duration: 0-0:08:10.51)
Done!
