
*************** JDFTx 1.5.0  ***************

Start date and time: Thu Jan 21 19:16:32 2021
Executable jdftx_gpu with command-line: -i Charged.in -o Charged.out
Running on hosts (process indices):  amax (0-4)
Divided in process groups (process indices):  0 (0)  1 (1)  2 (2)  3 (3)  4 (4)
gpuInit: Found compatible cuda device 0 'Tesla K80'
gpuInit: Found compatible cuda device 1 'Tesla K80'
gpuInit: Found compatible cuda device 2 'Tesla K80'
gpuInit: Found compatible cuda device 3 'Tesla K80'
gpuInit: Found compatible cuda device 4 'Tesla K80'
gpuInit: Selected device 0
Resource initialization completed at t[s]:      2.94
Run totals: 5 processes, 24 threads, 5 GPUs


Input parsed successfully to the following command list (including defaults):

basis kpoint-dependent
cache-projectors no
coords-type Lattice
core-overlap-check none
coulomb-interaction Slab 001
coulomb-truncation-embed 0.5 0.5 0.5
davidson-band-ratio 1.1
dump End State
dump-name NbTe2.$VAR
elec-cutoff 20
elec-eigen-algo Davidson
elec-ex-corr gga-PBE
elec-initial-charge 0.000000
elec-initial-magnetization 5.000000 no
elec-smearing Gauss 0.0073499
electronic-minimize  \
	dirUpdateScheme      FletcherReeves \
	linminMethod         DirUpdateRecommended \
	nIterations          200 \
	history              15 \
	knormThreshold       0 \
	energyDiffThreshold  1e-08 \
	nEnergyDiff          2 \
	alphaTstart          1 \
	alphaTmin            1e-10 \
	updateTestStepSize   yes \
	alphaTreduceFactor   0.1 \
	alphaTincreaseFactor 3 \
	nAlphaAdjustMax      3 \
	wolfeEnergy          0.0001 \
	wolfeGradient        0.9 \
	fdTest               no
exchange-regularization WignerSeitzTruncated
fluid LinearPCM 298.000000 1.013250
fluid-anion F- 1 MeanFieldLJ \
	epsBulk 1 \
	pMol 0 \
	epsInf 1 \
	Pvap 0 \
	sigmaBulk 0 \
	Rvdw 2.24877 \
	Res 0 \
	tauNuc 343133
fluid-cation Na+ 1 MeanFieldLJ \
	epsBulk 1 \
	pMol 0 \
	epsInf 1 \
	Pvap 0 \
	sigmaBulk 0 \
	Rvdw 2.19208 \
	Res 0 \
	tauNuc 343133
fluid-ex-corr lda-TF lda-PZ
fluid-gummel-loop 10 1.000000e-05
fluid-minimize  \
	dirUpdateScheme      PolakRibiere \
	linminMethod         DirUpdateRecommended \
	nIterations          400 \
	history              15 \
	knormThreshold       1e-11 \
	energyDiffThreshold  0 \
	nEnergyDiff          2 \
	alphaTstart          1 \
	alphaTmin            1e-10 \
	updateTestStepSize   yes \
	alphaTreduceFactor   0.1 \
	alphaTincreaseFactor 3 \
	nAlphaAdjustMax      6 \
	wolfeEnergy          0.0001 \
	wolfeGradient        0.9 \
	fdTest               no
fluid-solvent H2O 55.338 ScalarEOS \
	epsBulk 78.4 \
	pMol 0.92466 \
	epsInf 1.77 \
	Pvap 1.06736e-10 \
	sigmaBulk 4.62e-05 \
	Rvdw 2.61727 \
	Res 1.42 \
	tauNuc 343133 \
	poleEl 15 7 1
forces-output-coords Positions
initial-state NbTe2.$VAR
ion B   0.166670001000000   0.083329999999997   0.500000000000000 1
ion B   0.416670013000001   0.083329999999997   0.500000000000000 1
ion B   0.666670035999999   0.083329999999997   0.500000000000000 1
ion B   0.916669964999997   0.083329999999997   0.500000000000000 1
ion B   0.166669992999999   0.333330009000001   0.500000000000000 1
ion B   0.416670005000000   0.333330009000001   0.500000000000000 1
ion B   0.666670005000000   0.333330009000001   0.500000000000000 1
ion B   0.916669980999998   0.333330009000001   0.500000000000000 1
ion B   0.166670009999997   0.583330017999998   0.500000000000000 1
ion B   0.416670021999998   0.583330017999998   0.500000000000000 1
ion B   0.666670046000000   0.583330017999998   0.500000000000000 1
ion B   0.916669998000003   0.583330017999998   0.500000000000000 1
ion B   0.166669990999999   0.833330027999999   0.500000000000000 1
ion B   0.416670013999997   0.833330027999999   0.500000000000000 1
ion B   0.666670037999999   0.833330027999999   0.500000000000000 1
ion B   0.916670013999997   0.833330027999999   0.500000000000000 1
ion N   0.083329997000000   0.166669994999999   0.500000000000000 1
ion N   0.333330021000002   0.166669994999999   0.500000000000000 1
ion N   0.583329997000000   0.166669994999999   0.500000000000000 1
ion N   0.833330021000002   0.166669994999999   0.500000000000000 1
ion N   0.083329997000000   0.416670017999998   0.500000000000000 1
ion N   0.333330019999998   0.416670017999998   0.500000000000000 1
ion N   0.583329997000000   0.416670017999998   0.500000000000000 1
ion N   0.833329997000000   0.416670017999998   0.500000000000000 1
ion N   0.083329988999999   0.666670027000002   0.500000000000000 1
ion N   0.333330013000001   0.666670027000002   0.500000000000000 1
ion N   0.583329988999999   0.666670027000002   0.500000000000000 1
ion N   0.833330013000001   0.666670027000002   0.500000000000000 1
ion N   0.083330005999997   0.916670035999999   0.500000000000000 1
ion N   0.333330029000003   0.916670035999999   0.500000000000000 1
ion N   0.583330005999997   0.916670035999999   0.500000000000000 1
ion N   0.833330029000003   0.916670035999999   0.500000000000000 1
ion-species GBRV/$ID_pbe.uspp
ion-width Ecut
ionic-minimize  \
	dirUpdateScheme      L-BFGS \
	linminMethod         DirUpdateRecommended \
	nIterations          500 \
	history              15 \
	knormThreshold       0.0001 \
	energyDiffThreshold  1e-06 \
	nEnergyDiff          2 \
	alphaTstart          1 \
	alphaTmin            1e-10 \
	updateTestStepSize   yes \
	alphaTreduceFactor   0.1 \
	alphaTincreaseFactor 3 \
	nAlphaAdjustMax      3 \
	wolfeEnergy          0.0001 \
	wolfeGradient        0.9 \
	fdTest               no
kpoint   0.000000000000   0.000000000000   0.000000000000  1.00000000000000
kpoint-folding 6 6 1 
latt-move-scale 1 1 1
latt-scale 1.88973 1.88973 1.88973 
lattice Triclinic 10.0123 10.0123 15 90 90 120
lattice-minimize  \
	dirUpdateScheme      L-BFGS \
	linminMethod         DirUpdateRecommended \
	nIterations          0 \
	history              15 \
	knormThreshold       0 \
	energyDiffThreshold  1e-06 \
	nEnergyDiff          2 \
	alphaTstart          1 \
	alphaTmin            1e-10 \
	updateTestStepSize   yes \
	alphaTreduceFactor   0.1 \
	alphaTincreaseFactor 3 \
	nAlphaAdjustMax      3 \
	wolfeEnergy          0.0001 \
	wolfeGradient        0.9 \
	fdTest               no
lcao-params -1 1e-06 0.0073499
pcm-variant CANDLE
spintype z-spin
subspace-rotation-factor 1 yes
symmetries automatic
symmetry-threshold 0.0001



---------- Setting up symmetries ----------

Found 24 point-group symmetries of the bravais lattice
Found 64 space-group symmetries with basis
Applied RMS atom displacement 3.8962e-07 bohrs to make symmetries exact.

---------- Initializing the Grid ----------
R = 
[    18.9205   -9.46025          0  ]
[          0    16.3856          0  ]
[          0          0    28.3459  ]
unit cell volume = 8787.92
G =
[   0.332083   0.191728         -0  ]
[          0   0.383457          0  ]
[          0         -0   0.221661  ]
Minimum fftbox size, Smin = [  80  80  116  ]
Chosen fftbox size, S = [  80  80  120  ]

---------- Exchange Correlation functional ----------
Initalized PBE GGA exchange.
Initalized PBE GGA correlation.

---------- Setting up pseudopotentials ----------
Width of ionic core gaussian charges (only for fluid interactions / plotting) set to 0.397384

Reading pseudopotential file '/home/guoxy/vasp/jdftx-1.5.0/build/pseudopotentials/GBRV/b_pbe.uspp':
  Title: B.  Created by USPP 7.3.6 on 8-4-15
  Reference state energy: -2.950027.  3 valence electrons in orbitals:
    |200>  occupation: 2  eigenvalue: -0.346865
    |210>  occupation: 1  eigenvalue: -0.132618
  lMax: 1  lLocal: 2  QijEcut: 6
  4 projectors sampled on a log grid with 559 points:
    l: 0  eig: -0.346865  rCut: 1.25
    l: 0  eig: -0.500000  rCut: 1.25
    l: 1  eig: -0.346865  rCut: 1.25
    l: 1  eig: -1.000000  rCut: 1.25
  Partial core density with radius 0.9
  Transforming core density to a uniform radial grid of dG=0.02 with 1491 points.
  Transforming local potential to a uniform radial grid of dG=0.02 with 1491 points.
  Transforming nonlocal projectors to a uniform radial grid of dG=0.02 with 432 points.
  Transforming density augmentations to a uniform radial grid of dG=0.02 with 1491 points.
  Transforming atomic orbitals to a uniform radial grid of dG=0.02 with 432 points.
  Core radius for overlap checks: 1.25 bohrs.

Reading pseudopotential file '/home/guoxy/vasp/jdftx-1.5.0/build/pseudopotentials/GBRV/n_pbe.uspp':
  Title: N.  Created by USPP 7.3.6 on 3-2-2014
  Reference state energy: -9.763716.  5 valence electrons in orbitals:
    |200>  occupation: 2  eigenvalue: -0.681964
    |210>  occupation: 3  eigenvalue: -0.260726
  lMax: 1  lLocal: 2  QijEcut: 6
  4 projectors sampled on a log grid with 491 points:
    l: 0  eig: -0.681964  rCut: 1.15
    l: 0  eig: 0.000000  rCut: 1.15
    l: 1  eig: -0.260729  rCut: 1.2
    l: 1  eig: 0.500000  rCut: 1.2
  Partial core density with radius 0.8
  Transforming core density to a uniform radial grid of dG=0.02 with 1491 points.
  Transforming local potential to a uniform radial grid of dG=0.02 with 1491 points.
  Transforming nonlocal projectors to a uniform radial grid of dG=0.02 with 432 points.
  Transforming density augmentations to a uniform radial grid of dG=0.02 with 1491 points.
  Transforming atomic orbitals to a uniform radial grid of dG=0.02 with 432 points.
  Core radius for overlap checks: 1.20 bohrs.

Initialized 2 species with 32 total atoms.

Folded 1 k-points by 6x6x1 to 36 k-points.

---------- Setting up k-points, bands, fillings ----------
Adding inversion symmetry to k-mesh for non-inversion-symmetric unit cell.
Reduced to 13 k-points under symmetry. 
Computing the number of bands and number of electrons
Calculating initial fillings.
nElectrons: 128.000000   nBands: 128   nStates: 26

----- Setting up reduced wavefunction bases (one per k-point) -----
average nbasis = 37544.417 , ideal nbasis = 37542.666

---------- Setting up coulomb interaction ----------
Fluid mode embedding: using embedded box, but periodic Coulomb kernel.
(Fluid response is responsible for (approximate) separation between periodic images.)
Setting up double-sized grid for truncated Coulomb potentials:
R = 
[    18.9205   -9.46025          0  ]
[          0    16.3856          0  ]
[          0          0    56.6918  ]
unit cell volume = 17575.8
G =
[   0.332083   0.191728         -0  ]
[          0   0.383457          0  ]
[          0         -0   0.110831  ]
Chosen fftbox size, S = [  80  80  240  ]
Integer grid location selected as the embedding center:
   Grid: [  40  40  60  ]
   Lattice: [  0.5  0.5  0.5  ]
   Cartesian: [  4.73013  8.19282  14.1729  ]
Constructing Wigner-Seitz cell: 8 faces (6 quadrilaterals, 2 hexagons)
Range-separation parameter for embedded mesh potentials due to point charges: 0.613524 bohrs.

Initializing van der Waals corrections
	NOTE: vdW corrections apply only for interactions with fluid.
	 B:  C6:   54.29 Eh-a0^6  R0: 2.806 a0
	 N:  C6:   21.33 Eh-a0^6  R0: 2.640 a0

---------- Setting up ewald sum ----------
Optimum gaussian width for ewald sums = 5.821351 bohr.
Real space sum over 605 unit cells with max indices [  5  5  2  ]
Reciprocal space sum over 5577 terms with max indices [  6  6  16  ]

---------- Allocating electronic variables ----------
Initializing wave functions:  linear combination of atomic orbitals
B pseudo-atom occupations:   s ( 2 )  p ( 1 )
N pseudo-atom occupations:   s ( 2 )  p ( 3 )
	FillingsUpdate:  mu: -0.200000000  nElectrons: 128.000000  magneticMoment: [ Abs: 0.51661  Tot: +0.00259 ]
LCAOMinimize: Iter:   0  F: -204.1422199201321064  |grad|_K:  3.996e-03  alpha:  1.000e+00
	FillingsUpdate:  mu: -0.165183595  nElectrons: 128.000000  magneticMoment: [ Abs: 0.24607  Tot: +0.00000 ]
LCAOMinimize: Iter:   1  F: -205.3258245238064887  |grad|_K:  5.019e-04  alpha:  4.272e-01  linmin:  7.222e-01  cgtest: -1.099e+00  t[s]:    105.73
LCAOMinimize: 	Bad step direction: g.d > 0.
LCAOMinimize: 	Undoing step.
LCAOMinimize: 	Step failed: resetting search direction.
	FillingsUpdate:  mu: -0.165183595  nElectrons: 128.000000  magneticMoment: [ Abs: 0.24607  Tot: +0.00000 ]
LCAOMinimize: Iter:   2  F: -205.3258245238064887  |grad|_K:  5.019e-04  alpha:  0.000e+00
	FillingsUpdate:  mu: -0.185163991  nElectrons: 128.000000  magneticMoment: [ Abs: 0.19614  Tot: +0.00000 ]
LCAOMinimize: Iter:   3  F: -205.3476596545808661  |grad|_K:  2.036e-05  alpha:  4.001e-01  linmin:  1.570e-01  cgtest: -2.623e-01  t[s]:    159.91
	FillingsUpdate:  mu: -0.185166493  nElectrons: 128.000000  magneticMoment: [ Abs: 0.05412  Tot: -0.00000 ]
LCAOMinimize: Iter:   4  F: -205.3477568831855535  |grad|_K:  7.985e-06  alpha:  1.174e+00  linmin:  1.814e-03  cgtest:  2.540e-01  t[s]:    193.48
	FillingsUpdate:  mu: -0.184768089  nElectrons: 128.000000  magneticMoment: [ Abs: 0.03408  Tot: -0.00000 ]
LCAOMinimize: Iter:   5  F: -205.3477636905314796  |grad|_K:  3.251e-06  alpha:  4.947e-01  linmin:  3.145e-04  cgtest: -5.534e-04  t[s]:    226.59
	FillingsUpdate:  mu: -0.184819953  nElectrons: 128.000000  magneticMoment: [ Abs: 0.00516  Tot: +0.00000 ]
LCAOMinimize: Iter:   6  F: -205.3477660698570446  |grad|_K:  5.142e-07  alpha:  1.041e+00  linmin: -5.314e-04  cgtest:  3.408e-03  t[s]:    259.77
	FillingsUpdate:  mu: -0.184829785  nElectrons: 128.000000  magneticMoment: [ Abs: 0.00142  Tot: +0.00000 ]
LCAOMinimize: Iter:   7  F: -205.3477661358113835  |grad|_K:  1.701e-07  alpha:  1.152e+00  linmin:  6.675e-05  cgtest: -1.818e-03  t[s]:    293.55
	FillingsUpdate:  mu: -0.184822793  nElectrons: 128.000000  magneticMoment: [ Abs: 0.00116  Tot: -0.00000 ]
LCAOMinimize: Iter:   8  F: -205.3477661385067279  |grad|_K:  3.119e-08  alpha:  4.307e-01  linmin: -4.844e-05  cgtest:  7.610e-04  t[s]:    326.35
LCAOMinimize: Converged (|Delta F|<1.000000e-06 for 2 iters).
----- createFluidSolver() ----- (Fluid-side solver setup)
   Initializing fluid molecule 'H2O'
     Initializing site 'O'
       Electron density: proportional to exp(-r/0.36935)*erfc((r-0.51523)/0.36823) with norm 6.826
       Charge density: gaussian nuclear width 0.478731 with net site charge 0.826
       Polarizability: cuspless exponential with width 0.32 and norm 3.73
       Hard sphere radius: 2.57003 bohrs
       Positions in reference frame:
         [ +0.000000 +0.000000 +0.000000 ]
     Initializing site 'H'
       Electron density: proportional to exp(-r/0.34641)*erfc((r-0)/0.390882) with norm 0.587
       Charge density: gaussian nuclear width 0.377945 with net site charge -0.413
       Polarizability: cuspless exponential with width 0.39 and norm 3.3
       Positions in reference frame:
         [ +0.000000 -1.441945 +1.122523 ]
         [ +0.000000 +1.441945 +1.122523 ]
     Net charge: 0   dipole magnitude: 0.927204
     Initializing spherical shell mfKernel with radius 2.61727 Bohr
     deltaS corrections:
       site 'O': -7.54299
       site 'H': -6.83917
   Initializing fluid molecule 'Na+'
     Initializing site 'Na'
       Electron density: proportional to exp(-r/0.19682)*erfc((r-0.71491)/0.41314) with norm 8.1383
       Charge density: gaussian nuclear width 0.365347 with net site charge -1
       Hard sphere radius: 1.86327 bohrs
       Positions in reference frame:
         [ +0.000000 +0.000000 +0.000000 ]
     Net charge: -1   dipole magnitude: 0
     Initializing gaussian mfKernel with width: 1.55004 Bohr
     deltaS corrections:
       site 'Na': -22.3555
   Initializing fluid molecule 'F-'
     Initializing site 'F'
       Electron density: proportional to exp(-r/0.38886)*erfc((r-0)/0.438782) with norm 8
       Charge density: gaussian nuclear width 0.374796 with net site charge 1
       Hard sphere radius: 2.39995 bohrs
       Positions in reference frame:
         [ +0.000000 +0.000000 +0.000000 ]
     Net charge: 1   dipole magnitude: 0
     Initializing gaussian mfKernel with width: 1.59012 Bohr
     deltaS corrections:
       site 'F': -9.04335

Correction to mu due to finite nuclear width = -0.00722593
   Cavity determined by nc: 0.00142 and sigma: 0.707107
   Nonlocal vdW cavity from gaussian model electron density with norm = 8 and sigma = 0.993594 bohr
   Charge asymmetry in cavity with sensitivity pCavity = 36.5 e-bohr/Eh
   Electrostatic cavity expanded by eta = 1.46 bohrs
   Weighted density cavitation model constrained by Nbulk: 0.0049383 bohr^-3, Pvap: 3.14029 kPa, Rvdw: 2.61727 bohr and sigmaBulk: 4.62e-05 Eh/bohr^2 at T: 298 K.
   Weighted density dispersion model using vdW pair potentials with single solvent site with sqrtC6eff: 0.77 SI.


---- Citations for features of the code used in this run ----

   Software package:
      R. Sundararaman, K. Letchworth-Weaver, K.A. Schwarz, D. Gunceler, Y. Ozhabes and T.A. Arias, 'JDFTx: software for joint density-functional theory', SoftwareX 6, 278 (2017)

   gga-PBE exchange-correlation functional:
      J.P. Perdew, K. Burke and M. Ernzerhof, Phys. Rev. Lett. 77, 3865 (1996)

   Pseudopotentials:
      KF Garrity, JW Bennett, KM Rabe and D Vanderbilt, Comput. Mater. Sci. 81, 446 (2014)

   Truncated Coulomb potentials:
      R. Sundararaman and T.A. Arias, Phys. Rev. B 87, 165122 (2013)

   Van der Waals correction pair-potentials:
      S. Grimme, J. Comput. Chem. 27, 1787 (2006)

   Charge-asymmetric nonlocally-determined local-electric (CANDLE) solvation model:
      R. Sundararaman and W.A. Goddard III, J. Chem. Phys. 142, 064107 (2015)

   Total energy minimization with Auxiliary Hamiltonian:
      C. Freysoldt, S. Boeck, and J. Neugebauer, Phys. Rev. B 79, 241103(R) (2009)

This list may not be complete. Please suggest additional citations or
report any other bugs at https://github.com/shankar1729/jdftx/issues

Initialization completed successfully at t[s]:    329.83

Fluid solver invoked on fresh (partially random / LCAO) wavefunctions
Running a vacuum solve first:

-------- Initial electronic minimization -----------
	FillingsUpdate:  mu: -0.184822793  nElectrons: 128.000000  magneticMoment: [ Abs: 0.00116  Tot: +0.00000 ]
ElecMinimize: Iter:   0  F: -205.347766138505818  |grad|_K:  1.222e-04  alpha:  1.000e+00
	FillingsUpdate:  mu: -0.100000000  nElectrons: 128.000000  magneticMoment: [ Abs: 0.00045  Tot: +0.00000 ]
	SubspaceRotationAdjust: set factor to 1
ElecMinimize: Iter:   1  F: -206.727762316763972  |grad|_K:  3.502e-05  alpha:  7.391e-01  linmin:  5.012e-05  t[s]:    393.18
	FillingsUpdate:  mu: -0.089013660  nElectrons: 128.000000  magneticMoment: [ Abs: 0.00022  Tot: -0.00000 ]
	SubspaceRotationAdjust: set factor to 0.684
ElecMinimize: Iter:   2  F: -206.848286481748062  |grad|_K:  1.719e-05  alpha:  7.851e-01  linmin: -8.114e-05  t[s]:    432.34
	FillingsUpdate:  mu: -0.100000000  nElectrons: 128.000000  magneticMoment: [ Abs: 0.00013  Tot: +0.00000 ]
	SubspaceRotationAdjust: set factor to 0.558
ElecMinimize: Iter:   3  F: -206.871202627137478  |grad|_K:  8.556e-06  alpha:  6.106e-01  linmin:  1.493e-05  t[s]:    471.97
	FillingsUpdate:  mu: -0.100000000  nElectrons: 128.000000  magneticMoment: [ Abs: 0.00006  Tot: +0.00000 ]
	SubspaceRotationAdjust: set factor to 0.705
ElecMinimize: Iter:   4  F: -206.878606287076337  |grad|_K:  3.834e-06  alpha:  8.131e-01  linmin:  5.671e-05  t[s]:    510.47
	FillingsUpdate:  mu: -0.097851866  nElectrons: 128.000000  magneticMoment: [ Abs: 0.00005  Tot: +0.00000 ]
	SubspaceRotationAdjust: set factor to 0.933
ElecMinimize: Iter:   5  F: -206.880128657015433  |grad|_K:  2.126e-06  alpha:  8.349e-01  linmin:  2.541e-05  t[s]:    548.80
	FillingsUpdate:  mu: -0.098381368  nElectrons: 128.000000  magneticMoment: [ Abs: 0.00003  Tot: -0.00000 ]
	SubspaceRotationAdjust: set factor to 1.14
ElecMinimize: Iter:   6  F: -206.880576766094549  |grad|_K:  1.135e-06  alpha:  7.969e-01  linmin:  1.284e-05  t[s]:    587.58
	FillingsUpdate:  mu: -0.097998343  nElectrons: 128.000000  magneticMoment: [ Abs: 0.00002  Tot: -0.00000 ]
	SubspaceRotationAdjust: set factor to 1.21
ElecMinimize: Iter:   7  F: -206.880673402271356  |grad|_K:  5.268e-07  alpha:  6.041e-01  linmin:  1.954e-06  t[s]:    627.04
	FillingsUpdate:  mu: -0.097980997  nElectrons: 128.000000  magneticMoment: [ Abs: 0.00003  Tot: -0.00000 ]
	SubspaceRotationAdjust: set factor to 1.45
ElecMinimize: Iter:   8  F: -206.880699764099035  |grad|_K:  3.089e-07  alpha:  7.635e-01  linmin:  5.145e-06  t[s]:    666.76
	FillingsUpdate:  mu: -0.098147153  nElectrons: 128.000000  magneticMoment: [ Abs: 0.00002  Tot: +0.00000 ]
	SubspaceRotationAdjust: set factor to 1.79
ElecMinimize: Iter:   9  F: -206.880707645547176  |grad|_K:  1.914e-07  alpha:  6.654e-01  linmin:  2.643e-06  t[s]:    706.15
	FillingsUpdate:  mu: -0.098090027  nElectrons: 128.000000  magneticMoment: [ Abs: 0.00001  Tot: -0.00000 ]
	SubspaceRotationAdjust: set factor to 1.69
ElecMinimize: Iter:  10  F: -206.880710183671027  |grad|_K:  1.028e-07  alpha:  5.574e-01  linmin:  7.399e-07  t[s]:    745.77
	FillingsUpdate:  mu: -0.098102875  nElectrons: 128.000000  magneticMoment: [ Abs: 0.00001  Tot: -0.00000 ]
	SubspaceRotationAdjust: set factor to 1.93
ElecMinimize: Iter:  11  F: -206.880710980572644  |grad|_K:  5.737e-08  alpha:  6.035e-01  linmin:  3.487e-07  t[s]:    784.07
	FillingsUpdate:  mu: -0.098102319  nElectrons: 128.000000  magneticMoment: [ Abs: 0.00000  Tot: +0.00000 ]
	SubspaceRotationAdjust: set factor to 2.14
ElecMinimize: Iter:  12  F: -206.880711240278316  |grad|_K:  3.216e-08  alpha:  6.315e-01  linmin:  2.659e-07  t[s]:    823.52
	FillingsUpdate:  mu: -0.098091854  nElectrons: 128.000000  magneticMoment: [ Abs: 0.00000  Tot: +0.00000 ]
	SubspaceRotationAdjust: set factor to 1.98
ElecMinimize: Iter:  13  F: -206.880711312882767  |grad|_K:  2.031e-08  alpha:  5.618e-01  linmin:  4.806e-09  t[s]:    861.99
	FillingsUpdate:  mu: -0.098103265  nElectrons: 128.000000  magneticMoment: [ Abs: 0.00000  Tot: -0.00000 ]
	SubspaceRotationAdjust: set factor to 1.75
ElecMinimize: Iter:  14  F: -206.880711338334805  |grad|_K:  1.217e-08  alpha:  4.932e-01  linmin:  2.620e-08  t[s]:    899.88
	FillingsUpdate:  mu: -0.098099310  nElectrons: 128.000000  magneticMoment: [ Abs: 0.00000  Tot: +0.00000 ]
	SubspaceRotationAdjust: set factor to 1.91
ElecMinimize: Iter:  15  F: -206.880711348253925  |grad|_K:  6.696e-09  alpha:  5.356e-01  linmin:  1.737e-08  t[s]:    938.73
	FillingsUpdate:  mu: -0.098098944  nElectrons: 128.000000  magneticMoment: [ Abs: 0.00000  Tot: -0.00000 ]
	SubspaceRotationAdjust: set factor to 2.17
ElecMinimize: Iter:  16  F: -206.880711351761732  |grad|_K:  3.736e-09  alpha:  6.254e-01  linmin: -2.050e-09  t[s]:    977.11
ElecMinimize: Converged (|Delta F|<1.000000e-08 for 2 iters).
Setting wave functions to eigenvectors of Hamiltonian
Vacuum energy after initial minimize, F = -206.880711351761732

	Linear fluid (dielectric constant: 78.4, screening length: 5.74355 Bohr) occupying 0.808775 of unit cell:	Completed after 13 iterations at t[s]:    989.35

-------- Electronic minimization -----------
	Linear fluid (dielectric constant: 78.4, screening length: 5.74355 Bohr) occupying 0.808775 of unit cell:	Completed after 0 iterations at t[s]:   1001.30
	FillingsUpdate:  mu: -0.136745581  nElectrons: 128.000000  magneticMoment: [ Abs: 0.00000  Tot: -0.00000 ]
ElecMinimize: Iter:   0  F: -206.880071504201453  |grad|_K:  1.349e-06  alpha:  1.000e+00
	Linear fluid (dielectric constant: 78.4, screening length: 5.74355 Bohr) occupying 0.809635 of unit cell:	Completed after 7 iterations at t[s]:   1031.71
	Linear fluid (dielectric constant: 78.4, screening length: 5.74355 Bohr) occupying 0.809171 of unit cell:	Completed after 7 iterations at t[s]:   1047.39
	FillingsUpdate:  mu: -0.100000000  nElectrons: 128.000000  magneticMoment: [ Abs: 0.00003  Tot: +0.00000 ]
	SubspaceRotationAdjust: set factor to 1.29
ElecMinimize: Iter:   1  F: -206.880168587869832  |grad|_K:  8.052e-07  alpha:  4.456e-01  linmin:  7.735e-06  t[s]:   1064.30
	Linear fluid (dielectric constant: 78.4, screening length: 5.74355 Bohr) occupying 0.809321 of unit cell:	Completed after 4 iterations at t[s]:   1076.82
	Linear fluid (dielectric constant: 78.4, screening length: 5.74355 Bohr) occupying 0.809322 of unit cell:	Completed after 0 iterations at t[s]:   1090.96
	FillingsUpdate:  mu: -0.100000000  nElectrons: 128.000000  magneticMoment: [ Abs: 0.00005  Tot: +0.00000 ]
	SubspaceRotationAdjust: set factor to 0.812
ElecMinimize: Iter:   2  F: -206.880204100529539  |grad|_K:  4.070e-07  alpha:  4.490e-01  linmin: -1.961e-06  t[s]:   1107.62
	Linear fluid (dielectric constant: 78.4, screening length: 5.74355 Bohr) occupying 0.809378 of unit cell:	Completed after 2 iterations at t[s]:   1119.28
	Linear fluid (dielectric constant: 78.4, screening length: 5.74355 Bohr) occupying 0.809452 of unit cell:	Completed after 5 iterations at t[s]:   1133.62
	FillingsUpdate:  mu: -0.100000000  nElectrons: 128.000000  magneticMoment: [ Abs: 0.00004  Tot: +0.00000 ]
	SubspaceRotationAdjust: set factor to 1.36
ElecMinimize: Iter:   3  F: -206.880225922600346  |grad|_K:  1.623e-07  alpha:  1.049e+00  linmin: -2.197e-06  t[s]:   1151.03
	Linear fluid (dielectric constant: 78.4, screening length: 5.74355 Bohr) occupying 0.809456 of unit cell:	Completed after 1 iterations at t[s]:   1163.14
	Linear fluid (dielectric constant: 78.4, screening length: 5.74355 Bohr) occupying 0.809455 of unit cell:	Completed after 2 iterations at t[s]:   1177.77
	FillingsUpdate:  mu: -0.100000000  nElectrons: 128.000000  magneticMoment: [ Abs: 0.00002  Tot: +0.00000 ]
	SubspaceRotationAdjust: set factor to 1.14
ElecMinimize: Iter:   4  F: -206.880228361207060  |grad|_K:  6.693e-08  alpha:  7.399e-01  linmin:  8.145e-07  t[s]:   1195.01
	Linear fluid (dielectric constant: 78.4, screening length: 5.74355 Bohr) occupying 0.809444 of unit cell:	Completed after 1 iterations at t[s]:   1206.58
	Linear fluid (dielectric constant: 78.4, screening length: 5.74355 Bohr) occupying 0.809444 of unit cell:	Completed after 0 iterations at t[s]:   1219.95
	FillingsUpdate:  mu: -0.100000000  nElectrons: 128.000000  magneticMoment: [ Abs: 0.00001  Tot: +0.00000 ]
	SubspaceRotationAdjust: set factor to 0.697
ElecMinimize: Iter:   5  F: -206.880228754952469  |grad|_K:  3.431e-08  alpha:  7.028e-01  linmin:  1.412e-06  t[s]:   1236.90
	Linear fluid (dielectric constant: 78.4, screening length: 5.74355 Bohr) occupying 0.809443 of unit cell:	Completed after 2 iterations at t[s]:   1249.05
	Linear fluid (dielectric constant: 78.4, screening length: 5.74355 Bohr) occupying 0.809443 of unit cell:	Completed after 0 iterations at t[s]:   1263.83
	FillingsUpdate:  mu: -0.100000000  nElectrons: 128.000000  magneticMoment: [ Abs: 0.00000  Tot: -0.00000 ]
	SubspaceRotationAdjust: set factor to 0.614
ElecMinimize: Iter:   6  F: -206.880228835774176  |grad|_K:  1.820e-08  alpha:  5.498e-01  linmin:  3.673e-06  t[s]:   1282.44
	Linear fluid (dielectric constant: 78.4, screening length: 5.74355 Bohr) occupying 0.809443 of unit cell:	Completed after 0 iterations at t[s]:   1294.72
	Linear fluid (dielectric constant: 78.4, screening length: 5.74355 Bohr) occupying 0.809442 of unit cell:	Completed after 0 iterations at t[s]:   1309.13
	FillingsUpdate:  mu: -0.100000000  nElectrons: 128.000000  magneticMoment: [ Abs: 0.00000  Tot: -0.00000 ]
	SubspaceRotationAdjust: set factor to 0.717
ElecMinimize: Iter:   7  F: -206.880228871000355  |grad|_K:  9.586e-09  alpha:  9.035e-01  linmin:  4.178e-08  t[s]:   1327.45
	Linear fluid (dielectric constant: 78.4, screening length: 5.74355 Bohr) occupying 0.809442 of unit cell:	Completed after 1 iterations at t[s]:   1340.26
	Linear fluid (dielectric constant: 78.4, screening length: 5.74355 Bohr) occupying 0.809442 of unit cell:	Completed after 0 iterations at t[s]:   1354.00
ElecMinimize: 	Step increased F by 7.858034e-09, reducing alpha to 1.895070e-02.
	Linear fluid (dielectric constant: 78.4, screening length: 5.74355 Bohr) occupying 0.809442 of unit cell:	Completed after 0 iterations at t[s]:   1380.47
ElecMinimize: 	Step increased F by 4.478068e-09, reducing alpha to 1.895070e-03.
	Linear fluid (dielectric constant: 78.4, screening length: 5.74355 Bohr) occupying 0.809442 of unit cell:	Completed after 0 iterations at t[s]:   1408.71
ElecMinimize: 	Step increased F by 4.175320e-09, reducing alpha to 1.895070e-04.
ElecMinimize: 	Step failed to reduce F after 3 attempts. Quitting step.
ElecMinimize: 	Undoing step.
	Linear fluid (dielectric constant: 78.4, screening length: 5.74355 Bohr) occupying 0.809442 of unit cell:	Completed after 0 iterations at t[s]:   1435.20
ElecMinimize: 	Step failed: resetting search direction.
	FillingsUpdate:  mu: -0.100000000  nElectrons: 128.000000  magneticMoment: [ Abs: 0.00000  Tot: -0.00000 ]
	SubspaceRotationAdjust: set factor to 0.654
ElecMinimize: Iter:   8  F: -206.880228866829128  |grad|_K:  1.837e-08  alpha:  1.895e-04
	Linear fluid (dielectric constant: 78.4, screening length: 5.74355 Bohr) occupying 0.809444 of unit cell:	Completed after 2 iterations at t[s]:   1463.26
	Linear fluid (dielectric constant: 78.4, screening length: 5.74355 Bohr) occupying 0.809443 of unit cell:	Completed after 0 iterations at t[s]:   1476.33
	FillingsUpdate:  mu: -0.100000000  nElectrons: 128.000000  magneticMoment: [ Abs: 0.00000  Tot: +0.00000 ]
	SubspaceRotationAdjust: set factor to 0.507
ElecMinimize: Iter:   9  F: -206.880228884728012  |grad|_K:  2.195e-08  alpha:  2.772e-01  linmin:  2.805e-05  t[s]:   1493.00
	Linear fluid (dielectric constant: 78.4, screening length: 5.74355 Bohr) occupying 0.809443 of unit cell:	Completed after 0 iterations at t[s]:   1504.63
	Linear fluid (dielectric constant: 78.4, screening length: 5.74355 Bohr) occupying 0.809443 of unit cell:	Completed after 0 iterations at t[s]:   1518.03
	FillingsUpdate:  mu: -0.100000000  nElectrons: 128.000000  magneticMoment: [ Abs: 0.00000  Tot: +0.00000 ]
	SubspaceRotationAdjust: set factor to 0.703
ElecMinimize: Iter:  10  F: -206.880228884815921  |grad|_K:  2.115e-08  alpha:  4.698e-02  linmin:  1.435e-11  t[s]:   1535.35
	Linear fluid (dielectric constant: 78.4, screening length: 5.74355 Bohr) occupying 0.809443 of unit cell:	Completed after 0 iterations at t[s]:   1546.62
ElecMinimize: 	Predicted alpha/alphaT>3.000000, increasing alphaT to 1.409319e-01.
	Linear fluid (dielectric constant: 78.4, screening length: 5.74355 Bohr) occupying 0.809443 of unit cell:	Completed after 0 iterations at t[s]:   1560.54
ElecMinimize: 	Predicted alpha/alphaT>3.000000, increasing alphaT to 4.227957e-01.
	Linear fluid (dielectric constant: 78.4, screening length: 5.74355 Bohr) occupying 0.809443 of unit cell:	Completed after 1 iterations at t[s]:   1574.47
	Linear fluid (dielectric constant: 78.4, screening length: 5.74355 Bohr) occupying 0.809443 of unit cell:	Completed after 0 iterations at t[s]:   1588.43
ElecMinimize: 	Step increased F by 1.331190e-08, reducing alpha to 1.332590e-02.
	Linear fluid (dielectric constant: 78.4, screening length: 5.74355 Bohr) occupying 0.809443 of unit cell:	Completed after 0 iterations at t[s]:   1615.59
ElecMinimize: 	Step increased F by 1.060815e-08, reducing alpha to 1.332590e-03.
	Linear fluid (dielectric constant: 78.4, screening length: 5.74355 Bohr) occupying 0.809443 of unit cell:	Completed after 0 iterations at t[s]:   1642.83
ElecMinimize: 	Step increased F by 1.044344e-08, reducing alpha to 1.332590e-04.
ElecMinimize: 	Step failed to reduce F after 3 attempts. Quitting step.
ElecMinimize: 	Undoing step.
	Linear fluid (dielectric constant: 78.4, screening length: 5.74355 Bohr) occupying 0.809443 of unit cell:	Completed after 0 iterations at t[s]:   1669.56
ElecMinimize: 	Step failed: resetting search direction.
	FillingsUpdate:  mu: -0.100000000  nElectrons: 128.000000  magneticMoment: [ Abs: 0.00000  Tot: +0.00000 ]
	SubspaceRotationAdjust: set factor to 0.395
ElecMinimize: Iter:  11  F: -206.880228874375319  |grad|_K:  8.021e-09  alpha:  1.333e-04
	Linear fluid (dielectric constant: 78.4, screening length: 5.74355 Bohr) occupying 0.809443 of unit cell:	Completed after 0 iterations at t[s]:   1698.95
ElecMinimize: 	Predicted alpha/alphaT>3.000000, increasing alphaT to 1.409319e-01.
	Linear fluid (dielectric constant: 78.4, screening length: 5.74355 Bohr) occupying 0.809443 of unit cell:	Completed after 0 iterations at t[s]:   1712.64
ElecMinimize: 	Predicted alpha/alphaT>3.000000, increasing alphaT to 4.227957e-01.
	Linear fluid (dielectric constant: 78.4, screening length: 5.74355 Bohr) occupying 0.809443 of unit cell:	Completed after 0 iterations at t[s]:   1726.34
ElecMinimize: 	Predicted alpha/alphaT>3.000000, increasing alphaT to 1.268387e+00.
	Linear fluid (dielectric constant: 78.4, screening length: 5.74355 Bohr) occupying 0.809444 of unit cell:	Completed after 2 iterations at t[s]:   1740.83
ElecMinimize: 	Step increased F by 5.804682e-08, reducing alpha to 1.640256e-01.
	Linear fluid (dielectric constant: 78.4, screening length: 5.74355 Bohr) occupying 0.809443 of unit cell:	Completed after 0 iterations at t[s]:   1767.94
	FillingsUpdate:  mu: -0.100000000  nElectrons: 128.000000  magneticMoment: [ Abs: 0.00000  Tot: +0.00000 ]
	SubspaceRotationAdjust: set factor to 0.343
ElecMinimize: Iter:  12  F: -206.880228883477656  |grad|_K:  2.248e-08  alpha:  1.640e-01  linmin:  1.170e-05  t[s]:   1784.21
ElecMinimize: 	Bad step direction: g.d > 0.
ElecMinimize: 	Undoing step.
	Linear fluid (dielectric constant: 78.4, screening length: 5.74355 Bohr) occupying 0.809443 of unit cell:	Completed after 0 iterations at t[s]:   1795.58
ElecMinimize: 	Step failed: resetting search direction.
	FillingsUpdate:  mu: -0.100000000  nElectrons: 128.000000  magneticMoment: [ Abs: 0.00000  Tot: -0.00000 ]
	SubspaceRotationAdjust: set factor to 0.436
ElecMinimize: Iter:  13  F: -206.880228883478225  |grad|_K:  2.212e-08  alpha:  0.000e+00
ElecMinimize: Converged (|Delta F|<1.000000e-08 for 2 iters).
Setting wave functions to eigenvectors of Hamiltonian
Single-point solvation energy estimate, DeltaF = +0.000482468283508

# Ionic positions in lattice coordinates:
ion B   0.166670009390625   0.083330014890624   0.500000000000000 1
ion B   0.416670009390625   0.083330014890624   0.500000000000000 1
ion B   0.666670009390625   0.083330014890624   0.500000000000000 1
ion B   0.916670009390625   0.083330014890624   0.500000000000000 1
ion B   0.166670009390625   0.333330014890624   0.500000000000000 1
ion B   0.416670009390625   0.333330014890624   0.500000000000000 1
ion B   0.666670009390625   0.333330014890624   0.500000000000000 1
ion B   0.916670009390625   0.333330014890624   0.500000000000000 1
ion B   0.166670009390625   0.583330014890624   0.500000000000000 1
ion B   0.416670009390625   0.583330014890624   0.500000000000000 1
ion B   0.666670009390625   0.583330014890624   0.500000000000000 1
ion B   0.916670009390625   0.583330014890624   0.500000000000000 1
ion B   0.166670009390625   0.833330014890624   0.500000000000000 1
ion B   0.416670009390625   0.833330014890624   0.500000000000000 1
ion B   0.666670009390625   0.833330014890624   0.500000000000000 1
ion B   0.916670009390625   0.833330014890624   0.500000000000000 1
ion N   0.083330006421875   0.166670017859374   0.500000000000000 1
ion N   0.333330006421875   0.166670017859374   0.500000000000000 1
ion N   0.583330006421875   0.166670017859374   0.500000000000000 1
ion N   0.833330006421875   0.166670017859374   0.500000000000000 1
ion N   0.083330006421875   0.416670017859374   0.500000000000000 1
ion N   0.333330006421875   0.416670017859374   0.500000000000000 1
ion N   0.583330006421875   0.416670017859374   0.500000000000000 1
ion N   0.833330006421875   0.416670017859374   0.500000000000000 1
ion N   0.083330006421875   0.666670017859374   0.500000000000000 1
ion N   0.333330006421875   0.666670017859374   0.500000000000000 1
ion N   0.583330006421875   0.666670017859374   0.500000000000000 1
ion N   0.833330006421875   0.666670017859374   0.500000000000000 1
ion N   0.083330006421875   0.916670017859374   0.500000000000000 1
ion N   0.333330006421875   0.916670017859374   0.500000000000000 1
ion N   0.583330006421875   0.916670017859374   0.500000000000000 1
ion N   0.833330006421875   0.916670017859374   0.500000000000000 1


# Forces in Lattice coordinates:
force B  -0.001537673473084   0.001537673473084  -0.000000000000000 1
force B  -0.001537673473084   0.001537673473084  -0.000000000000000 1
force B  -0.001537673473084   0.001537673473084   0.000000000000000 1
force B  -0.001537673473084   0.001537673473084   0.000000000000000 1
force B  -0.001537673473084   0.001537673473084   0.000000000000000 1
force B  -0.001537673473084   0.001537673473084  -0.000000000000000 1
force B  -0.001537673473084   0.001537673473084   0.000000000000000 1
force B  -0.001537673473084   0.001537673473084  -0.000000000000000 1
force B  -0.001537673473084   0.001537673473084   0.000000000000000 1
force B  -0.001537673473084   0.001537673473084   0.000000000000000 1
force B  -0.001537673473084   0.001537673473084  -0.000000000000000 1
force B  -0.001537673473084   0.001537673473084   0.000000000000000 1
force B  -0.001537673473084   0.001537673473084  -0.000000000000000 1
force B  -0.001537673473084   0.001537673473084  -0.000000000000000 1
force B  -0.001537673473084   0.001537673473084   0.000000000000000 1
force B  -0.001537673473084   0.001537673473084  -0.000000000000000 1
force N   0.001564921812290  -0.001564921812290  -0.000000000000000 1
force N   0.001564921812290  -0.001564921812290  -0.000000000000000 1
force N   0.001564921812290  -0.001564921812290   0.000000000000000 1
force N   0.001564921812290  -0.001564921812290  -0.000000000000000 1
force N   0.001564921812290  -0.001564921812290  -0.000000000000000 1
force N   0.001564921812290  -0.001564921812290  -0.000000000000000 1
force N   0.001564921812290  -0.001564921812290   0.000000000000000 1
force N   0.001564921812290  -0.001564921812290  -0.000000000000000 1
force N   0.001564921812290  -0.001564921812290  -0.000000000000000 1
force N   0.001564921812290  -0.001564921812290  -0.000000000000000 1
force N   0.001564921812290  -0.001564921812290   0.000000000000000 1
force N   0.001564921812290  -0.001564921812290   0.000000000000000 1
force N   0.001564921812290  -0.001564921812290  -0.000000000000000 1
force N   0.001564921812290  -0.001564921812290   0.000000000000000 1
force N   0.001564921812290  -0.001564921812290  -0.000000000000000 1
force N   0.001564921812290  -0.001564921812290   0.000000000000000 1

# Energy components:
   A_diel =        0.0003265766471899
   Eewald =     1248.1722017259053246
       EH =     1416.8452116447863318
     Eloc =    -2960.8306845061456443
      Enl =       30.1148971476774889
      Exc =      -67.8299822274574780
 Exc_core =        6.8944935515921957
       KE =      119.7533072035199666
-------------------------------------
     Etot =     -206.8802288834748424
       TS =        0.0000000000033882
-------------------------------------
        F =     -206.8802288834782246

IonicMinimize: Iter:   0  F: -206.880228883478225  |grad|_K:  5.466e-05  t[s]:   1819.71
IonicMinimize: Converged (|grad|_K<1.000000e-04).

#--- Lowdin population analysis ---
# oxidation-state B +0.475 +0.475 +0.475 +0.475 +0.475 +0.475 +0.475 +0.475 +0.475 +0.475 +0.475 +0.475 +0.475 +0.475 +0.475 +0.475
# magnetic-moments B -0.000 -0.000 -0.000 -0.000 -0.000 -0.000 -0.000 -0.000 -0.000 -0.000 -0.000 -0.000 -0.000 -0.000 -0.000 -0.000
# oxidation-state N -0.406 -0.406 -0.406 -0.406 -0.406 -0.406 -0.406 -0.406 -0.406 -0.406 -0.406 -0.406 -0.406 -0.406 -0.406 -0.406
# magnetic-moments N +0.000 +0.000 +0.000 +0.000 +0.000 +0.000 +0.000 +0.000 +0.000 +0.000 +0.000 +0.000 +0.000 +0.000 +0.000 +0.000


Dumping 'NbTe2.fillings' ... done
Dumping 'NbTe2.wfns' ... done
Dumping 'NbTe2.fluidState' ... done
Dumping 'NbTe2.ionpos' ... done
Dumping 'NbTe2.eigenvals' ... done
End date and time: Thu Jan 21 19:46:56 2021  (Duration: 0-0:30:23.93)
Done!
