
*************** JDFTx 1.5.0  ***************

Start date and time: Sun Jul 12 15:28:02 2020
Executable jdftx_gpu with command-line: -i Neutral.in -o Neutral.out
Running on hosts (process indices):  amax (0-1)
Divided in process groups (process indices):  0 (0)  1 (1)
gpuInit: Found compatible cuda device 0 'Tesla K80'
gpuInit: Found compatible cuda device 1 'Tesla K80'
gpuInit: Selected device 0
Resource initialization completed at t[s]:     15.35
Run totals: 2 processes, 24 threads, 2 GPUs


Input parsed successfully to the following command list (including defaults):

basis kpoint-dependent
cache-projectors no
coords-type Lattice
core-overlap-check none
coulomb-interaction Slab 001
coulomb-truncation-embed 0 0 0.5
davidson-band-ratio 1.1
dump End State
dump-name NbTe2.$VAR
elec-cutoff 20 100
elec-eigen-algo Davidson
elec-ex-corr gga-PBE
elec-smearing Gauss 0.0073499
electronic-minimize  \
	dirUpdateScheme      FletcherReeves \
	linminMethod         DirUpdateRecommended \
	nIterations          500 \
	history              15 \
	knormThreshold       0 \
	energyDiffThreshold  1e-08 \
	nEnergyDiff          2 \
	alphaTstart          1 \
	alphaTmin            1e-10 \
	updateTestStepSize   yes \
	alphaTreduceFactor   0.1 \
	alphaTincreaseFactor 3 \
	nAlphaAdjustMax      3 \
	wolfeEnergy          0.0001 \
	wolfeGradient        0.9 \
	fdTest               no
exchange-regularization WignerSeitzTruncated
fluid LinearPCM 298.000000 1.013250
fluid-anion F- 1 MeanFieldLJ \
	epsBulk 1 \
	pMol 0 \
	epsInf 1 \
	Pvap 0 \
	sigmaBulk 0 \
	Rvdw 2.24877 \
	Res 0 \
	tauNuc 343133
fluid-cation Na+ 1 MeanFieldLJ \
	epsBulk 1 \
	pMol 0 \
	epsInf 1 \
	Pvap 0 \
	sigmaBulk 0 \
	Rvdw 2.19208 \
	Res 0 \
	tauNuc 343133
fluid-ex-corr lda-TF lda-PZ
fluid-gummel-loop 10 1.000000e-05
fluid-minimize  \
	dirUpdateScheme      PolakRibiere \
	linminMethod         DirUpdateRecommended \
	nIterations          400 \
	history              15 \
	knormThreshold       1e-11 \
	energyDiffThreshold  0 \
	nEnergyDiff          2 \
	alphaTstart          1 \
	alphaTmin            1e-10 \
	updateTestStepSize   yes \
	alphaTreduceFactor   0.1 \
	alphaTincreaseFactor 3 \
	nAlphaAdjustMax      6 \
	wolfeEnergy          0.0001 \
	wolfeGradient        0.9 \
	fdTest               no
fluid-solvent H2O 55.338 ScalarEOS \
	epsBulk 78.4 \
	pMol 0.92466 \
	epsInf 1.77 \
	Pvap 1.06736e-10 \
	sigmaBulk 4.62e-05 \
	Rvdw 2.61727 \
	Res 1.42 \
	tauNuc 343133 \
	poleEl 15 7 1
forces-output-coords Positions
initial-state NbTe2.$VAR
ion Ag   0.107696980404386   0.659345356553381   0.598991310065885 0
ion Ag   0.380759998279507   0.178765817291961   0.596040171171095 0
ion Ag   0.865229427071140   0.138153197592675   0.592567119591035 0
ion Au   0.064414682288214   0.992890718411533   0.481684864599179 0
ion Au   0.539215250269260   0.960783973158771   0.488075788090723 0
ion Au   0.473616348867425   0.520524472774436   0.523177461195798 0
ion Au   0.963542869243951   0.481307446026028   0.473852520579812 0
ion Au   0.255549898189068   0.734326218920967   0.392805731049177 0
ion Au   0.749505702192706   0.731968304147880   0.412052212358735 0
ion Au   0.259560244876990   0.234128646795742   0.391627608254916 0
ion Au   0.742062465638058   0.228446887351123   0.415271566364717 0
ion S   0.426570587477042   0.982369714173896   0.378997152542654 0
ion S   0.907622403949147   0.984252526248595   0.383526733437569 0
ion S   0.350606940758344   0.506561849163285   0.626412353066780 0
ion S   0.872312001525860   0.477951058857888   0.584975926402370 0
ion S   0.133464326113807   0.004145632716039   0.596381316187945 0
ion S   0.616677706313835   0.984344651902338   0.600812214352159 0
ion S   0.094679864500935   0.482864395679262   0.369970108494270 0
ion S   0.573929627040327   0.483201526234195   0.415101307195212 0
ion-species GBRV/$ID_pbe.uspp
ion-width Ecut
ionic-minimize  \
	dirUpdateScheme      L-BFGS \
	linminMethod         DirUpdateRecommended \
	nIterations          0 \
	history              15 \
	knormThreshold       0.0001 \
	energyDiffThreshold  1e-06 \
	nEnergyDiff          2 \
	alphaTstart          1 \
	alphaTmin            1e-10 \
	updateTestStepSize   yes \
	alphaTreduceFactor   0.1 \
	alphaTincreaseFactor 3 \
	nAlphaAdjustMax      3 \
	wolfeEnergy          0.0001 \
	wolfeGradient        0.9 \
	fdTest               no
kpoint   0.000000000000   0.000000000000   0.000000000000  1.00000000000000
kpoint-folding 4 5 1 
latt-move-scale 1 1 1
latt-scale 1 1 1 
lattice Triclinic 16.2051 13.5301 36.9574 90 90 90
lattice-minimize  \
	dirUpdateScheme      L-BFGS \
	linminMethod         DirUpdateRecommended \
	nIterations          0 \
	history              15 \
	knormThreshold       0 \
	energyDiffThreshold  1e-06 \
	nEnergyDiff          2 \
	alphaTstart          1 \
	alphaTmin            1e-10 \
	updateTestStepSize   yes \
	alphaTreduceFactor   0.1 \
	alphaTincreaseFactor 3 \
	nAlphaAdjustMax      3 \
	wolfeEnergy          0.0001 \
	wolfeGradient        0.9 \
	fdTest               no
lcao-params -1 1e-06 0.0073499
pcm-variant CANDLE
spintype no-spin
subspace-rotation-factor 1 yes
symmetries automatic
symmetry-threshold 0.0001



---------- Setting up symmetries ----------

Found 8 point-group symmetries of the bravais lattice
Found 1 space-group symmetries with basis
Applied RMS atom displacement 0 bohrs to make symmetries exact.

---------- Initializing the Grid ----------
R = 
[    16.2051          0          0  ]
[          0    13.5301          0  ]
[          0          0    36.9574  ]
unit cell volume = 8103.14
G =
[    0.38773          0          0  ]
[          0   0.464386          0  ]
[          0          0   0.170012  ]
Minimum fftbox size, Smin = [  76  64  168  ]
Chosen fftbox size, S = [  80  64  168  ]

---------- Initializing tighter grid for wavefunction operations ----------
R = 
[    16.2051          0          0  ]
[          0    13.5301          0  ]
[          0          0    36.9574  ]
unit cell volume = 8103.14
G =
[    0.38773          0          0  ]
[          0   0.464386          0  ]
[          0          0   0.170012  ]
Minimum fftbox size, Smin = [  68  56  152  ]
Chosen fftbox size, S = [  70  56  160  ]

---------- Exchange Correlation functional ----------
Initalized PBE GGA exchange.
Initalized PBE GGA correlation.

---------- Setting up pseudopotentials ----------
Width of ionic core gaussian charges (only for fluid interactions / plotting) set to 0.397384

Reading pseudopotential file '/home/guoxy/vasp/jdftx-1.5.0/build/pseudopotentials/GBRV/ag_pbe.uspp':
  Title: Ag.  Created by USPP 7.3.6 on 1-4-15
  Reference state energy: -147.606242.  19 valence electrons in orbitals:
    |400>  occupation: 2  eigenvalue: -3.637437
    |410>  occupation: 6  eigenvalue: -2.297267
    |420>  occupation: 10  eigenvalue: -0.417763
    |500>  occupation: 0.5  eigenvalue: -0.283525
    |510>  occupation: 0  eigenvalue: -0.122889
  lMax: 2  lLocal: 0  QijEcut: 5.5
  6 projectors sampled on a log grid with 717 points:
    l: 0  eig: -0.283528  rCut: 1.5
    l: 0  eig: -3.637440  rCut: 1.5
    l: 1  eig: -0.122892  rCut: 1.5
    l: 1  eig: -2.297267  rCut: 1.5
    l: 2  eig: -0.417762  rCut: 1.7
    l: 2  eig: -1.000000  rCut: 1.7
  Partial core density with radius 1.2
  Transforming core density to a uniform radial grid of dG=0.02 with 1295 points.
  Transforming local potential to a uniform radial grid of dG=0.02 with 1295 points.
  Transforming nonlocal projectors to a uniform radial grid of dG=0.02 with 432 points.
  Transforming density augmentations to a uniform radial grid of dG=0.02 with 1295 points.
  Transforming atomic orbitals to a uniform radial grid of dG=0.02 with 432 points.
  Core radius for overlap checks: 1.70 bohrs.

Reading pseudopotential file '/home/guoxy/vasp/jdftx-1.5.0/build/pseudopotentials/GBRV/au_pbe.uspp':
  Title: Au.  Created by USPP 7.3.6 on 14-9-2013
  Reference state energy: -57.375295.  11 valence electrons in orbitals:
    |520>  occupation: 10  eigenvalue: -0.252742
    |600>  occupation: 1  eigenvalue: -0.211744
    |610>  occupation: 0  eigenvalue: -0.028291
  lMax: 3  lLocal: -1  QijEcut: 5
  7 projectors sampled on a log grid with 755 points:
    l: 0  eig: -0.211744  rCut: 2.3
    l: 0  eig: 0.500000  rCut: 2.3
    l: 1  eig: -0.028291  rCut: 2.35
    l: 1  eig: 0.850000  rCut: 2.35
    l: 2  eig: -0.252741  rCut: 2.1
    l: 2  eig: 1.000000  rCut: 2.1
    l: 3  eig: 0.000000  rCut: 2.5
  Partial core density with radius 1
  Transforming core density to a uniform radial grid of dG=0.02 with 1295 points.
  Transforming local potential to a uniform radial grid of dG=0.02 with 1295 points.
  Transforming nonlocal projectors to a uniform radial grid of dG=0.02 with 432 points.
  Transforming density augmentations to a uniform radial grid of dG=0.02 with 1295 points.
  Transforming atomic orbitals to a uniform radial grid of dG=0.02 with 432 points.
  Core radius for overlap checks: 2.50 bohrs.

Reading pseudopotential file '/home/guoxy/vasp/jdftx-1.5.0/build/pseudopotentials/GBRV/s_pbe.uspp':
  Title: S.  Created by USPP 7.3.6 on 1-4-15
  Reference state energy: -11.898476.  6 valence electrons in orbitals:
    |300>  occupation: 2  eigenvalue: -0.634167
    |310>  occupation: 4  eigenvalue: -0.257568
  lMax: 2  lLocal: 3  QijEcut: 6
  6 projectors sampled on a log grid with 635 points:
    l: 0  eig: -0.634161  rCut: 1.5
    l: 0  eig: 1.500000  rCut: 1.5
    l: 1  eig: -0.257567  rCut: 1.5
    l: 1  eig: 1.500000  rCut: 1.5
    l: 2  eig: -1.000000  rCut: 1.5
    l: 2  eig: 1.500000  rCut: 1.5
  Partial core density with radius 1.15
  Transforming core density to a uniform radial grid of dG=0.02 with 1295 points.
  Transforming local potential to a uniform radial grid of dG=0.02 with 1295 points.
  Transforming nonlocal projectors to a uniform radial grid of dG=0.02 with 432 points.
  Transforming density augmentations to a uniform radial grid of dG=0.02 with 1295 points.
  Transforming atomic orbitals to a uniform radial grid of dG=0.02 with 432 points.
  Core radius for overlap checks: 1.50 bohrs.

Initialized 3 species with 19 total atoms.

Folded 1 k-points by 4x5x1 to 20 k-points.

---------- Setting up k-points, bands, fillings ----------
Adding inversion symmetry to k-mesh for non-inversion-symmetric unit cell.
Reduced to 11 k-points under symmetry. 
Computing the number of bands and number of electrons
Calculating initial fillings.
nElectrons: 193.000000   nBands: 143   nStates: 11

----- Setting up reduced wavefunction bases (one per k-point) -----
average nbasis = 34622.450 , ideal nbasis = 34617.216

---------- Setting up coulomb interaction ----------
Fluid mode embedding: using embedded box, but periodic Coulomb kernel.
(Fluid response is responsible for (approximate) separation between periodic images.)
Setting up double-sized grid for truncated Coulomb potentials:
R = 
[    16.2051          0          0  ]
[          0    13.5301          0  ]
[          0          0    73.9148  ]
unit cell volume = 16206.3
G =
[    0.38773          0          0  ]
[          0   0.464386          0  ]
[          0          0  0.0850058  ]
Chosen fftbox size, S = [  80  64  336  ]
Integer grid location selected as the embedding center:
   Grid: [  0  0  84  ]
   Lattice: [  0  0  0.5  ]
   Cartesian: [  0  0  18.4787  ]
Constructing Wigner-Seitz cell: 6 faces (6 quadrilaterals, 0 hexagons)
Range-separation parameter for embedded mesh potentials due to point charges: 0.591706 bohrs.

Initializing van der Waals corrections
	NOTE: vdW corrections apply only for interactions with fluid.
	Ag:  C6:  427.91 Eh-a0^6  R0: 3.097 a0
	Au:  C6:  815.23 Eh-a0^6  R0: 3.326 a0 (WARNING: beyond Grimme's data set)
	 S:  C6:   96.61 Eh-a0^6  R0: 3.180 a0

---------- Setting up ewald sum ----------
Optimum gaussian width for ewald sums = 6.180337 bohr.
Real space sum over 715 unit cells with max indices [  5  6  2  ]
Reciprocal space sum over 4961 terms with max indices [  5  5  20  ]

---------- Allocating electronic variables ----------
Initializing wave functions:  linear combination of atomic orbitals
Ag pseudo-atom occupations:   s ( 2 1 )  p ( 6 0 )  d ( 10 )
Au pseudo-atom occupations:   s ( 1 )  p ( 0 )  d ( 10 )
S pseudo-atom occupations:   s ( 2 )  p ( 4 )
	FillingsUpdate:  mu: -0.163833771  nElectrons: 193.000000
LCAOMinimize: Iter:   0  F: -801.2958151082573295  |grad|_K:  5.256e-03  alpha:  1.000e+00
LCAOMinimize: 	Step increased F by 1.699939e-01, reducing alpha to 2.318559e-02.
	FillingsUpdate:  mu: -0.181098908  nElectrons: 193.000000
LCAOMinimize: Iter:   1  F: -801.4228128386291701  |grad|_K:  4.023e-03  alpha:  2.319e-02  linmin: -2.688e-01  cgtest:  9.773e-01  t[s]:     39.19
LCAOMinimize: Encountered beta<0, resetting CG.
LCAOMinimize: 	Predicted alpha/alphaT>3.000000, increasing alphaT to 6.955678e-02.
	FillingsUpdate:  mu: -0.124194334  nElectrons: 193.000000
LCAOMinimize: Iter:   2  F: -801.6986214728888172  |grad|_K:  3.690e-03  alpha:  1.389e-01  linmin: -3.058e-02  cgtest:  1.143e-01  t[s]:     48.50
	FillingsUpdate:  mu: -0.157693928  nElectrons: 193.000000
LCAOMinimize: Iter:   3  F: -801.8489075385969045  |grad|_K:  1.240e-03  alpha:  7.588e-02  linmin: -2.259e-02  cgtest: -3.263e-01  t[s]:     55.57
	FillingsUpdate:  mu: -0.149974198  nElectrons: 193.000000
LCAOMinimize: Iter:   4  F: -801.8779847909978571  |grad|_K:  6.830e-04  alpha:  1.494e-01  linmin: -1.310e-02  cgtest:  6.234e-01  t[s]:     87.59
LCAOMinimize: Encountered beta<0, resetting CG.
	FillingsUpdate:  mu: -0.151403357  nElectrons: 193.000000
LCAOMinimize: Iter:   5  F: -801.8830791762161425  |grad|_K:  5.446e-04  alpha:  9.564e-02  linmin:  1.602e-04  cgtest: -1.284e-03  t[s]:     94.66
	FillingsUpdate:  mu: -0.156820606  nElectrons: 193.000000
LCAOMinimize: Iter:   6  F: -801.8878012004696529  |grad|_K:  2.208e-04  alpha:  1.392e-01  linmin: -4.364e-03  cgtest:  9.842e-02  t[s]:    101.67
	FillingsUpdate:  mu: -0.154942188  nElectrons: 193.000000
LCAOMinimize: Iter:   7  F: -801.8896715975455436  |grad|_K:  1.540e-04  alpha:  3.352e-01  linmin:  8.075e-04  cgtest: -4.698e-02  t[s]:    119.15
	FillingsUpdate:  mu: -0.153913893  nElectrons: 193.000000
LCAOMinimize: Iter:   8  F: -801.8899430951993281  |grad|_K:  1.087e-04  alpha:  9.830e-02  linmin: -4.733e-03  cgtest:  3.455e-02  t[s]:    126.33
	FillingsUpdate:  mu: -0.153267313  nElectrons: 193.000000
LCAOMinimize: Iter:   9  F: -801.8900899835870177  |grad|_K:  3.384e-05  alpha:  1.071e-01  linmin:  2.013e-04  cgtest: -1.061e-01  t[s]:    133.47
	FillingsUpdate:  mu: -0.153124602  nElectrons: 193.000000
LCAOMinimize: Iter:  10  F: -801.8901190830582664  |grad|_K:  1.967e-05  alpha:  2.230e-01  linmin:  2.666e-04  cgtest:  1.277e-02  t[s]:    140.62
	FillingsUpdate:  mu: -0.153141067  nElectrons: 193.000000
LCAOMinimize: Iter:  11  F: -801.8901277841601996  |grad|_K:  1.656e-05  alpha:  1.974e-01  linmin: -7.408e-05  cgtest:  5.470e-04  t[s]:    159.58
	FillingsUpdate:  mu: -0.153104483  nElectrons: 193.000000
LCAOMinimize: Iter:  12  F: -801.8901302977137675  |grad|_K:  8.261e-06  alpha:  8.025e-02  linmin: -1.799e-04  cgtest:  5.691e-04  t[s]:    167.67
	FillingsUpdate:  mu: -0.153069380  nElectrons: 193.000000
LCAOMinimize: Iter:  13  F: -801.8901321509115405  |grad|_K:  4.605e-06  alpha:  2.380e-01  linmin: -2.644e-05  cgtest:  2.181e-03  t[s]:    176.61
	FillingsUpdate:  mu: -0.153079384  nElectrons: 193.000000
LCAOMinimize: Iter:  14  F: -801.8901325845855581  |grad|_K:  2.789e-06  alpha:  1.793e-01  linmin:  3.988e-06  cgtest:  2.564e-04  t[s]:    185.45
	FillingsUpdate:  mu: -0.153095314  nElectrons: 193.000000
LCAOMinimize: Iter:  15  F: -801.8901326974604444  |grad|_K:  2.509e-06  alpha:  1.272e-01  linmin: -1.812e-05  cgtest:  1.857e-04  t[s]:    194.25
LCAOMinimize: Converged (|Delta F|<1.000000e-06 for 2 iters).
----- createFluidSolver() ----- (Fluid-side solver setup)
   Initializing fluid molecule 'H2O'
     Initializing site 'O'
       Electron density: proportional to exp(-r/0.36935)*erfc((r-0.51523)/0.36823) with norm 6.826
       Charge density: gaussian nuclear width 0.478731 with net site charge 0.826
       Polarizability: cuspless exponential with width 0.32 and norm 3.73
       Hard sphere radius: 2.57003 bohrs
       Positions in reference frame:
         [ +0.000000 +0.000000 +0.000000 ]
     Initializing site 'H'
       Electron density: proportional to exp(-r/0.34641)*erfc((r-0)/0.390882) with norm 0.587
       Charge density: gaussian nuclear width 0.377945 with net site charge -0.413
       Polarizability: cuspless exponential with width 0.39 and norm 3.3
       Positions in reference frame:
         [ +0.000000 -1.441945 +1.122523 ]
         [ +0.000000 +1.441945 +1.122523 ]
     Net charge: 0   dipole magnitude: 0.927204
     Initializing spherical shell mfKernel with radius 2.61727 Bohr
     deltaS corrections:
       site 'O': -7.54299
       site 'H': -6.83917
   Initializing fluid molecule 'Na+'
     Initializing site 'Na'
       Electron density: proportional to exp(-r/0.19682)*erfc((r-0.71491)/0.41314) with norm 8.1383
       Charge density: gaussian nuclear width 0.365347 with net site charge -1
       Hard sphere radius: 1.86327 bohrs
       Positions in reference frame:
         [ +0.000000 +0.000000 +0.000000 ]
     Net charge: -1   dipole magnitude: 0
     Initializing gaussian mfKernel with width: 1.55004 Bohr
     deltaS corrections:
       site 'Na': -22.3555
   Initializing fluid molecule 'F-'
     Initializing site 'F'
       Electron density: proportional to exp(-r/0.38886)*erfc((r-0)/0.438782) with norm 8
       Charge density: gaussian nuclear width 0.374796 with net site charge 1
       Hard sphere radius: 2.39995 bohrs
       Positions in reference frame:
         [ +0.000000 +0.000000 +0.000000 ]
     Net charge: 1   dipole magnitude: 0
     Initializing gaussian mfKernel with width: 1.59012 Bohr
     deltaS corrections:
       site 'F': -9.04335

Correction to mu due to finite nuclear width = -0.0118161
   Cavity determined by nc: 0.00142 and sigma: 0.707107
   Nonlocal vdW cavity from gaussian model electron density with norm = 8 and sigma = 0.993594 bohr
   Charge asymmetry in cavity with sensitivity pCavity = 36.5 e-bohr/Eh
   Electrostatic cavity expanded by eta = 1.46 bohrs
   Weighted density cavitation model constrained by Nbulk: 0.0049383 bohr^-3, Pvap: 3.14029 kPa, Rvdw: 2.61727 bohr and sigmaBulk: 4.62e-05 Eh/bohr^2 at T: 298 K.
   Weighted density dispersion model using vdW pair potentials with single solvent site with sqrtC6eff: 0.77 SI.


---- Citations for features of the code used in this run ----

   Software package:
      R. Sundararaman, K. Letchworth-Weaver, K.A. Schwarz, D. Gunceler, Y. Ozhabes and T.A. Arias, 'JDFTx: software for joint density-functional theory', SoftwareX 6, 278 (2017)

   gga-PBE exchange-correlation functional:
      J.P. Perdew, K. Burke and M. Ernzerhof, Phys. Rev. Lett. 77, 3865 (1996)

   Pseudopotentials:
      KF Garrity, JW Bennett, KM Rabe and D Vanderbilt, Comput. Mater. Sci. 81, 446 (2014)

   Truncated Coulomb potentials:
      R. Sundararaman and T.A. Arias, Phys. Rev. B 87, 165122 (2013)

   Van der Waals correction pair-potentials:
      S. Grimme, J. Comput. Chem. 27, 1787 (2006)

   Charge-asymmetric nonlocally-determined local-electric (CANDLE) solvation model:
      R. Sundararaman and W.A. Goddard III, J. Chem. Phys. 142, 064107 (2015)

   Total energy minimization with Auxiliary Hamiltonian:
      C. Freysoldt, S. Boeck, and J. Neugebauer, Phys. Rev. B 79, 241103(R) (2009)

This list may not be complete. Please suggest additional citations or
report any other bugs at https://github.com/shankar1729/jdftx/issues

Initialization completed successfully at t[s]:    196.34

Fluid solver invoked on fresh (partially random / LCAO) wavefunctions
Running a vacuum solve first:

-------- Initial electronic minimization -----------
	FillingsUpdate:  mu: -0.153095314  nElectrons: 193.000000
ElecMinimize: Iter:   0  F: -801.890132697454078  |grad|_K:  9.501e-05  alpha:  1.000e+00
	FillingsUpdate:  mu: -0.108234031  nElectrons: 193.000000
	SubspaceRotationAdjust: set factor to 1
ElecMinimize: Iter:   1  F: -802.221883944372962  |grad|_K:  6.621e-05  alpha:  6.755e-01  linmin: -1.080e-06  t[s]:    216.25
	FillingsUpdate:  mu: -0.120437112  nElectrons: 193.000000
	SubspaceRotationAdjust: set factor to 0.854
ElecMinimize: Iter:   2  F: -802.291476608557105  |grad|_K:  5.133e-05  alpha:  2.890e-01  linmin: -8.411e-05  t[s]:    228.96
	FillingsUpdate:  mu: -0.123522787  nElectrons: 193.000000
	SubspaceRotationAdjust: set factor to 0.565
ElecMinimize: Iter:   3  F: -802.306317521059327  |grad|_K:  4.592e-05  alpha:  1.078e-01  linmin:  3.507e-04  t[s]:    241.72
	FillingsUpdate:  mu: -0.123668077  nElectrons: 193.000000
	SubspaceRotationAdjust: set factor to 0.924
ElecMinimize: Iter:   4  F: -802.338424901007102  |grad|_K:  1.837e-05  alpha:  2.926e-01  linmin:  3.190e-04  t[s]:    254.04
	FillingsUpdate:  mu: -0.122695349  nElectrons: 193.000000
	SubspaceRotationAdjust: set factor to 0.586
ElecMinimize: Iter:   5  F: -802.343286178794642  |grad|_K:  2.246e-05  alpha:  2.699e-01  linmin:  1.877e-05  t[s]:    266.44
	FillingsUpdate:  mu: -0.125687672  nElectrons: 193.000000
	SubspaceRotationAdjust: set factor to 0.352
ElecMinimize: Iter:   6  F: -802.346121645251628  |grad|_K:  1.129e-05  alpha:  1.046e-01  linmin:  7.854e-05  t[s]:    278.79
ElecMinimize: 	Predicted alpha/alphaT>3.000000, increasing alphaT to 3.138498e-01.
	FillingsUpdate:  mu: -0.125798092  nElectrons: 193.000000
	SubspaceRotationAdjust: set factor to 0.485
ElecMinimize: Iter:   7  F: -802.348649008158418  |grad|_K:  6.900e-06  alpha:  3.670e-01  linmin:  2.153e-05  t[s]:    296.58
	FillingsUpdate:  mu: -0.124224588  nElectrons: 193.000000
	SubspaceRotationAdjust: set factor to 0.391
ElecMinimize: Iter:   8  F: -802.349497438616027  |grad|_K:  5.960e-06  alpha:  3.273e-01  linmin:  1.561e-05  t[s]:    309.71
	FillingsUpdate:  mu: -0.123830910  nElectrons: 193.000000
	SubspaceRotationAdjust: set factor to 0.267
ElecMinimize: Iter:   9  F: -802.349867610344745  |grad|_K:  3.418e-06  alpha:  1.912e-01  linmin: -9.253e-07  t[s]:    322.59
	FillingsUpdate:  mu: -0.123661452  nElectrons: 193.000000
	SubspaceRotationAdjust: set factor to 0.336
ElecMinimize: Iter:  10  F: -802.350177813787354  |grad|_K:  2.095e-06  alpha:  4.871e-01  linmin:  1.447e-05  t[s]:    335.20
	FillingsUpdate:  mu: -0.123726273  nElectrons: 193.000000
	SubspaceRotationAdjust: set factor to 0.34
ElecMinimize: Iter:  11  F: -802.350267781958678  |grad|_K:  1.538e-06  alpha:  3.766e-01  linmin:  8.396e-07  t[s]:    347.31
	FillingsUpdate:  mu: -0.123807368  nElectrons: 193.000000
	SubspaceRotationAdjust: set factor to 0.294
ElecMinimize: Iter:  12  F: -802.350317212084406  |grad|_K:  1.239e-06  alpha:  3.832e-01  linmin:  9.702e-07  t[s]:    359.84
	FillingsUpdate:  mu: -0.123742791  nElectrons: 193.000000
	SubspaceRotationAdjust: set factor to 0.263
ElecMinimize: Iter:  13  F: -802.350342997623216  |grad|_K:  7.466e-07  alpha:  3.079e-01  linmin:  8.112e-07  t[s]:    372.81
	FillingsUpdate:  mu: -0.123718609  nElectrons: 193.000000
	SubspaceRotationAdjust: set factor to 0.284
ElecMinimize: Iter:  14  F: -802.350357034633134  |grad|_K:  5.905e-07  alpha:  4.618e-01  linmin:  1.732e-06  t[s]:    385.17
	FillingsUpdate:  mu: -0.123717297  nElectrons: 193.000000
	SubspaceRotationAdjust: set factor to 0.334
ElecMinimize: Iter:  15  F: -802.350363514232072  |grad|_K:  3.954e-07  alpha:  3.408e-01  linmin:  1.837e-07  t[s]:    397.76
	FillingsUpdate:  mu: -0.123728143  nElectrons: 193.000000
	SubspaceRotationAdjust: set factor to 0.319
ElecMinimize: Iter:  16  F: -802.350366891884278  |grad|_K:  3.055e-07  alpha:  3.960e-01  linmin:  7.036e-07  t[s]:    411.09
	FillingsUpdate:  mu: -0.123758831  nElectrons: 193.000000
	SubspaceRotationAdjust: set factor to 0.261
ElecMinimize: Iter:  17  F: -802.350368624282282  |grad|_K:  2.191e-07  alpha:  3.403e-01  linmin:  2.624e-07  t[s]:    423.79
	FillingsUpdate:  mu: -0.123761628  nElectrons: 193.000000
	SubspaceRotationAdjust: set factor to 0.279
ElecMinimize: Iter:  18  F: -802.350369575561103  |grad|_K:  1.591e-07  alpha:  3.632e-01  linmin:  1.654e-07  t[s]:    436.81
	FillingsUpdate:  mu: -0.123760905  nElectrons: 193.000000
	SubspaceRotationAdjust: set factor to 0.317
ElecMinimize: Iter:  19  F: -802.350370083647363  |grad|_K:  1.004e-07  alpha:  3.680e-01  linmin:  6.403e-08  t[s]:    449.55
	FillingsUpdate:  mu: -0.123765144  nElectrons: 193.000000
	SubspaceRotationAdjust: set factor to 0.287
ElecMinimize: Iter:  20  F: -802.350370335109574  |grad|_K:  8.102e-08  alpha:  4.574e-01  linmin:  1.302e-07  t[s]:    463.16
	FillingsUpdate:  mu: -0.123764904  nElectrons: 193.000000
	SubspaceRotationAdjust: set factor to 0.233
ElecMinimize: Iter:  21  F: -802.350370436147159  |grad|_K:  5.228e-08  alpha:  2.821e-01  linmin: -3.736e-09  t[s]:    476.98
	FillingsUpdate:  mu: -0.123769415  nElectrons: 193.000000
	SubspaceRotationAdjust: set factor to 0.27
ElecMinimize: Iter:  22  F: -802.350370502419537  |grad|_K:  3.575e-08  alpha:  4.440e-01  linmin: -8.320e-08  t[s]:    490.26
	FillingsUpdate:  mu: -0.123771558  nElectrons: 193.000000
	SubspaceRotationAdjust: set factor to 0.283
ElecMinimize: Iter:  23  F: -802.350370529500537  |grad|_K:  2.644e-08  alpha:  3.881e-01  linmin: -4.141e-08  t[s]:    503.35
	FillingsUpdate:  mu: -0.123770921  nElectrons: 193.000000
	SubspaceRotationAdjust: set factor to 0.275
ElecMinimize: Iter:  24  F: -802.350370543628856  |grad|_K:  1.896e-08  alpha:  3.699e-01  linmin:  6.672e-08  t[s]:    517.59
	FillingsUpdate:  mu: -0.123771373  nElectrons: 193.000000
	SubspaceRotationAdjust: set factor to 0.285
ElecMinimize: Iter:  25  F: -802.350370551445508  |grad|_K:  1.331e-08  alpha:  3.989e-01  linmin: -1.039e-08  t[s]:    530.33
	FillingsUpdate:  mu: -0.123772271  nElectrons: 193.000000
	SubspaceRotationAdjust: set factor to 0.333
ElecMinimize: Iter:  26  F: -802.350370555700238  |grad|_K:  1.010e-08  alpha:  4.409e-01  linmin:  1.975e-07  t[s]:    543.54
ElecMinimize: Converged (|Delta F|<1.000000e-08 for 2 iters).
Setting wave functions to eigenvectors of Hamiltonian
Vacuum energy after initial minimize, F = -802.350370555700238

	Linear fluid (dielectric constant: 78.4, screening length: 5.74355 Bohr) occupying 0.745892 of unit cell:	Completed after 23 iterations at t[s]:    548.05

-------- Electronic minimization -----------
	Linear fluid (dielectric constant: 78.4, screening length: 5.74355 Bohr) occupying 0.745892 of unit cell:	Completed after 0 iterations at t[s]:    551.68
	FillingsUpdate:  mu: -0.206044546  nElectrons: 193.000000
ElecMinimize: Iter:   0  F: -802.350202164073039  |grad|_K:  2.464e-06  alpha:  1.000e+00
	Linear fluid (dielectric constant: 78.4, screening length: 5.74355 Bohr) occupying 0.746282 of unit cell:	Completed after 19 iterations at t[s]:    562.79
	Linear fluid (dielectric constant: 78.4, screening length: 5.74355 Bohr) occupying 0.746135 of unit cell:	Completed after 13 iterations at t[s]:    567.71
	FillingsUpdate:  mu: -0.205215211  nElectrons: 193.000000
	SubspaceRotationAdjust: set factor to 0.28
ElecMinimize: Iter:   1  F: -802.350406775605734  |grad|_K:  2.120e-06  alpha:  6.192e-01  linmin: -1.197e-07  t[s]:    572.93
	Linear fluid (dielectric constant: 78.4, screening length: 5.74355 Bohr) occupying 0.746459 of unit cell:	Completed after 14 iterations at t[s]:    578.91
	Linear fluid (dielectric constant: 78.4, screening length: 5.74355 Bohr) occupying 0.746423 of unit cell:	Completed after 4 iterations at t[s]:    583.22
	FillingsUpdate:  mu: -0.204677073  nElectrons: 193.000000
	SubspaceRotationAdjust: set factor to 0.317
ElecMinimize: Iter:   2  F: -802.350541466354116  |grad|_K:  1.488e-06  alpha:  5.492e-01  linmin: -3.570e-08  t[s]:    587.95
	Linear fluid (dielectric constant: 78.4, screening length: 5.74355 Bohr) occupying 0.746601 of unit cell:	Completed after 10 iterations at t[s]:    593.65
	Linear fluid (dielectric constant: 78.4, screening length: 5.74355 Bohr) occupying 0.746563 of unit cell:	Completed after 4 iterations at t[s]:    598.12
	FillingsUpdate:  mu: -0.204342043  nElectrons: 193.000000
	SubspaceRotationAdjust: set factor to 0.392
ElecMinimize: Iter:   3  F: -802.350593387210665  |grad|_K:  9.207e-07  alpha:  4.294e-01  linmin:  5.951e-07  t[s]:    602.71
	Linear fluid (dielectric constant: 78.4, screening length: 5.74355 Bohr) occupying 0.746621 of unit cell:	Completed after 8 iterations at t[s]:    607.41
	Linear fluid (dielectric constant: 78.4, screening length: 5.74355 Bohr) occupying 0.746635 of unit cell:	Completed after 2 iterations at t[s]:    611.80
	FillingsUpdate:  mu: -0.204345393  nElectrons: 193.000000
	SubspaceRotationAdjust: set factor to 0.458
ElecMinimize: Iter:   4  F: -802.350617778748415  |grad|_K:  5.511e-07  alpha:  5.280e-01  linmin: -1.053e-06  t[s]:    616.60
	Linear fluid (dielectric constant: 78.4, screening length: 5.74355 Bohr) occupying 0.746660 of unit cell:	Completed after 7 iterations at t[s]:    621.54
	Linear fluid (dielectric constant: 78.4, screening length: 5.74355 Bohr) occupying 0.746661 of unit cell:	Completed after 0 iterations at t[s]:    625.29
	FillingsUpdate:  mu: -0.204154039  nElectrons: 193.000000
	SubspaceRotationAdjust: set factor to 0.538
ElecMinimize: Iter:   5  F: -802.350626986944121  |grad|_K:  4.022e-07  alpha:  5.536e-01  linmin: -3.814e-06  t[s]:    629.81
	Linear fluid (dielectric constant: 78.4, screening length: 5.74355 Bohr) occupying 0.746670 of unit cell:	Completed after 4 iterations at t[s]:    633.68
	Linear fluid (dielectric constant: 78.4, screening length: 5.74355 Bohr) occupying 0.746667 of unit cell:	Completed after 2 iterations at t[s]:    637.30
	FillingsUpdate:  mu: -0.204135297  nElectrons: 193.000000
	SubspaceRotationAdjust: set factor to 0.605
ElecMinimize: Iter:   6  F: -802.350630356082092  |grad|_K:  2.625e-07  alpha:  3.762e-01  linmin:  5.925e-07  t[s]:    641.30
	Linear fluid (dielectric constant: 78.4, screening length: 5.74355 Bohr) occupying 0.746665 of unit cell:	Completed after 3 iterations at t[s]:    645.11
	Linear fluid (dielectric constant: 78.4, screening length: 5.74355 Bohr) occupying 0.746665 of unit cell:	Completed after 0 iterations at t[s]:    648.60
	FillingsUpdate:  mu: -0.204158946  nElectrons: 193.000000
	SubspaceRotationAdjust: set factor to 0.677
ElecMinimize: Iter:   7  F: -802.350631756880944  |grad|_K:  1.800e-07  alpha:  3.732e-01  linmin: -7.948e-08  t[s]:    652.92
	Linear fluid (dielectric constant: 78.4, screening length: 5.74355 Bohr) occupying 0.746661 of unit cell:	Completed after 2 iterations at t[s]:    656.98
	Linear fluid (dielectric constant: 78.4, screening length: 5.74355 Bohr) occupying 0.746661 of unit cell:	Completed after 0 iterations at t[s]:    660.46
	FillingsUpdate:  mu: -0.204161188  nElectrons: 193.000000
	SubspaceRotationAdjust: set factor to 0.733
ElecMinimize: Iter:   8  F: -802.350632377069360  |grad|_K:  9.862e-08  alpha:  3.509e-01  linmin:  1.424e-06  t[s]:    664.63
	Linear fluid (dielectric constant: 78.4, screening length: 5.74355 Bohr) occupying 0.746658 of unit cell:	Completed after 3 iterations at t[s]:    668.53
	Linear fluid (dielectric constant: 78.4, screening length: 5.74355 Bohr) occupying 0.746657 of unit cell:	Completed after 0 iterations at t[s]:    672.08
	FillingsUpdate:  mu: -0.204177835  nElectrons: 193.000000
	SubspaceRotationAdjust: set factor to 0.634
ElecMinimize: Iter:   9  F: -802.350632591653607  |grad|_K:  5.670e-08  alpha:  4.007e-01  linmin: -2.996e-05  t[s]:    676.15
	Linear fluid (dielectric constant: 78.4, screening length: 5.74355 Bohr) occupying 0.746654 of unit cell:	Completed after 0 iterations at t[s]:    679.78
	Linear fluid (dielectric constant: 78.4, screening length: 5.74355 Bohr) occupying 0.746654 of unit cell:	Completed after 0 iterations at t[s]:    683.24
	FillingsUpdate:  mu: -0.204177452  nElectrons: 193.000000
	SubspaceRotationAdjust: set factor to 0.784
ElecMinimize: Iter:  10  F: -802.350632670169716  |grad|_K:  4.850e-08  alpha:  4.166e-01  linmin:  1.155e-07  t[s]:    687.60
	Linear fluid (dielectric constant: 78.4, screening length: 5.74355 Bohr) occupying 0.746651 of unit cell:	Completed after 2 iterations at t[s]:    691.62
	Linear fluid (dielectric constant: 78.4, screening length: 5.74355 Bohr) occupying 0.746653 of unit cell:	Completed after 0 iterations at t[s]:    695.09
	FillingsUpdate:  mu: -0.204188872  nElectrons: 193.000000
	SubspaceRotationAdjust: set factor to 0.651
ElecMinimize: Iter:  11  F: -802.350632684140123  |grad|_K:  8.340e-08  alpha:  1.463e-01  linmin:  5.629e-05  t[s]:    699.59
	Linear fluid (dielectric constant: 78.4, screening length: 5.74355 Bohr) occupying 0.746649 of unit cell:	Completed after 0 iterations at t[s]:    703.48
	Linear fluid (dielectric constant: 78.4, screening length: 5.74355 Bohr) occupying 0.746652 of unit cell:	Completed after 0 iterations at t[s]:    707.08
	FillingsUpdate:  mu: -0.204188750  nElectrons: 193.000000
	SubspaceRotationAdjust: set factor to 0.535
ElecMinimize: Iter:  12  F: -802.350632693681632  |grad|_K:  7.567e-08  alpha:  5.040e-02  linmin:  1.281e-08  t[s]:    711.22
	Linear fluid (dielectric constant: 78.4, screening length: 5.74355 Bohr) occupying 0.746651 of unit cell:	Completed after 2 iterations at t[s]:    714.89
	Linear fluid (dielectric constant: 78.4, screening length: 5.74355 Bohr) occupying 0.746651 of unit cell:	Completed after 0 iterations at t[s]:    718.51
ElecMinimize: 	Step increased F by 8.689312e-09, reducing alpha to 2.050237e-03.
	Linear fluid (dielectric constant: 78.4, screening length: 5.74355 Bohr) occupying 0.746652 of unit cell:	Completed after 0 iterations at t[s]:    725.92
ElecMinimize: 	Step increased F by 1.203853e-08, reducing alpha to 2.050237e-04.
	Linear fluid (dielectric constant: 78.4, screening length: 5.74355 Bohr) occupying 0.746652 of unit cell:	Completed after 0 iterations at t[s]:    733.21
ElecMinimize: 	Step increased F by 1.246599e-08, reducing alpha to 2.050237e-05.
ElecMinimize: 	Step failed to reduce F after 3 attempts. Quitting step.
ElecMinimize: 	Undoing step.
	Linear fluid (dielectric constant: 78.4, screening length: 5.74355 Bohr) occupying 0.746652 of unit cell:	Completed after 0 iterations at t[s]:    740.56
ElecMinimize: 	Step failed: resetting search direction.
	FillingsUpdate:  mu: -0.204191491  nElectrons: 193.000000
	SubspaceRotationAdjust: set factor to 1.02
ElecMinimize: Iter:  13  F: -802.350632681193019  |grad|_K:  3.426e-08  alpha:  2.050e-05
	Linear fluid (dielectric constant: 78.4, screening length: 5.74355 Bohr) occupying 0.746652 of unit cell:	Completed after 0 iterations at t[s]:    748.32
ElecMinimize: 	Predicted alpha/alphaT>3.000000, increasing alphaT to 1.512045e-01.
	Linear fluid (dielectric constant: 78.4, screening length: 5.74355 Bohr) occupying 0.746652 of unit cell:	Completed after 0 iterations at t[s]:    751.62
ElecMinimize: 	Predicted alpha/alphaT>3.000000, increasing alphaT to 4.536135e-01.
	Linear fluid (dielectric constant: 78.4, screening length: 5.74355 Bohr) occupying 0.746651 of unit cell:	Completed after 2 iterations at t[s]:    755.13
	Linear fluid (dielectric constant: 78.4, screening length: 5.74355 Bohr) occupying 0.746652 of unit cell:	Completed after 0 iterations at t[s]:    758.58
	FillingsUpdate:  mu: -0.204194301  nElectrons: 193.000000
	SubspaceRotationAdjust: set factor to 0.968
ElecMinimize: Iter:  14  F: -802.350632701369364  |grad|_K:  1.970e-08  alpha:  3.156e-01  linmin:  5.764e-05  t[s]:    762.80
	Linear fluid (dielectric constant: 78.4, screening length: 5.74355 Bohr) occupying 0.746651 of unit cell:	Completed after 0 iterations at t[s]:    766.44
	Linear fluid (dielectric constant: 78.4, screening length: 5.74355 Bohr) occupying 0.746651 of unit cell:	Completed after 0 iterations at t[s]:    769.89
	FillingsUpdate:  mu: -0.204194402  nElectrons: 193.000000
	SubspaceRotationAdjust: set factor to 1.21
ElecMinimize: Iter:  15  F: -802.350632712078550  |grad|_K:  1.548e-08  alpha:  5.577e-01  linmin: -2.506e-07  t[s]:    774.23
	Linear fluid (dielectric constant: 78.4, screening length: 5.74355 Bohr) occupying 0.746651 of unit cell:	Completed after 2 iterations at t[s]:    778.13
	Linear fluid (dielectric constant: 78.4, screening length: 5.74355 Bohr) occupying 0.746651 of unit cell:	Completed after 0 iterations at t[s]:    781.75
ElecMinimize: 	Step increased F by 7.122253e-09, reducing alpha to 9.420082e-03.
	Linear fluid (dielectric constant: 78.4, screening length: 5.74355 Bohr) occupying 0.746651 of unit cell:	Completed after 0 iterations at t[s]:    788.78
ElecMinimize: 	Step increased F by 4.592721e-09, reducing alpha to 9.420082e-04.
	Linear fluid (dielectric constant: 78.4, screening length: 5.74355 Bohr) occupying 0.746651 of unit cell:	Completed after 0 iterations at t[s]:    796.29
ElecMinimize: 	Step increased F by 4.367735e-09, reducing alpha to 9.420082e-05.
ElecMinimize: 	Step failed to reduce F after 3 attempts. Quitting step.
ElecMinimize: 	Undoing step.
	Linear fluid (dielectric constant: 78.4, screening length: 5.74355 Bohr) occupying 0.746651 of unit cell:	Completed after 0 iterations at t[s]:    803.78
ElecMinimize: 	Step failed: resetting search direction.
	FillingsUpdate:  mu: -0.204191644  nElectrons: 193.000000
	SubspaceRotationAdjust: set factor to 0.981
ElecMinimize: Iter:  16  F: -802.350632707716272  |grad|_K:  4.352e-08  alpha:  9.420e-05
	Linear fluid (dielectric constant: 78.4, screening length: 5.74355 Bohr) occupying 0.746651 of unit cell:	Completed after 3 iterations at t[s]:    812.28
	Linear fluid (dielectric constant: 78.4, screening length: 5.74355 Bohr) occupying 0.746651 of unit cell:	Completed after 2 iterations at t[s]:    816.04
	FillingsUpdate:  mu: -0.204194364  nElectrons: 193.000000
	SubspaceRotationAdjust: set factor to 0.459
ElecMinimize: Iter:  17  F: -802.350632708590297  |grad|_K:  2.438e-08  alpha:  1.069e-01  linmin:  3.470e-04  t[s]:    820.20
	Linear fluid (dielectric constant: 78.4, screening length: 5.74355 Bohr) occupying 0.746651 of unit cell:	Completed after 0 iterations at t[s]:    823.79
ElecMinimize: 	Predicted alpha/alphaT>3.000000, increasing alphaT to 3.205532e-01.
	Linear fluid (dielectric constant: 78.4, screening length: 5.74355 Bohr) occupying 0.746651 of unit cell:	Completed after 0 iterations at t[s]:    827.13
	Linear fluid (dielectric constant: 78.4, screening length: 5.74355 Bohr) occupying 0.746651 of unit cell:	Completed after 2 iterations at t[s]:    830.69
ElecMinimize: 	Step increased F by 1.445608e-08, reducing alpha to 6.035564e-02.
	Linear fluid (dielectric constant: 78.4, screening length: 5.74355 Bohr) occupying 0.746651 of unit cell:	Completed after 0 iterations at t[s]:    838.33
	FillingsUpdate:  mu: -0.204194019  nElectrons: 193.000000
	SubspaceRotationAdjust: set factor to 0.224
ElecMinimize: Iter:  18  F: -802.350632717068720  |grad|_K:  1.881e-08  alpha:  6.036e-02  linmin:  1.053e-04  t[s]:    842.58
ElecMinimize: Converged (|Delta F|<1.000000e-08 for 2 iters).
Setting wave functions to eigenvectors of Hamiltonian
Single-point solvation energy estimate, DeltaF = -0.000262161368482

# Ionic positions in lattice coordinates:
ion Ag   0.107696980404386   0.659345356553381   0.598991310065885 0
ion Ag   0.380759998279507   0.178765817291961   0.596040171171095 0
ion Ag   0.865229427071140   0.138153197592675   0.592567119591035 0
ion Au   0.064414682288214   0.992890718411533   0.481684864599179 0
ion Au   0.539215250269260   0.960783973158771   0.488075788090723 0
ion Au   0.473616348867425   0.520524472774436   0.523177461195798 0
ion Au   0.963542869243951   0.481307446026028   0.473852520579812 0
ion Au   0.255549898189068   0.734326218920967   0.392805731049177 0
ion Au   0.749505702192706   0.731968304147880   0.412052212358735 0
ion Au   0.259560244876990   0.234128646795742   0.391627608254916 0
ion Au   0.742062465638058   0.228446887351123   0.415271566364717 0
ion S   0.426570587477042   0.982369714173896   0.378997152542654 0
ion S   0.907622403949147   0.984252526248595   0.383526733437569 0
ion S   0.350606940758344   0.506561849163285   0.626412353066780 0
ion S   0.872312001525860   0.477951058857888   0.584975926402370 0
ion S   0.133464326113807   0.004145632716039   0.596381316187945 0
ion S   0.616677706313835   0.984344651902338   0.600812214352159 0
ion S   0.094679864500935   0.482864395679262   0.369970108494270 0
ion S   0.573929627040327   0.483201526234195   0.415101307195212 0


# Forces in Lattice coordinates:
force Ag   0.000549489269820   0.013451150816515   0.046500738652317 0
force Ag   0.011195037837675   0.003584695106371   0.082264851279742 0
force Ag   0.013111204787607   0.006332190317110   0.056212955015230 0
force Au  -0.023593728162115  -0.005025000874702  -0.068216774067148 0
force Au  -0.008331748317563  -0.017143716616730  -0.010877798698606 0
force Au  -0.009102530913248   0.032589077660082   0.024660257696638 0
force Au   0.012743985871510  -0.021446396798832   0.004210402286495 0
force Au   0.000969854110052   0.013637298058443  -0.020432089604528 0
force Au  -0.005873584540432   0.011139983063569  -0.080671831832936 0
force Au  -0.009993556748959  -0.010066847299700  -0.039129589586958 0
force Au   0.015651790609877  -0.019701694502121  -0.017128844056614 0
force S   0.026257296000665  -0.001906613603780  -0.055885428215575 0
force S   0.024476595922685  -0.000444224680701  -0.095408520767666 0
force S  -0.007587820511598   0.004760961570061   0.127131686941405 0
force S  -0.021403236567508  -0.001330835812884   0.116545930459633 0
force S   0.007477397034859  -0.006249881125526   0.102985022471993 0
force S   0.004085065630261  -0.003698009513908   0.085529224846744 0
force S  -0.019565738268118   0.007673203149174  -0.101110674630128 0
force S  -0.022689335405671   0.003779490830020  -0.108198038778850 0

# Energy components:
   A_diel =       -0.0009872311954831
   Eewald =     4136.2150926192953193
       EH =     4857.3580155183617535
     Eloc =    -9891.6750747051173676
      Enl =       -6.9062062088132414
      Exc =     -325.7208055909503628
 Exc_core =      197.3785276541948406
       KE =      231.0321153511723367
-------------------------------------
     Etot =     -802.3193225930525614
       TS =        0.0313101240161020
-------------------------------------
        F =     -802.3506327170687200

IonicMinimize: Iter:   0  F: -802.350632717068720  |grad|_K:  0.000e+00  t[s]:    845.26
IonicMinimize: Converged (|grad|_K<1.000000e-04).

#--- Lowdin population analysis ---
# oxidation-state Ag -0.091 -0.119 -0.085
# oxidation-state Au -0.127 -0.124 -0.087 -0.115 -0.102 -0.067 -0.097 -0.082
# oxidation-state S +0.192 +0.190 +0.177 +0.216 +0.255 +0.171 +0.178 +0.227


Dumping 'NbTe2.fillings' ... done
Dumping 'NbTe2.wfns' ... done
Dumping 'NbTe2.fluidState' ... done
Dumping 'NbTe2.eigenvals' ... done
End date and time: Sun Jul 12 15:42:10 2020  (Duration: 0-0:14:07.17)
Done!
