
*************** JDFTx 1.5.0  ***************

Start date and time: Mon Feb  8 09:23:18 2021
Executable jdftx_gpu with command-line: -i Charged.in -o Charged.out
Running on hosts (process indices):  amax (0-6)
Divided in process groups (process indices):  0 (0)  1 (1)  2 (2)  3 (3)  4 (4)  5 (5)  6 (6)
gpuInit: Found compatible cuda device 0 'Tesla K80'
gpuInit: Found compatible cuda device 1 'Tesla K80'
gpuInit: Found compatible cuda device 2 'Tesla K80'
gpuInit: Found compatible cuda device 3 'Tesla K80'
gpuInit: Found compatible cuda device 4 'Tesla K80'
gpuInit: Found compatible cuda device 5 'Tesla K80'
gpuInit: Found compatible cuda device 6 'Tesla K80'
gpuInit: Selected device 0
Resource initialization completed at t[s]:      3.57
Run totals: 7 processes, 24 threads, 7 GPUs


Input parsed successfully to the following command list (including defaults):

basis kpoint-dependent
cache-projectors no
coords-type Lattice
core-overlap-check none
coulomb-interaction Slab 001
coulomb-truncation-embed 0.5 0.5 0.5
davidson-band-ratio 1.1
dump End State
dump-name NbTe2.$VAR
elec-cutoff 20
elec-eigen-algo Davidson
elec-ex-corr gga-PBE
elec-initial-charge 0.000000
elec-initial-magnetization 20.000000 no
elec-smearing Gauss 0.0073499
electronic-minimize  \
	dirUpdateScheme      FletcherReeves \
	linminMethod         DirUpdateRecommended \
	nIterations          200 \
	history              15 \
	knormThreshold       0 \
	energyDiffThreshold  1e-08 \
	nEnergyDiff          2 \
	alphaTstart          1 \
	alphaTmin            1e-10 \
	updateTestStepSize   yes \
	alphaTreduceFactor   0.1 \
	alphaTincreaseFactor 3 \
	nAlphaAdjustMax      3 \
	wolfeEnergy          0.0001 \
	wolfeGradient        0.9 \
	fdTest               no
exchange-regularization WignerSeitzTruncated
fluid LinearPCM 298.000000 1.013250
fluid-anion F- 1 MeanFieldLJ \
	epsBulk 1 \
	pMol 0 \
	epsInf 1 \
	Pvap 0 \
	sigmaBulk 0 \
	Rvdw 2.24877 \
	Res 0 \
	tauNuc 343133
fluid-cation Na+ 1 MeanFieldLJ \
	epsBulk 1 \
	pMol 0 \
	epsInf 1 \
	Pvap 0 \
	sigmaBulk 0 \
	Rvdw 2.19208 \
	Res 0 \
	tauNuc 343133
fluid-ex-corr lda-TF lda-PZ
fluid-gummel-loop 10 1.000000e-05
fluid-minimize  \
	dirUpdateScheme      PolakRibiere \
	linminMethod         DirUpdateRecommended \
	nIterations          400 \
	history              15 \
	knormThreshold       1e-11 \
	energyDiffThreshold  0 \
	nEnergyDiff          2 \
	alphaTstart          1 \
	alphaTmin            1e-10 \
	updateTestStepSize   yes \
	alphaTreduceFactor   0.1 \
	alphaTincreaseFactor 3 \
	nAlphaAdjustMax      6 \
	wolfeEnergy          0.0001 \
	wolfeGradient        0.9 \
	fdTest               no
fluid-solvent H2O 55.338 ScalarEOS \
	epsBulk 78.4 \
	pMol 0.92466 \
	epsInf 1.77 \
	Pvap 1.06736e-10 \
	sigmaBulk 4.62e-05 \
	Rvdw 2.61727 \
	Res 1.42 \
	tauNuc 343133 \
	poleEl 15 7 1
forces-output-coords Positions
initial-state NbTe2.$VAR
ion Nb  -0.000000000000000  -0.000000000000000   0.500000000000000 1
ion Nb   0.250000000000000  -0.000000000000000   0.500000000000000 1
ion Nb   0.500000000000000  -0.000000000000000   0.500000000000000 1
ion Nb   0.750000018000000  -0.000000000000000   0.500000000000000 1
ion Nb  -0.000000003000000   0.249999994000000   0.500000000000000 1
ion Nb   0.249999997000000   0.249999994000000   0.500000000000000 1
ion Nb   0.500000006000000   0.249999994000000   0.500000000000000 1
ion Nb   0.749999988000000   0.249999994000000   0.500000000000000 1
ion Nb  -0.000000006000000   0.499999987000000   0.500000000000000 1
ion Nb   0.249999994000000   0.499999987000000   0.500000000000000 1
ion Nb   0.499999994000000   0.499999987000000   0.500000000000000 1
ion Nb   0.750000029000000   0.499999987000000   0.500000000000000 1
ion Nb  -0.000000008000000   0.750000002000000   0.500000000000000 1
ion Nb   0.249999992000000   0.750000002000000   0.500000000000000 1
ion Nb   0.499999992000000   0.750000002000000   0.500000000000000 1
ion Nb   0.750000010000000   0.750000002000000   0.500000000000000 1
ion S   0.166669996000000   0.083329998000000   0.413710010000000 1
ion S   0.166669996000000   0.083329998000000   0.586289990000000 1
ion S   0.416669987000000   0.083329998000000   0.413710010000000 1
ion S   0.416669987000000   0.083329998000000   0.586289990000000 1
ion S   0.666670005000000   0.083329998000000   0.413710010000000 1
ion S   0.666670005000000   0.083329998000000   0.586289990000000 1
ion S   0.916669987000000   0.083329998000000   0.413710010000000 1
ion S   0.916669987000000   0.083329998000000   0.586289990000000 1
ion S   0.166669998000000   0.333330002000000   0.413710010000000 1
ion S   0.166669998000000   0.333330002000000   0.586289990000000 1
ion S   0.416669980000000   0.333330002000000   0.413710010000000 1
ion S   0.416669980000000   0.333330002000000   0.586289990000000 1
ion S   0.666670052000000   0.333330002000000   0.413710010000000 1
ion S   0.666670052000000   0.333330002000000   0.586289990000000 1
ion S   0.916670034000000   0.333330002000000   0.413710010000000 1
ion S   0.916670034000000   0.333330002000000   0.586289990000000 1
ion S   0.166669993000000   0.583329975000000   0.413710010000000 1
ion S   0.166669993000000   0.583329975000000   0.586289990000000 1
ion S   0.416669975000000   0.583329975000000   0.413710010000000 1
ion S   0.416669975000000   0.583329975000000   0.586289990000000 1
ion S   0.666670011000000   0.583329975000000   0.413710010000000 1
ion S   0.666670011000000   0.583329975000000   0.586289990000000 1
ion S   0.916669993000000   0.583329975000000   0.413710010000000 1
ion S   0.916669993000000   0.583329975000000   0.586289990000000 1
ion S   0.166669992000000   0.833329990000000   0.413710010000000 1
ion S   0.166669992000000   0.833329990000000   0.586289990000000 1
ion S   0.416669974000000   0.833329990000000   0.413710010000000 1
ion S   0.416669974000000   0.833329990000000   0.586289990000000 1
ion S   0.666670027000000   0.833329990000000   0.413710010000000 1
ion S   0.666670027000000   0.833329990000000   0.586289990000000 1
ion S   0.916670010000000   0.833329990000000   0.413710010000000 1
ion S   0.916670010000000   0.833329990000000   0.586289990000000 1
ion-species GBRV/$ID_pbe.uspp
ion-width Ecut
ionic-minimize  \
	dirUpdateScheme      L-BFGS \
	linminMethod         DirUpdateRecommended \
	nIterations          500 \
	history              15 \
	knormThreshold       0.0001 \
	energyDiffThreshold  1e-06 \
	nEnergyDiff          2 \
	alphaTstart          1 \
	alphaTmin            1e-10 \
	updateTestStepSize   yes \
	alphaTreduceFactor   0.1 \
	alphaTincreaseFactor 3 \
	nAlphaAdjustMax      3 \
	wolfeEnergy          0.0001 \
	wolfeGradient        0.9 \
	fdTest               no
kpoint   0.000000000000   0.000000000000   0.000000000000  1.00000000000000
kpoint-folding 4 4 1 
latt-move-scale 1 1 1
latt-scale 1.88973 1.88973 1.88973 
lattice Triclinic 13.3122 13.3122 18.1288 90 90 120
lattice-minimize  \
	dirUpdateScheme      L-BFGS \
	linminMethod         DirUpdateRecommended \
	nIterations          0 \
	history              15 \
	knormThreshold       0 \
	energyDiffThreshold  1e-06 \
	nEnergyDiff          2 \
	alphaTstart          1 \
	alphaTmin            1e-10 \
	updateTestStepSize   yes \
	alphaTreduceFactor   0.1 \
	alphaTincreaseFactor 3 \
	nAlphaAdjustMax      3 \
	wolfeEnergy          0.0001 \
	wolfeGradient        0.9 \
	fdTest               no
lcao-params -1 1e-06 0.0073499
pcm-variant CANDLE
spintype z-spin
subspace-rotation-factor 1 yes
symmetries automatic
symmetry-threshold 0.0001



---------- Setting up symmetries ----------

Found 24 point-group symmetries of the bravais lattice
Found 192 space-group symmetries with basis
Applied RMS atom displacement 6.85221e-05 bohrs to make symmetries exact.

---------- Initializing the Grid ----------
R = 
[    25.1564   -12.5782          0  ]
[          0    21.7861          0  ]
[          0          0    34.2585  ]
unit cell volume = 18775.7
G =
[   0.249765   0.144202         -0  ]
[          0   0.288404          0  ]
[          0         -0   0.183405  ]
Minimum fftbox size, Smin = [  104  104  140  ]
Chosen fftbox size, S = [  108  108  140  ]

---------- Exchange Correlation functional ----------
Initalized PBE GGA exchange.
Initalized PBE GGA correlation.

---------- Setting up pseudopotentials ----------
Width of ionic core gaussian charges (only for fluid interactions / plotting) set to 0.397384

Reading pseudopotential file '/home/guoxy/vasp/jdftx-1.5.0/build/pseudopotentials/GBRV/nb_pbe.uspp':
  Title: Nb.  Created by USPP 7.3.6 on 14-9-2013
  Reference state energy: -58.592548.  13 valence electrons in orbitals:
    |400>  occupation: 2  eigenvalue: -2.145853
    |410>  occupation: 6  eigenvalue: -1.268635
    |420>  occupation: 4  eigenvalue: -0.111734
    |500>  occupation: 1  eigenvalue: -0.146332
    |510>  occupation: 0  eigenvalue: -0.040820
  lMax: 2  lLocal: 3  QijEcut: 5
  6 projectors sampled on a log grid with 627 points:
    l: 0  eig: -2.145854  rCut: 1.8
    l: 0  eig: -0.146334  rCut: 1.8
    l: 1  eig: -1.268634  rCut: 2
    l: 1  eig: 0.150000  rCut: 2
    l: 2  eig: -0.040820  rCut: 2.2
    l: 2  eig: 0.150000  rCut: 2.2
  Partial core density with radius 1.2
  Transforming core density to a uniform radial grid of dG=0.02 with 1499 points.
  Transforming local potential to a uniform radial grid of dG=0.02 with 1499 points.
  Transforming nonlocal projectors to a uniform radial grid of dG=0.02 with 432 points.
  Transforming density augmentations to a uniform radial grid of dG=0.02 with 1499 points.
  Transforming atomic orbitals to a uniform radial grid of dG=0.02 with 432 points.
  Core radius for overlap checks: 2.20 bohrs.

Reading pseudopotential file '/home/guoxy/vasp/jdftx-1.5.0/build/pseudopotentials/GBRV/s_pbe.uspp':
  Title: S.  Created by USPP 7.3.6 on 1-4-15
  Reference state energy: -11.898476.  6 valence electrons in orbitals:
    |300>  occupation: 2  eigenvalue: -0.634167
    |310>  occupation: 4  eigenvalue: -0.257568
  lMax: 2  lLocal: 3  QijEcut: 6
  6 projectors sampled on a log grid with 635 points:
    l: 0  eig: -0.634161  rCut: 1.5
    l: 0  eig: 1.500000  rCut: 1.5
    l: 1  eig: -0.257567  rCut: 1.5
    l: 1  eig: 1.500000  rCut: 1.5
    l: 2  eig: -1.000000  rCut: 1.5
    l: 2  eig: 1.500000  rCut: 1.5
  Partial core density with radius 1.15
  Transforming core density to a uniform radial grid of dG=0.02 with 1499 points.
  Transforming local potential to a uniform radial grid of dG=0.02 with 1499 points.
  Transforming nonlocal projectors to a uniform radial grid of dG=0.02 with 432 points.
  Transforming density augmentations to a uniform radial grid of dG=0.02 with 1499 points.
  Transforming atomic orbitals to a uniform radial grid of dG=0.02 with 432 points.
  Core radius for overlap checks: 1.50 bohrs.

Initialized 2 species with 48 total atoms.

Folded 1 k-points by 4x4x1 to 16 k-points.

---------- Setting up k-points, bands, fillings ----------
Adding inversion symmetry to k-mesh for non-inversion-symmetric unit cell.
Reduced to 4 k-points under symmetry. 
Computing the number of bands and number of electrons
Calculating initial fillings.
nElectrons: 400.000000   nBands: 336   nStates: 8

----- Setting up reduced wavefunction bases (one per k-point) -----
average nbasis = 80209.688 , ideal nbasis = 80211.172

---------- Setting up coulomb interaction ----------
Fluid mode embedding: using embedded box, but periodic Coulomb kernel.
(Fluid response is responsible for (approximate) separation between periodic images.)
Setting up double-sized grid for truncated Coulomb potentials:
R = 
[    25.1564   -12.5782          0  ]
[          0    21.7861          0  ]
[          0          0    68.5169  ]
unit cell volume = 37551.4
G =
[   0.249765   0.144202         -0  ]
[          0   0.288404          0  ]
[          0         -0  0.0917027  ]
Chosen fftbox size, S = [  108  108  280  ]
Integer grid location selected as the embedding center:
   Grid: [  54  54  70  ]
   Lattice: [  0.5  0.5  0.5  ]
   Cartesian: [  6.2891  10.893  17.1292  ]
Constructing Wigner-Seitz cell: 8 faces (6 quadrilaterals, 2 hexagons)
Range-separation parameter for embedded mesh potentials due to point charges: 0.624065 bohrs.

Initializing van der Waals corrections
	NOTE: vdW corrections apply only for interactions with fluid.
	Nb:  C6:  427.91 Eh-a0^6  R0: 3.097 a0
	 S:  C6:   96.61 Eh-a0^6  R0: 3.180 a0

---------- Setting up ewald sum ----------
Optimum gaussian width for ewald sums = 7.007748 bohr.
Real space sum over 605 unit cells with max indices [  5  5  2  ]
Reciprocal space sum over 7425 terms with max indices [  7  7  16  ]

---------- Allocating electronic variables ----------
Initializing wave functions:  linear combination of atomic orbitals
Nb pseudo-atom occupations:   s ( 2 2 )  p ( 6 0 )  d ( 3 )
S pseudo-atom occupations:   s ( 2 )  p ( 4 )
	FillingsUpdate:  mu: -0.537043801  nElectrons: 400.000000  magneticMoment: [ Abs: 8.24371  Tot: +8.24371 ]
LCAOMinimize: Iter:   0  F: -1227.5784383803868423  |grad|_K:  9.140e-03  alpha:  1.000e+00
	FillingsUpdate:  mu: -0.383494364  nElectrons: 400.000000  magneticMoment: [ Abs: 7.84755  Tot: +7.83788 ]
LCAOMinimize: Iter:   1  F: -1238.9074546725455548  |grad|_K:  6.964e-03  alpha:  1.493e-01  linmin: -3.567e-01  cgtest:  7.477e-01  t[s]:    139.95
LCAOMinimize: 	Predicted alpha/alphaT>3.000000, increasing alphaT to 4.480382e-01.
	FillingsUpdate:  mu: -0.307618806  nElectrons: 400.000000  magneticMoment: [ Abs: 7.49982  Tot: +7.49044 ]
LCAOMinimize: Iter:   2  F: -1243.2070584951338788  |grad|_K:  4.645e-03  alpha:  1.040e-01  linmin: -3.875e-01  cgtest:  8.516e-01  t[s]:    195.53
LCAOMinimize: Encountered beta<0, resetting CG.
	FillingsUpdate:  mu: +0.011178820  nElectrons: 400.000000  magneticMoment: [ Abs: 6.98895  Tot: +6.98892 ]
LCAOMinimize: Iter:   3  F: -1244.3078129971656836  |grad|_K:  4.532e-03  alpha:  2.762e-01  linmin:  3.289e-01  cgtest: -6.918e-01  t[s]:    237.81
LCAOMinimize: 	Bad step direction: g.d > 0.
LCAOMinimize: 	Undoing step.
LCAOMinimize: 	Step failed: resetting search direction.
	FillingsUpdate:  mu: +0.011178820  nElectrons: 400.000000  magneticMoment: [ Abs: 6.98895  Tot: +6.98892 ]
LCAOMinimize: Iter:   4  F: -1244.3078129971656836  |grad|_K:  4.532e-03  alpha:  0.000e+00
	FillingsUpdate:  mu: -0.202139539  nElectrons: 400.000000  magneticMoment: [ Abs: 6.21886  Tot: +6.21563 ]
LCAOMinimize: Iter:   5  F: -1245.3837975994051703  |grad|_K:  4.850e-04  alpha:  1.493e-01  linmin:  3.963e-01  cgtest: -1.184e+00  t[s]:    308.50
LCAOMinimize: 	Bad step direction: g.d > 0.
LCAOMinimize: 	Undoing step.
LCAOMinimize: 	Step failed: resetting search direction.
	FillingsUpdate:  mu: -0.202139539  nElectrons: 400.000000  magneticMoment: [ Abs: 6.21886  Tot: +6.21563 ]
LCAOMinimize: Iter:   6  F: -1245.3837975994051703  |grad|_K:  4.850e-04  alpha:  0.000e+00
	FillingsUpdate:  mu: -0.183260582  nElectrons: 400.000000  magneticMoment: [ Abs: 5.87232  Tot: +5.87009 ]
LCAOMinimize: Iter:   7  F: -1245.4017252223932246  |grad|_K:  1.001e-04  alpha:  1.691e-01  linmin:  4.269e-02  cgtest: -1.793e-01  t[s]:    379.45
LCAOMinimize: 	Predicted alpha/alphaT>3.000000, increasing alphaT to 5.072656e-01.
LCAOMinimize: 	Predicted alpha/alphaT>3.000000, increasing alphaT to 1.521797e+00.
	FillingsUpdate:  mu: -0.183040793  nElectrons: 400.000000  magneticMoment: [ Abs: 2.60883  Tot: +2.15032 ]
LCAOMinimize: Iter:   8  F: -1245.4077615294927455  |grad|_K:  8.120e-05  alpha:  1.427e+00  linmin:  1.863e-02  cgtest:  2.384e-01  t[s]:    448.32
	FillingsUpdate:  mu: -0.187167878  nElectrons: 400.000000  magneticMoment: [ Abs: 2.17154  Tot: +1.60533 ]
LCAOMinimize: Iter:   9  F: -1245.4085792641651551  |grad|_K:  6.596e-05  alpha:  2.892e-01  linmin:  1.077e-02  cgtest: -2.300e-02  t[s]:    490.02
	FillingsUpdate:  mu: -0.184981356  nElectrons: 400.000000  magneticMoment: [ Abs: 1.04448  Tot: +0.50022 ]
LCAOMinimize: Iter:  10  F: -1245.4098101200859219  |grad|_K:  2.122e-05  alpha:  6.347e-01  linmin: -1.223e-02  cgtest:  1.571e-01  t[s]:    532.35
	FillingsUpdate:  mu: -0.183956664  nElectrons: 400.000000  magneticMoment: [ Abs: 0.64463  Tot: +0.38250 ]
LCAOMinimize: Iter:  11  F: -1245.4099604517375610  |grad|_K:  2.724e-05  alpha:  7.306e-01  linmin:  2.281e-03  cgtest: -7.192e-03  t[s]:    575.07
	FillingsUpdate:  mu: -0.185226514  nElectrons: 400.000000  magneticMoment: [ Abs: 0.33762  Tot: +0.28775 ]
LCAOMinimize: Iter:  12  F: -1245.4100509910874734  |grad|_K:  7.415e-06  alpha:  2.756e-01  linmin:  1.000e-02  cgtest:  4.285e-03  t[s]:    616.78
LCAOMinimize: 	Predicted alpha/alphaT>3.000000, increasing alphaT to 8.266786e-01.
	FillingsUpdate:  mu: -0.185136092  nElectrons: 400.000000  magneticMoment: [ Abs: 0.16067  Tot: +0.16049 ]
LCAOMinimize: Iter:  13  F: -1245.4100779302691535  |grad|_K:  4.530e-06  alpha:  1.092e+00  linmin: -3.030e-04  cgtest:  2.458e-02  t[s]:    672.91
	FillingsUpdate:  mu: -0.184913906  nElectrons: 400.000000  magneticMoment: [ Abs: 0.13687  Tot: +0.13676 ]
LCAOMinimize: Iter:  14  F: -1245.4100800608109694  |grad|_K:  2.891e-06  alpha:  2.278e-01  linmin: -9.349e-04  cgtest:  1.351e-03  t[s]:    716.58
LCAOMinimize: 	Predicted alpha/alphaT>3.000000, increasing alphaT to 6.833600e-01.
	FillingsUpdate:  mu: -0.185034389  nElectrons: 400.000000  magneticMoment: [ Abs: 0.02469  Tot: +0.02381 ]
LCAOMinimize: Iter:  15  F: -1245.4100845206139638  |grad|_K:  9.293e-07  alpha:  1.172e+00  linmin: -5.174e-05  cgtest: -1.112e-02  t[s]:    773.23
	FillingsUpdate:  mu: -0.185073107  nElectrons: 400.000000  magneticMoment: [ Abs: 0.01661  Tot: +0.01441 ]
LCAOMinimize: Iter:  16  F: -1245.4100847305469415  |grad|_K:  1.016e-06  alpha:  5.351e-01  linmin:  1.684e-05  cgtest: -1.494e-04  t[s]:    815.53
	FillingsUpdate:  mu: -0.185022275  nElectrons: 400.000000  magneticMoment: [ Abs: 0.01056  Tot: +0.00726 ]
LCAOMinimize: Iter:  17  F: -1245.4100848643809059  |grad|_K:  2.011e-07  alpha:  2.857e-01  linmin: -8.300e-05  cgtest:  7.611e-04  t[s]:    857.51
LCAOMinimize: Converged (|Delta F|<1.000000e-06 for 2 iters).
----- createFluidSolver() ----- (Fluid-side solver setup)
   Initializing fluid molecule 'H2O'
     Initializing site 'O'
       Electron density: proportional to exp(-r/0.36935)*erfc((r-0.51523)/0.36823) with norm 6.826
       Charge density: gaussian nuclear width 0.478731 with net site charge 0.826
       Polarizability: cuspless exponential with width 0.32 and norm 3.73
       Hard sphere radius: 2.57003 bohrs
       Positions in reference frame:
         [ +0.000000 +0.000000 +0.000000 ]
     Initializing site 'H'
       Electron density: proportional to exp(-r/0.34641)*erfc((r-0)/0.390882) with norm 0.587
       Charge density: gaussian nuclear width 0.377945 with net site charge -0.413
       Polarizability: cuspless exponential with width 0.39 and norm 3.3
       Positions in reference frame:
         [ +0.000000 -1.441945 +1.122523 ]
         [ +0.000000 +1.441945 +1.122523 ]
     Net charge: 0   dipole magnitude: 0.927204
     Initializing spherical shell mfKernel with radius 2.61727 Bohr
     deltaS corrections:
       site 'O': -7.54299
       site 'H': -6.83917
   Initializing fluid molecule 'Na+'
     Initializing site 'Na'
       Electron density: proportional to exp(-r/0.19682)*erfc((r-0.71491)/0.41314) with norm 8.1383
       Charge density: gaussian nuclear width 0.365347 with net site charge -1
       Hard sphere radius: 1.86327 bohrs
       Positions in reference frame:
         [ +0.000000 +0.000000 +0.000000 ]
     Net charge: -1   dipole magnitude: 0
     Initializing gaussian mfKernel with width: 1.55004 Bohr
     deltaS corrections:
       site 'Na': -22.3555
   Initializing fluid molecule 'F-'
     Initializing site 'F'
       Electron density: proportional to exp(-r/0.38886)*erfc((r-0)/0.438782) with norm 8
       Charge density: gaussian nuclear width 0.374796 with net site charge 1
       Hard sphere radius: 2.39995 bohrs
       Positions in reference frame:
         [ +0.000000 +0.000000 +0.000000 ]
     Net charge: 1   dipole magnitude: 0
     Initializing gaussian mfKernel with width: 1.59012 Bohr
     deltaS corrections:
       site 'F': -9.04335

Correction to mu due to finite nuclear width = -0.010569
   Cavity determined by nc: 0.00142 and sigma: 0.707107
   Nonlocal vdW cavity from gaussian model electron density with norm = 8 and sigma = 0.993594 bohr
   Charge asymmetry in cavity with sensitivity pCavity = 36.5 e-bohr/Eh
   Electrostatic cavity expanded by eta = 1.46 bohrs
   Weighted density cavitation model constrained by Nbulk: 0.0049383 bohr^-3, Pvap: 3.14029 kPa, Rvdw: 2.61727 bohr and sigmaBulk: 4.62e-05 Eh/bohr^2 at T: 298 K.
   Weighted density dispersion model using vdW pair potentials with single solvent site with sqrtC6eff: 0.77 SI.


---- Citations for features of the code used in this run ----

   Software package:
      R. Sundararaman, K. Letchworth-Weaver, K.A. Schwarz, D. Gunceler, Y. Ozhabes and T.A. Arias, 'JDFTx: software for joint density-functional theory', SoftwareX 6, 278 (2017)

   gga-PBE exchange-correlation functional:
      J.P. Perdew, K. Burke and M. Ernzerhof, Phys. Rev. Lett. 77, 3865 (1996)

   Pseudopotentials:
      KF Garrity, JW Bennett, KM Rabe and D Vanderbilt, Comput. Mater. Sci. 81, 446 (2014)

   Truncated Coulomb potentials:
      R. Sundararaman and T.A. Arias, Phys. Rev. B 87, 165122 (2013)

   Van der Waals correction pair-potentials:
      S. Grimme, J. Comput. Chem. 27, 1787 (2006)

   Charge-asymmetric nonlocally-determined local-electric (CANDLE) solvation model:
      R. Sundararaman and W.A. Goddard III, J. Chem. Phys. 142, 064107 (2015)

   Total energy minimization with Auxiliary Hamiltonian:
      C. Freysoldt, S. Boeck, and J. Neugebauer, Phys. Rev. B 79, 241103(R) (2009)

This list may not be complete. Please suggest additional citations or
report any other bugs at https://github.com/shankar1729/jdftx/issues

Initialization completed successfully at t[s]:    864.09

Fluid solver invoked on fresh (partially random / LCAO) wavefunctions
Running a vacuum solve first:

-------- Initial electronic minimization -----------
	FillingsUpdate:  mu: -0.185022275  nElectrons: 400.000000  magneticMoment: [ Abs: 0.01056  Tot: +0.00726 ]
ElecMinimize: Iter:   0  F: -1245.410084864372720  |grad|_K:  7.986e-05  alpha:  1.000e+00
	FillingsUpdate:  mu: -0.075527039  nElectrons: 400.000000  magneticMoment: [ Abs: 0.00685  Tot: +0.00566 ]
	SubspaceRotationAdjust: set factor to 0.705
ElecMinimize: Iter:   1  F: -1246.629236583216425  |grad|_K:  5.570e-05  alpha:  8.868e-01  linmin: -1.788e-05  t[s]:    954.70
	FillingsUpdate:  mu: -0.144108735  nElectrons: 400.000000  magneticMoment: [ Abs: 0.00591  Tot: +0.00523 ]
	SubspaceRotationAdjust: set factor to 0.4
ElecMinimize: Iter:   2  F: -1246.791059088519660  |grad|_K:  3.578e-05  alpha:  3.232e-01  linmin:  7.175e-04  t[s]:   1010.01
	FillingsUpdate:  mu: -0.125780761  nElectrons: 400.000000  magneticMoment: [ Abs: 0.00448  Tot: +0.00408 ]
	SubspaceRotationAdjust: set factor to 0.608
ElecMinimize: Iter:   3  F: -1246.928805085096201  |grad|_K:  1.385e-05  alpha:  5.850e-01  linmin:  2.059e-04  t[s]:   1065.27
	FillingsUpdate:  mu: -0.124150733  nElectrons: 400.000000  magneticMoment: [ Abs: 0.00395  Tot: +0.00361 ]
	SubspaceRotationAdjust: set factor to 0.656
ElecMinimize: Iter:   4  F: -1246.955347750469627  |grad|_K:  7.997e-06  alpha:  6.555e-01  linmin:  1.373e-05  t[s]:   1121.32
	FillingsUpdate:  mu: -0.127995225  nElectrons: 400.000000  magneticMoment: [ Abs: 0.00331  Tot: +0.00302 ]
	SubspaceRotationAdjust: set factor to 0.763
ElecMinimize: Iter:   5  F: -1246.965589124835105  |grad|_K:  5.308e-06  alpha:  7.439e-01  linmin:  3.497e-06  t[s]:   1177.03
	FillingsUpdate:  mu: -0.126111518  nElectrons: 400.000000  magneticMoment: [ Abs: 0.00283  Tot: +0.00257 ]
	SubspaceRotationAdjust: set factor to 0.852
ElecMinimize: Iter:   6  F: -1246.968801900794006  |grad|_K:  3.209e-06  alpha:  5.267e-01  linmin:  8.679e-07  t[s]:   1232.79
	FillingsUpdate:  mu: -0.127367614  nElectrons: 400.000000  magneticMoment: [ Abs: 0.00235  Tot: +0.00211 ]
	SubspaceRotationAdjust: set factor to 0.843
ElecMinimize: Iter:   7  F: -1246.970057959766109  |grad|_K:  1.630e-06  alpha:  5.653e-01  linmin:  8.185e-06  t[s]:   1288.41
	FillingsUpdate:  mu: -0.126267185  nElectrons: 400.000000  magneticMoment: [ Abs: 0.00198  Tot: +0.00177 ]
	SubspaceRotationAdjust: set factor to 0.73
ElecMinimize: Iter:   8  F: -1246.970359499482129  |grad|_K:  1.055e-06  alpha:  5.279e-01  linmin:  2.398e-06  t[s]:   1344.11
	FillingsUpdate:  mu: -0.127541024  nElectrons: 400.000000  magneticMoment: [ Abs: 0.00170  Tot: +0.00151 ]
	SubspaceRotationAdjust: set factor to 0.535
ElecMinimize: Iter:   9  F: -1246.970458749343834  |grad|_K:  6.458e-07  alpha:  4.127e-01  linmin:  7.004e-07  t[s]:   1399.33
	FillingsUpdate:  mu: -0.127265939  nElectrons: 400.000000  magneticMoment: [ Abs: 0.00139  Tot: +0.00123 ]
	SubspaceRotationAdjust: set factor to 0.609
ElecMinimize: Iter:  10  F: -1246.970509533674203  |grad|_K:  3.503e-07  alpha:  5.642e-01  linmin:  1.067e-06  t[s]:   1455.37
	FillingsUpdate:  mu: -0.127162991  nElectrons: 400.000000  magneticMoment: [ Abs: 0.00118  Tot: +0.00104 ]
	SubspaceRotationAdjust: set factor to 0.682
ElecMinimize: Iter:  11  F: -1246.970525612733127  |grad|_K:  2.186e-07  alpha:  6.075e-01  linmin:  5.104e-07  t[s]:   1510.79
	FillingsUpdate:  mu: -0.127265068  nElectrons: 400.000000  magneticMoment: [ Abs: 0.00101  Tot: +0.00090 ]
	SubspaceRotationAdjust: set factor to 0.752
ElecMinimize: Iter:  12  F: -1246.970530987138090  |grad|_K:  1.348e-07  alpha:  5.207e-01  linmin:  2.679e-07  t[s]:   1566.41
	FillingsUpdate:  mu: -0.127204364  nElectrons: 400.000000  magneticMoment: [ Abs: 0.00085  Tot: +0.00076 ]
	SubspaceRotationAdjust: set factor to 0.801
ElecMinimize: Iter:  13  F: -1246.970533194796644  |grad|_K:  7.887e-08  alpha:  5.627e-01  linmin:  1.820e-07  t[s]:   1622.01
	FillingsUpdate:  mu: -0.127254435  nElectrons: 400.000000  magneticMoment: [ Abs: 0.00072  Tot: +0.00064 ]
	SubspaceRotationAdjust: set factor to 0.763
ElecMinimize: Iter:  14  F: -1246.970533912176734  |grad|_K:  5.026e-08  alpha:  5.340e-01  linmin:  6.393e-08  t[s]:   1677.46
	FillingsUpdate:  mu: -0.127217153  nElectrons: 400.000000  magneticMoment: [ Abs: 0.00061  Tot: +0.00054 ]
	SubspaceRotationAdjust: set factor to 0.686
ElecMinimize: Iter:  15  F: -1246.970534166625384  |grad|_K:  2.762e-08  alpha:  4.662e-01  linmin:  7.160e-08  t[s]:   1734.58
	FillingsUpdate:  mu: -0.127229103  nElectrons: 400.000000  magneticMoment: [ Abs: 0.00049  Tot: +0.00043 ]
	SubspaceRotationAdjust: set factor to 0.695
ElecMinimize: Iter:  16  F: -1246.970534269687505  |grad|_K:  1.653e-08  alpha:  6.257e-01  linmin:  6.857e-08  t[s]:   1789.37
	FillingsUpdate:  mu: -0.127221294  nElectrons: 400.000000  magneticMoment: [ Abs: 0.00041  Tot: +0.00036 ]
	SubspaceRotationAdjust: set factor to 0.751
ElecMinimize: Iter:  17  F: -1246.970534303454542  |grad|_K:  1.175e-08  alpha:  5.721e-01  linmin:  5.412e-08  t[s]:   1844.63
	FillingsUpdate:  mu: -0.127223844  nElectrons: 400.000000  magneticMoment: [ Abs: 0.00033  Tot: +0.00029 ]
	SubspaceRotationAdjust: set factor to 0.841
ElecMinimize: Iter:  18  F: -1246.970534320013712  |grad|_K:  6.543e-09  alpha:  5.558e-01  linmin: -5.871e-08  t[s]:   1900.64
	FillingsUpdate:  mu: -0.127224042  nElectrons: 400.000000  magneticMoment: [ Abs: 0.00026  Tot: +0.00023 ]
	SubspaceRotationAdjust: set factor to 0.936
ElecMinimize: Iter:  19  F: -1246.970534326305597  |grad|_K:  4.145e-09  alpha:  6.712e-01  linmin: -4.172e-07  t[s]:   1956.57
	FillingsUpdate:  mu: -0.127224455  nElectrons: 400.000000  magneticMoment: [ Abs: 0.00020  Tot: +0.00018 ]
	SubspaceRotationAdjust: set factor to 1.01
ElecMinimize: Iter:  20  F: -1246.970534328520898  |grad|_K:  2.876e-09  alpha:  5.915e-01  linmin: -3.622e-07  t[s]:   2011.63
ElecMinimize: Converged (|Delta F|<1.000000e-08 for 2 iters).
Setting wave functions to eigenvectors of Hamiltonian
Vacuum energy after initial minimize, F = -1246.970534328520898

	Linear fluid (dielectric constant: 78.4, screening length: 5.74355 Bohr) occupying 0.757201 of unit cell:	Completed after 14 iterations at t[s]:   2026.51

-------- Electronic minimization -----------
	Linear fluid (dielectric constant: 78.4, screening length: 5.74355 Bohr) occupying 0.757201 of unit cell:	Completed after 0 iterations at t[s]:   2044.14
	FillingsUpdate:  mu: -0.215691013  nElectrons: 400.000000  magneticMoment: [ Abs: 0.00016  Tot: +0.00014 ]
ElecMinimize: Iter:   0  F: -1246.955985505475610  |grad|_K:  6.995e-07  alpha:  1.000e+00
	Linear fluid (dielectric constant: 78.4, screening length: 5.74355 Bohr) occupying 0.757615 of unit cell:	Completed after 9 iterations at t[s]:   2088.77
	Linear fluid (dielectric constant: 78.4, screening length: 5.74355 Bohr) occupying 0.757558 of unit cell:	Completed after 2 iterations at t[s]:   2111.16
	FillingsUpdate:  mu: -0.214154427  nElectrons: 400.000000  magneticMoment: [ Abs: 0.00013  Tot: +0.00011 ]
	SubspaceRotationAdjust: set factor to 0.668
ElecMinimize: Iter:   1  F: -1246.956076025120410  |grad|_K:  4.838e-07  alpha:  8.588e-01  linmin:  4.824e-09  t[s]:   2137.29
	Linear fluid (dielectric constant: 78.4, screening length: 5.74355 Bohr) occupying 0.757730 of unit cell:	Completed after 8 iterations at t[s]:   2155.05
	Linear fluid (dielectric constant: 78.4, screening length: 5.74355 Bohr) occupying 0.757604 of unit cell:	Completed after 7 iterations at t[s]:   2178.23
	FillingsUpdate:  mu: -0.214740848  nElectrons: 400.000000  magneticMoment: [ Abs: 0.00012  Tot: +0.00010 ]
	SubspaceRotationAdjust: set factor to 0.354
ElecMinimize: Iter:   2  F: -1246.956087226373029  |grad|_K:  1.871e-07  alpha:  2.253e-01  linmin:  6.518e-07  t[s]:   2205.54
	Linear fluid (dielectric constant: 78.4, screening length: 5.74355 Bohr) occupying 0.757614 of unit cell:	Completed after 1 iterations at t[s]:   2222.19
ElecMinimize: 	Predicted alpha/alphaT>3.000000, increasing alphaT to 6.759871e-01.
	Linear fluid (dielectric constant: 78.4, screening length: 5.74355 Bohr) occupying 0.757635 of unit cell:	Completed after 2 iterations at t[s]:   2242.91
	Linear fluid (dielectric constant: 78.4, screening length: 5.74355 Bohr) occupying 0.757641 of unit cell:	Completed after 0 iterations at t[s]:   2263.41
	FillingsUpdate:  mu: -0.214779009  nElectrons: 400.000000  magneticMoment: [ Abs: 0.00010  Tot: +0.00008 ]
	SubspaceRotationAdjust: set factor to 0.506
ElecMinimize: Iter:   3  F: -1246.956093247201807  |grad|_K:  1.026e-07  alpha:  7.886e-01  linmin: -1.440e-05  t[s]:   2288.62
	Linear fluid (dielectric constant: 78.4, screening length: 5.74355 Bohr) occupying 0.757656 of unit cell:	Completed after 2 iterations at t[s]:   2305.13
	Linear fluid (dielectric constant: 78.4, screening length: 5.74355 Bohr) occupying 0.757657 of unit cell:	Completed after 0 iterations at t[s]:   2325.54
	FillingsUpdate:  mu: -0.214721387  nElectrons: 400.000000  magneticMoment: [ Abs: 0.00008  Tot: +0.00007 ]
	SubspaceRotationAdjust: set factor to 0.547
ElecMinimize: Iter:   4  F: -1246.956095281872649  |grad|_K:  6.798e-08  alpha:  8.309e-01  linmin: -2.946e-05  t[s]:   2351.23
	Linear fluid (dielectric constant: 78.4, screening length: 5.74355 Bohr) occupying 0.757660 of unit cell:	Completed after 2 iterations at t[s]:   2367.34
	Linear fluid (dielectric constant: 78.4, screening length: 5.74355 Bohr) occupying 0.757659 of unit cell:	Completed after 0 iterations at t[s]:   2387.80
	FillingsUpdate:  mu: -0.214685592  nElectrons: 400.000000  magneticMoment: [ Abs: 0.00007  Tot: +0.00006 ]
	SubspaceRotationAdjust: set factor to 0.76
ElecMinimize: Iter:   5  F: -1246.956096079775534  |grad|_K:  3.639e-08  alpha:  7.828e-01  linmin: -1.315e-06  t[s]:   2413.54
	Linear fluid (dielectric constant: 78.4, screening length: 5.74355 Bohr) occupying 0.757655 of unit cell:	Completed after 0 iterations at t[s]:   2429.77
	Linear fluid (dielectric constant: 78.4, screening length: 5.74355 Bohr) occupying 0.757655 of unit cell:	Completed after 0 iterations at t[s]:   2449.42
	FillingsUpdate:  mu: -0.214683766  nElectrons: 400.000000  magneticMoment: [ Abs: 0.00006  Tot: +0.00005 ]
	SubspaceRotationAdjust: set factor to 0.973
ElecMinimize: Iter:   6  F: -1246.956096296661372  |grad|_K:  2.714e-08  alpha:  7.517e-01  linmin:  4.105e-08  t[s]:   2474.89
	Linear fluid (dielectric constant: 78.4, screening length: 5.74355 Bohr) occupying 0.757649 of unit cell:	Completed after 2 iterations at t[s]:   2491.49
	Linear fluid (dielectric constant: 78.4, screening length: 5.74355 Bohr) occupying 0.757653 of unit cell:	Completed after 0 iterations at t[s]:   2511.70
ElecMinimize: 	Step increased F by 5.036327e-10, reducing alpha to 1.743537e-02.
	Linear fluid (dielectric constant: 78.4, screening length: 5.74355 Bohr) occupying 0.757655 of unit cell:	Completed after 2 iterations at t[s]:   2551.07
ElecMinimize: 	Step increased F by 6.616688e-08, reducing alpha to 1.743537e-03.
	Linear fluid (dielectric constant: 78.4, screening length: 5.74355 Bohr) occupying 0.757655 of unit cell:	Completed after 0 iterations at t[s]:   2589.83
ElecMinimize: 	Step increased F by 6.757023e-08, reducing alpha to 1.743537e-04.
ElecMinimize: 	Step failed to reduce F after 3 attempts. Quitting step.
ElecMinimize: 	Undoing step.
	Linear fluid (dielectric constant: 78.4, screening length: 5.74355 Bohr) occupying 0.757655 of unit cell:	Completed after 0 iterations at t[s]:   2628.33
ElecMinimize: 	Step failed: resetting search direction.
	FillingsUpdate:  mu: -0.214709392  nElectrons: 400.000000  magneticMoment: [ Abs: 0.00006  Tot: +0.00005 ]
	SubspaceRotationAdjust: set factor to 0.864
ElecMinimize: Iter:   7  F: -1246.956096229041577  |grad|_K:  3.322e-08  alpha:  1.744e-04
	Linear fluid (dielectric constant: 78.4, screening length: 5.74355 Bohr) occupying 0.757652 of unit cell:	Completed after 1 iterations at t[s]:   2669.72
	Linear fluid (dielectric constant: 78.4, screening length: 5.74355 Bohr) occupying 0.757654 of unit cell:	Completed after 0 iterations at t[s]:   2689.99
	FillingsUpdate:  mu: -0.214644297  nElectrons: 400.000000  magneticMoment: [ Abs: 0.00005  Tot: +0.00005 ]
	SubspaceRotationAdjust: set factor to 0.5
ElecMinimize: Iter:   8  F: -1246.956096368871158  |grad|_K:  4.994e-08  alpha:  3.036e-01  linmin:  9.468e-05  t[s]:   2716.82
	Linear fluid (dielectric constant: 78.4, screening length: 5.74355 Bohr) occupying 0.757649 of unit cell:	Completed after 0 iterations at t[s]:   2732.40
	Linear fluid (dielectric constant: 78.4, screening length: 5.74355 Bohr) occupying 0.757652 of unit cell:	Completed after 0 iterations at t[s]:   2752.44
	FillingsUpdate:  mu: -0.214644460  nElectrons: 400.000000  magneticMoment: [ Abs: 0.00005  Tot: +0.00004 ]
	SubspaceRotationAdjust: set factor to 0.35
ElecMinimize: Iter:   9  F: -1246.956096383492650  |grad|_K:  4.115e-08  alpha:  8.750e-02  linmin: -3.325e-10  t[s]:   2777.91
	Linear fluid (dielectric constant: 78.4, screening length: 5.74355 Bohr) occupying 0.757651 of unit cell:	Completed after 2 iterations at t[s]:   2794.22
	Linear fluid (dielectric constant: 78.4, screening length: 5.74355 Bohr) occupying 0.757652 of unit cell:	Completed after 0 iterations at t[s]:   2814.81
ElecMinimize: 	Step increased F by 6.968776e-08, reducing alpha to 2.043909e-03.
	Linear fluid (dielectric constant: 78.4, screening length: 5.74355 Bohr) occupying 0.757652 of unit cell:	Completed after 0 iterations at t[s]:   2853.05
ElecMinimize: 	Step increased F by 6.985647e-08, reducing alpha to 2.043909e-04.
	Linear fluid (dielectric constant: 78.4, screening length: 5.74355 Bohr) occupying 0.757652 of unit cell:	Completed after 0 iterations at t[s]:   2891.43
ElecMinimize: 	Step increased F by 6.983669e-08, reducing alpha to 2.043909e-05.
ElecMinimize: 	Step failed to reduce F after 3 attempts. Quitting step.
ElecMinimize: 	Undoing step.
	Linear fluid (dielectric constant: 78.4, screening length: 5.74355 Bohr) occupying 0.757652 of unit cell:	Completed after 0 iterations at t[s]:   2929.76
ElecMinimize: 	Step failed: resetting search direction.
	FillingsUpdate:  mu: -0.214688760  nElectrons: 400.000000  magneticMoment: [ Abs: 0.00005  Tot: +0.00004 ]
	SubspaceRotationAdjust: set factor to 0.328
ElecMinimize: Iter:  10  F: -1246.956096313632770  |grad|_K:  1.786e-08  alpha:  2.044e-05
	Linear fluid (dielectric constant: 78.4, screening length: 5.74355 Bohr) occupying 0.757652 of unit cell:	Completed after 0 iterations at t[s]:   2970.46
ElecMinimize: 	Predicted alpha/alphaT>3.000000, increasing alphaT to 2.625006e-01.
	Linear fluid (dielectric constant: 78.4, screening length: 5.74355 Bohr) occupying 0.757652 of unit cell:	Completed after 0 iterations at t[s]:   2989.71
	Linear fluid (dielectric constant: 78.4, screening length: 5.74355 Bohr) occupying 0.757651 of unit cell:	Completed after 0 iterations at t[s]:   3009.51
	FillingsUpdate:  mu: -0.214688629  nElectrons: 400.000000  magneticMoment: [ Abs: 0.00005  Tot: +0.00004 ]
	SubspaceRotationAdjust: set factor to 0.353
ElecMinimize: Iter:  11  F: -1246.956096340345084  |grad|_K:  9.999e-09  alpha:  3.866e-01  linmin: -8.189e-07  t[s]:   3035.10
	Linear fluid (dielectric constant: 78.4, screening length: 5.74355 Bohr) occupying 0.757650 of unit cell:	Completed after 0 iterations at t[s]:   3051.09
	Linear fluid (dielectric constant: 78.4, screening length: 5.74355 Bohr) occupying 0.757649 of unit cell:	Completed after 0 iterations at t[s]:   3070.89
	FillingsUpdate:  mu: -0.214688505  nElectrons: 400.000000  magneticMoment: [ Abs: 0.00004  Tot: +0.00004 ]
	SubspaceRotationAdjust: set factor to 0.389
ElecMinimize: Iter:  12  F: -1246.956096361524033  |grad|_K:  6.526e-09  alpha:  9.782e-01  linmin:  2.157e-07  t[s]:   3095.89
	Linear fluid (dielectric constant: 78.4, screening length: 5.74355 Bohr) occupying 0.757647 of unit cell:	Completed after 0 iterations at t[s]:   3112.17
	Linear fluid (dielectric constant: 78.4, screening length: 5.74355 Bohr) occupying 0.757647 of unit cell:	Completed after 0 iterations at t[s]:   3131.88
	FillingsUpdate:  mu: -0.214688752  nElectrons: 400.000000  magneticMoment: [ Abs: 0.00004  Tot: +0.00003 ]
	SubspaceRotationAdjust: set factor to 0.492
ElecMinimize: Iter:  13  F: -1246.956096368233602  |grad|_K:  2.962e-09  alpha:  7.375e-01  linmin: -1.239e-07  t[s]:   3157.27
	Linear fluid (dielectric constant: 78.4, screening length: 5.74355 Bohr) occupying 0.757647 of unit cell:	Completed after 0 iterations at t[s]:   3173.55
	Linear fluid (dielectric constant: 78.4, screening length: 5.74355 Bohr) occupying 0.757647 of unit cell:	Completed after 0 iterations at t[s]:   3193.94
	FillingsUpdate:  mu: -0.214688833  nElectrons: 400.000000  magneticMoment: [ Abs: 0.00004  Tot: +0.00003 ]
	SubspaceRotationAdjust: set factor to 0.592
ElecMinimize: Iter:  14  F: -1246.956096369536226  |grad|_K:  2.438e-09  alpha:  7.169e-01  linmin:  8.313e-07  t[s]:   3218.83
ElecMinimize: Converged (|Delta F|<1.000000e-08 for 2 iters).
Setting wave functions to eigenvectors of Hamiltonian
Single-point solvation energy estimate, DeltaF = +0.014437958984672

# Ionic positions in lattice coordinates:
ion Nb   0.000002222868056  -0.000002229472222   0.500000000000000 1
ion Nb   0.250002222868056  -0.000002229472222   0.500000000000000 1
ion Nb   0.500002222868056  -0.000002229472222   0.500000000000000 1
ion Nb   0.750002222868056  -0.000002229472222   0.500000000000000 1
ion Nb   0.000002222868056   0.249997770527778   0.500000000000000 1
ion Nb   0.250002222868056   0.249997770527778   0.500000000000000 1
ion Nb   0.500002222868056   0.249997770527778   0.500000000000000 1
ion Nb   0.750002222868056   0.249997770527778   0.500000000000000 1
ion Nb   0.000002222868056   0.499997770527778   0.500000000000000 1
ion Nb   0.250002222868056   0.499997770527778   0.500000000000000 1
ion Nb   0.500002222868056   0.499997770527778   0.500000000000000 1
ion Nb   0.750002222868056   0.499997770527778   0.500000000000000 1
ion Nb   0.000002222868056   0.749997770527778   0.500000000000000 1
ion Nb   0.250002222868056   0.749997770527778   0.500000000000000 1
ion Nb   0.500002222868056   0.749997770527778   0.500000000000000 1
ion Nb   0.750002222868056   0.749997770527778   0.500000000000000 1
ion S   0.166668889534722   0.083331103861111   0.413710010000000 1
ion S   0.166668889534722   0.083331103861111   0.586289990000000 1
ion S   0.416668889534722   0.083331103861111   0.413710010000000 1
ion S   0.416668889534722   0.083331103861111   0.586289990000000 1
ion S   0.666668889534722   0.083331103861111   0.413710010000000 1
ion S   0.666668889534722   0.083331103861111   0.586289990000000 1
ion S   0.916668889534722   0.083331103861111   0.413710010000000 1
ion S   0.916668889534722   0.083331103861111   0.586289990000000 1
ion S   0.166668889534722   0.333331103861111   0.413710010000000 1
ion S   0.166668889534722   0.333331103861111   0.586289990000000 1
ion S   0.416668889534722   0.333331103861111   0.413710010000000 1
ion S   0.416668889534722   0.333331103861111   0.586289990000000 1
ion S   0.666668889534722   0.333331103861111   0.413710010000000 1
ion S   0.666668889534722   0.333331103861111   0.586289990000000 1
ion S   0.916668889534722   0.333331103861111   0.413710010000000 1
ion S   0.916668889534722   0.333331103861111   0.586289990000000 1
ion S   0.166668889534722   0.583331103861111   0.413710010000000 1
ion S   0.166668889534722   0.583331103861111   0.586289990000000 1
ion S   0.416668889534722   0.583331103861111   0.413710010000000 1
ion S   0.416668889534722   0.583331103861111   0.586289990000000 1
ion S   0.666668889534722   0.583331103861111   0.413710010000000 1
ion S   0.666668889534722   0.583331103861111   0.586289990000000 1
ion S   0.916668889534722   0.583331103861111   0.413710010000000 1
ion S   0.916668889534722   0.583331103861111   0.586289990000000 1
ion S   0.166668889534722   0.833331103861111   0.413710010000000 1
ion S   0.166668889534722   0.833331103861111   0.586289990000000 1
ion S   0.416668889534722   0.833331103861111   0.413710010000000 1
ion S   0.416668889534722   0.833331103861111   0.586289990000000 1
ion S   0.666668889534722   0.833331103861111   0.413710010000000 1
ion S   0.666668889534722   0.833331103861111   0.586289990000000 1
ion S   0.916668889534722   0.833331103861111   0.413710010000000 1
ion S   0.916668889534722   0.833331103861111   0.586289990000000 1


# Forces in Lattice coordinates:
force Nb  -0.000000000000000   0.000000000000000   0.000000000000000 1
force Nb  -0.000000000000000   0.000000000000000   0.000000000000000 1
force Nb   0.000000000000000  -0.000000000000000  -0.000000000000000 1
force Nb  -0.000000000000000   0.000000000000000   0.000000000000000 1
force Nb   0.000000000000000   0.000000000000000   0.000000000000000 1
force Nb   0.000000000000000   0.000000000000000   0.000000000000000 1
force Nb   0.000000000000000   0.000000000000000   0.000000000000000 1
force Nb   0.000000000000000   0.000000000000000   0.000000000000000 1
force Nb   0.000000000000000   0.000000000000000  -0.000000000000000 1
force Nb  -0.000000000000000   0.000000000000000  -0.000000000000000 1
force Nb  -0.000000000000000   0.000000000000000  -0.000000000000000 1
force Nb  -0.000000000000000  -0.000000000000000   0.000000000000000 1
force Nb  -0.000000000000000   0.000000000000000   0.000000000000000 1
force Nb   0.000000000000000   0.000000000000000  -0.000000000000000 1
force Nb  -0.000000000000000   0.000000000000000  -0.000000000000000 1
force Nb   0.000000000000000   0.000000000000000   0.000000000000000 1
force S  -0.000000000000000   0.000000000000000  -0.036511356263895 1
force S   0.000000000000000  -0.000000000000000   0.036511356263668 1
force S  -0.000000000000000  -0.000000000000000  -0.036511356263781 1
force S   0.000000000000000  -0.000000000000000   0.036511356263781 1
force S   0.000000000000000   0.000000000000000  -0.036511356263668 1
force S   0.000000000000000   0.000000000000000   0.036511356263667 1
force S  -0.000000000000000   0.000000000000000  -0.036511356263782 1
force S   0.000000000000000  -0.000000000000000   0.036511356263781 1
force S   0.000000000000000   0.000000000000000  -0.036511356263781 1
force S  -0.000000000000000   0.000000000000000   0.036511356263780 1
force S   0.000000000000000   0.000000000000000  -0.036511356263780 1
force S  -0.000000000000000  -0.000000000000000   0.036511356263780 1
force S   0.000000000000000   0.000000000000000  -0.036511356263780 1
force S   0.000000000000000  -0.000000000000000   0.036511356263780 1
force S   0.000000000000000   0.000000000000000  -0.036511356263782 1
force S  -0.000000000000000  -0.000000000000000   0.036511356263894 1
force S   0.000000000000000   0.000000000000000  -0.036511356263780 1
force S   0.000000000000000  -0.000000000000000   0.036511356263780 1
force S  -0.000000000000000   0.000000000000000  -0.036511356263780 1
force S   0.000000000000000  -0.000000000000000   0.036511356263780 1
force S   0.000000000000000  -0.000000000000000  -0.036511356263894 1
force S  -0.000000000000000  -0.000000000000000   0.036511356263780 1
force S  -0.000000000000000   0.000000000000000  -0.036511356263781 1
force S  -0.000000000000000  -0.000000000000000   0.036511356263780 1
force S   0.000000000000000   0.000000000000000  -0.036511356263780 1
force S   0.000000000000000  -0.000000000000000   0.036511356263781 1
force S  -0.000000000000000   0.000000000000000  -0.036511356263780 1
force S   0.000000000000000  -0.000000000000000   0.036511356263781 1
force S  -0.000000000000000   0.000000000000000  -0.036511356263667 1
force S  -0.000000000000000   0.000000000000000   0.036511356263781 1
force S  -0.000000000000000   0.000000000000000  -0.036511356263781 1
force S   0.000000000000000  -0.000000000000000   0.036511356263781 1

# Energy components:
   A_diel =        0.0143280597023138
   Eewald =     7280.1978413218766946
       EH =     8303.0282850140174560
     Eloc =   -17189.7146531484031584
      Enl =      215.7680512065421965
      Exc =     -282.5595300059389388
 Exc_core =       83.9782287809378118
       KE =      342.4259067039382671
-------------------------------------
     Etot =    -1246.8615420673277185
       TS =        0.0945543022084889
-------------------------------------
        F =    -1246.9560963695362261

IonicMinimize: Iter:   0  F: -1246.956096369536226  |grad|_K:  5.024e-04  t[s]:   3233.52

#--- Lowdin population analysis ---
# oxidation-state Nb -0.380 -0.380 -0.380 -0.380 -0.380 -0.380 -0.380 -0.380 -0.380 -0.380 -0.380 -0.380 -0.380 -0.380 -0.380 -0.380
# magnetic-moments Nb +0.000 +0.000 +0.000 +0.000 +0.000 +0.000 +0.000 +0.000 +0.000 +0.000 +0.000 +0.000 +0.000 +0.000 +0.000 +0.000
# oxidation-state S +0.245 +0.245 +0.245 +0.245 +0.245 +0.245 +0.245 +0.245 +0.245 +0.245 +0.245 +0.245 +0.245 +0.245 +0.245 +0.245 +0.245 +0.245 +0.245 +0.245 +0.245 +0.245 +0.245 +0.245 +0.245 +0.245 +0.245 +0.245 +0.245 +0.245 +0.245 +0.245
# magnetic-moments S +0.000 +0.000 +0.000 +0.000 +0.000 +0.000 +0.000 +0.000 +0.000 +0.000 +0.000 +0.000 +0.000 +0.000 +0.000 +0.000 +0.000 +0.000 +0.000 +0.000 +0.000 +0.000 +0.000 +0.000 +0.000 +0.000 +0.000 +0.000 +0.000 +0.000 +0.000 +0.000

	Linear fluid (dielectric constant: 78.4, screening length: 5.74355 Bohr) occupying 0.757608 of unit cell:	Completed after 3 iterations at t[s]:   3251.11

-------- Electronic minimization -----------
	Linear fluid (dielectric constant: 78.4, screening length: 5.74355 Bohr) occupying 0.757608 of unit cell:	Completed after 0 iterations at t[s]:   3268.01
	FillingsUpdate:  mu: -0.214544400  nElectrons: 400.000000  magneticMoment: [ Abs: 0.00003  Tot: +0.00002 ]
ElecMinimize: Iter:   0  F: -1246.956122807266865  |grad|_K:  1.971e-07  alpha:  1.000e+00
	Linear fluid (dielectric constant: 78.4, screening length: 5.74355 Bohr) occupying 0.757609 of unit cell:	Completed after 5 iterations at t[s]:   3312.86
	Linear fluid (dielectric constant: 78.4, screening length: 5.74355 Bohr) occupying 0.757609 of unit cell:	Completed after 2 iterations at t[s]:   3334.07
	FillingsUpdate:  mu: -0.214896509  nElectrons: 400.000000  magneticMoment: [ Abs: 0.00002  Tot: +0.00002 ]
	SubspaceRotationAdjust: set factor to 0.426
ElecMinimize: Iter:   1  F: -1246.956127335849942  |grad|_K:  1.416e-07  alpha:  5.181e-01  linmin:  1.107e-04  t[s]:   3360.37
	Linear fluid (dielectric constant: 78.4, screening length: 5.74355 Bohr) occupying 0.757616 of unit cell:	Completed after 2 iterations at t[s]:   3376.53
	Linear fluid (dielectric constant: 78.4, screening length: 5.74355 Bohr) occupying 0.757617 of unit cell:	Completed after 0 iterations at t[s]:   3396.75
	FillingsUpdate:  mu: -0.214768901  nElectrons: 400.000000  magneticMoment: [ Abs: 0.00002  Tot: +0.00002 ]
	SubspaceRotationAdjust: set factor to 0.901
ElecMinimize: Iter:   2  F: -1246.956130127273127  |grad|_K:  5.425e-08  alpha:  6.401e-01  linmin: -3.345e-04  t[s]:   3422.22
	Linear fluid (dielectric constant: 78.4, screening length: 5.74355 Bohr) occupying 0.757621 of unit cell:	Completed after 1 iterations at t[s]:   3438.60
	Linear fluid (dielectric constant: 78.4, screening length: 5.74355 Bohr) occupying 0.757620 of unit cell:	Completed after 0 iterations at t[s]:   3459.46
	FillingsUpdate:  mu: -0.214660965  nElectrons: 400.000000  magneticMoment: [ Abs: 0.00002  Tot: +0.00002 ]
	SubspaceRotationAdjust: set factor to 0.574
ElecMinimize: Iter:   3  F: -1246.956130408761737  |grad|_K:  5.451e-08  alpha:  4.714e-01  linmin: -3.389e-05  t[s]:   3484.88
	Linear fluid (dielectric constant: 78.4, screening length: 5.74355 Bohr) occupying 0.757622 of unit cell:	Completed after 1 iterations at t[s]:   3501.15
	Linear fluid (dielectric constant: 78.4, screening length: 5.74355 Bohr) occupying 0.757621 of unit cell:	Completed after 2 iterations at t[s]:   3521.34
	FillingsUpdate:  mu: -0.214699210  nElectrons: 400.000000  magneticMoment: [ Abs: 0.00002  Tot: +0.00002 ]
	SubspaceRotationAdjust: set factor to 0.416
ElecMinimize: Iter:   4  F: -1246.956130510482126  |grad|_K:  2.450e-08  alpha:  2.216e-01  linmin:  7.601e-06  t[s]:   3547.19
	Linear fluid (dielectric constant: 78.4, screening length: 5.74355 Bohr) occupying 0.757621 of unit cell:	Completed after 0 iterations at t[s]:   3562.97
	Linear fluid (dielectric constant: 78.4, screening length: 5.74355 Bohr) occupying 0.757621 of unit cell:	Completed after 0 iterations at t[s]:   3583.10
	FillingsUpdate:  mu: -0.214698832  nElectrons: 400.000000  magneticMoment: [ Abs: 0.00002  Tot: +0.00001 ]
	SubspaceRotationAdjust: set factor to 0.613
ElecMinimize: Iter:   5  F: -1246.956130589066788  |grad|_K:  1.132e-08  alpha:  6.223e-01  linmin:  5.071e-08  t[s]:   3608.31
	Linear fluid (dielectric constant: 78.4, screening length: 5.74355 Bohr) occupying 0.757621 of unit cell:	Completed after 2 iterations at t[s]:   3624.77
	Linear fluid (dielectric constant: 78.4, screening length: 5.74355 Bohr) occupying 0.757621 of unit cell:	Completed after 0 iterations at t[s]:   3645.36
ElecMinimize: 	Step increased F by 2.630691e-08, reducing alpha to 1.295218e-02.
	Linear fluid (dielectric constant: 78.4, screening length: 5.74355 Bohr) occupying 0.757621 of unit cell:	Completed after 0 iterations at t[s]:   3683.43
ElecMinimize: 	Step increased F by 2.338766e-08, reducing alpha to 1.295218e-03.
	Linear fluid (dielectric constant: 78.4, screening length: 5.74355 Bohr) occupying 0.757621 of unit cell:	Completed after 0 iterations at t[s]:   3721.53
ElecMinimize: 	Step increased F by 2.317893e-08, reducing alpha to 1.295218e-04.
ElecMinimize: 	Step failed to reduce F after 3 attempts. Quitting step.
ElecMinimize: 	Undoing step.
	Linear fluid (dielectric constant: 78.4, screening length: 5.74355 Bohr) occupying 0.757621 of unit cell:	Completed after 0 iterations at t[s]:   3759.86
ElecMinimize: 	Step failed: resetting search direction.
	FillingsUpdate:  mu: -0.214681211  nElectrons: 400.000000  magneticMoment: [ Abs: 0.00002  Tot: +0.00001 ]
	SubspaceRotationAdjust: set factor to 0.523
ElecMinimize: Iter:   6  F: -1246.956130565841931  |grad|_K:  1.539e-08  alpha:  1.295e-04
	Linear fluid (dielectric constant: 78.4, screening length: 5.74355 Bohr) occupying 0.757621 of unit cell:	Completed after 0 iterations at t[s]:   3801.25
	Linear fluid (dielectric constant: 78.4, screening length: 5.74355 Bohr) occupying 0.757620 of unit cell:	Completed after 0 iterations at t[s]:   3821.05
	FillingsUpdate:  mu: -0.214681028  nElectrons: 400.000000  magneticMoment: [ Abs: 0.00001  Tot: +0.00001 ]
	SubspaceRotationAdjust: set factor to 0.837
ElecMinimize: Iter:   7  F: -1246.956130603102110  |grad|_K:  9.474e-09  alpha:  7.280e-01  linmin: -1.057e-07  t[s]:   3846.35
	Linear fluid (dielectric constant: 78.4, screening length: 5.74355 Bohr) occupying 0.757620 of unit cell:	Completed after 2 iterations at t[s]:   3862.76
	Linear fluid (dielectric constant: 78.4, screening length: 5.74355 Bohr) occupying 0.757620 of unit cell:	Completed after 0 iterations at t[s]:   3883.29
ElecMinimize: 	Step increased F by 7.831386e-08, reducing alpha to 5.290598e-03.
	Linear fluid (dielectric constant: 78.4, screening length: 5.74355 Bohr) occupying 0.757620 of unit cell:	Completed after 0 iterations at t[s]:   3921.81
ElecMinimize: 	Step increased F by 7.232074e-08, reducing alpha to 5.290598e-04.
	Linear fluid (dielectric constant: 78.4, screening length: 5.74355 Bohr) occupying 0.757620 of unit cell:	Completed after 0 iterations at t[s]:   3960.75
ElecMinimize: 	Step increased F by 7.167000e-08, reducing alpha to 5.290598e-05.
ElecMinimize: 	Step failed to reduce F after 3 attempts. Quitting step.
ElecMinimize: 	Undoing step.
	Linear fluid (dielectric constant: 78.4, screening length: 5.74355 Bohr) occupying 0.757620 of unit cell:	Completed after 0 iterations at t[s]:   3999.52
ElecMinimize: 	Step failed: resetting search direction.
	FillingsUpdate:  mu: -0.214731710  nElectrons: 400.000000  magneticMoment: [ Abs: 0.00001  Tot: +0.00001 ]
	SubspaceRotationAdjust: set factor to 0.561
ElecMinimize: Iter:   8  F: -1246.956130531355939  |grad|_K:  4.716e-08  alpha:  5.291e-05
	Linear fluid (dielectric constant: 78.4, screening length: 5.74355 Bohr) occupying 0.757622 of unit cell:	Completed after 2 iterations at t[s]:   4041.18
	Linear fluid (dielectric constant: 78.4, screening length: 5.74355 Bohr) occupying 0.757621 of unit cell:	Completed after 1 iterations at t[s]:   4062.20
	FillingsUpdate:  mu: -0.214661257  nElectrons: 400.000000  magneticMoment: [ Abs: 0.00001  Tot: +0.00001 ]
	SubspaceRotationAdjust: set factor to 0.22
ElecMinimize: Iter:   9  F: -1246.956130578217198  |grad|_K:  1.522e-08  alpha:  1.731e-01  linmin:  3.656e-04  t[s]:   4087.62
	Linear fluid (dielectric constant: 78.4, screening length: 5.74355 Bohr) occupying 0.757620 of unit cell:	Completed after 0 iterations at t[s]:   4103.81
ElecMinimize: 	Predicted alpha/alphaT>3.000000, increasing alphaT to 5.191631e-01.
	Linear fluid (dielectric constant: 78.4, screening length: 5.74355 Bohr) occupying 0.757620 of unit cell:	Completed after 0 iterations at t[s]:   4123.62
ElecMinimize: 	Predicted alpha/alphaT>3.000000, increasing alphaT to 1.557489e+00.
	Linear fluid (dielectric constant: 78.4, screening length: 5.74355 Bohr) occupying 0.757619 of unit cell:	Completed after 3 iterations at t[s]:   4143.90
	Linear fluid (dielectric constant: 78.4, screening length: 5.74355 Bohr) occupying 0.757620 of unit cell:	Completed after 0 iterations at t[s]:   4164.65
	FillingsUpdate:  mu: -0.214734034  nElectrons: 400.000000  magneticMoment: [ Abs: 0.00001  Tot: +0.00001 ]
	SubspaceRotationAdjust: set factor to 0.123
ElecMinimize: Iter:  10  F: -1246.956130638453487  |grad|_K:  2.187e-08  alpha:  3.731e-01  linmin:  1.468e-04  t[s]:   4189.81
ElecMinimize: 	Bad step direction: g.d > 0.
ElecMinimize: 	Undoing step.
	Linear fluid (dielectric constant: 78.4, screening length: 5.74355 Bohr) occupying 0.757620 of unit cell:	Completed after 0 iterations at t[s]:   4205.90
ElecMinimize: 	Step failed: resetting search direction.
	FillingsUpdate:  mu: -0.214734034  nElectrons: 400.000000  magneticMoment: [ Abs: 0.00001  Tot: +0.00001 ]
	SubspaceRotationAdjust: set factor to 0.141
ElecMinimize: Iter:  11  F: -1246.956130638461673  |grad|_K:  1.885e-08  alpha:  0.000e+00
	Linear fluid (dielectric constant: 78.4, screening length: 5.74355 Bohr) occupying 0.757620 of unit cell:	Completed after 2 iterations at t[s]:   4247.50
	Linear fluid (dielectric constant: 78.4, screening length: 5.74355 Bohr) occupying 0.757620 of unit cell:	Completed after 0 iterations at t[s]:   4268.06
ElecMinimize: 	Step increased F by 6.299570e-08, reducing alpha to 7.969029e-03.
	Linear fluid (dielectric constant: 78.4, screening length: 5.74355 Bohr) occupying 0.757620 of unit cell:	Completed after 0 iterations at t[s]:   4306.74
ElecMinimize: 	Step increased F by 6.036885e-08, reducing alpha to 7.969029e-04.
	Linear fluid (dielectric constant: 78.4, screening length: 5.74355 Bohr) occupying 0.757620 of unit cell:	Completed after 0 iterations at t[s]:   4345.43
ElecMinimize: 	Step increased F by 6.019354e-08, reducing alpha to 7.969029e-05.
ElecMinimize: 	Step failed to reduce F after 3 attempts. Quitting step.
ElecMinimize: 	Undoing step.
	Linear fluid (dielectric constant: 78.4, screening length: 5.74355 Bohr) occupying 0.757620 of unit cell:	Completed after 0 iterations at t[s]:   4383.33
ElecMinimize: 	Step failed along negative gradient direction.
ElecMinimize: Probably at roundoff error limit. (Stopping)
Setting wave functions to eigenvectors of Hamiltonian

# Ionic positions in lattice coordinates:
ion Nb   0.000002222868056  -0.000002229472222   0.500000000000000 1
ion Nb   0.250002222868056  -0.000002229472222   0.500000000000000 1
ion Nb   0.500002222868056  -0.000002229472222   0.500000000000000 1
ion Nb   0.750002222868056  -0.000002229472222   0.500000000000000 1
ion Nb   0.000002222868056   0.249997770527778   0.500000000000000 1
ion Nb   0.250002222868056   0.249997770527778   0.500000000000000 1
ion Nb   0.500002222868056   0.249997770527778   0.500000000000000 1
ion Nb   0.750002222868056   0.249997770527778   0.500000000000000 1
ion Nb   0.000002222868056   0.499997770527778   0.500000000000000 1
ion Nb   0.250002222868056   0.499997770527778   0.500000000000000 1
ion Nb   0.500002222868056   0.499997770527778   0.500000000000000 1
ion Nb   0.750002222868056   0.499997770527778   0.500000000000000 1
ion Nb   0.000002222868056   0.749997770527778   0.500000000000000 1
ion Nb   0.250002222868056   0.749997770527778   0.500000000000000 1
ion Nb   0.500002222868056   0.749997770527778   0.500000000000000 1
ion Nb   0.750002222868056   0.749997770527778   0.500000000000000 1
ion S   0.166668889534722   0.083331103861111   0.413678900561441 1
ion S   0.166668889534722   0.083331103861111   0.586321099438559 1
ion S   0.416668889534722   0.083331103861111   0.413678900561441 1
ion S   0.416668889534722   0.083331103861111   0.586321099438559 1
ion S   0.666668889534722   0.083331103861111   0.413678900561441 1
ion S   0.666668889534722   0.083331103861111   0.586321099438559 1
ion S   0.916668889534722   0.083331103861111   0.413678900561441 1
ion S   0.916668889534722   0.083331103861111   0.586321099438559 1
ion S   0.166668889534722   0.333331103861111   0.413678900561441 1
ion S   0.166668889534722   0.333331103861111   0.586321099438559 1
ion S   0.416668889534722   0.333331103861111   0.413678900561441 1
ion S   0.416668889534722   0.333331103861111   0.586321099438559 1
ion S   0.666668889534722   0.333331103861111   0.413678900561441 1
ion S   0.666668889534722   0.333331103861111   0.586321099438559 1
ion S   0.916668889534722   0.333331103861111   0.413678900561441 1
ion S   0.916668889534722   0.333331103861111   0.586321099438559 1
ion S   0.166668889534722   0.583331103861111   0.413678900561441 1
ion S   0.166668889534722   0.583331103861111   0.586321099438559 1
ion S   0.416668889534722   0.583331103861111   0.413678900561441 1
ion S   0.416668889534722   0.583331103861111   0.586321099438559 1
ion S   0.666668889534722   0.583331103861111   0.413678900561441 1
ion S   0.666668889534722   0.583331103861111   0.586321099438559 1
ion S   0.916668889534722   0.583331103861111   0.413678900561441 1
ion S   0.916668889534722   0.583331103861111   0.586321099438559 1
ion S   0.166668889534722   0.833331103861111   0.413678900561441 1
ion S   0.166668889534722   0.833331103861111   0.586321099438559 1
ion S   0.416668889534722   0.833331103861111   0.413678900561441 1
ion S   0.416668889534722   0.833331103861111   0.586321099438559 1
ion S   0.666668889534722   0.833331103861111   0.413678900561441 1
ion S   0.666668889534722   0.833331103861111   0.586321099438559 1
ion S   0.916668889534722   0.833331103861111   0.413678900561441 1
ion S   0.916668889534722   0.833331103861111   0.586321099438559 1


# Forces in Lattice coordinates:
force Nb  -0.000000000000000   0.000000000000000   0.000000000000000 1
force Nb  -0.000000000000000   0.000000000000000   0.000000000000000 1
force Nb  -0.000000000000000   0.000000000000000   0.000000000000000 1
force Nb  -0.000000000000000   0.000000000000000   0.000000000000000 1
force Nb  -0.000000000000000   0.000000000000000   0.000000000000000 1
force Nb   0.000000000000000   0.000000000000000   0.000000000000000 1
force Nb  -0.000000000000000   0.000000000000000   0.000000000000000 1
force Nb  -0.000000000000000   0.000000000000000   0.000000000000000 1
force Nb   0.000000000000000   0.000000000000000  -0.000000000000000 1
force Nb   0.000000000000000   0.000000000000000   0.000000000000000 1
force Nb   0.000000000000000   0.000000000000000   0.000000000000000 1
force Nb   0.000000000000000   0.000000000000000  -0.000000000000000 1
force Nb   0.000000000000000   0.000000000000000   0.000000000000000 1
force Nb  -0.000000000000000   0.000000000000000  -0.000000000000000 1
force Nb   0.000000000000000   0.000000000000000   0.000000000000000 1
force Nb   0.000000000000000   0.000000000000000   0.000000000000000 1
force S   0.000000000000000  -0.000000000000000  -0.029934977858239 1
force S   0.000000000000000  -0.000000000000000   0.029934977858352 1
force S  -0.000000000000000   0.000000000000000  -0.029934977858124 1
force S   0.000000000000000  -0.000000000000000   0.029934977858351 1
force S   0.000000000000000   0.000000000000000  -0.029934977858353 1
force S   0.000000000000000  -0.000000000000000   0.029934977858352 1
force S  -0.000000000000000  -0.000000000000000  -0.029934977858239 1
force S  -0.000000000000000   0.000000000000000   0.029934977858238 1
force S   0.000000000000000   0.000000000000000  -0.029934977858352 1
force S   0.000000000000000  -0.000000000000000   0.029934977858352 1
force S  -0.000000000000000  -0.000000000000000  -0.029934977858239 1
force S   0.000000000000000  -0.000000000000000   0.029934977858239 1
force S  -0.000000000000000   0.000000000000000  -0.029934977858239 1
force S   0.000000000000000  -0.000000000000000   0.029934977858352 1
force S  -0.000000000000000   0.000000000000000  -0.029934977858353 1
force S   0.000000000000000   0.000000000000000   0.029934977858239 1
force S  -0.000000000000000  -0.000000000000000  -0.029934977858240 1
force S   0.000000000000000   0.000000000000000   0.029934977858125 1
force S  -0.000000000000000   0.000000000000000  -0.029934977858353 1
force S   0.000000000000000  -0.000000000000000   0.029934977858352 1
force S  -0.000000000000000   0.000000000000000  -0.029934977858353 1
force S   0.000000000000000  -0.000000000000000   0.029934977858352 1
force S  -0.000000000000000   0.000000000000000  -0.029934977858239 1
force S   0.000000000000000  -0.000000000000000   0.029934977858125 1
force S  -0.000000000000000   0.000000000000000  -0.029934977858239 1
force S  -0.000000000000000   0.000000000000000   0.029934977858239 1
force S  -0.000000000000000   0.000000000000000  -0.029934977858239 1
force S   0.000000000000000  -0.000000000000000   0.029934977858238 1
force S   0.000000000000000   0.000000000000000  -0.029934977858353 1
force S  -0.000000000000000  -0.000000000000000   0.029934977858238 1
force S  -0.000000000000000   0.000000000000000  -0.029934977858239 1
force S  -0.000000000000000  -0.000000000000000   0.029934977858239 1

# Energy components:
   A_diel =        0.0143312377245464
   Eewald =     7279.6063868884120893
       EH =     8302.4404063549154671
     Eloc =   -17188.5204000027879374
      Enl =      215.7636293111556824
      Exc =     -282.5530844051766621
 Exc_core =       83.9782290017476782
       KE =      342.4089443244053541
-------------------------------------
     Etot =    -1246.8615572896023878
       TS =        0.0945732887453483
-------------------------------------
        F =    -1246.9561305783477110

IonicMinimize: Iter:   1  F: -1246.956130578347711  |grad|_K:  4.119e-04  alpha:  1.000e+00  linmin: -1.000e+00  t[s]:   4424.28

#--- Lowdin population analysis ---
# oxidation-state Nb -0.380 -0.380 -0.380 -0.380 -0.380 -0.380 -0.380 -0.380 -0.380 -0.380 -0.380 -0.380 -0.380 -0.380 -0.380 -0.380
# magnetic-moments Nb +0.000 +0.000 +0.000 +0.000 +0.000 +0.000 +0.000 +0.000 +0.000 +0.000 +0.000 +0.000 +0.000 +0.000 +0.000 +0.000
# oxidation-state S +0.245 +0.245 +0.245 +0.245 +0.245 +0.245 +0.245 +0.245 +0.245 +0.245 +0.245 +0.245 +0.245 +0.245 +0.245 +0.245 +0.245 +0.245 +0.245 +0.245 +0.245 +0.245 +0.245 +0.245 +0.245 +0.245 +0.245 +0.245 +0.245 +0.245 +0.245 +0.245
# magnetic-moments S +0.000 +0.000 +0.000 +0.000 +0.000 +0.000 +0.000 +0.000 +0.000 +0.000 +0.000 +0.000 +0.000 +0.000 +0.000 +0.000 +0.000 +0.000 +0.000 +0.000 +0.000 +0.000 +0.000 +0.000 +0.000 +0.000 +0.000 +0.000 +0.000 +0.000 +0.000 +0.000

	Linear fluid (dielectric constant: 78.4, screening length: 5.74355 Bohr) occupying 0.757447 of unit cell:	Completed after 6 iterations at t[s]:   4443.14

-------- Electronic minimization -----------
	Linear fluid (dielectric constant: 78.4, screening length: 5.74355 Bohr) occupying 0.757447 of unit cell:	Completed after 0 iterations at t[s]:   4460.77
	FillingsUpdate:  mu: -0.214023220  nElectrons: 400.000000  magneticMoment: [ Abs: 0.00002  Tot: +0.00001 ]
ElecMinimize: Iter:   0  F: -1246.956056124864517  |grad|_K:  6.081e-07  alpha:  1.000e+00
	Linear fluid (dielectric constant: 78.4, screening length: 5.74355 Bohr) occupying 0.757453 of unit cell:	Completed after 7 iterations at t[s]:   4505.35
	Linear fluid (dielectric constant: 78.4, screening length: 5.74355 Bohr) occupying 0.757452 of unit cell:	Completed after 2 iterations at t[s]:   4526.80
	FillingsUpdate:  mu: -0.214866275  nElectrons: 400.000000  magneticMoment: [ Abs: 0.00002  Tot: +0.00001 ]
	SubspaceRotationAdjust: set factor to 0.17
ElecMinimize: Iter:   1  F: -1246.956130321466162  |grad|_K:  3.222e-07  alpha:  9.303e-01  linmin: -1.924e-04  t[s]:   4553.34
	Linear fluid (dielectric constant: 78.4, screening length: 5.74355 Bohr) occupying 0.757458 of unit cell:	Completed after 2 iterations at t[s]:   4569.68
	Linear fluid (dielectric constant: 78.4, screening length: 5.74355 Bohr) occupying 0.757461 of unit cell:	Completed after 2 iterations at t[s]:   4590.76
	FillingsUpdate:  mu: -0.214717023  nElectrons: 400.000000  magneticMoment: [ Abs: 0.00002  Tot: +0.00001 ]
	SubspaceRotationAdjust: set factor to 0.223
ElecMinimize: Iter:   2  F: -1246.956160403663262  |grad|_K:  3.378e-07  alpha:  1.335e+00  linmin: -1.318e-05  t[s]:   4617.44
	Linear fluid (dielectric constant: 78.4, screening length: 5.74355 Bohr) occupying 0.757479 of unit cell:	Completed after 3 iterations at t[s]:   4634.32
	Linear fluid (dielectric constant: 78.4, screening length: 5.74355 Bohr) occupying 0.757475 of unit cell:	Completed after 2 iterations at t[s]:   4655.30
	FillingsUpdate:  mu: -0.214652246  nElectrons: 400.000000  magneticMoment: [ Abs: 0.00002  Tot: +0.00001 ]
	SubspaceRotationAdjust: set factor to 0.266
ElecMinimize: Iter:   3  F: -1246.956186342665433  |grad|_K:  2.934e-07  alpha:  1.052e+00  linmin: -4.613e-06  t[s]:   4680.91
	Linear fluid (dielectric constant: 78.4, screening length: 5.74355 Bohr) occupying 0.757491 of unit cell:	Completed after 2 iterations at t[s]:   4697.51
	Linear fluid (dielectric constant: 78.4, screening length: 5.74355 Bohr) occupying 0.757486 of unit cell:	Completed after 2 iterations at t[s]:   4718.44
	FillingsUpdate:  mu: -0.214693370  nElectrons: 400.000000  magneticMoment: [ Abs: 0.00001  Tot: +0.00001 ]
	SubspaceRotationAdjust: set factor to 0.293
ElecMinimize: Iter:   4  F: -1246.956199426630519  |grad|_K:  2.181e-07  alpha:  7.030e-01  linmin:  2.806e-06  t[s]:   4744.91
	Linear fluid (dielectric constant: 78.4, screening length: 5.74355 Bohr) occupying 0.757494 of unit cell:	Completed after 2 iterations at t[s]:   4761.26
	Linear fluid (dielectric constant: 78.4, screening length: 5.74355 Bohr) occupying 0.757493 of unit cell:	Completed after 0 iterations at t[s]:   4782.03
	FillingsUpdate:  mu: -0.214683733  nElectrons: 400.000000  magneticMoment: [ Abs: 0.00001  Tot: +0.00001 ]
	SubspaceRotationAdjust: set factor to 0.328
ElecMinimize: Iter:   5  F: -1246.956205046440118  |grad|_K:  1.197e-07  alpha:  5.465e-01  linmin:  1.233e-05  t[s]:   4807.08
	Linear fluid (dielectric constant: 78.4, screening length: 5.74355 Bohr) occupying 0.757495 of unit cell:	Completed after 2 iterations at t[s]:   4823.71
	Linear fluid (dielectric constant: 78.4, screening length: 5.74355 Bohr) occupying 0.757496 of unit cell:	Completed after 0 iterations at t[s]:   4844.42
	FillingsUpdate:  mu: -0.214669325  nElectrons: 400.000000  magneticMoment: [ Abs: 0.00001  Tot: +0.00001 ]
	SubspaceRotationAdjust: set factor to 0.378
ElecMinimize: Iter:   6  F: -1246.956207000321456  |grad|_K:  6.836e-08  alpha:  6.357e-01  linmin: -2.059e-05  t[s]:   4870.38
	Linear fluid (dielectric constant: 78.4, screening length: 5.74355 Bohr) occupying 0.757496 of unit cell:	Completed after 0 iterations at t[s]:   4886.13
	Linear fluid (dielectric constant: 78.4, screening length: 5.74355 Bohr) occupying 0.757496 of unit cell:	Completed after 0 iterations at t[s]:   4905.34
	FillingsUpdate:  mu: -0.214670212  nElectrons: 400.000000  magneticMoment: [ Abs: 0.00001  Tot: +0.00000 ]
	SubspaceRotationAdjust: set factor to 0.465
ElecMinimize: Iter:   7  F: -1246.956207769919956  |grad|_K:  4.360e-08  alpha:  7.382e-01  linmin:  2.091e-08  t[s]:   4931.00
	Linear fluid (dielectric constant: 78.4, screening length: 5.74355 Bohr) occupying 0.757496 of unit cell:	Completed after 2 iterations at t[s]:   4947.44
	Linear fluid (dielectric constant: 78.4, screening length: 5.74355 Bohr) occupying 0.757496 of unit cell:	Completed after 0 iterations at t[s]:   4968.29
	FillingsUpdate:  mu: -0.214583737  nElectrons: 400.000000  magneticMoment: [ Abs: 0.00001  Tot: +0.00000 ]
	SubspaceRotationAdjust: set factor to 0.406
ElecMinimize: Iter:   8  F: -1246.956207803079906  |grad|_K:  6.093e-08  alpha:  3.208e-01  linmin:  1.329e-05  t[s]:   4994.06
	Linear fluid (dielectric constant: 78.4, screening length: 5.74355 Bohr) occupying 0.757494 of unit cell:	Completed after 1 iterations at t[s]:   5010.55
	Linear fluid (dielectric constant: 78.4, screening length: 5.74355 Bohr) occupying 0.757495 of unit cell:	Completed after 0 iterations at t[s]:   5030.59
	FillingsUpdate:  mu: -0.214621457  nElectrons: 400.000000  magneticMoment: [ Abs: 0.00000  Tot: +0.00000 ]
	SubspaceRotationAdjust: set factor to 0.615
ElecMinimize: Iter:   9  F: -1246.956207920429961  |grad|_K:  3.529e-08  alpha:  1.964e-01  linmin: -9.390e-06  t[s]:   5056.10
	Linear fluid (dielectric constant: 78.4, screening length: 5.74355 Bohr) occupying 0.757494 of unit cell:	Completed after 0 iterations at t[s]:   5071.81
ElecMinimize: 	Predicted alpha/alphaT>3.000000, increasing alphaT to 5.893493e-01.
	Linear fluid (dielectric constant: 78.4, screening length: 5.74355 Bohr) occupying 0.757493 of unit cell:	Completed after 2 iterations at t[s]:   5092.35
	Linear fluid (dielectric constant: 78.4, screening length: 5.74355 Bohr) occupying 0.757494 of unit cell:	Completed after 0 iterations at t[s]:   5112.51
	FillingsUpdate:  mu: -0.214669052  nElectrons: 400.000000  magneticMoment: [ Abs: 0.00000  Tot: +0.00000 ]
	SubspaceRotationAdjust: set factor to 0.516
ElecMinimize: Iter:  10  F: -1246.956208033186385  |grad|_K:  2.712e-08  alpha:  3.498e-01  linmin:  3.391e-05  t[s]:   5137.92
	Linear fluid (dielectric constant: 78.4, screening length: 5.74355 Bohr) occupying 0.757493 of unit cell:	Completed after 0 iterations at t[s]:   5153.81
	Linear fluid (dielectric constant: 78.4, screening length: 5.74355 Bohr) occupying 0.757493 of unit cell:	Completed after 0 iterations at t[s]:   5173.33
	FillingsUpdate:  mu: -0.214668848  nElectrons: 400.000000  magneticMoment: [ Abs: 0.00000  Tot: +0.00000 ]
	SubspaceRotationAdjust: set factor to 0.77
ElecMinimize: Iter:  11  F: -1246.956208077461952  |grad|_K:  2.296e-08  alpha:  3.788e-01  linmin: -1.523e-08  t[s]:   5198.53
	Linear fluid (dielectric constant: 78.4, screening length: 5.74355 Bohr) occupying 0.757493 of unit cell:	Completed after 2 iterations at t[s]:   5215.13
	Linear fluid (dielectric constant: 78.4, screening length: 5.74355 Bohr) occupying 0.757493 of unit cell:	Completed after 0 iterations at t[s]:   5235.77
ElecMinimize: 	Step increased F by 1.176909e-08, reducing alpha to 1.391788e-02.
	Linear fluid (dielectric constant: 78.4, screening length: 5.74355 Bohr) occupying 0.757493 of unit cell:	Completed after 0 iterations at t[s]:   5272.50
ElecMinimize: 	Step increased F by 1.142985e-08, reducing alpha to 1.391788e-03.
	Linear fluid (dielectric constant: 78.4, screening length: 5.74355 Bohr) occupying 0.757493 of unit cell:	Completed after 0 iterations at t[s]:   5311.16
ElecMinimize: 	Step increased F by 1.182821e-08, reducing alpha to 1.391788e-04.
ElecMinimize: 	Step failed to reduce F after 3 attempts. Quitting step.
ElecMinimize: 	Undoing step.
	Linear fluid (dielectric constant: 78.4, screening length: 5.74355 Bohr) occupying 0.757493 of unit cell:	Completed after 0 iterations at t[s]:   5349.36
ElecMinimize: 	Step failed: resetting search direction.
	FillingsUpdate:  mu: -0.214642363  nElectrons: 400.000000  magneticMoment: [ Abs: 0.00000  Tot: +0.00000 ]
	SubspaceRotationAdjust: set factor to 0.626
ElecMinimize: Iter:  12  F: -1246.956208065547344  |grad|_K:  2.041e-08  alpha:  1.392e-04
	Linear fluid (dielectric constant: 78.4, screening length: 5.74355 Bohr) occupying 0.757493 of unit cell:	Completed after 0 iterations at t[s]:   5390.77
	Linear fluid (dielectric constant: 78.4, screening length: 5.74355 Bohr) occupying 0.757493 of unit cell:	Completed after 0 iterations at t[s]:   5410.81
	FillingsUpdate:  mu: -0.214643964  nElectrons: 400.000000  magneticMoment: [ Abs: 0.00000  Tot: +0.00000 ]
	SubspaceRotationAdjust: set factor to 0.691
ElecMinimize: Iter:  13  F: -1246.956208093298073  |grad|_K:  1.049e-08  alpha:  3.372e-01  linmin: -1.106e-04  t[s]:   5436.40
	Linear fluid (dielectric constant: 78.4, screening length: 5.74355 Bohr) occupying 0.757493 of unit cell:	Completed after 0 iterations at t[s]:   5452.24
	Linear fluid (dielectric constant: 78.4, screening length: 5.74355 Bohr) occupying 0.757492 of unit cell:	Completed after 2 iterations at t[s]:   5472.20
ElecMinimize: 	Step increased F by 1.208491e-07, reducing alpha to 9.831500e-02.
	Linear fluid (dielectric constant: 78.4, screening length: 5.74355 Bohr) occupying 0.757493 of unit cell:	Completed after 0 iterations at t[s]:   5511.66
	FillingsUpdate:  mu: -0.214700131  nElectrons: 400.000000  magneticMoment: [ Abs: 0.00000  Tot: +0.00000 ]
	SubspaceRotationAdjust: set factor to 0.459
ElecMinimize: Iter:  14  F: -1246.956208094371050  |grad|_K:  4.427e-08  alpha:  9.831e-02  linmin:  9.262e-05  t[s]:   5537.13
ElecMinimize: 	Bad step direction: g.d > 0.
ElecMinimize: 	Undoing step.
	Linear fluid (dielectric constant: 78.4, screening length: 5.74355 Bohr) occupying 0.757493 of unit cell:	Completed after 0 iterations at t[s]:   5553.22
ElecMinimize: 	Step failed: resetting search direction.
	FillingsUpdate:  mu: -0.214700131  nElectrons: 400.000000  magneticMoment: [ Abs: 0.00000  Tot: +0.00000 ]
	SubspaceRotationAdjust: set factor to 0.343
ElecMinimize: Iter:  15  F: -1246.956208094363546  |grad|_K:  3.827e-08  alpha:  0.000e+00
	Linear fluid (dielectric constant: 78.4, screening length: 5.74355 Bohr) occupying 0.757493 of unit cell:	Completed after 0 iterations at t[s]:   5594.11
ElecMinimize: 	Predicted alpha/alphaT>3.000000, increasing alphaT to 2.949450e-01.
	Linear fluid (dielectric constant: 78.4, screening length: 5.74355 Bohr) occupying 0.757493 of unit cell:	Completed after 2 iterations at t[s]:   5614.50
	Linear fluid (dielectric constant: 78.4, screening length: 5.74355 Bohr) occupying 0.757493 of unit cell:	Completed after 0 iterations at t[s]:   5634.62
	FillingsUpdate:  mu: -0.214641744  nElectrons: 400.000000  magneticMoment: [ Abs: 0.00000  Tot: +0.00000 ]
	SubspaceRotationAdjust: set factor to 0.139
ElecMinimize: Iter:  16  F: -1246.956208102685196  |grad|_K:  1.188e-08  alpha:  1.327e-01  linmin:  5.934e-04  t[s]:   5660.45
	Linear fluid (dielectric constant: 78.4, screening length: 5.74355 Bohr) occupying 0.757493 of unit cell:	Completed after 0 iterations at t[s]:   5676.52
ElecMinimize: 	Predicted alpha/alphaT>3.000000, increasing alphaT to 3.981454e-01.
	Linear fluid (dielectric constant: 78.4, screening length: 5.74355 Bohr) occupying 0.757493 of unit cell:	Completed after 0 iterations at t[s]:   5696.29
ElecMinimize: 	Predicted alpha/alphaT>3.000000, increasing alphaT to 1.194436e+00.
	Linear fluid (dielectric constant: 78.4, screening length: 5.74355 Bohr) occupying 0.757493 of unit cell:	Completed after 0 iterations at t[s]:   5715.94
	Linear fluid (dielectric constant: 78.4, screening length: 5.74355 Bohr) occupying 0.757493 of unit cell:	Completed after 0 iterations at t[s]:   5735.80
	FillingsUpdate:  mu: -0.214645114  nElectrons: 400.000000  magneticMoment: [ Abs: 0.00000  Tot: +0.00000 ]
	SubspaceRotationAdjust: set factor to 0.247
ElecMinimize: Iter:  17  F: -1246.956208116660719  |grad|_K:  6.807e-09  alpha:  8.539e-01  linmin: -6.758e-05  t[s]:   5761.21
	Linear fluid (dielectric constant: 78.4, screening length: 5.74355 Bohr) occupying 0.757493 of unit cell:	Completed after 0 iterations at t[s]:   5777.18
	Linear fluid (dielectric constant: 78.4, screening length: 5.74355 Bohr) occupying 0.757493 of unit cell:	Completed after 0 iterations at t[s]:   5796.96
ElecMinimize: 	Step increased F by 4.554977e-09, reducing alpha to 3.608127e-02.
	Linear fluid (dielectric constant: 78.4, screening length: 5.74355 Bohr) occupying 0.757493 of unit cell:	Completed after 0 iterations at t[s]:   5835.76
ElecMinimize: 	Step increased F by 9.214773e-09, reducing alpha to 3.608127e-03.
	Linear fluid (dielectric constant: 78.4, screening length: 5.74355 Bohr) occupying 0.757493 of unit cell:	Completed after 0 iterations at t[s]:   5873.99
ElecMinimize: 	Step increased F by 9.965561e-09, reducing alpha to 3.608127e-04.
ElecMinimize: 	Step failed to reduce F after 3 attempts. Quitting step.
ElecMinimize: 	Undoing step.
	Linear fluid (dielectric constant: 78.4, screening length: 5.74355 Bohr) occupying 0.757493 of unit cell:	Completed after 0 iterations at t[s]:   5912.46
ElecMinimize: 	Step failed: resetting search direction.
	FillingsUpdate:  mu: -0.214647913  nElectrons: 400.000000  magneticMoment: [ Abs: 0.00000  Tot: +0.00000 ]
	SubspaceRotationAdjust: set factor to 0.299
ElecMinimize: Iter:  18  F: -1246.956208106738359  |grad|_K:  6.843e-09  alpha:  3.608e-04
	Linear fluid (dielectric constant: 78.4, screening length: 5.74355 Bohr) occupying 0.757493 of unit cell:	Completed after 0 iterations at t[s]:   5952.91
	Linear fluid (dielectric constant: 78.4, screening length: 5.74355 Bohr) occupying 0.757493 of unit cell:	Completed after 0 iterations at t[s]:   5972.85
	FillingsUpdate:  mu: -0.214647703  nElectrons: 400.000000  magneticMoment: [ Abs: 0.00000  Tot: +0.00000 ]
	SubspaceRotationAdjust: set factor to 0.367
ElecMinimize: Iter:  19  F: -1246.956208111608476  |grad|_K:  5.454e-09  alpha:  4.844e-01  linmin:  8.925e-07  t[s]:   5998.19
	Linear fluid (dielectric constant: 78.4, screening length: 5.74355 Bohr) occupying 0.757493 of unit cell:	Completed after 0 iterations at t[s]:   6013.99
	Linear fluid (dielectric constant: 78.4, screening length: 5.74355 Bohr) occupying 0.757493 of unit cell:	Completed after 0 iterations at t[s]:   6033.52
	FillingsUpdate:  mu: -0.214646995  nElectrons: 400.000000  magneticMoment: [ Abs: 0.00000  Tot: +0.00000 ]
	SubspaceRotationAdjust: set factor to 0.467
ElecMinimize: Iter:  20  F: -1246.956208119453095  |grad|_K:  5.600e-09  alpha:  1.230e+00  linmin: -8.483e-08  t[s]:   6059.32
ElecMinimize: Converged (|Delta F|<1.000000e-08 for 2 iters).
Setting wave functions to eigenvectors of Hamiltonian

# Ionic positions in lattice coordinates:
ion Nb   0.000002222868056  -0.000002229472222   0.500000000000000 1
ion Nb   0.250002222868056  -0.000002229472222   0.500000000000000 1
ion Nb   0.500002222868056  -0.000002229472222   0.500000000000000 1
ion Nb   0.750002222868056  -0.000002229472222   0.500000000000000 1
ion Nb   0.000002222868056   0.249997770527778   0.500000000000000 1
ion Nb   0.250002222868056   0.249997770527778   0.500000000000000 1
ion Nb   0.500002222868056   0.249997770527778   0.500000000000000 1
ion Nb   0.750002222868056   0.249997770527778   0.500000000000000 1
ion Nb   0.000002222868056   0.499997770527778   0.500000000000000 1
ion Nb   0.250002222868056   0.499997770527778   0.500000000000000 1
ion Nb   0.500002222868056   0.499997770527778   0.500000000000000 1
ion Nb   0.750002222868056   0.499997770527778   0.500000000000000 1
ion Nb   0.000002222868056   0.749997770527778   0.500000000000000 1
ion Nb   0.250002222868056   0.749997770527778   0.500000000000000 1
ion Nb   0.500002222868056   0.749997770527778   0.500000000000000 1
ion Nb   0.750002222868056   0.749997770527778   0.500000000000000 1
ion S   0.166668889534722   0.083331103861111   0.413537293692580 1
ion S   0.166668889534722   0.083331103861111   0.586462706307420 1
ion S   0.416668889534722   0.083331103861111   0.413537293692580 1
ion S   0.416668889534722   0.083331103861111   0.586462706307420 1
ion S   0.666668889534722   0.083331103861111   0.413537293692580 1
ion S   0.666668889534722   0.083331103861111   0.586462706307420 1
ion S   0.916668889534722   0.083331103861111   0.413537293692580 1
ion S   0.916668889534722   0.083331103861111   0.586462706307420 1
ion S   0.166668889534722   0.333331103861111   0.413537293692580 1
ion S   0.166668889534722   0.333331103861111   0.586462706307420 1
ion S   0.416668889534722   0.333331103861111   0.413537293692580 1
ion S   0.416668889534722   0.333331103861111   0.586462706307420 1
ion S   0.666668889534722   0.333331103861111   0.413537293692580 1
ion S   0.666668889534722   0.333331103861111   0.586462706307420 1
ion S   0.916668889534722   0.333331103861111   0.413537293692580 1
ion S   0.916668889534722   0.333331103861111   0.586462706307420 1
ion S   0.166668889534722   0.583331103861111   0.413537293692580 1
ion S   0.166668889534722   0.583331103861111   0.586462706307420 1
ion S   0.416668889534722   0.583331103861111   0.413537293692580 1
ion S   0.416668889534722   0.583331103861111   0.586462706307420 1
ion S   0.666668889534722   0.583331103861111   0.413537293692580 1
ion S   0.666668889534722   0.583331103861111   0.586462706307420 1
ion S   0.916668889534722   0.583331103861111   0.413537293692580 1
ion S   0.916668889534722   0.583331103861111   0.586462706307420 1
ion S   0.166668889534722   0.833331103861111   0.413537293692580 1
ion S   0.166668889534722   0.833331103861111   0.586462706307420 1
ion S   0.416668889534722   0.833331103861111   0.413537293692580 1
ion S   0.416668889534722   0.833331103861111   0.586462706307420 1
ion S   0.666668889534722   0.833331103861111   0.413537293692580 1
ion S   0.666668889534722   0.833331103861111   0.586462706307420 1
ion S   0.916668889534722   0.833331103861111   0.413537293692580 1
ion S   0.916668889534722   0.833331103861111   0.586462706307420 1


# Forces in Lattice coordinates:
force Nb  -0.000000000000000  -0.000000000000000   0.000000000000000 1
force Nb  -0.000000000000000  -0.000000000000000   0.000000000000000 1
force Nb   0.000000000000000  -0.000000000000000  -0.000000000000000 1
force Nb  -0.000000000000000  -0.000000000000000  -0.000000000000000 1
force Nb   0.000000000000000  -0.000000000000000  -0.000000000000000 1
force Nb   0.000000000000000  -0.000000000000000  -0.000000000000000 1
force Nb   0.000000000000000  -0.000000000000000  -0.000000000000000 1
force Nb   0.000000000000000  -0.000000000000000  -0.000000000000000 1
force Nb  -0.000000000000000  -0.000000000000000  -0.000000000000000 1
force Nb   0.000000000000000  -0.000000000000000  -0.000000000000000 1
force Nb  -0.000000000000000   0.000000000000000  -0.000000000000000 1
force Nb   0.000000000000000  -0.000000000000000   0.000000000000000 1
force Nb  -0.000000000000000  -0.000000000000000  -0.000000000000000 1
force Nb   0.000000000000000  -0.000000000000000  -0.000000000000000 1
force Nb  -0.000000000000000  -0.000000000000000  -0.000000000000000 1
force Nb   0.000000000000000  -0.000000000000000  -0.000000000000000 1
force S   0.000000000000000  -0.000000000000000  -0.003233467614340 1
force S  -0.000000000000000   0.000000000000000   0.003233467614454 1
force S  -0.000000000000000   0.000000000000000  -0.003233467614228 1
force S   0.000000000000000  -0.000000000000000   0.003233467614454 1
force S   0.000000000000000   0.000000000000000  -0.003233467614226 1
force S   0.000000000000000  -0.000000000000000   0.003233467614453 1
force S   0.000000000000000   0.000000000000000  -0.003233467614340 1
force S  -0.000000000000000   0.000000000000000   0.003233467614453 1
force S   0.000000000000000  -0.000000000000000  -0.003233467614453 1
force S   0.000000000000000   0.000000000000000   0.003233467614452 1
force S  -0.000000000000000  -0.000000000000000  -0.003233467614340 1
force S   0.000000000000000  -0.000000000000000   0.003233467614453 1
force S   0.000000000000000  -0.000000000000000  -0.003233467614340 1
force S   0.000000000000000  -0.000000000000000   0.003233467614453 1
force S   0.000000000000000   0.000000000000000  -0.003233467614226 1
force S   0.000000000000000   0.000000000000000   0.003233467614453 1
force S  -0.000000000000000  -0.000000000000000  -0.003233467614339 1
force S   0.000000000000000   0.000000000000000   0.003233467614453 1
force S  -0.000000000000000   0.000000000000000  -0.003233467614339 1
force S   0.000000000000000  -0.000000000000000   0.003233467614453 1
force S  -0.000000000000000  -0.000000000000000  -0.003233467614340 1
force S   0.000000000000000  -0.000000000000000   0.003233467614452 1
force S   0.000000000000000  -0.000000000000000  -0.003233467614340 1
force S  -0.000000000000000  -0.000000000000000   0.003233467614453 1
force S   0.000000000000000  -0.000000000000000  -0.003233467614340 1
force S  -0.000000000000000   0.000000000000000   0.003233467614453 1
force S   0.000000000000000   0.000000000000000  -0.003233467614227 1
force S   0.000000000000000  -0.000000000000000   0.003233467614567 1
force S   0.000000000000000   0.000000000000000  -0.003233467614228 1
force S  -0.000000000000000  -0.000000000000000   0.003233467614567 1
force S   0.000000000000000  -0.000000000000000  -0.003233467614113 1
force S  -0.000000000000000  -0.000000000000000   0.003233467614340 1

# Energy components:
   A_diel =        0.0143489216459516
   Eewald =     7276.9139695992334964
       EH =     8299.7742385090150492
     Eloc =   -17183.0998758050300239
      Enl =      215.7493458239349593
      Exc =     -282.5243689252616264
 Exc_core =       83.9782300711727885
       KE =      342.3325675757342879
-------------------------------------
     Etot =    -1246.8615442295558751
       TS =        0.0946638898971688
-------------------------------------
        F =    -1246.9562081194530947

IonicMinimize: Iter:   2  F: -1246.956208119453095  |grad|_K:  4.449e-05  alpha:  1.000e+00  linmin: -1.000e+00  t[s]:   6074.95
IonicMinimize: Converged (|grad|_K<1.000000e-04).

#--- Lowdin population analysis ---
# oxidation-state Nb -0.379 -0.379 -0.379 -0.379 -0.379 -0.379 -0.379 -0.379 -0.379 -0.379 -0.379 -0.379 -0.379 -0.379 -0.379 -0.379
# magnetic-moments Nb +0.000 +0.000 +0.000 +0.000 +0.000 +0.000 +0.000 +0.000 +0.000 +0.000 +0.000 +0.000 +0.000 +0.000 +0.000 +0.000
# oxidation-state S +0.244 +0.244 +0.244 +0.244 +0.244 +0.244 +0.244 +0.244 +0.244 +0.244 +0.244 +0.244 +0.244 +0.244 +0.244 +0.244 +0.244 +0.244 +0.244 +0.244 +0.244 +0.244 +0.244 +0.244 +0.244 +0.244 +0.244 +0.244 +0.244 +0.244 +0.244 +0.244
# magnetic-moments S +0.000 +0.000 +0.000 +0.000 +0.000 +0.000 +0.000 +0.000 +0.000 +0.000 +0.000 +0.000 +0.000 +0.000 +0.000 +0.000 +0.000 +0.000 +0.000 +0.000 +0.000 +0.000 +0.000 +0.000 +0.000 +0.000 +0.000 +0.000 +0.000 +0.000 +0.000 +0.000


Dumping 'NbTe2.fillings' ... done
Dumping 'NbTe2.wfns' ... done
Dumping 'NbTe2.fluidState' ... done
Dumping 'NbTe2.ionpos' ... done
Dumping 'NbTe2.eigenvals' ... done
End date and time: Mon Feb  8 11:04:41 2021  (Duration: 0-1:41:22.75)
Done!
