
*************** JDFTx 1.5.0  ***************

Start date and time: Sat Jul 18 06:57:38 2020
Executable jdftx_gpu with command-line: -i Charged.in -o Charged.out
Running on hosts (process indices):  amax (0-5)
Divided in process groups (process indices):  0 (0)  1 (1)  2 (2)  3 (3)  4 (4)  5 (5)
gpuInit: Found compatible cuda device 0 'Tesla K80'
gpuInit: Found compatible cuda device 1 'Tesla K80'
gpuInit: Found compatible cuda device 2 'Tesla K80'
gpuInit: Found compatible cuda device 3 'Tesla K80'
gpuInit: Found compatible cuda device 4 'Tesla K80'
gpuInit: Found compatible cuda device 5 'Tesla K80'
gpuInit: Selected device 0
Resource initialization completed at t[s]:     19.92
Run totals: 6 processes, 24 threads, 6 GPUs


Input parsed successfully to the following command list (including defaults):

basis kpoint-dependent
cache-projectors no
coords-type Lattice
core-overlap-check none
coulomb-interaction Slab 001
coulomb-truncation-embed 0 0 0.5
davidson-band-ratio 1.1
dump End State
dump-name NbTe2.$VAR
elec-cutoff 20 100
elec-eigen-algo Davidson
elec-ex-corr gga-PBE
elec-smearing Gauss 0.0073499
electronic-minimize  \
	dirUpdateScheme      FletcherReeves \
	linminMethod         DirUpdateRecommended \
	nIterations          500 \
	history              15 \
	knormThreshold       0 \
	energyDiffThreshold  1e-08 \
	nEnergyDiff          2 \
	alphaTstart          1 \
	alphaTmin            1e-10 \
	updateTestStepSize   yes \
	alphaTreduceFactor   0.1 \
	alphaTincreaseFactor 3 \
	nAlphaAdjustMax      3 \
	wolfeEnergy          0.0001 \
	wolfeGradient        0.9 \
	fdTest               no
exchange-regularization WignerSeitzTruncated
fluid LinearPCM 298.000000 1.013250
fluid-anion F- 1 MeanFieldLJ \
	epsBulk 1 \
	pMol 0 \
	epsInf 1 \
	Pvap 0 \
	sigmaBulk 0 \
	Rvdw 2.24877 \
	Res 0 \
	tauNuc 343133
fluid-cation Na+ 1 MeanFieldLJ \
	epsBulk 1 \
	pMol 0 \
	epsInf 1 \
	Pvap 0 \
	sigmaBulk 0 \
	Rvdw 2.19208 \
	Res 0 \
	tauNuc 343133
fluid-ex-corr lda-TF lda-PZ
fluid-gummel-loop 10 1.000000e-05
fluid-minimize  \
	dirUpdateScheme      PolakRibiere \
	linminMethod         DirUpdateRecommended \
	nIterations          400 \
	history              15 \
	knormThreshold       1e-11 \
	energyDiffThreshold  0 \
	nEnergyDiff          2 \
	alphaTstart          1 \
	alphaTmin            1e-10 \
	updateTestStepSize   yes \
	alphaTreduceFactor   0.1 \
	alphaTincreaseFactor 3 \
	nAlphaAdjustMax      6 \
	wolfeEnergy          0.0001 \
	wolfeGradient        0.9 \
	fdTest               no
fluid-solvent H2O 55.338 ScalarEOS \
	epsBulk 78.4 \
	pMol 0.92466 \
	epsInf 1.77 \
	Pvap 1.06736e-10 \
	sigmaBulk 4.62e-05 \
	Rvdw 2.61727 \
	Res 1.42 \
	tauNuc 343133 \
	poleEl 15 7 1
forces-output-coords Positions
initial-state NbTe2.$VAR
ion Li   0.249999999365346   0.138480627676396   0.519765368209435 0
ion Li   0.583333332698679   0.138480627676396   0.519765368209435 0
ion Li   0.916666666032012   0.138480627676396   0.519765368209435 0
ion Li   0.250000000613280   0.849344287261574   0.607762461400828 0
ion Li   0.583333333946613   0.849344287261574   0.607762461400828 0
ion Li   0.916666667279947   0.849344287261574   0.607762461400828 0
ion Li   0.083333332478524   0.150636998543358   0.392231643806340 0
ion Li   0.416666665811857   0.150636998543358   0.392231643806340 0
ion Li   0.749999999145191   0.150636998543358   0.392231643806340 0
ion Li   0.083333333609312   0.861554631968501   0.480251796675669 0
ion Li   0.416666666942646   0.861554631968501   0.480251796675669 0
ion Li   0.750000000275979   0.861554631968501   0.480251796675669 0
ion Cu   0.083333332195495   0.501962207303776   0.566636796979411 0
ion Cu   0.416666665528828   0.501962207303776   0.566636796979411 0
ion Cu   0.749999998862162   0.501962207303776   0.566636796979411 0
ion Cu   0.083333334328322   0.169576818453279   0.658851103381099 0
ion Cu   0.416666667661656   0.169576818453279   0.658851103381099 0
ion Cu   0.750000000994989   0.169576818453279   0.658851103381099 0
ion Cu   0.250000000222167   0.830369691327466   0.341107779664638 0
ion Cu   0.583333333555500   0.830369691327466   0.341107779664638 0
ion Cu   0.916666666888833   0.830369691327466   0.341107779664638 0
ion Cu   0.250000000147743   0.498082374255930   0.433392104743641 0
ion Cu   0.583333333481076   0.498082374255930   0.433392104743641 0
ion Cu   0.916666666814409   0.498082374255930   0.433392104743641 0
ion F   0.083333331740375   0.319346120368948   0.507616456699274 0
ion F   0.416666665073708   0.319346120368948   0.507616456699274 0
ion F   0.749999998407042   0.319346120368948   0.507616456699274 0
ion F   0.083333333440433   0.990175753309549   0.555823732594357 0
ion F   0.416666666773766   0.990175753309549   0.555823732594357 0
ion F   0.750000000107099   0.990175753309549   0.555823732594357 0
ion F   0.083333333885875   0.689737103450906   0.620225388441136 0
ion F   0.416666667219209   0.689737103450906   0.620225388441136 0
ion F   0.750000000552542   0.689737103450906   0.620225388441136 0
ion F   0.249999999674195   0.330528927901049   0.627940784217324 0
ion F   0.583333333007528   0.330528927901049   0.627940784217324 0
ion F   0.916666666340861   0.330528927901049   0.627940784217324 0
ion F   0.250000001962483  -0.000307335671843   0.679208439746356 0
ion F   0.583333335295817  -0.000307335671843   0.679208439746356 0
ion F   0.916666668629150  -0.000307335671843   0.679208439746356 0
ion F   0.083333334444566   1.000233200258994   0.320743502879832 0
ion F   0.416666667777899   1.000233200258994   0.320743502879832 0
ion F   0.750000001111232   1.000233200258994   0.320743502879832 0
ion F   0.083333332390388   0.669457052666533   0.372028174053647 0
ion F   0.416666665723721   0.669457052666533   0.372028174053647 0
ion F   0.749999999057054   0.669457052666533   0.372028174053647 0
ion F   0.249999998972670   0.310300048619681   0.379814583187908 0
ion F   0.583333332306003   0.310300048619681   0.379814583187908 0
ion F   0.916666665639336   0.310300048619681   0.379814583187908 0
ion F   0.250000000535626   0.009826392736341   0.444185391087150 0
ion F   0.583333333868959   0.009826392736341   0.444185391087150 0
ion F   0.916666667202293   0.009826392736341   0.444185391087150 0
ion F   0.249999999993202   0.680695099569561   0.492414492231969 0
ion F   0.583333333326535   0.680695099569561   0.492414492231969 0
ion F   0.916666666659869   0.680695099569561   0.492414492231969 0
ion-species GBRV/$ID_pbe.uspp
ion-width Ecut
ionic-minimize  \
	dirUpdateScheme      L-BFGS \
	linminMethod         DirUpdateRecommended \
	nIterations          0 \
	history              15 \
	knormThreshold       0.0001 \
	energyDiffThreshold  1e-06 \
	nEnergyDiff          2 \
	alphaTstart          1 \
	alphaTmin            1e-10 \
	updateTestStepSize   yes \
	alphaTreduceFactor   0.1 \
	alphaTincreaseFactor 3 \
	nAlphaAdjustMax      3 \
	wolfeEnergy          0.0001 \
	wolfeGradient        0.9 \
	fdTest               no
kpoint   0.000000000000   0.000000000000   0.000000000000  1.00000000000000
kpoint-folding 4 5 1 
latt-move-scale 1 1 1
latt-scale 1 1 1 
lattice Triclinic 15.9263 13.9131 42.8349 90 90 90
lattice-minimize  \
	dirUpdateScheme      L-BFGS \
	linminMethod         DirUpdateRecommended \
	nIterations          0 \
	history              15 \
	knormThreshold       0 \
	energyDiffThreshold  1e-06 \
	nEnergyDiff          2 \
	alphaTstart          1 \
	alphaTmin            1e-10 \
	updateTestStepSize   yes \
	alphaTreduceFactor   0.1 \
	alphaTincreaseFactor 3 \
	nAlphaAdjustMax      3 \
	wolfeEnergy          0.0001 \
	wolfeGradient        0.9 \
	fdTest               no
lcao-params -1 1e-06 0.0073499
pcm-variant CANDLE
spintype no-spin
subspace-rotation-factor 1 yes
symmetries automatic
symmetry-threshold 0.0001
target-mu -0.24475 no




---------- Setting up symmetries ----------

Found 8 point-group symmetries of the bravais lattice
Found 6 space-group symmetries with basis
Applied RMS atom displacement 1.41555e-08 bohrs to make symmetries exact.

---------- Initializing the Grid ----------
R = 
[    15.9263          0          0  ]
[          0    13.9131          0  ]
[          0          0    42.8349  ]
unit cell volume = 9491.57
G =
[   0.394515          0          0  ]
[          0   0.451602          0  ]
[          0          0   0.146684  ]
Minimum fftbox size, Smin = [  72  64  196  ]
Chosen fftbox size, S = [  72  64  196  ]

---------- Initializing tighter grid for wavefunction operations ----------
R = 
[    15.9263          0          0  ]
[          0    13.9131          0  ]
[          0          0    42.8349  ]
unit cell volume = 9491.57
G =
[   0.394515          0          0  ]
[          0   0.451602          0  ]
[          0          0   0.146684  ]
Minimum fftbox size, Smin = [  68  60  176  ]
Chosen fftbox size, S = [  70  60  180  ]

---------- Exchange Correlation functional ----------
Initalized PBE GGA exchange.
Initalized PBE GGA correlation.

---------- Setting up pseudopotentials ----------
Width of ionic core gaussian charges (only for fluid interactions / plotting) set to 0.397384

Reading pseudopotential file '/home/guoxy/vasp/jdftx-1.5.0/build/pseudopotentials/GBRV/li_pbe.uspp':
  Title: Li.  Created by USPP 7.3.6 on 8-4-15
  Reference state energy: -7.100502.  3 valence electrons in orbitals:
    |100>  occupation: 2  eigenvalue: -2.033252
    |200>  occupation: 0.55  eigenvalue: -0.187138
    |210>  occupation: 0  eigenvalue: -0.114272
  lMax: 1  lLocal: 2  QijEcut: 6
  5 projectors sampled on a log grid with 541 points:
    l: 0  eig: -2.033252  rCut: 1.3
    l: 0  eig: -0.187138  rCut: 1.3
    l: 0  eig: 1.000000  rCut: 1.3
    l: 1  eig: -0.114273  rCut: 2.001
    l: 1  eig: 1.000000  rCut: 2.001
  Transforming local potential to a uniform radial grid of dG=0.02 with 1248 points.
  Transforming nonlocal projectors to a uniform radial grid of dG=0.02 with 432 points.
  Transforming density augmentations to a uniform radial grid of dG=0.02 with 1248 points.
  Transforming atomic orbitals to a uniform radial grid of dG=0.02 with 432 points.
  Core radius for overlap checks: 2.00 bohrs.

Reading pseudopotential file '/home/guoxy/vasp/jdftx-1.5.0/build/pseudopotentials/GBRV/cu_pbe.uspp':
  Title: Cu.  Created by USPP 7.3.6 on 3-2-2014
  Reference state energy: -201.059491.  19 valence electrons in orbitals:
    |300>  occupation: 2  eigenvalue: -5.020764
    |310>  occupation: 6  eigenvalue: -3.445588
    |320>  occupation: 8  eigenvalue: -0.925168
    |400>  occupation: 2  eigenvalue: -0.567638
    |410>  occupation: 0  eigenvalue: -0.326154
  lMax: 2  lLocal: 3  QijEcut: 6
  6 projectors sampled on a log grid with 613 points:
    l: 0  eig: -5.020767  rCut: 1.4
    l: 0  eig: -0.567640  rCut: 1.4
    l: 1  eig: -3.445589  rCut: 1.55
    l: 1  eig: -0.326157  rCut: 1.55
    l: 2  eig: -0.925170  rCut: 1.5
    l: 2  eig: 1.500000  rCut: 1.5
  Partial core density with radius 0.8
  Transforming core density to a uniform radial grid of dG=0.02 with 1248 points.
  Transforming local potential to a uniform radial grid of dG=0.02 with 1248 points.
  Transforming nonlocal projectors to a uniform radial grid of dG=0.02 with 432 points.
  Transforming density augmentations to a uniform radial grid of dG=0.02 with 1248 points.
  Transforming atomic orbitals to a uniform radial grid of dG=0.02 with 432 points.
  Core radius for overlap checks: 1.55 bohrs.

Reading pseudopotential file '/home/guoxy/vasp/jdftx-1.5.0/build/pseudopotentials/GBRV/f_pbe.uspp':
  Title: F.  Created by USPP 7.3.6 on 1-4-15
  Reference state energy: -24.162774.  7 valence electrons in orbitals:
    |200>  occupation: 2  eigenvalue: -1.098757
    |210>  occupation: 5  eigenvalue: -0.408350
  lMax: 1  lLocal: 2  QijEcut: 6.5
  4 projectors sampled on a log grid with 525 points:
    l: 0  eig: -1.098755  rCut: 1.3
    l: 0  eig: 0.000000  rCut: 1.3
    l: 1  eig: -0.408349  rCut: 1.4
    l: 1  eig: 0.000000  rCut: 1.4
  Transforming local potential to a uniform radial grid of dG=0.02 with 1248 points.
  Transforming nonlocal projectors to a uniform radial grid of dG=0.02 with 432 points.
  Transforming density augmentations to a uniform radial grid of dG=0.02 with 1248 points.
  Transforming atomic orbitals to a uniform radial grid of dG=0.02 with 432 points.
  Core radius for overlap checks: 1.40 bohrs.

Initialized 3 species with 54 total atoms.

Folded 1 k-points by 4x5x1 to 20 k-points.

---------- Setting up k-points, bands, fillings ----------
Adding inversion symmetry to k-mesh for non-inversion-symmetric unit cell.
Reduced to 9 k-points under symmetry. 
Computing the number of bands and number of electrons
Reading initial fillings from file NbTe2.fillings.
nElectrons: 474.000000   nBands: 336   nStates: 9

----- Setting up reduced wavefunction bases (one per k-point) -----
average nbasis = 40539.150 , ideal nbasis = 40548.720

---------- Setting up coulomb interaction ----------
Fluid mode embedding: using embedded box, but periodic Coulomb kernel.
(Fluid response is responsible for (approximate) separation between periodic images.)
Setting up double-sized grid for truncated Coulomb potentials:
R = 
[    15.9263          0          0  ]
[          0    13.9131          0  ]
[          0          0    85.6698  ]
unit cell volume = 18983.1
G =
[   0.394515          0          0  ]
[          0   0.451602          0  ]
[          0          0  0.0733419  ]
Chosen fftbox size, S = [  72  64  392  ]
Integer grid location selected as the embedding center:
   Grid: [  0  0  98  ]
   Lattice: [  0  0  0.5  ]
   Cartesian: [  0  0  21.4175  ]
Constructing Wigner-Seitz cell: 6 faces (6 quadrilaterals, 0 hexagons)
Range-separation parameter for embedded mesh potentials due to point charges: 0.593338 bohrs.

Initializing van der Waals corrections
	NOTE: vdW corrections apply only for interactions with fluid.
	Li:  C6:   27.93 Eh-a0^6  R0: 1.559 a0
	Cu:  C6:  187.33 Eh-a0^6  R0: 2.952 a0
	 F:  C6:   13.01 Eh-a0^6  R0: 2.432 a0

---------- Setting up ewald sum ----------
Optimum gaussian width for ewald sums = 5.473946 bohr.
Real space sum over 605 unit cells with max indices [  5  5  2  ]
Reciprocal space sum over 7293 terms with max indices [  6  5  25  ]

---------- Allocating electronic variables ----------
Initializing wave functions:  reading from 'NbTe2.wfns'
----- createFluidSolver() ----- (Fluid-side solver setup)
   Initializing fluid molecule 'H2O'
     Initializing site 'O'
       Electron density: proportional to exp(-r/0.36935)*erfc((r-0.51523)/0.36823) with norm 6.826
       Charge density: gaussian nuclear width 0.478731 with net site charge 0.826
       Polarizability: cuspless exponential with width 0.32 and norm 3.73
       Hard sphere radius: 2.57003 bohrs
       Positions in reference frame:
         [ +0.000000 +0.000000 +0.000000 ]
     Initializing site 'H'
       Electron density: proportional to exp(-r/0.34641)*erfc((r-0)/0.390882) with norm 0.587
       Charge density: gaussian nuclear width 0.377945 with net site charge -0.413
       Polarizability: cuspless exponential with width 0.39 and norm 3.3
       Positions in reference frame:
         [ +0.000000 -1.441945 +1.122523 ]
         [ +0.000000 +1.441945 +1.122523 ]
     Net charge: 0   dipole magnitude: 0.927204
     Initializing spherical shell mfKernel with radius 2.61727 Bohr
     deltaS corrections:
       site 'O': -7.54299
       site 'H': -6.83917
   Initializing fluid molecule 'Na+'
     Initializing site 'Na'
       Electron density: proportional to exp(-r/0.19682)*erfc((r-0.71491)/0.41314) with norm 8.1383
       Charge density: gaussian nuclear width 0.365347 with net site charge -1
       Hard sphere radius: 1.86327 bohrs
       Positions in reference frame:
         [ +0.000000 +0.000000 +0.000000 ]
     Net charge: -1   dipole magnitude: 0
     Initializing gaussian mfKernel with width: 1.55004 Bohr
     deltaS corrections:
       site 'Na': -22.3555
   Initializing fluid molecule 'F-'
     Initializing site 'F'
       Electron density: proportional to exp(-r/0.38886)*erfc((r-0)/0.438782) with norm 8
       Charge density: gaussian nuclear width 0.374796 with net site charge 1
       Hard sphere radius: 2.39995 bohrs
       Positions in reference frame:
         [ +0.000000 +0.000000 +0.000000 ]
     Net charge: 1   dipole magnitude: 0
     Initializing gaussian mfKernel with width: 1.59012 Bohr
     deltaS corrections:
       site 'F': -9.04335

Correction to mu due to finite nuclear width = -0.0247748
   Cavity determined by nc: 0.00142 and sigma: 0.707107
   Nonlocal vdW cavity from gaussian model electron density with norm = 8 and sigma = 0.993594 bohr
   Charge asymmetry in cavity with sensitivity pCavity = 36.5 e-bohr/Eh
   Electrostatic cavity expanded by eta = 1.46 bohrs
   Weighted density cavitation model constrained by Nbulk: 0.0049383 bohr^-3, Pvap: 3.14029 kPa, Rvdw: 2.61727 bohr and sigmaBulk: 4.62e-05 Eh/bohr^2 at T: 298 K.
   Weighted density dispersion model using vdW pair potentials with single solvent site with sqrtC6eff: 0.77 SI.
Reading fluid state from 'NbTe2.fluidState'


---- Citations for features of the code used in this run ----

   Software package:
      R. Sundararaman, K. Letchworth-Weaver, K.A. Schwarz, D. Gunceler, Y. Ozhabes and T.A. Arias, 'JDFTx: software for joint density-functional theory', SoftwareX 6, 278 (2017)

   gga-PBE exchange-correlation functional:
      J.P. Perdew, K. Burke and M. Ernzerhof, Phys. Rev. Lett. 77, 3865 (1996)

   Pseudopotentials:
      KF Garrity, JW Bennett, KM Rabe and D Vanderbilt, Comput. Mater. Sci. 81, 446 (2014)

   Truncated Coulomb potentials:
      R. Sundararaman and T.A. Arias, Phys. Rev. B 87, 165122 (2013)

   Van der Waals correction pair-potentials:
      S. Grimme, J. Comput. Chem. 27, 1787 (2006)

   Charge-asymmetric nonlocally-determined local-electric (CANDLE) solvation model:
      R. Sundararaman and W.A. Goddard III, J. Chem. Phys. 142, 064107 (2015)

   Total energy minimization with Auxiliary Hamiltonian:
      C. Freysoldt, S. Boeck, and J. Neugebauer, Phys. Rev. B 79, 241103(R) (2009)

   Grand-canonical (fixed-potential) DFT:
      R. Sundararaman, W. A. Goddard III and T. A. Arias, J. Chem. Phys. 146, 114104 (2017)

This list may not be complete. Please suggest additional citations or
report any other bugs at https://github.com/shankar1729/jdftx/issues

Initialization completed successfully at t[s]:     27.21

Shifting auxilliary hamiltonian by -0.034485 to set nElectrons=474.000000
	Linear fluid (dielectric constant: 78.4, screening length: 5.74355 Bohr) occupying 0.735293 of unit cell:	Completed after 11 iterations at t[s]:     34.10

-------- Electronic minimization -----------
	Linear fluid (dielectric constant: 78.4, screening length: 5.74355 Bohr) occupying 0.735293 of unit cell:	Completed after 0 iterations at t[s]:     39.70
	FillingsUpdate:  mu: -0.244750400  nElectrons: 474.000000
ElecMinimize: Iter:   0  G: -3123.772506296797474  |grad|_K:  5.171e-05  alpha:  1.000e+00
	Linear fluid (dielectric constant: 78.4, screening length: 5.74355 Bohr) occupying 0.735304 of unit cell:	Completed after 30 iterations at t[s]:     58.06
	Linear fluid (dielectric constant: 78.4, screening length: 5.74355 Bohr) occupying 0.734940 of unit cell:	Completed after 30 iterations at t[s]:     70.00
	FillingsUpdate:  mu: -0.244750400  nElectrons: 473.916110
	SubspaceRotationAdjust: set factor to 0.503
ElecMinimize: Iter:   1  G: -3123.775009592338392  |grad|_K:  3.821e-05  alpha:  4.373e-03  linmin: -5.678e-02  t[s]:     77.82
	Linear fluid (dielectric constant: 78.4, screening length: 5.74355 Bohr) occupying 0.734639 of unit cell:	Completed after 16 iterations at t[s]:     86.03
	Linear fluid (dielectric constant: 78.4, screening length: 5.74355 Bohr) occupying 0.734457 of unit cell:	Completed after 17 iterations at t[s]:     95.37
	FillingsUpdate:  mu: -0.244750400  nElectrons: 473.683777
	SubspaceRotationAdjust: set factor to 0.303
ElecMinimize: Iter:   2  G: -3123.777861044136898  |grad|_K:  1.172e-05  alpha:  9.387e-03  linmin:  8.301e-04  t[s]:    102.88
	Linear fluid (dielectric constant: 78.4, screening length: 5.74355 Bohr) occupying 0.734450 of unit cell:	Completed after 12 iterations at t[s]:    111.53
ElecMinimize: 	Predicted alpha/alphaT>3.000000, increasing alphaT to 2.815999e-02.
	Linear fluid (dielectric constant: 78.4, screening length: 5.74355 Bohr) occupying 0.734443 of unit cell:	Completed after 13 iterations at t[s]:    121.47
	Linear fluid (dielectric constant: 78.4, screening length: 5.74355 Bohr) occupying 0.734450 of unit cell:	Completed after 15 iterations at t[s]:    129.82
	FillingsUpdate:  mu: -0.244750400  nElectrons: 473.550779
	SubspaceRotationAdjust: set factor to 0.217
ElecMinimize: Iter:   3  G: -3123.778978438912873  |grad|_K:  1.143e-05  alpha:  7.312e-02  linmin:  1.272e-04  t[s]:    136.64
	Linear fluid (dielectric constant: 78.4, screening length: 5.74355 Bohr) occupying 0.734547 of unit cell:	Completed after 15 iterations at t[s]:    145.21
	Linear fluid (dielectric constant: 78.4, screening length: 5.74355 Bohr) occupying 0.734511 of unit cell:	Completed after 13 iterations at t[s]:    154.82
	FillingsUpdate:  mu: -0.244750400  nElectrons: 473.552746
	SubspaceRotationAdjust: set factor to 0.342
ElecMinimize: Iter:   4  G: -3123.779713691787947  |grad|_K:  7.867e-06  alpha:  4.647e-02  linmin:  1.027e-06  t[s]:    162.96
	Linear fluid (dielectric constant: 78.4, screening length: 5.74355 Bohr) occupying 0.734563 of unit cell:	Completed after 14 iterations at t[s]:    170.99
	Linear fluid (dielectric constant: 78.4, screening length: 5.74355 Bohr) occupying 0.734639 of unit cell:	Completed after 15 iterations at t[s]:    179.82
	FillingsUpdate:  mu: -0.244750400  nElectrons: 473.593273
	SubspaceRotationAdjust: set factor to 0.324
ElecMinimize: Iter:   5  G: -3123.780570535811876  |grad|_K:  1.103e-05  alpha:  1.120e-01  linmin: -2.211e-05  t[s]:    187.17
	Linear fluid (dielectric constant: 78.4, screening length: 5.74355 Bohr) occupying 0.734888 of unit cell:	Completed after 16 iterations at t[s]:    195.98
	Linear fluid (dielectric constant: 78.4, screening length: 5.74355 Bohr) occupying 0.734800 of unit cell:	Completed after 13 iterations at t[s]:    206.05
	FillingsUpdate:  mu: -0.244750400  nElectrons: 473.530129
	SubspaceRotationAdjust: set factor to 0.493
ElecMinimize: Iter:   6  G: -3123.781683323048128  |grad|_K:  7.742e-06  alpha:  7.354e-02  linmin: -3.445e-07  t[s]:    213.03
	Linear fluid (dielectric constant: 78.4, screening length: 5.74355 Bohr) occupying 0.734911 of unit cell:	Completed after 14 iterations at t[s]:    221.08
	Linear fluid (dielectric constant: 78.4, screening length: 5.74355 Bohr) occupying 0.734902 of unit cell:	Completed after 8 iterations at t[s]:    228.73
	FillingsUpdate:  mu: -0.244750400  nElectrons: 473.452684
	SubspaceRotationAdjust: set factor to 0.453
ElecMinimize: Iter:   7  G: -3123.782186316650495  |grad|_K:  8.028e-06  alpha:  6.813e-02  linmin:  9.315e-06  t[s]:    236.24
	Linear fluid (dielectric constant: 78.4, screening length: 5.74355 Bohr) occupying 0.735057 of unit cell:	Completed after 13 iterations at t[s]:    245.81
	Linear fluid (dielectric constant: 78.4, screening length: 5.74355 Bohr) occupying 0.735058 of unit cell:	Completed after 2 iterations at t[s]:    253.49
	FillingsUpdate:  mu: -0.244750400  nElectrons: 473.441367
	SubspaceRotationAdjust: set factor to 0.662
ElecMinimize: Iter:   8  G: -3123.782729914070387  |grad|_K:  5.285e-06  alpha:  6.883e-02  linmin: -7.902e-06  t[s]:    260.31
	Linear fluid (dielectric constant: 78.4, screening length: 5.74355 Bohr) occupying 0.735157 of unit cell:	Completed after 10 iterations at t[s]:    267.69
	Linear fluid (dielectric constant: 78.4, screening length: 5.74355 Bohr) occupying 0.735147 of unit cell:	Completed after 4 iterations at t[s]:    275.20
	FillingsUpdate:  mu: -0.244750400  nElectrons: 473.439561
	SubspaceRotationAdjust: set factor to 0.584
ElecMinimize: Iter:   9  G: -3123.782943913183317  |grad|_K:  4.716e-06  alpha:  6.209e-02  linmin: -4.576e-06  t[s]:    282.74
	Linear fluid (dielectric constant: 78.4, screening length: 5.74355 Bohr) occupying 0.735250 of unit cell:	Completed after 13 iterations at t[s]:    292.21
	Linear fluid (dielectric constant: 78.4, screening length: 5.74355 Bohr) occupying 0.735262 of unit cell:	Completed after 8 iterations at t[s]:    301.01
	FillingsUpdate:  mu: -0.244750400  nElectrons: 473.383340
	SubspaceRotationAdjust: set factor to 0.335
ElecMinimize: Iter:  10  G: -3123.783133039862150  |grad|_K:  6.142e-06  alpha:  6.908e-02  linmin:  2.258e-05  t[s]:    307.53
	Linear fluid (dielectric constant: 78.4, screening length: 5.74355 Bohr) occupying 0.735485 of unit cell:	Completed after 15 iterations at t[s]:    315.61
	Linear fluid (dielectric constant: 78.4, screening length: 5.74355 Bohr) occupying 0.735566 of unit cell:	Completed after 12 iterations at t[s]:    324.16
	FillingsUpdate:  mu: -0.244750400  nElectrons: 473.352571
	SubspaceRotationAdjust: set factor to 0.54
ElecMinimize: Iter:  11  G: -3123.783569930309568  |grad|_K:  3.802e-06  alpha:  9.456e-02  linmin: -8.501e-06  t[s]:    331.45
	Linear fluid (dielectric constant: 78.4, screening length: 5.74355 Bohr) occupying 0.735699 of unit cell:	Completed after 14 iterations at t[s]:    340.52
	Linear fluid (dielectric constant: 78.4, screening length: 5.74355 Bohr) occupying 0.735685 of unit cell:	Completed after 8 iterations at t[s]:    348.54
	FillingsUpdate:  mu: -0.244750400  nElectrons: 473.375982
	SubspaceRotationAdjust: set factor to 0.35
ElecMinimize: Iter:  12  G: -3123.783721384642377  |grad|_K:  4.007e-06  alpha:  8.473e-02  linmin: -7.928e-06  t[s]:    355.42
	Linear fluid (dielectric constant: 78.4, screening length: 5.74355 Bohr) occupying 0.735830 of unit cell:	Completed after 14 iterations at t[s]:    363.82
	Linear fluid (dielectric constant: 78.4, screening length: 5.74355 Bohr) occupying 0.735810 of unit cell:	Completed after 7 iterations at t[s]:    372.06
	FillingsUpdate:  mu: -0.244750400  nElectrons: 473.361609
	SubspaceRotationAdjust: set factor to 0.443
ElecMinimize: Iter:  13  G: -3123.783865201875869  |grad|_K:  2.569e-06  alpha:  7.249e-02  linmin:  5.194e-06  t[s]:    380.31
	Linear fluid (dielectric constant: 78.4, screening length: 5.74355 Bohr) occupying 0.735865 of unit cell:	Completed after 13 iterations at t[s]:    388.13
	Linear fluid (dielectric constant: 78.4, screening length: 5.74355 Bohr) occupying 0.735884 of unit cell:	Completed after 7 iterations at t[s]:    395.84
	FillingsUpdate:  mu: -0.244750400  nElectrons: 473.368527
	SubspaceRotationAdjust: set factor to 0.344
ElecMinimize: Iter:  14  G: -3123.783944182544474  |grad|_K:  1.827e-06  alpha:  9.715e-02  linmin: -3.408e-05  t[s]:    402.98
	Linear fluid (dielectric constant: 78.4, screening length: 5.74355 Bohr) occupying 0.735925 of unit cell:	Completed after 10 iterations at t[s]:    410.60
	Linear fluid (dielectric constant: 78.4, screening length: 5.74355 Bohr) occupying 0.735931 of unit cell:	Completed after 3 iterations at t[s]:    418.44
	FillingsUpdate:  mu: -0.244750400  nElectrons: 473.356462
	SubspaceRotationAdjust: set factor to 0.347
ElecMinimize: Iter:  15  G: -3123.783991070091361  |grad|_K:  1.541e-06  alpha:  1.132e-01  linmin: -2.134e-07  t[s]:    432.04
	Linear fluid (dielectric constant: 78.4, screening length: 5.74355 Bohr) occupying 0.735966 of unit cell:	Completed after 7 iterations at t[s]:    446.98
	Linear fluid (dielectric constant: 78.4, screening length: 5.74355 Bohr) occupying 0.735983 of unit cell:	Completed after 3 iterations at t[s]:    454.05
	FillingsUpdate:  mu: -0.244750400  nElectrons: 473.354019
	SubspaceRotationAdjust: set factor to 0.387
ElecMinimize: Iter:  16  G: -3123.784041117869037  |grad|_K:  1.157e-06  alpha:  1.712e-01  linmin: -2.543e-06  t[s]:    461.48
	Linear fluid (dielectric constant: 78.4, screening length: 5.74355 Bohr) occupying 0.736011 of unit cell:	Completed after 11 iterations at t[s]:    469.93
	Linear fluid (dielectric constant: 78.4, screening length: 5.74355 Bohr) occupying 0.736003 of unit cell:	Completed after 8 iterations at t[s]:    478.47
	FillingsUpdate:  mu: -0.244750400  nElectrons: 473.362739
	SubspaceRotationAdjust: set factor to 0.338
ElecMinimize: Iter:  17  G: -3123.784061275439853  |grad|_K:  8.892e-07  alpha:  1.227e-01  linmin: -3.209e-06  t[s]:    486.14
	Linear fluid (dielectric constant: 78.4, screening length: 5.74355 Bohr) occupying 0.736013 of unit cell:	Completed after 10 iterations at t[s]:    494.03
	Linear fluid (dielectric constant: 78.4, screening length: 5.74355 Bohr) occupying 0.736011 of unit cell:	Completed after 7 iterations at t[s]:    502.11
	FillingsUpdate:  mu: -0.244750400  nElectrons: 473.357503
	SubspaceRotationAdjust: set factor to 0.268
ElecMinimize: Iter:  18  G: -3123.784070196032644  |grad|_K:  8.445e-07  alpha:  9.161e-02  linmin:  9.528e-06  t[s]:    509.54
	Linear fluid (dielectric constant: 78.4, screening length: 5.74355 Bohr) occupying 0.736016 of unit cell:	Completed after 8 iterations at t[s]:    517.97
	Linear fluid (dielectric constant: 78.4, screening length: 5.74355 Bohr) occupying 0.736017 of unit cell:	Completed after 2 iterations at t[s]:    525.22
	FillingsUpdate:  mu: -0.244750400  nElectrons: 473.362206
	SubspaceRotationAdjust: set factor to 0.267
ElecMinimize: Iter:  19  G: -3123.784078917938132  |grad|_K:  5.771e-07  alpha:  9.974e-02  linmin: -3.415e-05  t[s]:    532.80
	Linear fluid (dielectric constant: 78.4, screening length: 5.74355 Bohr) occupying 0.736018 of unit cell:	Completed after 3 iterations at t[s]:    539.53
	Linear fluid (dielectric constant: 78.4, screening length: 5.74355 Bohr) occupying 0.736018 of unit cell:	Completed after 0 iterations at t[s]:    546.76
	FillingsUpdate:  mu: -0.244750400  nElectrons: 473.363069
	SubspaceRotationAdjust: set factor to 0.261
ElecMinimize: Iter:  20  G: -3123.784083244604517  |grad|_K:  4.072e-07  alpha:  1.038e-01  linmin: -3.451e-05  t[s]:    554.85
	Linear fluid (dielectric constant: 78.4, screening length: 5.74355 Bohr) occupying 0.736017 of unit cell:	Completed after 7 iterations at t[s]:    562.67
	Linear fluid (dielectric constant: 78.4, screening length: 5.74355 Bohr) occupying 0.736017 of unit cell:	Completed after 0 iterations at t[s]:    569.76
	FillingsUpdate:  mu: -0.244750400  nElectrons: 473.360577
	SubspaceRotationAdjust: set factor to 0.257
ElecMinimize: Iter:  21  G: -3123.784085356269770  |grad|_K:  3.984e-07  alpha:  1.018e-01  linmin:  2.233e-06  t[s]:    577.31
	Linear fluid (dielectric constant: 78.4, screening length: 5.74355 Bohr) occupying 0.736015 of unit cell:	Completed after 7 iterations at t[s]:    584.81
	Linear fluid (dielectric constant: 78.4, screening length: 5.74355 Bohr) occupying 0.736015 of unit cell:	Completed after 0 iterations at t[s]:    592.38
	FillingsUpdate:  mu: -0.244750400  nElectrons: 473.362286
	SubspaceRotationAdjust: set factor to 0.279
ElecMinimize: Iter:  22  G: -3123.784087368459950  |grad|_K:  2.878e-07  alpha:  1.031e-01  linmin: -1.962e-05  t[s]:    601.05
	Linear fluid (dielectric constant: 78.4, screening length: 5.74355 Bohr) occupying 0.736013 of unit cell:	Completed after 8 iterations at t[s]:    608.18
	Linear fluid (dielectric constant: 78.4, screening length: 5.74355 Bohr) occupying 0.736014 of unit cell:	Completed after 2 iterations at t[s]:    615.44
	FillingsUpdate:  mu: -0.244750400  nElectrons: 473.364091
	SubspaceRotationAdjust: set factor to 0.215
ElecMinimize: Iter:  23  G: -3123.784088204578438  |grad|_K:  2.850e-07  alpha:  8.207e-02  linmin:  8.674e-06  t[s]:    622.86
	Linear fluid (dielectric constant: 78.4, screening length: 5.74355 Bohr) occupying 0.736012 of unit cell:	Completed after 7 iterations at t[s]:    630.15
	Linear fluid (dielectric constant: 78.4, screening length: 5.74355 Bohr) occupying 0.736012 of unit cell:	Completed after 0 iterations at t[s]:    637.81
	FillingsUpdate:  mu: -0.244750400  nElectrons: 473.362717
	SubspaceRotationAdjust: set factor to 0.267
ElecMinimize: Iter:  24  G: -3123.784088961683665  |grad|_K:  2.000e-07  alpha:  7.644e-02  linmin:  1.777e-06  t[s]:    646.15
	Linear fluid (dielectric constant: 78.4, screening length: 5.74355 Bohr) occupying 0.736011 of unit cell:	Completed after 3 iterations at t[s]:    652.66
	Linear fluid (dielectric constant: 78.4, screening length: 5.74355 Bohr) occupying 0.736011 of unit cell:	Completed after 3 iterations at t[s]:    660.29
	FillingsUpdate:  mu: -0.244750400  nElectrons: 473.361188
	SubspaceRotationAdjust: set factor to 0.251
ElecMinimize: Iter:  25  G: -3123.784089481786395  |grad|_K:  1.894e-07  alpha:  1.105e-01  linmin:  2.704e-05  t[s]:    667.78
	Linear fluid (dielectric constant: 78.4, screening length: 5.74355 Bohr) occupying 0.736009 of unit cell:	Completed after 3 iterations at t[s]:    675.28
	Linear fluid (dielectric constant: 78.4, screening length: 5.74355 Bohr) occupying 0.736009 of unit cell:	Completed after 0 iterations at t[s]:    683.25
	FillingsUpdate:  mu: -0.244750400  nElectrons: 473.362454
	SubspaceRotationAdjust: set factor to 0.326
ElecMinimize: Iter:  26  G: -3123.784089880180545  |grad|_K:  1.289e-07  alpha:  9.368e-02  linmin:  1.533e-05  t[s]:    690.50
	Linear fluid (dielectric constant: 78.4, screening length: 5.74355 Bohr) occupying 0.736009 of unit cell:	Completed after 3 iterations at t[s]:    697.22
	Linear fluid (dielectric constant: 78.4, screening length: 5.74355 Bohr) occupying 0.736008 of unit cell:	Completed after 0 iterations at t[s]:    704.11
	FillingsUpdate:  mu: -0.244750400  nElectrons: 473.363791
	SubspaceRotationAdjust: set factor to 0.349
ElecMinimize: Iter:  27  G: -3123.784090138780357  |grad|_K:  1.003e-07  alpha:  1.245e-01  linmin: -7.256e-05  t[s]:    711.63
	Linear fluid (dielectric constant: 78.4, screening length: 5.74355 Bohr) occupying 0.736008 of unit cell:	Completed after 3 iterations at t[s]:    718.76
	Linear fluid (dielectric constant: 78.4, screening length: 5.74355 Bohr) occupying 0.736008 of unit cell:	Completed after 0 iterations at t[s]:    734.81
	FillingsUpdate:  mu: -0.244750400  nElectrons: 473.363887
	SubspaceRotationAdjust: set factor to 0.451
ElecMinimize: Iter:  28  G: -3123.784090335422661  |grad|_K:  8.495e-08  alpha:  1.361e-01  linmin: -3.473e-05  t[s]:    748.55
	Linear fluid (dielectric constant: 78.4, screening length: 5.74355 Bohr) occupying 0.736007 of unit cell:	Completed after 1 iterations at t[s]:    760.12
	Linear fluid (dielectric constant: 78.4, screening length: 5.74355 Bohr) occupying 0.736007 of unit cell:	Completed after 0 iterations at t[s]:    772.97
	FillingsUpdate:  mu: -0.244750400  nElectrons: 473.363264
	SubspaceRotationAdjust: set factor to 0.511
ElecMinimize: Iter:  29  G: -3123.784090514470790  |grad|_K:  8.879e-08  alpha:  1.737e-01  linmin: -1.453e-05  t[s]:    786.97
	Linear fluid (dielectric constant: 78.4, screening length: 5.74355 Bohr) occupying 0.736006 of unit cell:	Completed after 3 iterations at t[s]:    799.06
	Linear fluid (dielectric constant: 78.4, screening length: 5.74355 Bohr) occupying 0.736006 of unit cell:	Completed after 0 iterations at t[s]:    811.74
	FillingsUpdate:  mu: -0.244750400  nElectrons: 473.362814
	SubspaceRotationAdjust: set factor to 0.52
ElecMinimize: Iter:  30  G: -3123.784090632606421  |grad|_K:  1.046e-07  alpha:  1.094e-01  linmin:  1.441e-05  t[s]:    825.75
	Linear fluid (dielectric constant: 78.4, screening length: 5.74355 Bohr) occupying 0.736005 of unit cell:	Completed after 2 iterations at t[s]:    835.32
	Linear fluid (dielectric constant: 78.4, screening length: 5.74355 Bohr) occupying 0.736005 of unit cell:	Completed after 0 iterations at t[s]:    849.71
	FillingsUpdate:  mu: -0.244750400  nElectrons: 473.363565
	SubspaceRotationAdjust: set factor to 0.523
ElecMinimize: Iter:  31  G: -3123.784090706060852  |grad|_K:  8.556e-08  alpha:  6.816e-02  linmin:  2.651e-06  t[s]:    863.79
	Linear fluid (dielectric constant: 78.4, screening length: 5.74355 Bohr) occupying 0.736005 of unit cell:	Completed after 1 iterations at t[s]:    874.84
	Linear fluid (dielectric constant: 78.4, screening length: 5.74355 Bohr) occupying 0.736005 of unit cell:	Completed after 0 iterations at t[s]:    886.73
	FillingsUpdate:  mu: -0.244750400  nElectrons: 473.363802
	SubspaceRotationAdjust: set factor to 0.52
ElecMinimize: Iter:  32  G: -3123.784090758098955  |grad|_K:  5.655e-08  alpha:  6.174e-02  linmin: -1.190e-05  t[s]:    902.61
	Linear fluid (dielectric constant: 78.4, screening length: 5.74355 Bohr) occupying 0.736005 of unit cell:	Completed after 0 iterations at t[s]:    913.40
	Linear fluid (dielectric constant: 78.4, screening length: 5.74355 Bohr) occupying 0.736004 of unit cell:	Completed after 4 iterations at t[s]:    926.70
ElecMinimize: 	Step increased G by 3.711648e-09, reducing alpha to 1.524572e-02.
	Linear fluid (dielectric constant: 78.4, screening length: 5.74355 Bohr) occupying 0.736005 of unit cell:	Completed after 2 iterations at t[s]:    951.73
	FillingsUpdate:  mu: -0.244750400  nElectrons: 473.363914
	SubspaceRotationAdjust: set factor to 0.511
ElecMinimize: Iter:  33  G: -3123.784090764542270  |grad|_K:  5.464e-08  alpha:  1.525e-02  linmin: -4.724e-05  t[s]:    965.13
	Linear fluid (dielectric constant: 78.4, screening length: 5.74355 Bohr) occupying 0.736005 of unit cell:	Completed after 0 iterations at t[s]:    976.27
ElecMinimize: 	Predicted alpha/alphaT>3.000000, increasing alphaT to 4.573716e-02.
	Linear fluid (dielectric constant: 78.4, screening length: 5.74355 Bohr) occupying 0.736005 of unit cell:	Completed after 0 iterations at t[s]:    989.80
	Linear fluid (dielectric constant: 78.4, screening length: 5.74355 Bohr) occupying 0.736004 of unit cell:	Completed after 0 iterations at t[s]:   1001.81
	FillingsUpdate:  mu: -0.244750400  nElectrons: 473.364098
	SubspaceRotationAdjust: set factor to 0.65
ElecMinimize: Iter:  34  G: -3123.784090821297923  |grad|_K:  5.758e-08  alpha:  9.524e-02  linmin:  1.225e-07  t[s]:   1015.53
	Linear fluid (dielectric constant: 78.4, screening length: 5.74355 Bohr) occupying 0.736003 of unit cell:	Completed after 2 iterations at t[s]:   1028.36
	Linear fluid (dielectric constant: 78.4, screening length: 5.74355 Bohr) occupying 0.736004 of unit cell:	Completed after 2 iterations at t[s]:   1040.62
ElecMinimize: 	Step increased G by 1.941135e-08, reducing alpha to 2.281611e-03.
	Linear fluid (dielectric constant: 78.4, screening length: 5.74355 Bohr) occupying 0.736004 of unit cell:	Completed after 0 iterations at t[s]:   1063.85
ElecMinimize: 	Step increased G by 1.449007e-08, reducing alpha to 2.281611e-04.
	Linear fluid (dielectric constant: 78.4, screening length: 5.74355 Bohr) occupying 0.736004 of unit cell:	Completed after 0 iterations at t[s]:   1088.68
ElecMinimize: 	Step increased G by 1.410763e-08, reducing alpha to 2.281611e-05.
ElecMinimize: 	Step failed to reduce G after 3 attempts. Quitting step.
ElecMinimize: 	Undoing step.
	Linear fluid (dielectric constant: 78.4, screening length: 5.74355 Bohr) occupying 0.736004 of unit cell:	Completed after 0 iterations at t[s]:   1151.07
ElecMinimize: 	Step failed: resetting search direction.
	FillingsUpdate:  mu: -0.244750400  nElectrons: 473.364097
	SubspaceRotationAdjust: set factor to 0.575
ElecMinimize: Iter:  35  G: -3123.784090807208941  |grad|_K:  8.898e-08  alpha:  2.282e-05
	Linear fluid (dielectric constant: 78.4, screening length: 5.74355 Bohr) occupying 0.736004 of unit cell:	Completed after 3 iterations at t[s]:   1219.70
	Linear fluid (dielectric constant: 78.4, screening length: 5.74355 Bohr) occupying 0.736004 of unit cell:	Completed after 1 iterations at t[s]:   1233.92
	FillingsUpdate:  mu: -0.244750400  nElectrons: 473.364383
	SubspaceRotationAdjust: set factor to 0.356
ElecMinimize: Iter:  36  G: -3123.784090828240551  |grad|_K:  7.602e-08  alpha:  3.410e-02  linmin:  1.578e-04  t[s]:   1247.06
	Linear fluid (dielectric constant: 78.4, screening length: 5.74355 Bohr) occupying 0.736004 of unit cell:	Completed after 0 iterations at t[s]:   1255.28
	Linear fluid (dielectric constant: 78.4, screening length: 5.74355 Bohr) occupying 0.736004 of unit cell:	Completed after 2 iterations at t[s]:   1269.06
	FillingsUpdate:  mu: -0.244750400  nElectrons: 473.363468
	SubspaceRotationAdjust: set factor to 0.461
ElecMinimize: Iter:  37  G: -3123.784090840721547  |grad|_K:  6.054e-08  alpha:  9.002e-02  linmin:  4.668e-05  t[s]:   1285.57
	Linear fluid (dielectric constant: 78.4, screening length: 5.74355 Bohr) occupying 0.736004 of unit cell:	Completed after 4 iterations at t[s]:   1296.22
	Linear fluid (dielectric constant: 78.4, screening length: 5.74355 Bohr) occupying 0.736004 of unit cell:	Completed after 0 iterations at t[s]:   1307.86
	FillingsUpdate:  mu: -0.244750400  nElectrons: 473.363287
	SubspaceRotationAdjust: set factor to 0.284
ElecMinimize: Iter:  38  G: -3123.784090842384558  |grad|_K:  1.121e-07  alpha:  2.973e-02  linmin:  5.074e-05  t[s]:   1323.27
	Linear fluid (dielectric constant: 78.4, screening length: 5.74355 Bohr) occupying 0.736003 of unit cell:	Completed after 0 iterations at t[s]:   1333.90
	Linear fluid (dielectric constant: 78.4, screening length: 5.74355 Bohr) occupying 0.736003 of unit cell:	Completed after 0 iterations at t[s]:   1344.58
	FillingsUpdate:  mu: -0.244750400  nElectrons: 473.363374
	SubspaceRotationAdjust: set factor to 0.168
ElecMinimize: Iter:  39  G: -3123.784090866032329  |grad|_K:  8.653e-08  alpha:  2.961e-02  linmin: -1.329e-07  t[s]:   1358.52
	Linear fluid (dielectric constant: 78.4, screening length: 5.74355 Bohr) occupying 0.736003 of unit cell:	Completed after 2 iterations at t[s]:   1370.46
	Linear fluid (dielectric constant: 78.4, screening length: 5.74355 Bohr) occupying 0.736003 of unit cell:	Completed after 0 iterations at t[s]:   1384.32
ElecMinimize: 	Step increased G by 3.863079e-09, reducing alpha to 1.445755e-03.
	Linear fluid (dielectric constant: 78.4, screening length: 5.74355 Bohr) occupying 0.736003 of unit cell:	Completed after 0 iterations at t[s]:   1405.26
ElecMinimize: 	Step increased G by 6.526534e-09, reducing alpha to 1.445755e-04.
	Linear fluid (dielectric constant: 78.4, screening length: 5.74355 Bohr) occupying 0.736003 of unit cell:	Completed after 0 iterations at t[s]:   1430.21
ElecMinimize: 	Step increased G by 6.958544e-09, reducing alpha to 1.445755e-05.
ElecMinimize: 	Step failed to reduce G after 3 attempts. Quitting step.
ElecMinimize: 	Undoing step.
	Linear fluid (dielectric constant: 78.4, screening length: 5.74355 Bohr) occupying 0.736003 of unit cell:	Completed after 0 iterations at t[s]:   1454.33
ElecMinimize: 	Step failed: resetting search direction.
	FillingsUpdate:  mu: -0.244750400  nElectrons: 473.363376
	SubspaceRotationAdjust: set factor to 0.259
ElecMinimize: Iter:  40  G: -3123.784090859116986  |grad|_K:  5.206e-08  alpha:  1.446e-05
	Linear fluid (dielectric constant: 78.4, screening length: 5.74355 Bohr) occupying 0.736003 of unit cell:	Completed after 0 iterations at t[s]:   1478.82
ElecMinimize: 	Predicted alpha/alphaT>3.000000, increasing alphaT to 8.882652e-02.
	Linear fluid (dielectric constant: 78.4, screening length: 5.74355 Bohr) occupying 0.736003 of unit cell:	Completed after 2 iterations at t[s]:   1491.53
	Linear fluid (dielectric constant: 78.4, screening length: 5.74355 Bohr) occupying 0.736003 of unit cell:	Completed after 0 iterations at t[s]:   1506.19
	FillingsUpdate:  mu: -0.244750400  nElectrons: 473.363440
	SubspaceRotationAdjust: set factor to 0.153
ElecMinimize: Iter:  41  G: -3123.784090870251475  |grad|_K:  5.503e-08  alpha:  5.118e-02  linmin:  4.160e-05  t[s]:   1517.83
	Linear fluid (dielectric constant: 78.4, screening length: 5.74355 Bohr) occupying 0.736004 of unit cell:	Completed after 0 iterations at t[s]:   1528.35
ElecMinimize: 	Predicted alpha/alphaT>3.000000, increasing alphaT to 1.535406e-01.
	Linear fluid (dielectric constant: 78.4, screening length: 5.74355 Bohr) occupying 0.736004 of unit cell:	Completed after 5 iterations at t[s]:   1544.55
	Linear fluid (dielectric constant: 78.4, screening length: 5.74355 Bohr) occupying 0.736004 of unit cell:	Completed after 2 iterations at t[s]:   1558.47
	FillingsUpdate:  mu: -0.244750400  nElectrons: 473.363951
	SubspaceRotationAdjust: set factor to 0.0727
	SubspaceRotationAdjust: resetting CG because factor has changed by 0.0727283
	Linear fluid (dielectric constant: 78.4, screening length: 5.74355 Bohr) occupying 0.736004 of unit cell:	Completed after 0 iterations at t[s]:   1579.61
ElecMinimize: 	State modified externally: resetting search direction.
ElecMinimize: Iter:  42  G: -3123.784090891729193  |grad|_K:  2.181e-08  alpha:  4.649e-02
	Linear fluid (dielectric constant: 78.4, screening length: 5.74355 Bohr) occupying 0.736004 of unit cell:	Completed after 0 iterations at t[s]:   1604.44
ElecMinimize: 	Predicted alpha/alphaT>3.000000, increasing alphaT to 1.394612e-01.
	Linear fluid (dielectric constant: 78.4, screening length: 5.74355 Bohr) occupying 0.736004 of unit cell:	Completed after 0 iterations at t[s]:   1617.34
	Linear fluid (dielectric constant: 78.4, screening length: 5.74355 Bohr) occupying 0.736004 of unit cell:	Completed after 0 iterations at t[s]:   1630.73
	FillingsUpdate:  mu: -0.244750400  nElectrons: 473.363863
	SubspaceRotationAdjust: set factor to 0.0293
ElecMinimize: Iter:  43  G: -3123.784090898627255  |grad|_K:  1.713e-08  alpha:  1.254e-01  linmin: -1.469e-04  t[s]:   1645.19
	Linear fluid (dielectric constant: 78.4, screening length: 5.74355 Bohr) occupying 0.736004 of unit cell:	Completed after 0 iterations at t[s]:   1655.57
	Linear fluid (dielectric constant: 78.4, screening length: 5.74355 Bohr) occupying 0.736004 of unit cell:	Completed after 1 iterations at t[s]:   1667.84
ElecMinimize: 	Step increased G by 3.410469e-08, reducing alpha to 2.942834e-02.
	Linear fluid (dielectric constant: 78.4, screening length: 5.74355 Bohr) occupying 0.736004 of unit cell:	Completed after 0 iterations at t[s]:   1691.42
	FillingsUpdate:  mu: -0.244750400  nElectrons: 473.363830
	SubspaceRotationAdjust: set factor to 0.0285
ElecMinimize: Iter:  44  G: -3123.784090898909653  |grad|_K:  4.168e-08  alpha:  2.943e-02  linmin:  1.017e-04  t[s]:   1703.70
ElecMinimize: Converged (|Delta G|<1.000000e-08 for 2 iters).
Setting wave functions to eigenvectors of Hamiltonian

# Ionic positions in lattice coordinates:
ion Li   0.250000000000000   0.138480627676396   0.519765368209435 0
ion Li   0.583333333333333   0.138480627676396   0.519765368209435 0
ion Li   0.916666666666667   0.138480627676396   0.519765368209435 0
ion Li   0.250000000000000   0.849344287261574   0.607762461400828 0
ion Li   0.583333333333333   0.849344287261574   0.607762461400828 0
ion Li   0.916666666666667   0.849344287261574   0.607762461400828 0
ion Li   0.083333333333333   0.150636998543358   0.392231643806340 0
ion Li   0.416666666666667   0.150636998543358   0.392231643806340 0
ion Li   0.750000000000000   0.150636998543358   0.392231643806340 0
ion Li   0.083333333333333   0.861554631968501   0.480251796675669 0
ion Li   0.416666666666667   0.861554631968501   0.480251796675669 0
ion Li   0.750000000000000   0.861554631968501   0.480251796675669 0
ion Cu   0.083333333333333   0.501962207303776   0.566636796979411 0
ion Cu   0.416666666666667   0.501962207303776   0.566636796979411 0
ion Cu   0.750000000000000   0.501962207303776   0.566636796979411 0
ion Cu   0.083333333333333   0.169576818453279   0.658851103381099 0
ion Cu   0.416666666666667   0.169576818453279   0.658851103381099 0
ion Cu   0.750000000000000   0.169576818453279   0.658851103381099 0
ion Cu   0.250000000000000   0.830369691327466   0.341107779664638 0
ion Cu   0.583333333333333   0.830369691327466   0.341107779664638 0
ion Cu   0.916666666666667   0.830369691327466   0.341107779664638 0
ion Cu   0.250000000000000   0.498082374255930   0.433392104743641 0
ion Cu   0.583333333333333   0.498082374255930   0.433392104743641 0
ion Cu   0.916666666666667   0.498082374255930   0.433392104743641 0
ion F   0.083333333333333   0.319346120368948   0.507616456699274 0
ion F   0.416666666666667   0.319346120368948   0.507616456699274 0
ion F   0.750000000000000   0.319346120368948   0.507616456699274 0
ion F   0.083333333333333   0.990175753309549   0.555823732594357 0
ion F   0.416666666666667   0.990175753309549   0.555823732594357 0
ion F   0.750000000000000   0.990175753309549   0.555823732594357 0
ion F   0.083333333333333   0.689737103450906   0.620225388441136 0
ion F   0.416666666666667   0.689737103450906   0.620225388441136 0
ion F   0.750000000000000   0.689737103450906   0.620225388441136 0
ion F   0.250000000000000   0.330528927901049   0.627940784217324 0
ion F   0.583333333333333   0.330528927901049   0.627940784217324 0
ion F   0.916666666666667   0.330528927901049   0.627940784217324 0
ion F   0.250000000000000  -0.000307335671843   0.679208439746356 0
ion F   0.583333333333333  -0.000307335671843   0.679208439746356 0
ion F   0.916666666666667  -0.000307335671843   0.679208439746356 0
ion F   0.083333333333333   1.000233200258994   0.320743502879832 0
ion F   0.416666666666667   1.000233200258994   0.320743502879832 0
ion F   0.750000000000000   1.000233200258994   0.320743502879832 0
ion F   0.083333333333333   0.669457052666533   0.372028174053647 0
ion F   0.416666666666667   0.669457052666533   0.372028174053647 0
ion F   0.750000000000000   0.669457052666533   0.372028174053647 0
ion F   0.250000000000000   0.310300048619681   0.379814583187908 0
ion F   0.583333333333333   0.310300048619681   0.379814583187908 0
ion F   0.916666666666667   0.310300048619681   0.379814583187908 0
ion F   0.250000000000000   0.009826392736341   0.444185391087150 0
ion F   0.583333333333333   0.009826392736341   0.444185391087150 0
ion F   0.916666666666667   0.009826392736341   0.444185391087150 0
ion F   0.250000000000000   0.680695099569561   0.492414492231969 0
ion F   0.583333333333333   0.680695099569561   0.492414492231969 0
ion F   0.916666666666667   0.680695099569561   0.492414492231969 0


# Forces in Lattice coordinates:
force Li   0.000000000000000   0.008209206787585   0.030243574019822 0
force Li   0.000000000000000   0.008209206787588   0.030243574019822 0
force Li  -0.000000000000000   0.008209206787588   0.030243574019822 0
force Li  -0.000000000000000   0.004433633770651   0.097090070528596 0
force Li   0.000000000000000   0.004433633770651   0.097090070528596 0
force Li   0.000000000000000   0.004433633770651   0.097090070528596 0
force Li   0.000000000000000  -0.004542635680586  -0.097423880858898 0
force Li  -0.000000000000000  -0.004542635680585  -0.097423880858898 0
force Li   0.000000000000000  -0.004542635680586  -0.097423880858898 0
force Li  -0.000000000000000  -0.008171650227779  -0.030930961983542 0
force Li  -0.000000000000000  -0.008171650227779  -0.030930961983542 0
force Li   0.000000000000000  -0.008171650227779  -0.030930961983542 0
force Cu   0.000000000000000   0.002093925746767   0.104441371361907 0
force Cu   0.000000000000000   0.002093925746752   0.104441371361908 0
force Cu  -0.000000000000000   0.002093925746767   0.104441371361907 0
force Cu  -0.000000000000000  -0.007991525789292   0.304583049210748 0
force Cu   0.000000000000000  -0.007991525789289   0.304583049211658 0
force Cu  -0.000000000000000  -0.007991525789295   0.304583049212567 0
force Cu   0.000000000000000   0.007808111210369  -0.304002927721315 0
force Cu   0.000000000000000   0.007808111210369  -0.304002927721315 0
force Cu   0.000000000000000   0.007808111210372  -0.304002927721315 0
force Cu   0.000000000000000  -0.001719313395911  -0.103765092642054 0
force Cu   0.000000000000000  -0.001719313395911  -0.103765092642053 0
force Cu   0.000000000000000  -0.001719313395911  -0.103765092642054 0
force F   0.000000000000000   0.014380101835264   0.020976194889693 0
force F  -0.000000000000000   0.014380101835264   0.020976194889693 0
force F  -0.000000000000000   0.014380101835250   0.020976194889693 0
force F   0.000000000000000  -0.007001908795034  -0.037662373657249 0
force F  -0.000000000000000  -0.007001908795030  -0.037662373657250 0
force F  -0.000000000000000  -0.007001908795034  -0.037662373657249 0
force F  -0.000000000000000  -0.015520508139342  -0.072020955170977 0
force F   0.000000000000000  -0.015520508139342  -0.072020955170526 0
force F  -0.000000000000000  -0.015520508139342  -0.072020955170977 0
force F   0.000000000000000  -0.011551855737093  -0.093458410063844 0
force F  -0.000000000000000  -0.011551855737093  -0.093458410063845 0
force F   0.000000000000000  -0.011551855737078  -0.093458410063845 0
force F   0.000000000000000   0.004141023054034  -0.147283550068886 0
force F   0.000000000000000   0.004141023054005  -0.147283550068888 0
force F  -0.000000000000000   0.004141023054034  -0.147283550068888 0
force F  -0.000000000000000  -0.003588047052057   0.148825078544018 0
force F  -0.000000000000000  -0.003588047052029   0.148825078544018 0
force F  -0.000000000000000  -0.003588047052029   0.148825078544018 0
force F   0.000000000000000   0.011502342590380   0.094183122902062 0
force F   0.000000000000000   0.011502342590394   0.094183122901608 0
force F  -0.000000000000000   0.011502342590380   0.094183122901608 0
force F   0.000000000000000   0.014917754144826   0.070190809571169 0
force F   0.000000000000000   0.014917754144826   0.070190809571624 0
force F  -0.000000000000000   0.014917754144826   0.070190809571628 0
force F   0.000000000000000   0.007085798427074   0.037291040748327 0
force F   0.000000000000000   0.007085798427074   0.037291040748328 0
force F   0.000000000000000   0.007085798427077   0.037291040748214 0
force F  -0.000000000000000  -0.014584664155758  -0.021832365591870 0
force F   0.000000000000000  -0.014584664155757  -0.021832365591884 0
force F   0.000000000000000  -0.014584664155758  -0.021832365591870 0

# Energy components:
   A_diel =       -0.0208182948642260
   Eewald =    27541.2321654188854154
       EH =    30368.2713946883013705
     Eloc =   -61815.1779545131794293
      Enl =      524.5405686303039374
      Exc =     -394.3137731879233456
 Exc_core =        0.5636536903986782
       KE =      535.3110294704836178
  MuShift =        0.0157609781477339
-------------------------------------
     Etot =    -3239.5779731194447777
       TS =        0.0621044478532284
-------------------------------------
        F =    -3239.6400775672977943
      muN =     -115.8559866683879278
-------------------------------------
        G =    -3123.7840908989096533

IonicMinimize: Iter:   0  G: -3123.784090898909653  |grad|_K:  0.000e+00  t[s]:   1713.72
IonicMinimize: Converged (|grad|_K<1.000000e-04).

#--- Lowdin population analysis ---
# oxidation-state Li +0.189 +0.189 +0.189 +0.210 +0.210 +0.210 +0.211 +0.211 +0.211 +0.189 +0.189 +0.189
# oxidation-state Cu +0.538 +0.538 +0.538 +0.669 +0.669 +0.669 +0.669 +0.669 +0.669 +0.538 +0.538 +0.538
# oxidation-state F -0.239 -0.239 -0.239 -0.308 -0.308 -0.308 -0.263 -0.263 -0.263 -0.220 -0.220 -0.220 -0.234 -0.234 -0.234 -0.234 -0.234 -0.234 -0.220 -0.220 -0.220 -0.263 -0.263 -0.263 -0.308 -0.308 -0.308 -0.239 -0.239 -0.239


Dumping 'NbTe2.fillings' ... done
Dumping 'NbTe2.wfns' ... done
Dumping 'NbTe2.fluidState' ... done
Dumping 'NbTe2.eigenvals' ... done
End date and time: Sat Jul 18 07:26:16 2020  (Duration: 0-0:28:38.43)
Done!
