
*************** JDFTx 1.5.0  ***************

Start date and time: Sat Dec 26 04:09:49 2020
Executable jdftx_gpu with command-line: -i Charged.in -o Charged.out
Running on hosts (process indices):  amax (0-4)
Divided in process groups (process indices):  0 (0)  1 (1)  2 (2)  3 (3)  4 (4)
gpuInit: Found compatible cuda device 0 'Tesla K80'
gpuInit: Found compatible cuda device 1 'Tesla K80'
gpuInit: Found compatible cuda device 2 'Tesla K80'
gpuInit: Found compatible cuda device 3 'Tesla K80'
gpuInit: Found compatible cuda device 4 'Tesla K80'
gpuInit: Selected device 0
Resource initialization completed at t[s]:      3.20
Run totals: 5 processes, 24 threads, 5 GPUs


Encountered 1 errors while parsing input:


Command 'lattice'  with command line:
	lattice Triclinic 12.64780 12.64780 90.0000 90.0000 119.9999 
failed with message:
	Parameter <gamma> must be specified.
The correct usage of this command is described below:
	lattice  [<modification>] <lattice> <parameters...>
	| \
	<R00> <R01> <R02> \
	<R10> <R11> <R12> \
	<R20> <R21> <R22>
Specify lattice by name and parameters, or explicitly using lattice vectors.

The options for the first syntax ([<modification>] <lattice> <parameters...> scheme) are:
+ Triclinic <a> <b> <c> <alpha> <beta> <gamma>
+ [Base-Centered] Monoclinic <a> <b> <c> <beta>
+ [Base|Body|Face-Centered] Orthorhombic <a> <b> <c>
+ [Body-Centered] Tetragonal <a> <c>
+ Rhombohedral <a> <alpha>
+ Hexagonal <a> <c>
+ [Body|Face-Centered] Cubic <a>
where lengths <a>,<b>,<c> are in bohrs and angles <alpha>,<beta,<gamma> are in degrees.

Alternately, the second syntax directly specifies the transformation
matrix from lattice to Cartesian coordinates. Therefore, the columns
of this 3x3 matrix are the lattice vectors in bohrs.

NOTE: other DFT codes may specify lattice vectors in rows;
confirm that you switch them to columns if porting an input file to JDFTx.



Input parsing failed with 1 errors (run with -t for command syntax)

End date and time: Sat Dec 26 04:09:52 2020  (Duration: 0-0:00:03.21)
Failed.

*************** JDFTx 1.5.0  ***************

Start date and time: Sun Dec 27 17:41:01 2020
Executable jdftx_gpu with command-line: -i Charged.in -o Charged.out
Running on hosts (process indices):  amax (0-4)
Divided in process groups (process indices):  0 (0)  1 (1)  2 (2)  3 (3)  4 (4)
gpuInit: Found compatible cuda device 0 'Tesla K80'
gpuInit: Found compatible cuda device 1 'Tesla K80'
gpuInit: Found compatible cuda device 2 'Tesla K80'
gpuInit: Found compatible cuda device 3 'Tesla K80'
gpuInit: Found compatible cuda device 4 'Tesla K80'
gpuInit: Selected device 0
Resource initialization completed at t[s]:      3.03
Run totals: 5 processes, 24 threads, 5 GPUs


Input parsed successfully to the following command list (including defaults):

basis kpoint-dependent
cache-projectors no
coords-type Lattice
core-overlap-check none
coulomb-interaction Slab 001
coulomb-truncation-embed 0.5 0.5 0.5
davidson-band-ratio 1.1
dump End State
dump-name NbTe2.$VAR
elec-cutoff 20
elec-eigen-algo Davidson
elec-ex-corr gga-PBE
elec-initial-charge -0.200000
elec-initial-magnetization 5.000000 no
elec-smearing Gauss 0.0073499
electronic-minimize  \
	dirUpdateScheme      FletcherReeves \
	linminMethod         DirUpdateRecommended \
	nIterations          200 \
	history              15 \
	knormThreshold       0 \
	energyDiffThreshold  1e-08 \
	nEnergyDiff          2 \
	alphaTstart          1 \
	alphaTmin            1e-10 \
	updateTestStepSize   yes \
	alphaTreduceFactor   0.1 \
	alphaTincreaseFactor 3 \
	nAlphaAdjustMax      3 \
	wolfeEnergy          0.0001 \
	wolfeGradient        0.9 \
	fdTest               no
exchange-regularization WignerSeitzTruncated
fluid LinearPCM 298.000000 1.013250
fluid-anion F- 1 MeanFieldLJ \
	epsBulk 1 \
	pMol 0 \
	epsInf 1 \
	Pvap 0 \
	sigmaBulk 0 \
	Rvdw 2.24877 \
	Res 0 \
	tauNuc 343133
fluid-cation Na+ 1 MeanFieldLJ \
	epsBulk 1 \
	pMol 0 \
	epsInf 1 \
	Pvap 0 \
	sigmaBulk 0 \
	Rvdw 2.19208 \
	Res 0 \
	tauNuc 343133
fluid-ex-corr lda-TF lda-PZ
fluid-gummel-loop 10 1.000000e-05
fluid-minimize  \
	dirUpdateScheme      PolakRibiere \
	linminMethod         DirUpdateRecommended \
	nIterations          400 \
	history              15 \
	knormThreshold       1e-11 \
	energyDiffThreshold  0 \
	nEnergyDiff          2 \
	alphaTstart          1 \
	alphaTmin            1e-10 \
	updateTestStepSize   yes \
	alphaTreduceFactor   0.1 \
	alphaTincreaseFactor 3 \
	nAlphaAdjustMax      6 \
	wolfeEnergy          0.0001 \
	wolfeGradient        0.9 \
	fdTest               no
fluid-solvent H2O 55.338 ScalarEOS \
	epsBulk 78.4 \
	pMol 0.92466 \
	epsInf 1.77 \
	Pvap 1.06736e-10 \
	sigmaBulk 4.62e-05 \
	Rvdw 2.61727 \
	Res 1.42 \
	tauNuc 343133 \
	poleEl 15 7 1
forces-output-coords Positions
initial-state NbTe2.$VAR
ion Mo   0.083329995000000   0.166669989000000   0.500000000000000 1
ion Mo   0.333329995000000   0.166669989000000   0.500000000000000 1
ion Mo   0.583329957000000   0.166669989000000   0.500000000000000 1
ion Mo   0.833329995000000   0.166669989000000   0.500000000000000 1
ion Mo   0.083329990000000   0.416669995000000   0.500000000000000 1
ion Mo   0.333329999000000   0.416669995000000   0.500000000000000 1
ion Mo   0.583329962000000   0.416669995000000   0.500000000000000 1
ion Mo   0.833329962000000   0.416669995000000   0.500000000000000 1
ion Mo   0.083329999000000   0.666669989000000   0.500000000000000 1
ion Mo   0.333329999000000   0.666669989000000   0.500000000000000 1
ion Mo   0.583329961000000   0.666669989000000   0.500000000000000 1
ion Mo   0.833329961000000   0.666669989000000   0.500000000000000 1
ion Mo   0.083329998000000   0.916669983000000   0.500000000000000 1
ion Mo   0.333329998000000   0.916669983000000   0.500000000000000 1
ion Mo   0.583329960000000   0.916669983000000   0.500000000000000 1
ion Mo   0.833329960000000   0.916669983000000   0.500000000000000 1
ion S   0.166669999000000   0.083329994000000   0.586509994000000 1
ion S   0.166669999000000   0.083329994000000   0.413490006000000 1
ion S   0.416669999000000   0.083329994000000   0.586509994000000 1
ion S   0.416669999000000   0.083329994000000   0.413490006000000 1
ion S   0.666670037000000   0.083329994000000   0.586509994000000 1
ion S   0.666670037000000   0.083329994000000   0.413490006000000 1
ion S   0.916670037000000   0.083329994000000   0.586509994000000 1
ion S   0.916670037000000   0.083329994000000   0.413490006000000 1
ion S   0.166669999000000   0.333329988000000   0.586509994000000 1
ion S   0.166669999000000   0.333329988000000   0.413490006000000 1
ion S   0.416669999000000   0.333329988000000   0.586509994000000 1
ion S   0.416669999000000   0.333329988000000   0.413490006000000 1
ion S   0.666670036000000   0.333329988000000   0.586509994000000 1
ion S   0.666670036000000   0.333329988000000   0.413490006000000 1
ion S   0.916669999000000   0.333329988000000   0.586509994000000 1
ion S   0.916669999000000   0.333329988000000   0.413490006000000 1
ion S   0.166669998000000   0.583329982000000   0.586509994000000 1
ion S   0.166669998000000   0.583329982000000   0.413490006000000 1
ion S   0.416669998000000   0.583329982000000   0.586509994000000 1
ion S   0.416669998000000   0.583329982000000   0.413490006000000 1
ion S   0.666670036000000   0.583329982000000   0.586509994000000 1
ion S   0.666670036000000   0.583329982000000   0.413490006000000 1
ion S   0.916670036000000   0.583329982000000   0.586509994000000 1
ion S   0.916670036000000   0.583329982000000   0.413490006000000 1
ion S   0.166669997000000   0.833329976000000   0.586509994000000 1
ion S   0.166669997000000   0.833329976000000   0.413490006000000 1
ion S   0.416669997000000   0.833329976000000   0.586509994000000 1
ion S   0.416669997000000   0.833329976000000   0.413490006000000 1
ion S   0.666670035000000   0.833329976000000   0.586509994000000 1
ion S   0.666670035000000   0.833329976000000   0.413490006000000 1
ion S   0.916670035000000   0.833329976000000   0.586509994000000 1
ion S   0.916670035000000   0.833329976000000   0.413490006000000 1
ion-species GBRV/$ID_pbe.uspp
ion-width Ecut
ionic-minimize  \
	dirUpdateScheme      L-BFGS \
	linminMethod         DirUpdateRecommended \
	nIterations          500 \
	history              15 \
	knormThreshold       0.0001 \
	energyDiffThreshold  1e-06 \
	nEnergyDiff          2 \
	alphaTstart          1 \
	alphaTmin            1e-10 \
	updateTestStepSize   yes \
	alphaTreduceFactor   0.1 \
	alphaTincreaseFactor 3 \
	nAlphaAdjustMax      3 \
	wolfeEnergy          0.0001 \
	wolfeGradient        0.9 \
	fdTest               no
kpoint   0.000000000000   0.000000000000   0.000000000000  1.00000000000000
kpoint-folding 5 5 1 
latt-move-scale 1 1 1
latt-scale 1.88973 1.88973 1.88973 
lattice Triclinic 12.6478 12.6478 18.1298 90 90 120
lattice-minimize  \
	dirUpdateScheme      L-BFGS \
	linminMethod         DirUpdateRecommended \
	nIterations          0 \
	history              15 \
	knormThreshold       0 \
	energyDiffThreshold  1e-06 \
	nEnergyDiff          2 \
	alphaTstart          1 \
	alphaTmin            1e-10 \
	updateTestStepSize   yes \
	alphaTreduceFactor   0.1 \
	alphaTincreaseFactor 3 \
	nAlphaAdjustMax      3 \
	wolfeEnergy          0.0001 \
	wolfeGradient        0.9 \
	fdTest               no
lcao-params -1 1e-06 0.0073499
pcm-variant CANDLE
spintype z-spin
subspace-rotation-factor 1 yes
symmetries automatic
symmetry-threshold 0.0001



---------- Setting up symmetries ----------

Found 24 point-group symmetries of the bravais lattice
Found 64 space-group symmetries with basis
Applied RMS atom displacement 4.95407e-07 bohrs to make symmetries exact.

---------- Initializing the Grid ----------
R = 
[    23.9009   -11.9504          0  ]
[          0    20.6988          0  ]
[          0          0    34.2604  ]
unit cell volume = 16949.3
G =
[   0.262885   0.151776         -0  ]
[          0   0.303553          0  ]
[          0         -0   0.183395  ]
Minimum fftbox size, Smin = [  100  100  140  ]
Chosen fftbox size, S = [  100  100  140  ]

---------- Exchange Correlation functional ----------
Initalized PBE GGA exchange.
Initalized PBE GGA correlation.

---------- Setting up pseudopotentials ----------
Width of ionic core gaussian charges (only for fluid interactions / plotting) set to 0.397384

Reading pseudopotential file '/home/guoxy/vasp/jdftx-1.5.0/build/pseudopotentials/GBRV/mo_pbe.uspp':
  Title: Mo.  Created by USPP 7.3.6 on 14-9-2013
  Reference state energy: -69.261020.  14 valence electrons in orbitals:
    |400>  occupation: 2  eigenvalue: -2.465796
    |410>  occupation: 6  eigenvalue: -1.510132
    |420>  occupation: 4  eigenvalue: -0.207728
    |500>  occupation: 2  eigenvalue: -0.179278
    |510>  occupation: 0  eigenvalue: -0.052696
  lMax: 2  lLocal: 3  QijEcut: 5
  6 projectors sampled on a log grid with 629 points:
    l: 0  eig: -2.465797  rCut: 1.8
    l: 0  eig: -0.179280  rCut: 1.8
    l: 1  eig: -1.510132  rCut: 2
    l: 1  eig: 0.150000  rCut: 2
    l: 2  eig: -0.052696  rCut: 2.2
    l: 2  eig: 0.150000  rCut: 2.2
  Partial core density with radius 1.2
  Transforming core density to a uniform radial grid of dG=0.02 with 1468 points.
  Transforming local potential to a uniform radial grid of dG=0.02 with 1468 points.
  Transforming nonlocal projectors to a uniform radial grid of dG=0.02 with 432 points.
  Transforming density augmentations to a uniform radial grid of dG=0.02 with 1468 points.
  Transforming atomic orbitals to a uniform radial grid of dG=0.02 with 432 points.
  Core radius for overlap checks: 2.20 bohrs.

Reading pseudopotential file '/home/guoxy/vasp/jdftx-1.5.0/build/pseudopotentials/GBRV/s_pbe.uspp':
  Title: S.  Created by USPP 7.3.6 on 1-4-15
  Reference state energy: -11.898476.  6 valence electrons in orbitals:
    |300>  occupation: 2  eigenvalue: -0.634167
    |310>  occupation: 4  eigenvalue: -0.257568
  lMax: 2  lLocal: 3  QijEcut: 6
  6 projectors sampled on a log grid with 635 points:
    l: 0  eig: -0.634161  rCut: 1.5
    l: 0  eig: 1.500000  rCut: 1.5
    l: 1  eig: -0.257567  rCut: 1.5
    l: 1  eig: 1.500000  rCut: 1.5
    l: 2  eig: -1.000000  rCut: 1.5
    l: 2  eig: 1.500000  rCut: 1.5
  Partial core density with radius 1.15
  Transforming core density to a uniform radial grid of dG=0.02 with 1468 points.
  Transforming local potential to a uniform radial grid of dG=0.02 with 1468 points.
  Transforming nonlocal projectors to a uniform radial grid of dG=0.02 with 432 points.
  Transforming density augmentations to a uniform radial grid of dG=0.02 with 1468 points.
  Transforming atomic orbitals to a uniform radial grid of dG=0.02 with 432 points.
  Core radius for overlap checks: 1.50 bohrs.

Initialized 2 species with 48 total atoms.

Folded 1 k-points by 5x5x1 to 25 k-points.

---------- Setting up k-points, bands, fillings ----------
Adding inversion symmetry to k-mesh for non-inversion-symmetric unit cell.
Reduced to 9 k-points under symmetry. 
Computing the number of bands and number of electrons
Calculating initial fillings.
nElectrons: 415.800000   nBands: 336   nStates: 18

----- Setting up reduced wavefunction bases (one per k-point) -----
average nbasis = 72415.080 , ideal nbasis = 72408.503

---------- Setting up coulomb interaction ----------
Fluid mode embedding: using embedded box, but periodic Coulomb kernel.
(Fluid response is responsible for (approximate) separation between periodic images.)
Setting up double-sized grid for truncated Coulomb potentials:
R = 
[    23.9009   -11.9504          0  ]
[          0    20.6988          0  ]
[          0          0    68.5207  ]
unit cell volume = 33898.5
G =
[   0.262885   0.151776         -0  ]
[          0   0.303553          0  ]
[          0         -0  0.0916976  ]
Chosen fftbox size, S = [  100  100  280  ]
Integer grid location selected as the embedding center:
   Grid: [  50  50  70  ]
   Lattice: [  0.5  0.5  0.5  ]
   Cartesian: [  5.97524  10.3494  17.1302  ]
Constructing Wigner-Seitz cell: 8 faces (6 quadrilaterals, 2 hexagons)
Range-separation parameter for embedded mesh potentials due to point charges: 0.624082 bohrs.

Initializing van der Waals corrections
	NOTE: vdW corrections apply only for interactions with fluid.
	Mo:  C6:  427.91 Eh-a0^6  R0: 3.097 a0
	 S:  C6:   96.61 Eh-a0^6  R0: 3.180 a0

---------- Setting up ewald sum ----------
Optimum gaussian width for ewald sums = 6.772724 bohr.
Real space sum over 605 unit cells with max indices [  5  5  2  ]
Reciprocal space sum over 7875 terms with max indices [  7  7  17  ]

---------- Allocating electronic variables ----------
Initializing wave functions:  linear combination of atomic orbitals
Mo pseudo-atom occupations:   s ( 2 0 )  p ( 6 0 )  d ( 6 )
S pseudo-atom occupations:   s ( 2 )  p ( 4 )
	FillingsUpdate:  mu: +2.799687381  nElectrons: 415.800000  magneticMoment: [ Abs: 0.33364  Tot: +0.33288 ]
LCAOMinimize: Iter:   0  F: -1200.4954875073174208  |grad|_K:  1.597e-02  alpha:  1.000e+00
	FillingsUpdate:  mu: -1.401237433  nElectrons: 415.800000  magneticMoment: [ Abs: 0.91410  Tot: +0.87246 ]
LCAOMinimize: Iter:   1  F: -1330.6981288157719518  |grad|_K:  1.113e-02  alpha:  4.507e-01  linmin:  9.492e-02  cgtest: -9.519e-01  t[s]:    398.77
LCAOMinimize: 	Bad step direction: g.d > 0.
LCAOMinimize: 	Undoing step.
LCAOMinimize: 	Step failed: resetting search direction.
	FillingsUpdate:  mu: -1.401237433  nElectrons: 415.800000  magneticMoment: [ Abs: 0.91410  Tot: +0.87246 ]
LCAOMinimize: Iter:   2  F: -1330.6981288157719518  |grad|_K:  1.113e-02  alpha:  0.000e+00
	FillingsUpdate:  mu: -0.559844317  nElectrons: 415.800000  magneticMoment: [ Abs: 0.23472  Tot: +0.07788 ]
LCAOMinimize: Iter:   3  F: -1403.1911847742715054  |grad|_K:  6.884e-03  alpha:  1.970e-01  linmin: -3.414e-01  cgtest:  7.192e-01  t[s]:    615.44
LCAOMinimize: Encountered beta<0, resetting CG.
LCAOMinimize: 	Wrong curvature in test step, increasing alphaT to 5.911487e-01.
	FillingsUpdate:  mu: -0.305594747  nElectrons: 415.800000  magneticMoment: [ Abs: 0.39824  Tot: +0.05979 ]
LCAOMinimize: Iter:   4  F: -1422.3992291930544525  |grad|_K:  2.702e-03  alpha: -1.558e+01  linmin: -4.033e-01  cgtest:  6.108e-01  t[s]:    740.57
LCAOMinimize: Encountered beta<0, resetting CG.
	FillingsUpdate:  mu: -0.244694678  nElectrons: 415.800000  magneticMoment: [ Abs: 0.39739  Tot: +0.04923 ]
LCAOMinimize: Iter:   5  F: -1423.4771001935844197  |grad|_K:  1.317e-03  alpha:  9.391e-02  linmin: -4.342e-01  cgtest:  9.470e-01  t[s]:    866.73
LCAOMinimize: Encountered beta<0, resetting CG.
	FillingsUpdate:  mu: -0.167599328  nElectrons: 415.800000  magneticMoment: [ Abs: 0.36481  Tot: +0.03239 ]
LCAOMinimize: Iter:   6  F: -1423.7780036610402021  |grad|_K:  2.139e-04  alpha:  1.768e-01  linmin:  2.584e-01  cgtest: -4.648e-01  t[s]:    993.25
LCAOMinimize: 	Predicted alpha/alphaT>3.000000, increasing alphaT to 5.304686e-01.
	FillingsUpdate:  mu: -0.161608528  nElectrons: 415.800000  magneticMoment: [ Abs: 0.19671  Tot: +0.01039 ]
LCAOMinimize: Iter:   7  F: -1423.7974037989681619  |grad|_K:  1.586e-04  alpha:  6.055e-01  linmin: -1.768e-03  cgtest:  6.545e-01  t[s]:   1155.61
	FillingsUpdate:  mu: -0.171095848  nElectrons: 415.800000  magneticMoment: [ Abs: 0.17174  Tot: +0.00870 ]
LCAOMinimize: Iter:   8  F: -1423.8014523329577514  |grad|_K:  1.385e-05  alpha:  1.605e-01  linmin:  1.016e-01  cgtest: -2.116e-01  t[s]:   1282.22
LCAOMinimize: 	Predicted alpha/alphaT>3.000000, increasing alphaT to 4.816448e-01.
	FillingsUpdate:  mu: -0.170872709  nElectrons: 415.800000  magneticMoment: [ Abs: 0.07122  Tot: +0.00192 ]
LCAOMinimize: Iter:   9  F: -1423.8016092123421004  |grad|_K:  3.470e-06  alpha:  8.475e-01  linmin:  7.921e-04  cgtest:  2.491e-01  t[s]:   1444.62
	FillingsUpdate:  mu: -0.170665281  nElectrons: 415.800000  magneticMoment: [ Abs: 0.06179  Tot: +0.00161 ]
LCAOMinimize: Iter:  10  F: -1423.8016116851274546  |grad|_K:  1.666e-06  alpha:  2.008e-01  linmin: -6.894e-04  cgtest:  1.437e-03  t[s]:   1571.15
LCAOMinimize: 	Predicted alpha/alphaT>3.000000, increasing alphaT to 6.022602e-01.
	FillingsUpdate:  mu: -0.170781522  nElectrons: 415.800000  magneticMoment: [ Abs: 0.02029  Tot: +0.00030 ]
LCAOMinimize: Iter:  11  F: -1423.8016139755929999  |grad|_K:  4.706e-07  alpha:  8.066e-01  linmin: -7.623e-05  cgtest: -2.804e-03  t[s]:   1733.48
	FillingsUpdate:  mu: -0.170767592  nElectrons: 415.800000  magneticMoment: [ Abs: 0.00210  Tot: -0.00004 ]
LCAOMinimize: Iter:  12  F: -1423.8016142204503467  |grad|_K:  8.787e-08  alpha:  1.082e+00  linmin: -3.365e-05  cgtest:  3.394e-04  t[s]:   1859.66
	FillingsUpdate:  mu: -0.170769639  nElectrons: 415.800000  magneticMoment: [ Abs: 0.00111  Tot: -0.00000 ]
LCAOMinimize: Iter:  13  F: -1423.8016142264818882  |grad|_K:  6.306e-08  alpha:  7.640e-01  linmin: -1.770e-04  cgtest:  4.895e-04  t[s]:   1985.62
LCAOMinimize: Converged (|Delta F|<1.000000e-06 for 2 iters).
----- createFluidSolver() ----- (Fluid-side solver setup)
   Initializing fluid molecule 'H2O'
     Initializing site 'O'
       Electron density: proportional to exp(-r/0.36935)*erfc((r-0.51523)/0.36823) with norm 6.826
       Charge density: gaussian nuclear width 0.478731 with net site charge 0.826
       Polarizability: cuspless exponential with width 0.32 and norm 3.73
       Hard sphere radius: 2.57003 bohrs
       Positions in reference frame:
         [ +0.000000 +0.000000 +0.000000 ]
     Initializing site 'H'
       Electron density: proportional to exp(-r/0.34641)*erfc((r-0)/0.390882) with norm 0.587
       Charge density: gaussian nuclear width 0.377945 with net site charge -0.413
       Polarizability: cuspless exponential with width 0.39 and norm 3.3
       Positions in reference frame:
         [ +0.000000 -1.441945 +1.122523 ]
         [ +0.000000 +1.441945 +1.122523 ]
     Net charge: 0   dipole magnitude: 0.927204
     Initializing spherical shell mfKernel with radius 2.61727 Bohr
     deltaS corrections:
       site 'O': -7.54299
       site 'H': -6.83917
   Initializing fluid molecule 'Na+'
     Initializing site 'Na'
       Electron density: proportional to exp(-r/0.19682)*erfc((r-0.71491)/0.41314) with norm 8.1383
       Charge density: gaussian nuclear width 0.365347 with net site charge -1
       Hard sphere radius: 1.86327 bohrs
       Positions in reference frame:
         [ +0.000000 +0.000000 +0.000000 ]
     Net charge: -1   dipole magnitude: 0
     Initializing gaussian mfKernel with width: 1.55004 Bohr
     deltaS corrections:
       site 'Na': -22.3555
   Initializing fluid molecule 'F-'
     Initializing site 'F'
       Electron density: proportional to exp(-r/0.38886)*erfc((r-0)/0.438782) with norm 8
       Charge density: gaussian nuclear width 0.374796 with net site charge 1
       Hard sphere radius: 2.39995 bohrs
       Positions in reference frame:
         [ +0.000000 +0.000000 +0.000000 ]
     Net charge: 1   dipole magnitude: 0
     Initializing gaussian mfKernel with width: 1.59012 Bohr
     deltaS corrections:
       site 'F': -9.04335

Correction to mu due to finite nuclear width = -0.0121762
   Cavity determined by nc: 0.00142 and sigma: 0.707107
   Nonlocal vdW cavity from gaussian model electron density with norm = 8 and sigma = 0.993594 bohr
   Charge asymmetry in cavity with sensitivity pCavity = 36.5 e-bohr/Eh
   Electrostatic cavity expanded by eta = 1.46 bohrs
   Weighted density cavitation model constrained by Nbulk: 0.0049383 bohr^-3, Pvap: 3.14029 kPa, Rvdw: 2.61727 bohr and sigmaBulk: 4.62e-05 Eh/bohr^2 at T: 298 K.
   Weighted density dispersion model using vdW pair potentials with single solvent site with sqrtC6eff: 0.77 SI.


---- Citations for features of the code used in this run ----

   Software package:
      R. Sundararaman, K. Letchworth-Weaver, K.A. Schwarz, D. Gunceler, Y. Ozhabes and T.A. Arias, 'JDFTx: software for joint density-functional theory', SoftwareX 6, 278 (2017)

   gga-PBE exchange-correlation functional:
      J.P. Perdew, K. Burke and M. Ernzerhof, Phys. Rev. Lett. 77, 3865 (1996)

   Pseudopotentials:
      KF Garrity, JW Bennett, KM Rabe and D Vanderbilt, Comput. Mater. Sci. 81, 446 (2014)

   Truncated Coulomb potentials:
      R. Sundararaman and T.A. Arias, Phys. Rev. B 87, 165122 (2013)

   Van der Waals correction pair-potentials:
      S. Grimme, J. Comput. Chem. 27, 1787 (2006)

   Charge-asymmetric nonlocally-determined local-electric (CANDLE) solvation model:
      R. Sundararaman and W.A. Goddard III, J. Chem. Phys. 142, 064107 (2015)

   Total energy minimization with Auxiliary Hamiltonian:
      C. Freysoldt, S. Boeck, and J. Neugebauer, Phys. Rev. B 79, 241103(R) (2009)

This list may not be complete. Please suggest additional citations or
report any other bugs at https://github.com/shankar1729/jdftx/issues

Initialization completed successfully at t[s]:   2001.39

Fluid solver invoked on fresh (partially random / LCAO) wavefunctions
Running a vacuum solve first:

-------- Initial electronic minimization -----------
	FillingsUpdate:  mu: -0.170769639  nElectrons: 415.800000  magneticMoment: [ Abs: 0.00111  Tot: -0.00000 ]
ElecMinimize: Iter:   0  F: -1423.801614226472111  |grad|_K:  6.487e-05  alpha:  1.000e+00
	FillingsUpdate:  mu: -0.097420172  nElectrons: 415.800000  magneticMoment: [ Abs: 0.00065  Tot: +0.00001 ]
	SubspaceRotationAdjust: set factor to 1
ElecMinimize: Iter:   1  F: -1425.234359634635439  |grad|_K:  3.925e-05  alpha:  7.785e-01  linmin: -2.024e-05  t[s]:   2278.22
	FillingsUpdate:  mu: -0.110441788  nElectrons: 415.800000  magneticMoment: [ Abs: 0.00040  Tot: +0.00002 ]
	SubspaceRotationAdjust: set factor to 1.17
ElecMinimize: Iter:   2  F: -1425.595719576675265  |grad|_K:  1.839e-05  alpha:  5.373e-01  linmin: -1.466e-05  t[s]:   2447.23
	FillingsUpdate:  mu: -0.121363319  nElectrons: 415.800000  magneticMoment: [ Abs: 0.00024  Tot: +0.00001 ]
	SubspaceRotationAdjust: set factor to 1.26
ElecMinimize: Iter:   3  F: -1425.700296889087667  |grad|_K:  9.932e-06  alpha:  7.053e-01  linmin:  3.969e-05  t[s]:   2616.16
	FillingsUpdate:  mu: -0.111582299  nElectrons: 415.800000  magneticMoment: [ Abs: 0.00019  Tot: +0.00000 ]
	SubspaceRotationAdjust: set factor to 1.11
ElecMinimize: Iter:   4  F: -1425.717512104395155  |grad|_K:  7.915e-06  alpha:  3.979e-01  linmin: -1.254e-05  t[s]:   2785.04
	FillingsUpdate:  mu: -0.123137924  nElectrons: 415.800000  magneticMoment: [ Abs: 0.00015  Tot: +0.00000 ]
	SubspaceRotationAdjust: set factor to 0.723
ElecMinimize: Iter:   5  F: -1425.725803978407839  |grad|_K:  5.819e-06  alpha:  2.992e-01  linmin:  3.227e-06  t[s]:   2953.83
	FillingsUpdate:  mu: -0.118171846  nElectrons: 415.800000  magneticMoment: [ Abs: 0.00012  Tot: -0.00000 ]
	SubspaceRotationAdjust: set factor to 0.828
ElecMinimize: Iter:   6  F: -1425.730963583955145  |grad|_K:  3.067e-06  alpha:  3.483e-01  linmin:  1.207e-05  t[s]:   3123.23
	FillingsUpdate:  mu: -0.117006097  nElectrons: 415.800000  magneticMoment: [ Abs: 0.00008  Tot: -0.00000 ]
	SubspaceRotationAdjust: set factor to 0.898
ElecMinimize: Iter:   7  F: -1425.733110374707621  |grad|_K:  2.048e-06  alpha:  5.241e-01  linmin:  5.215e-06  t[s]:   3292.34
	FillingsUpdate:  mu: -0.120642052  nElectrons: 415.800000  magneticMoment: [ Abs: 0.00006  Tot: -0.00000 ]
	SubspaceRotationAdjust: set factor to 0.727
ElecMinimize: Iter:   8  F: -1425.733825346233061  |grad|_K:  1.462e-06  alpha:  3.889e-01  linmin:  3.429e-07  t[s]:   3461.48
	FillingsUpdate:  mu: -0.119472213  nElectrons: 415.800000  magneticMoment: [ Abs: 0.00004  Tot: -0.00000 ]
	SubspaceRotationAdjust: set factor to 0.631
ElecMinimize: Iter:   9  F: -1425.734159305640333  |grad|_K:  8.154e-07  alpha:  3.559e-01  linmin: -7.383e-07  t[s]:   3630.94
	FillingsUpdate:  mu: -0.119700881  nElectrons: 415.800000  magneticMoment: [ Abs: 0.00002  Tot: +0.00000 ]
	SubspaceRotationAdjust: set factor to 0.761
ElecMinimize: Iter:  10  F: -1425.734305993394628  |grad|_K:  4.767e-07  alpha:  5.027e-01  linmin:  2.836e-06  t[s]:   3800.16
	FillingsUpdate:  mu: -0.120218678  nElectrons: 415.800000  magneticMoment: [ Abs: 0.00001  Tot: +0.00000 ]
	SubspaceRotationAdjust: set factor to 0.644
ElecMinimize: Iter:  11  F: -1425.734355204969688  |grad|_K:  3.535e-07  alpha:  4.939e-01  linmin:  1.592e-06  t[s]:   3969.17
	FillingsUpdate:  mu: -0.119674247  nElectrons: 415.800000  magneticMoment: [ Abs: 0.00001  Tot: +0.00000 ]
	SubspaceRotationAdjust: set factor to 0.471
ElecMinimize: Iter:  12  F: -1425.734375815525937  |grad|_K:  1.943e-07  alpha:  3.762e-01  linmin: -3.221e-09  t[s]:   4139.21
	FillingsUpdate:  mu: -0.119761632  nElectrons: 415.800000  magneticMoment: [ Abs: 0.00001  Tot: +0.00000 ]
	SubspaceRotationAdjust: set factor to 0.554
ElecMinimize: Iter:  13  F: -1425.734386483594108  |grad|_K:  1.436e-07  alpha:  6.442e-01  linmin:  4.255e-07  t[s]:   4307.98
	FillingsUpdate:  mu: -0.119843075  nElectrons: 415.800000  magneticMoment: [ Abs: 0.00000  Tot: +0.00000 ]
	SubspaceRotationAdjust: set factor to 0.575
ElecMinimize: Iter:  14  F: -1425.734390117473140  |grad|_K:  8.827e-08  alpha:  4.020e-01  linmin: -2.640e-08  t[s]:   4477.64
	FillingsUpdate:  mu: -0.119781303  nElectrons: 415.800000  magneticMoment: [ Abs: 0.00000  Tot: +0.00000 ]
	SubspaceRotationAdjust: set factor to 0.57
ElecMinimize: Iter:  15  F: -1425.734392135833332  |grad|_K:  5.342e-08  alpha:  5.903e-01  linmin:  3.036e-07  t[s]:   4647.67
	FillingsUpdate:  mu: -0.119821713  nElectrons: 415.800000  magneticMoment: [ Abs: 0.00000  Tot: +0.00000 ]
	SubspaceRotationAdjust: set factor to 0.578
ElecMinimize: Iter:  16  F: -1425.734392878353447  |grad|_K:  3.999e-08  alpha:  5.932e-01  linmin:  1.067e-08  t[s]:   4816.48
	FillingsUpdate:  mu: -0.119814138  nElectrons: 415.800000  magneticMoment: [ Abs: 0.00000  Tot: +0.00000 ]
	SubspaceRotationAdjust: set factor to 0.64
ElecMinimize: Iter:  17  F: -1425.734393197616328  |grad|_K:  2.682e-08  alpha:  4.549e-01  linmin:  1.290e-08  t[s]:   4985.42
	FillingsUpdate:  mu: -0.119794905  nElectrons: 415.800000  magneticMoment: [ Abs: 0.00000  Tot: +0.00000 ]
	SubspaceRotationAdjust: set factor to 0.655
ElecMinimize: Iter:  18  F: -1425.734393383110046  |grad|_K:  1.777e-08  alpha:  5.878e-01  linmin:  1.015e-07  t[s]:   5154.29
	FillingsUpdate:  mu: -0.119810804  nElectrons: 415.800000  magneticMoment: [ Abs: 0.00000  Tot: +0.00000 ]
	SubspaceRotationAdjust: set factor to 0.638
ElecMinimize: Iter:  19  F: -1425.734393459166768  |grad|_K:  1.329e-08  alpha:  5.492e-01  linmin:  3.243e-08  t[s]:   5323.40
	FillingsUpdate:  mu: -0.119800543  nElectrons: 415.800000  magneticMoment: [ Abs: 0.00000  Tot: +0.00000 ]
	SubspaceRotationAdjust: set factor to 0.625
ElecMinimize: Iter:  20  F: -1425.734393496165922  |grad|_K:  8.449e-09  alpha:  4.773e-01  linmin:  1.447e-08  t[s]:   5492.62
	FillingsUpdate:  mu: -0.119805567  nElectrons: 415.800000  magneticMoment: [ Abs: 0.00000  Tot: +0.00000 ]
	SubspaceRotationAdjust: set factor to 0.695
ElecMinimize: Iter:  21  F: -1425.734393512101178  |grad|_K:  5.488e-09  alpha:  5.094e-01  linmin:  7.314e-08  t[s]:   5661.99
	FillingsUpdate:  mu: -0.119808588  nElectrons: 415.800000  magneticMoment: [ Abs: 0.00000  Tot: +0.00000 ]
	SubspaceRotationAdjust: set factor to 0.737
ElecMinimize: Iter:  22  F: -1425.734393519815512  |grad|_K:  3.709e-09  alpha:  5.843e-01  linmin: -1.402e-09  t[s]:   5831.71
	FillingsUpdate:  mu: -0.119804156  nElectrons: 415.800000  magneticMoment: [ Abs: 0.00000  Tot: -0.00000 ]
	SubspaceRotationAdjust: set factor to 0.635
ElecMinimize: Iter:  23  F: -1425.734393522476466  |grad|_K:  2.663e-09  alpha:  4.417e-01  linmin: -2.059e-08  t[s]:   6001.29
ElecMinimize: Converged (|Delta F|<1.000000e-08 for 2 iters).
Setting wave functions to eigenvectors of Hamiltonian
Vacuum energy after initial minimize, F = -1425.734393522476466

	Linear fluid (dielectric constant: 78.4, screening length: 5.74355 Bohr) occupying 0.754924 of unit cell:	Completed after 14 iterations at t[s]:   6039.25

-------- Electronic minimization -----------
	Linear fluid (dielectric constant: 78.4, screening length: 5.74355 Bohr) occupying 0.754924 of unit cell:	Completed after 0 iterations at t[s]:   6079.67
	FillingsUpdate:  mu: -0.202838557  nElectrons: 415.800000  magneticMoment: [ Abs: 0.00000  Tot: -0.00000 ]
ElecMinimize: Iter:   0  F: -1425.705464644342101  |grad|_K:  5.137e-07  alpha:  1.000e+00
	Linear fluid (dielectric constant: 78.4, screening length: 5.74355 Bohr) occupying 0.755292 of unit cell:	Completed after 9 iterations at t[s]:   6212.64
	Linear fluid (dielectric constant: 78.4, screening length: 5.74355 Bohr) occupying 0.755172 of unit cell:	Completed after 7 iterations at t[s]:   6265.16
	FillingsUpdate:  mu: -0.200804047  nElectrons: 415.800000  magneticMoment: [ Abs: 0.00001  Tot: -0.00000 ]
	SubspaceRotationAdjust: set factor to 0.438
ElecMinimize: Iter:   1  F: -1425.705542174659286  |grad|_K:  4.802e-07  alpha:  6.711e-01  linmin:  1.109e-07  t[s]:   6339.50
	Linear fluid (dielectric constant: 78.4, screening length: 5.74355 Bohr) occupying 0.755470 of unit cell:	Completed after 8 iterations at t[s]:   6392.29
	Linear fluid (dielectric constant: 78.4, screening length: 5.74355 Bohr) occupying 0.755356 of unit cell:	Completed after 3 iterations at t[s]:   6445.03
	FillingsUpdate:  mu: -0.201043660  nElectrons: 415.800000  magneticMoment: [ Abs: 0.00001  Tot: -0.00000 ]
	SubspaceRotationAdjust: set factor to 0.443
ElecMinimize: Iter:   2  F: -1425.705583717036461  |grad|_K:  1.695e-07  alpha:  4.112e-01  linmin:  4.801e-07  t[s]:   6517.74
	Linear fluid (dielectric constant: 78.4, screening length: 5.74355 Bohr) occupying 0.755387 of unit cell:	Completed after 2 iterations at t[s]:   6570.14
	Linear fluid (dielectric constant: 78.4, screening length: 5.74355 Bohr) occupying 0.755394 of unit cell:	Completed after 2 iterations at t[s]:   6621.40
	FillingsUpdate:  mu: -0.201100422  nElectrons: 415.800000  magneticMoment: [ Abs: 0.00001  Tot: -0.00000 ]
	SubspaceRotationAdjust: set factor to 0.511
ElecMinimize: Iter:   3  F: -1425.705589943744144  |grad|_K:  8.717e-08  alpha:  4.999e-01  linmin:  1.400e-06  t[s]:   6694.15
	Linear fluid (dielectric constant: 78.4, screening length: 5.74355 Bohr) occupying 0.755406 of unit cell:	Completed after 2 iterations at t[s]:   6746.34
	Linear fluid (dielectric constant: 78.4, screening length: 5.74355 Bohr) occupying 0.755411 of unit cell:	Completed after 0 iterations at t[s]:   6796.72
	FillingsUpdate:  mu: -0.201150221  nElectrons: 415.800000  magneticMoment: [ Abs: 0.00001  Tot: -0.00000 ]
	SubspaceRotationAdjust: set factor to 0.626
ElecMinimize: Iter:   4  F: -1425.705592330917398  |grad|_K:  4.099e-08  alpha:  7.056e-01  linmin: -1.315e-05  t[s]:   6869.42
	Linear fluid (dielectric constant: 78.4, screening length: 5.74355 Bohr) occupying 0.755414 of unit cell:	Completed after 2 iterations at t[s]:   6921.56
	Linear fluid (dielectric constant: 78.4, screening length: 5.74355 Bohr) occupying 0.755414 of unit cell:	Completed after 0 iterations at t[s]:   6972.51
	FillingsUpdate:  mu: -0.201136436  nElectrons: 415.800000  magneticMoment: [ Abs: 0.00001  Tot: -0.00000 ]
	SubspaceRotationAdjust: set factor to 0.567
ElecMinimize: Iter:   5  F: -1425.705592846865329  |grad|_K:  3.479e-08  alpha:  6.557e-01  linmin: -8.534e-06  t[s]:   7044.99
	Linear fluid (dielectric constant: 78.4, screening length: 5.74355 Bohr) occupying 0.755414 of unit cell:	Completed after 0 iterations at t[s]:   7096.60
	Linear fluid (dielectric constant: 78.4, screening length: 5.74355 Bohr) occupying 0.755414 of unit cell:	Completed after 0 iterations at t[s]:   7146.23
	FillingsUpdate:  mu: -0.201135243  nElectrons: 415.800000  magneticMoment: [ Abs: 0.00000  Tot: -0.00000 ]
	SubspaceRotationAdjust: set factor to 0.752
ElecMinimize: Iter:   6  F: -1425.705593219229968  |grad|_K:  2.816e-08  alpha:  6.459e-01  linmin:  1.204e-07  t[s]:   7218.74
	Linear fluid (dielectric constant: 78.4, screening length: 5.74355 Bohr) occupying 0.755414 of unit cell:	Completed after 2 iterations at t[s]:   7270.75
	Linear fluid (dielectric constant: 78.4, screening length: 5.74355 Bohr) occupying 0.755414 of unit cell:	Completed after 1 iterations at t[s]:   7321.90
ElecMinimize: 	Step increased F by 5.330980e-08, reducing alpha to 1.880188e-02.
	Linear fluid (dielectric constant: 78.4, screening length: 5.74355 Bohr) occupying 0.755414 of unit cell:	Completed after 0 iterations at t[s]:   7437.83
ElecMinimize: 	Step increased F by 5.003585e-08, reducing alpha to 1.880188e-03.
	Linear fluid (dielectric constant: 78.4, screening length: 5.74355 Bohr) occupying 0.755414 of unit cell:	Completed after 0 iterations at t[s]:   7552.75
ElecMinimize: 	Step increased F by 5.127390e-08, reducing alpha to 1.880188e-04.
ElecMinimize: 	Step failed to reduce F after 3 attempts. Quitting step.
ElecMinimize: 	Undoing step.
	Linear fluid (dielectric constant: 78.4, screening length: 5.74355 Bohr) occupying 0.755414 of unit cell:	Completed after 0 iterations at t[s]:   7667.75
ElecMinimize: 	Step failed: resetting search direction.
	FillingsUpdate:  mu: -0.201197191  nElectrons: 415.800000  magneticMoment: [ Abs: 0.00000  Tot: -0.00000 ]
	SubspaceRotationAdjust: set factor to 0.624
ElecMinimize: Iter:   7  F: -1425.705593167919687  |grad|_K:  3.189e-08  alpha:  1.880e-04
	Linear fluid (dielectric constant: 78.4, screening length: 5.74355 Bohr) occupying 0.755415 of unit cell:	Completed after 2 iterations at t[s]:   7792.01
	Linear fluid (dielectric constant: 78.4, screening length: 5.74355 Bohr) occupying 0.755415 of unit cell:	Completed after 1 iterations at t[s]:   7842.68
	FillingsUpdate:  mu: -0.201133264  nElectrons: 415.800000  magneticMoment: [ Abs: 0.00000  Tot: -0.00000 ]
	SubspaceRotationAdjust: set factor to 0.368
ElecMinimize: Iter:   8  F: -1425.705593206814228  |grad|_K:  2.143e-08  alpha:  2.153e-01  linmin:  2.834e-05  t[s]:   7915.13
	Linear fluid (dielectric constant: 78.4, screening length: 5.74355 Bohr) occupying 0.755414 of unit cell:	Completed after 0 iterations at t[s]:   7966.80
	Linear fluid (dielectric constant: 78.4, screening length: 5.74355 Bohr) occupying 0.755414 of unit cell:	Completed after 0 iterations at t[s]:   8016.71
	FillingsUpdate:  mu: -0.201133013  nElectrons: 415.800000  magneticMoment: [ Abs: 0.00000  Tot: -0.00000 ]
	SubspaceRotationAdjust: set factor to 0.565
ElecMinimize: Iter:   9  F: -1425.705593298250506  |grad|_K:  2.116e-08  alpha:  5.036e-01  linmin:  2.446e-08  t[s]:   8088.78
	Linear fluid (dielectric constant: 78.4, screening length: 5.74355 Bohr) occupying 0.755414 of unit cell:	Completed after 1 iterations at t[s]:   8140.68
	Linear fluid (dielectric constant: 78.4, screening length: 5.74355 Bohr) occupying 0.755414 of unit cell:	Completed after 0 iterations at t[s]:   8191.40
	FillingsUpdate:  mu: -0.201193125  nElectrons: 415.800000  magneticMoment: [ Abs: 0.00000  Tot: -0.00000 ]
	SubspaceRotationAdjust: set factor to 0.466
ElecMinimize: Iter:  10  F: -1425.705593338077279  |grad|_K:  3.157e-08  alpha:  1.553e-01  linmin:  3.986e-05  t[s]:   8263.16
	Linear fluid (dielectric constant: 78.4, screening length: 5.74355 Bohr) occupying 0.755414 of unit cell:	Completed after 0 iterations at t[s]:   8314.76
	Linear fluid (dielectric constant: 78.4, screening length: 5.74355 Bohr) occupying 0.755414 of unit cell:	Completed after 0 iterations at t[s]:   8364.90
	FillingsUpdate:  mu: -0.201193059  nElectrons: 415.800000  magneticMoment: [ Abs: 0.00000  Tot: -0.00000 ]
	SubspaceRotationAdjust: set factor to 0.447
ElecMinimize: Iter:  11  F: -1425.705593339597954  |grad|_K:  2.929e-08  alpha:  2.631e-02  linmin: -1.075e-08  t[s]:   8437.36
	Linear fluid (dielectric constant: 78.4, screening length: 5.74355 Bohr) occupying 0.755414 of unit cell:	Completed after 0 iterations at t[s]:   8489.12
ElecMinimize: 	Predicted alpha/alphaT>3.000000, increasing alphaT to 7.893550e-02.
	Linear fluid (dielectric constant: 78.4, screening length: 5.74355 Bohr) occupying 0.755414 of unit cell:	Completed after 0 iterations at t[s]:   8538.40
	Linear fluid (dielectric constant: 78.4, screening length: 5.74355 Bohr) occupying 0.755414 of unit cell:	Completed after 2 iterations at t[s]:   8588.43
ElecMinimize: 	Step increased F by 3.989408e-08, reducing alpha to 1.513082e-02.
	Linear fluid (dielectric constant: 78.4, screening length: 5.74355 Bohr) occupying 0.755414 of unit cell:	Completed after 0 iterations at t[s]:   8705.35
ElecMinimize: 	Step increased F by 2.902493e-08, reducing alpha to 1.513082e-03.
	Linear fluid (dielectric constant: 78.4, screening length: 5.74355 Bohr) occupying 0.755414 of unit cell:	Completed after 0 iterations at t[s]:   8820.73
ElecMinimize: 	Step increased F by 3.305286e-08, reducing alpha to 1.513082e-04.
ElecMinimize: 	Step failed to reduce F after 3 attempts. Quitting step.
ElecMinimize: 	Undoing step.
	Linear fluid (dielectric constant: 78.4, screening length: 5.74355 Bohr) occupying 0.755414 of unit cell:	Completed after 0 iterations at t[s]:   8936.29
ElecMinimize: 	Step failed: resetting search direction.
	FillingsUpdate:  mu: -0.201149093  nElectrons: 415.800000  magneticMoment: [ Abs: 0.00000  Tot: -0.00000 ]
	SubspaceRotationAdjust: set factor to 0.553
ElecMinimize: Iter:  12  F: -1425.705593306495075  |grad|_K:  1.168e-08  alpha:  1.513e-04
	Linear fluid (dielectric constant: 78.4, screening length: 5.74355 Bohr) occupying 0.755414 of unit cell:	Completed after 0 iterations at t[s]:   9060.07
ElecMinimize: 	Predicted alpha/alphaT>3.000000, increasing alphaT to 7.893550e-02.
	Linear fluid (dielectric constant: 78.4, screening length: 5.74355 Bohr) occupying 0.755414 of unit cell:	Completed after 0 iterations at t[s]:   9109.42
ElecMinimize: 	Predicted alpha/alphaT>3.000000, increasing alphaT to 2.368065e-01.
	Linear fluid (dielectric constant: 78.4, screening length: 5.74355 Bohr) occupying 0.755414 of unit cell:	Completed after 0 iterations at t[s]:   9158.64
	Linear fluid (dielectric constant: 78.4, screening length: 5.74355 Bohr) occupying 0.755414 of unit cell:	Completed after 0 iterations at t[s]:   9208.43
	FillingsUpdate:  mu: -0.201148977  nElectrons: 415.800000  magneticMoment: [ Abs: 0.00000  Tot: -0.00000 ]
	SubspaceRotationAdjust: set factor to 0.596
ElecMinimize: Iter:  13  F: -1425.705593332935450  |grad|_K:  6.683e-09  alpha:  4.421e-01  linmin:  1.603e-07  t[s]:   9280.76
	Linear fluid (dielectric constant: 78.4, screening length: 5.74355 Bohr) occupying 0.755414 of unit cell:	Completed after 0 iterations at t[s]:   9332.20
	Linear fluid (dielectric constant: 78.4, screening length: 5.74355 Bohr) occupying 0.755414 of unit cell:	Completed after 0 iterations at t[s]:   9382.36
	FillingsUpdate:  mu: -0.201149035  nElectrons: 415.800000  magneticMoment: [ Abs: 0.00000  Tot: -0.00000 ]
	SubspaceRotationAdjust: set factor to 0.657
ElecMinimize: Iter:  14  F: -1425.705593343084047  |grad|_K:  5.438e-09  alpha:  5.190e-01  linmin:  6.705e-08  t[s]:   9455.53
	Linear fluid (dielectric constant: 78.4, screening length: 5.74355 Bohr) occupying 0.755414 of unit cell:	Completed after 0 iterations at t[s]:   9506.98
	Linear fluid (dielectric constant: 78.4, screening length: 5.74355 Bohr) occupying 0.755414 of unit cell:	Completed after 0 iterations at t[s]:   9557.32
	FillingsUpdate:  mu: -0.201149390  nElectrons: 415.800000  magneticMoment: [ Abs: 0.00000  Tot: -0.00000 ]
	SubspaceRotationAdjust: set factor to 0.69
ElecMinimize: Iter:  15  F: -1425.705593355862220  |grad|_K:  3.855e-09  alpha:  9.993e-01  linmin:  5.243e-07  t[s]:   9629.92
	Linear fluid (dielectric constant: 78.4, screening length: 5.74355 Bohr) occupying 0.755414 of unit cell:	Completed after 0 iterations at t[s]:   9681.16
	Linear fluid (dielectric constant: 78.4, screening length: 5.74355 Bohr) occupying 0.755414 of unit cell:	Completed after 0 iterations at t[s]:   9730.83
	FillingsUpdate:  mu: -0.201149519  nElectrons: 415.800000  magneticMoment: [ Abs: 0.00000  Tot: +0.00000 ]
	SubspaceRotationAdjust: set factor to 0.703
ElecMinimize: Iter:  16  F: -1425.705593359866725  |grad|_K:  2.143e-09  alpha:  6.249e-01  linmin: -3.370e-08  t[s]:   9803.09
	Linear fluid (dielectric constant: 78.4, screening length: 5.74355 Bohr) occupying 0.755415 of unit cell:	Completed after 0 iterations at t[s]:   9855.00
	Linear fluid (dielectric constant: 78.4, screening length: 5.74355 Bohr) occupying 0.755415 of unit cell:	Completed after 0 iterations at t[s]:   9904.89
	FillingsUpdate:  mu: -0.201149536  nElectrons: 415.800000  magneticMoment: [ Abs: 0.00000  Tot: +0.00000 ]
	SubspaceRotationAdjust: set factor to 0.768
ElecMinimize: Iter:  17  F: -1425.705593360683679  |grad|_K:  1.291e-09  alpha:  4.082e-01  linmin: -4.477e-08  t[s]:   9977.19
ElecMinimize: Converged (|Delta F|<1.000000e-08 for 2 iters).
Setting wave functions to eigenvectors of Hamiltonian
Single-point solvation energy estimate, DeltaF = +0.028800161792788

# Ionic positions in lattice coordinates:
ion Mo   0.083329990729167   0.166669999041667   0.500000000000000 1
ion Mo   0.333329990729167   0.166669999041667   0.500000000000000 1
ion Mo   0.583329990729167   0.166669999041667   0.500000000000000 1
ion Mo   0.833329990729167   0.166669999041667   0.500000000000000 1
ion Mo   0.083329990729167   0.416669999041667   0.500000000000000 1
ion Mo   0.333329990729167   0.416669999041667   0.500000000000000 1
ion Mo   0.583329990729167   0.416669999041667   0.500000000000000 1
ion Mo   0.833329990729167   0.416669999041667   0.500000000000000 1
ion Mo   0.083329990729167   0.666669999041667   0.500000000000000 1
ion Mo   0.333329990729167   0.666669999041667   0.500000000000000 1
ion Mo   0.583329990729167   0.666669999041667   0.500000000000000 1
ion Mo   0.833329990729167   0.666669999041667   0.500000000000000 1
ion Mo   0.083329990729167   0.916669999041667   0.500000000000000 1
ion Mo   0.333329990729167   0.916669999041667   0.500000000000000 1
ion Mo   0.583329990729167   0.916669999041667   0.500000000000000 1
ion Mo   0.833329990729167   0.916669999041667   0.500000000000000 1
ion S   0.166670009791667   0.083329979979167   0.586509994000000 1
ion S   0.166670009791667   0.083329979979167   0.413490006000000 1
ion S   0.416670009791667   0.083329979979167   0.586509994000000 1
ion S   0.416670009791667   0.083329979979167   0.413490006000000 1
ion S   0.666670009791667   0.083329979979167   0.586509994000000 1
ion S   0.666670009791667   0.083329979979167   0.413490006000000 1
ion S   0.916670009791667   0.083329979979167   0.586509994000000 1
ion S   0.916670009791667   0.083329979979167   0.413490006000000 1
ion S   0.166670009791667   0.333329979979167   0.586509994000000 1
ion S   0.166670009791667   0.333329979979167   0.413490006000000 1
ion S   0.416670009791667   0.333329979979167   0.586509994000000 1
ion S   0.416670009791667   0.333329979979167   0.413490006000000 1
ion S   0.666670009791667   0.333329979979167   0.586509994000000 1
ion S   0.666670009791667   0.333329979979167   0.413490006000000 1
ion S   0.916670009791667   0.333329979979167   0.586509994000000 1
ion S   0.916670009791667   0.333329979979167   0.413490006000000 1
ion S   0.166670009791667   0.583329979979167   0.586509994000000 1
ion S   0.166670009791667   0.583329979979167   0.413490006000000 1
ion S   0.416670009791667   0.583329979979167   0.586509994000000 1
ion S   0.416670009791667   0.583329979979167   0.413490006000000 1
ion S   0.666670009791667   0.583329979979167   0.586509994000000 1
ion S   0.666670009791667   0.583329979979167   0.413490006000000 1
ion S   0.916670009791667   0.583329979979167   0.586509994000000 1
ion S   0.916670009791667   0.583329979979167   0.413490006000000 1
ion S   0.166670009791667   0.833329979979167   0.586509994000000 1
ion S   0.166670009791667   0.833329979979167   0.413490006000000 1
ion S   0.416670009791667   0.833329979979167   0.586509994000000 1
ion S   0.416670009791667   0.833329979979167   0.413490006000000 1
ion S   0.666670009791667   0.833329979979167   0.586509994000000 1
ion S   0.666670009791667   0.833329979979167   0.413490006000000 1
ion S   0.916670009791667   0.833329979979167   0.586509994000000 1
ion S   0.916670009791667   0.833329979979167   0.413490006000000 1


# Forces in Lattice coordinates:
force Mo   0.000661602777157  -0.000661602777157  -0.000000000000000 1
force Mo   0.000661602777157  -0.000661602777157  -0.000000000000000 1
force Mo   0.000661602777157  -0.000661602777157  -0.000000000000000 1
force Mo   0.000661602777157  -0.000661602777157   0.000000000000000 1
force Mo   0.000661602777157  -0.000661602777157   0.000000000000000 1
force Mo   0.000661602777157  -0.000661602777157   0.000000000000000 1
force Mo   0.000661602777157  -0.000661602777157   0.000000000000000 1
force Mo   0.000661602777157  -0.000661602777157  -0.000000000000000 1
force Mo   0.000661602777157  -0.000661602777157  -0.000000000000000 1
force Mo   0.000661602777157  -0.000661602777157   0.000000000000000 1
force Mo   0.000661602777157  -0.000661602777157   0.000000000000000 1
force Mo   0.000661602777157  -0.000661602777157   0.000000000000000 1
force Mo   0.000661602777157  -0.000661602777157  -0.000000000000000 1
force Mo   0.000661602777157  -0.000661602777157   0.000000000000000 1
force Mo   0.000661602777157  -0.000661602777157  -0.000000000000000 1
force Mo   0.000661602777157  -0.000661602777157   0.000000000000000 1
force S  -0.000543202047345   0.000543202047345   0.006570378143918 1
force S  -0.000543202047345   0.000543202047345  -0.006570378144145 1
force S  -0.000543202047345   0.000543202047345   0.006570378144032 1
force S  -0.000543202047345   0.000543202047345  -0.006570378144145 1
force S  -0.000543202047345   0.000543202047345   0.006570378144258 1
force S  -0.000543202047345   0.000543202047345  -0.006570378144145 1
force S  -0.000543202047345   0.000543202047345   0.006570378144032 1
force S  -0.000543202047345   0.000543202047345  -0.006570378144145 1
force S  -0.000543202047345   0.000543202047345   0.006570378143918 1
force S  -0.000543202047345   0.000543202047345  -0.006570378144259 1
force S  -0.000543202047345   0.000543202047345   0.006570378143918 1
force S  -0.000543202047345   0.000543202047345  -0.006570378144145 1
force S  -0.000543202047345   0.000543202047345   0.006570378144258 1
force S  -0.000543202047345   0.000543202047345  -0.006570378144259 1
force S  -0.000543202047345   0.000543202047345   0.006570378144144 1
force S  -0.000543202047345   0.000543202047345  -0.006570378144146 1
force S  -0.000543202047345   0.000543202047345   0.006570378143804 1
force S  -0.000543202047345   0.000543202047345  -0.006570378144146 1
force S  -0.000543202047345   0.000543202047345   0.006570378144032 1
force S  -0.000543202047345   0.000543202047345  -0.006570378144146 1
force S  -0.000543202047345   0.000543202047345   0.006570378144144 1
force S  -0.000543202047345   0.000543202047345  -0.006570378144260 1
force S  -0.000543202047345   0.000543202047345   0.006570378144260 1
force S  -0.000543202047345   0.000543202047345  -0.006570378144261 1
force S  -0.000543202047345   0.000543202047345   0.006570378143920 1
force S  -0.000543202047345   0.000543202047345  -0.006570378144261 1
force S  -0.000543202047345   0.000543202047345   0.006570378144032 1
force S  -0.000543202047345   0.000543202047345  -0.006570378144145 1
force S  -0.000543202047345   0.000543202047345   0.006570378144147 1
force S  -0.000543202047345   0.000543202047345  -0.006570378144261 1
force S  -0.000543202047345   0.000543202047345   0.006570378144147 1
force S  -0.000543202047345   0.000543202047345  -0.006570378144146 1

# Energy components:
   A_diel =        0.0262366957782584
   Eewald =     8821.5981260505177488
       EH =     9999.2295605121798872
     Eloc =   -20650.1103537630915525
      Enl =      260.8603766406421300
      Exc =     -290.3014423808332367
 Exc_core =       76.0956977204624962
       KE =      356.8985529556573510
  MuShift =        0.0024352432621107
-------------------------------------
     Etot =    -1425.7008103254268008
       TS =        0.0047830352568628
-------------------------------------
        F =    -1425.7055933606836788

IonicMinimize: Iter:   0  F: -1425.705593360683679  |grad|_K:  9.178e-05  t[s]:  10003.74
IonicMinimize: Converged (|grad|_K<1.000000e-04).

#--- Lowdin population analysis ---
# oxidation-state Mo -0.503 -0.503 -0.503 -0.503 -0.503 -0.503 -0.503 -0.503 -0.503 -0.503 -0.503 -0.503 -0.503 -0.503 -0.503 -0.503
# magnetic-moments Mo +0.000 +0.000 +0.000 +0.000 +0.000 +0.000 +0.000 +0.000 +0.000 +0.000 +0.000 +0.000 +0.000 +0.000 +0.000 +0.000
# oxidation-state S +0.325 +0.325 +0.325 +0.325 +0.325 +0.325 +0.325 +0.325 +0.325 +0.325 +0.325 +0.325 +0.325 +0.325 +0.325 +0.325 +0.325 +0.325 +0.325 +0.325 +0.325 +0.325 +0.325 +0.325 +0.325 +0.325 +0.325 +0.325 +0.325 +0.325 +0.325 +0.325
# magnetic-moments S +0.000 +0.000 +0.000 +0.000 +0.000 +0.000 +0.000 +0.000 +0.000 +0.000 +0.000 +0.000 +0.000 +0.000 +0.000 +0.000 +0.000 +0.000 +0.000 +0.000 +0.000 +0.000 +0.000 +0.000 +0.000 +0.000 +0.000 +0.000 +0.000 +0.000 +0.000 +0.000


Dumping 'NbTe2.fillings' ... done
Dumping 'NbTe2.wfns' ... done
Dumping 'NbTe2.fluidState' ... done
Dumping 'NbTe2.ionpos' ... done
Dumping 'NbTe2.eigenvals' ... done
End date and time: Sun Dec 27 20:28:04 2020  (Duration: 0-2:47:03.30)
Done!
