
*************** JDFTx 1.5.0  ***************

Start date and time: Thu Sep 10 15:41:13 2020
Executable jdftx_gpu with command-line: -i Neutral.in -o Neutral.out
Running on hosts (process indices):  amax (0-6)
Divided in process groups (process indices):  0 (0)  1 (1)  2 (2)  3 (3)  4 (4)  5 (5)  6 (6)
gpuInit: Found compatible cuda device 0 'Tesla K80'
gpuInit: Found compatible cuda device 1 'Tesla K80'
gpuInit: Found compatible cuda device 2 'Tesla K80'
gpuInit: Found compatible cuda device 3 'Tesla K80'
gpuInit: Found compatible cuda device 4 'Tesla K80'
gpuInit: Found compatible cuda device 5 'Tesla K80'
gpuInit: Found compatible cuda device 6 'Tesla K80'
gpuInit: Selected device 0
Resource initialization completed at t[s]:      6.18
Run totals: 7 processes, 24 threads, 7 GPUs


Input parsed successfully to the following command list (including defaults):

basis kpoint-dependent
cache-projectors no
coords-type Lattice
core-overlap-check none
coulomb-interaction Slab 001
coulomb-truncation-embed 0 0 0.5
davidson-band-ratio 1.1
dump End State
dump-name NbTe2.$VAR
elec-cutoff 20 100
elec-eigen-algo Davidson
elec-ex-corr gga-PBE
elec-smearing Gauss 0.0073499
electronic-minimize  \
	dirUpdateScheme      FletcherReeves \
	linminMethod         DirUpdateRecommended \
	nIterations          100 \
	history              15 \
	knormThreshold       0 \
	energyDiffThreshold  1e-08 \
	nEnergyDiff          2 \
	alphaTstart          1 \
	alphaTmin            1e-10 \
	updateTestStepSize   yes \
	alphaTreduceFactor   0.1 \
	alphaTincreaseFactor 3 \
	nAlphaAdjustMax      3 \
	wolfeEnergy          0.0001 \
	wolfeGradient        0.9 \
	fdTest               no
electronic-scf  \
	nIterations	500 \
	energyDiffThreshold	1e-08 \
	residualThreshold	1e-07 \
	mixFraction	0.5 \
	qMetric	0.8 \
	history	10 \
	nEigSteps	2 \
	eigDiffThreshold	1e-08 \
	mixedVariable	Density \
	qKerker	0.8 \
	qKappa	-1 \
	verbose	no \
	mixFractionMag	1.5
exchange-regularization WignerSeitzTruncated
fluid LinearPCM 298.000000 1.013250
fluid-anion F- 1 MeanFieldLJ \
	epsBulk 1 \
	pMol 0 \
	epsInf 1 \
	Pvap 0 \
	sigmaBulk 0 \
	Rvdw 2.24877 \
	Res 0 \
	tauNuc 343133
fluid-cation Na+ 1 MeanFieldLJ \
	epsBulk 1 \
	pMol 0 \
	epsInf 1 \
	Pvap 0 \
	sigmaBulk 0 \
	Rvdw 2.19208 \
	Res 0 \
	tauNuc 343133
fluid-ex-corr lda-TF lda-PZ
fluid-gummel-loop 10 1.000000e-05
fluid-minimize  \
	dirUpdateScheme      PolakRibiere \
	linminMethod         DirUpdateRecommended \
	nIterations          400 \
	history              15 \
	knormThreshold       1e-11 \
	energyDiffThreshold  0 \
	nEnergyDiff          2 \
	alphaTstart          1 \
	alphaTmin            1e-10 \
	updateTestStepSize   yes \
	alphaTreduceFactor   0.1 \
	alphaTincreaseFactor 3 \
	nAlphaAdjustMax      6 \
	wolfeEnergy          0.0001 \
	wolfeGradient        0.9 \
	fdTest               no
fluid-solvent H2O 55.338 ScalarEOS \
	epsBulk 78.4 \
	pMol 0.92466 \
	epsInf 1.77 \
	Pvap 1.06736e-10 \
	sigmaBulk 4.62e-05 \
	Rvdw 2.61727 \
	Res 1.42 \
	tauNuc 343133 \
	poleEl 15 7 1
forces-output-coords Positions
initial-state NbTe2.$VAR
ion Ta   0.173052941621435   0.084401275141368   0.504629869835548 1
ion Ta   0.415661198748423   0.084818119800812   0.505535283716027 1
ion Ta   0.671398345847823   0.085883188537909   0.505706696131189 1
ion Ta   0.918885941772145   0.085987460228913   0.505193139587508 1
ion Ta   0.169628019684579   0.335316819271910   0.504874192241743 1
ion Ta   0.411972915800837   0.319872257721802   0.504576849918733 1
ion Ta   0.670185412691093   0.335187649426729   0.505203496082695 1
ion Ta   0.919044818845676   0.333396877541603   0.505325407445594 1
ion Ta   0.173200135733325   0.588814774268011   0.504733040586266 1
ion Ta   0.411632158576188   0.592527734124394   0.504843052501658 1
ion Ta   0.685431686329222   0.593026703074449   0.503835489666130 1
ion Ta   0.920042292333823   0.589166233442301   0.504535052570318 1
ion Ta   0.169750427833504   0.835151759511349   0.504847075025231 1
ion Ta   0.415610959013190   0.831033043686229   0.505371054330980 1
ion Ta   0.670032915462095   0.835495975659786   0.504826491913712 1
ion Ta   0.920108508103331   0.831441575960665   0.504445911034232 1
ion S   0.003153490216700   0.001249573518352   0.589644639455039 1
ion S   0.002963596314298   0.001836810249405   0.419922158570501 1
ion S   0.251640862727607   0.999764555505512   0.592630074235420 1
ion S   0.252575636802411   0.000169077128154   0.417484475525480 1
ion S   0.502403818423892   0.001325048298718   0.590346806681542 1
ion S   0.502756633897441   0.001588571266846   0.420835705736719 1
ion S   0.752869573814575   0.001024104386759   0.591942509314655 1
ion S   0.752771940838604   0.001940537274293   0.418568941325669 1
ion S   0.003746192702611   0.252021467687533   0.591847531678219 1
ion S   0.003125322484888   0.251816818428518   0.418516857922668 1
ion S   0.250225927383443   0.250136477643895   0.592043974057339 1
ion S   0.250183298649164   0.250656897525114   0.417608646309430 1
ion S   0.504355081383052   0.251180123342289   0.592781502501357 1
ion S   0.504767452089238   0.250601250503320   0.418131633175599 1
ion S   0.752953348161067   0.252262477884904   0.592072516733973 1
ion S   0.752769018511733   0.251544236410475   0.418857583007027 1
ion S   0.003163357731317   0.502361485359033   0.589701757303153 1
ion S   0.002903559195706   0.501569582354346   0.420046416710364 1
ion S   0.250618772964958   0.500543087834505   0.592246662646514 1
ion S   0.250290842405977   0.500142276412527   0.417358777863093 1
ion S   0.506150185356695   0.502869549993731   0.578104809990319 1
ion S   0.502712462758208   0.501812971334474   0.429937529057846 1
ion S   0.754541902967213   0.501054675514915   0.592045323336979 1
ion S   0.754043690008765   0.499563861487461   0.417224912721442 1
ion S   0.004599466619537   0.752587601383381   0.592217352788625 1
ion S   0.004960057026167   0.752653459646158   0.416966841611859 1
ion S   0.251657936531479   0.752224855021561   0.592492134422369 1
ion S   0.252313156906203   0.752670548811728   0.417467765960427 1
ion S   0.504640042100065   0.753839178457524   0.592421357257921 1
ion S   0.504529300018116   0.754333319983510   0.417803557958708 1
ion S   0.754349754904485   0.754018605863448   0.591910587727639 1
ion S   0.754131786757622   0.754915720977880   0.417071673300442 1
ion O   0.528788234707865   0.511793755446334   0.670292397599622 1
ion O   0.418914422877347   0.453118310857747   0.710509623461267 1
ion H   0.408021304364871   0.374547704807400   0.715052407463288 1
ion-species GBRV/$ID_pbe.uspp
ion-width Ecut
ionic-minimize  \
	dirUpdateScheme      L-BFGS \
	linminMethod         DirUpdateRecommended \
	nIterations          500 \
	history              15 \
	knormThreshold       0.0001 \
	energyDiffThreshold  1e-06 \
	nEnergyDiff          2 \
	alphaTstart          1 \
	alphaTmin            1e-10 \
	updateTestStepSize   yes \
	alphaTreduceFactor   0.1 \
	alphaTincreaseFactor 3 \
	nAlphaAdjustMax      3 \
	wolfeEnergy          0.0001 \
	wolfeGradient        0.9 \
	fdTest               no
kpoint   0.000000000000   0.000000000000   0.000000000000  1.00000000000000
kpoint-folding 3 3 1 
latt-move-scale 1 1 1
latt-scale 1 1 1 
lattice Triclinic 25.1736 25.1736 34.2617 90 90 120
lattice-minimize  \
	dirUpdateScheme      L-BFGS \
	linminMethod         DirUpdateRecommended \
	nIterations          0 \
	history              15 \
	knormThreshold       0 \
	energyDiffThreshold  1e-06 \
	nEnergyDiff          2 \
	alphaTstart          1 \
	alphaTmin            1e-10 \
	updateTestStepSize   yes \
	alphaTreduceFactor   0.1 \
	alphaTincreaseFactor 3 \
	nAlphaAdjustMax      3 \
	wolfeEnergy          0.0001 \
	wolfeGradient        0.9 \
	fdTest               no
lcao-params -1 1e-06 0.0073499
pcm-variant CANDLE
spintype no-spin
subspace-rotation-factor 1 yes
symmetries automatic
symmetry-threshold 0.0001



---------- Setting up symmetries ----------

Found 24 point-group symmetries of the bravais lattice
Found 1 space-group symmetries with basis
Applied RMS atom displacement 0 bohrs to make symmetries exact.

---------- Initializing the Grid ----------
R = 
[    25.1736   -12.5868          0  ]
[          0     21.801          0  ]
[          0          0    34.2617  ]
unit cell volume = 18803.1
G =
[   0.249594   0.144103         -0  ]
[          0   0.288207          0  ]
[          0         -0   0.183388  ]
Minimum fftbox size, Smin = [  116  116  156  ]
Chosen fftbox size, S = [  120  120  160  ]

---------- Initializing tighter grid for wavefunction operations ----------
R = 
[    25.1736   -12.5868          0  ]
[          0     21.801          0  ]
[          0          0    34.2617  ]
unit cell volume = 18803.1
G =
[   0.249594   0.144103         -0  ]
[          0   0.288207          0  ]
[          0         -0   0.183388  ]
Minimum fftbox size, Smin = [  104  104  140  ]
Chosen fftbox size, S = [  108  108  140  ]

---------- Exchange Correlation functional ----------
Initalized PBE GGA exchange.
Initalized PBE GGA correlation.

---------- Setting up pseudopotentials ----------
Width of ionic core gaussian charges (only for fluid interactions / plotting) set to 0.397384

Reading pseudopotential file '/home/guoxy/vasp/jdftx-1.5.0/build/pseudopotentials/GBRV/ta_pbe.uspp':
  Title: Ta.  Created by USPP 7.3.6 on 14-9-2013
  Reference state energy: -70.583193.  13 valence electrons in orbitals:
    |500>  occupation: 2  eigenvalue: -2.682396
    |510>  occupation: 6  eigenvalue: -1.447928
    |520>  occupation: 3  eigenvalue: -0.131987
    |600>  occupation: 2  eigenvalue: -0.199982
    |610>  occupation: 0  eigenvalue: -0.051129
  lMax: 3  lLocal: 3  QijEcut: 5
  7 projectors sampled on a log grid with 667 points:
    l: 0  eig: -2.682397  rCut: 1.4
    l: 0  eig: -0.199983  rCut: 1.4
    l: 1  eig: -1.447928  rCut: 1.5
    l: 1  eig: -0.051130  rCut: 1.5
    l: 2  eig: -0.131987  rCut: 1.7
    l: 2  eig: 0.150000  rCut: 1.7
    l: 3  eig: 0.250000  rCut: 2.3
  Partial core density with radius 1.2
  Transforming core density to a uniform radial grid of dG=0.02 with 1673 points.
  Transforming local potential to a uniform radial grid of dG=0.02 with 1673 points.
  Transforming nonlocal projectors to a uniform radial grid of dG=0.02 with 432 points.
  Transforming density augmentations to a uniform radial grid of dG=0.02 with 1673 points.
  Transforming atomic orbitals to a uniform radial grid of dG=0.02 with 432 points.
  Core radius for overlap checks: 2.30 bohrs.

Reading pseudopotential file '/home/guoxy/vasp/jdftx-1.5.0/build/pseudopotentials/GBRV/s_pbe.uspp':
  Title: S.  Created by USPP 7.3.6 on 1-4-15
  Reference state energy: -11.898476.  6 valence electrons in orbitals:
    |300>  occupation: 2  eigenvalue: -0.634167
    |310>  occupation: 4  eigenvalue: -0.257568
  lMax: 2  lLocal: 3  QijEcut: 6
  6 projectors sampled on a log grid with 635 points:
    l: 0  eig: -0.634161  rCut: 1.5
    l: 0  eig: 1.500000  rCut: 1.5
    l: 1  eig: -0.257567  rCut: 1.5
    l: 1  eig: 1.500000  rCut: 1.5
    l: 2  eig: -1.000000  rCut: 1.5
    l: 2  eig: 1.500000  rCut: 1.5
  Partial core density with radius 1.15
  Transforming core density to a uniform radial grid of dG=0.02 with 1673 points.
  Transforming local potential to a uniform radial grid of dG=0.02 with 1673 points.
  Transforming nonlocal projectors to a uniform radial grid of dG=0.02 with 432 points.
  Transforming density augmentations to a uniform radial grid of dG=0.02 with 1673 points.
  Transforming atomic orbitals to a uniform radial grid of dG=0.02 with 432 points.
  Core radius for overlap checks: 1.50 bohrs.

Reading pseudopotential file '/home/guoxy/vasp/jdftx-1.5.0/build/pseudopotentials/GBRV/o_pbe.uspp':
  Title: O.  Created by USPP 7.3.6 on 3-2-2014
  Reference state energy: -15.894388.  6 valence electrons in orbitals:
    |200>  occupation: 2  eigenvalue: -0.878823
    |210>  occupation: 4  eigenvalue: -0.332131
  lMax: 2  lLocal: 2  QijEcut: 6
  5 projectors sampled on a log grid with 511 points:
    l: 0  eig: -0.878823  rCut: 1.25
    l: 0  eig: 0.000000  rCut: 1.25
    l: 1  eig: -0.332132  rCut: 1.25
    l: 1  eig: 0.000000  rCut: 1.25
    l: 2  eig: 1.000000  rCut: 1.25
  Partial core density with radius 0.7
  Transforming core density to a uniform radial grid of dG=0.02 with 1673 points.
  Transforming local potential to a uniform radial grid of dG=0.02 with 1673 points.
  Transforming nonlocal projectors to a uniform radial grid of dG=0.02 with 432 points.
  Transforming density augmentations to a uniform radial grid of dG=0.02 with 1673 points.
  Transforming atomic orbitals to a uniform radial grid of dG=0.02 with 432 points.
  Core radius for overlap checks: 1.25 bohrs.

Reading pseudopotential file '/home/guoxy/vasp/jdftx-1.5.0/build/pseudopotentials/GBRV/h_pbe.uspp':
  Title: H.  Created by USPP 7.3.6 on 2-4-15
  Reference state energy: -0.458849.  1 valence electrons in orbitals:
    |100>  occupation: 1  eigenvalue: -0.238595
  lMax: 0  lLocal: 1  QijEcut: 6
  2 projectors sampled on a log grid with 395 points:
    l: 0  eig: -0.238595  rCut: 1.2
    l: 0  eig: 1.000000  rCut: 1.2
  Transforming local potential to a uniform radial grid of dG=0.02 with 1673 points.
  Transforming nonlocal projectors to a uniform radial grid of dG=0.02 with 432 points.
  Transforming density augmentations to a uniform radial grid of dG=0.02 with 1673 points.
  Transforming atomic orbitals to a uniform radial grid of dG=0.02 with 432 points.
  Core radius for overlap checks: 1.20 bohrs.

Initialized 4 species with 51 total atoms.

Folded 1 k-points by 3x3x1 to 9 k-points.

---------- Setting up k-points, bands, fillings ----------
Adding inversion symmetry to k-mesh for non-inversion-symmetric unit cell.
Reduced to 5 k-points under symmetry. 
Computing the number of bands and number of electrons
Calculating initial fillings.
nElectrons: 413.000000   nBands: 345   nStates: 5

----- Setting up reduced wavefunction bases (one per k-point) -----
average nbasis = 80341.667 , ideal nbasis = 80328.402

---------- Setting up coulomb interaction ----------
Fluid mode embedding: using embedded box, but periodic Coulomb kernel.
(Fluid response is responsible for (approximate) separation between periodic images.)
Setting up double-sized grid for truncated Coulomb potentials:
R = 
[    25.1736   -12.5868          0  ]
[          0     21.801          0  ]
[          0          0    68.5234  ]
unit cell volume = 37606.3
G =
[   0.249594   0.144103         -0  ]
[          0   0.288207          0  ]
[          0         -0  0.0916941  ]
Chosen fftbox size, S = [  120  120  320  ]
Integer grid location selected as the embedding center:
   Grid: [  0  0  80  ]
   Lattice: [  0  0  0.5  ]
   Cartesian: [  0  0  17.1308  ]
Constructing Wigner-Seitz cell: 8 faces (6 quadrilaterals, 2 hexagons)
Range-separation parameter for embedded mesh potentials due to point charges: 0.583787 bohrs.

Initializing van der Waals corrections
	NOTE: vdW corrections apply only for interactions with fluid.
	Ta:  C6:  815.23 Eh-a0^6  R0: 3.326 a0 (WARNING: beyond Grimme's data set)
	 S:  C6:   96.61 Eh-a0^6  R0: 3.180 a0
	 O:  C6:   12.14 Eh-a0^6  R0: 2.536 a0
	 H:  C6:    2.43 Eh-a0^6  R0: 1.892 a0

---------- Setting up ewald sum ----------
Optimum gaussian width for ewald sums = 6.940676 bohr.
Real space sum over 605 unit cells with max indices [  5  5  2  ]
Reciprocal space sum over 7425 terms with max indices [  7  7  16  ]

---------- Allocating electronic variables ----------
Initializing wave functions:  linear combination of atomic orbitals
Ta pseudo-atom occupations:   s ( 2 2 )  p ( 6 0 )  d ( 3 )
S pseudo-atom occupations:   s ( 2 )  p ( 4 )
O pseudo-atom occupations:   s ( 2 )  p ( 4 )
H pseudo-atom occupations:   s ( 1 )
	FillingsUpdate:  mu: -0.266246731  nElectrons: 413.000000
LCAOMinimize: Iter:   0  F: -1299.5205536087130440  |grad|_K:  4.415e-03  alpha:  1.000e+00
	FillingsUpdate:  mu: -0.232012870  nElectrons: 413.000000
LCAOMinimize: Iter:   1  F: -1300.2479699439900287  |grad|_K:  2.704e-03  alpha:  8.087e-02  linmin: -3.563e-01  cgtest:  7.867e-01  t[s]:     60.05
LCAOMinimize: Encountered beta<0, resetting CG.
	FillingsUpdate:  mu: -0.167017646  nElectrons: 413.000000
LCAOMinimize: Iter:   2  F: -1300.6968401584672392  |grad|_K:  1.186e-03  alpha:  2.237e-01  linmin:  7.745e-02  cgtest: -3.343e-01  t[s]:     82.42
	FillingsUpdate:  mu: -0.157258765  nElectrons: 413.000000
LCAOMinimize: Iter:   3  F: -1300.7153109501223298  |grad|_K:  6.022e-04  alpha:  5.843e-02  linmin: -1.027e-02  cgtest:  6.886e-01  t[s]:    102.86
LCAOMinimize: Encountered beta<0, resetting CG.
	FillingsUpdate:  mu: -0.170903062  nElectrons: 413.000000
LCAOMinimize: Iter:   4  F: -1300.7310756042907087  |grad|_K:  3.646e-04  alpha:  1.440e-01  linmin: -6.165e-03  cgtest:  3.010e-02  t[s]:    123.93
	FillingsUpdate:  mu: -0.176251928  nElectrons: 413.000000
LCAOMinimize: Iter:   5  F: -1300.7355466692793016  |grad|_K:  1.480e-04  alpha:  1.109e-01  linmin: -6.368e-04  cgtest: -7.648e-02  t[s]:    145.95
LCAOMinimize: 	Predicted alpha/alphaT>3.000000, increasing alphaT to 3.327492e-01.
	FillingsUpdate:  mu: -0.175827697  nElectrons: 413.000000
LCAOMinimize: Iter:   6  F: -1300.7378633621785866  |grad|_K:  1.406e-04  alpha:  3.535e-01  linmin:  3.205e-03  cgtest: -1.395e-02  t[s]:    170.97
	FillingsUpdate:  mu: -0.174336505  nElectrons: 413.000000
LCAOMinimize: Iter:   7  F: -1300.7386178569372532  |grad|_K:  6.991e-05  alpha:  1.267e-01  linmin: -5.141e-03  cgtest:  1.192e-01  t[s]:    195.65
	FillingsUpdate:  mu: -0.173343749  nElectrons: 413.000000
LCAOMinimize: Iter:   8  F: -1300.7388358054638502  |grad|_K:  4.381e-05  alpha:  1.470e-01  linmin:  3.034e-04  cgtest: -2.323e-02  t[s]:    216.88
	FillingsUpdate:  mu: -0.173145885  nElectrons: 413.000000
LCAOMinimize: Iter:   9  F: -1300.7389327095538647  |grad|_K:  2.171e-05  alpha:  1.688e-01  linmin:  7.874e-05  cgtest:  2.132e-02  t[s]:    239.80
	FillingsUpdate:  mu: -0.173484368  nElectrons: 413.000000
LCAOMinimize: Iter:  10  F: -1300.7389584352429210  |grad|_K:  1.119e-05  alpha:  1.825e-01  linmin: -8.285e-05  cgtest:  1.783e-03  t[s]:    263.69
	FillingsUpdate:  mu: -0.173607686  nElectrons: 413.000000
LCAOMinimize: Iter:  11  F: -1300.7389624306981659  |grad|_K:  4.968e-06  alpha:  1.066e-01  linmin:  3.544e-05  cgtest: -6.543e-04  t[s]:    285.96
	FillingsUpdate:  mu: -0.173660761  nElectrons: 413.000000
LCAOMinimize: Iter:  12  F: -1300.7389645827413460  |grad|_K:  4.589e-06  alpha:  2.915e-01  linmin:  1.351e-04  cgtest: -8.800e-04  t[s]:    310.05
	FillingsUpdate:  mu: -0.173648957  nElectrons: 413.000000
LCAOMinimize: Iter:  13  F: -1300.7389654422649983  |grad|_K:  2.007e-06  alpha:  1.365e-01  linmin:  2.947e-05  cgtest:  2.645e-03  t[s]:    332.20
	FillingsUpdate:  mu: -0.173616971  nElectrons: 413.000000
LCAOMinimize: Iter:  14  F: -1300.7389656311236195  |grad|_K:  1.326e-06  alpha:  1.566e-01  linmin: -7.635e-05  cgtest:  5.694e-04  t[s]:    357.20
LCAOMinimize: Converged (|Delta F|<1.000000e-06 for 2 iters).
----- createFluidSolver() ----- (Fluid-side solver setup)
   Initializing fluid molecule 'H2O'
     Initializing site 'O'
       Electron density: proportional to exp(-r/0.36935)*erfc((r-0.51523)/0.36823) with norm 6.826
       Charge density: gaussian nuclear width 0.478731 with net site charge 0.826
       Polarizability: cuspless exponential with width 0.32 and norm 3.73
       Hard sphere radius: 2.57003 bohrs
       Positions in reference frame:
         [ +0.000000 +0.000000 +0.000000 ]
     Initializing site 'H'
       Electron density: proportional to exp(-r/0.34641)*erfc((r-0)/0.390882) with norm 0.587
       Charge density: gaussian nuclear width 0.377945 with net site charge -0.413
       Polarizability: cuspless exponential with width 0.39 and norm 3.3
       Positions in reference frame:
         [ +0.000000 -1.441945 +1.122523 ]
         [ +0.000000 +1.441945 +1.122523 ]
     Net charge: 0   dipole magnitude: 0.927204
     Initializing spherical shell mfKernel with radius 2.61727 Bohr
     deltaS corrections:
       site 'O': -7.54299
       site 'H': -6.83917
   Initializing fluid molecule 'Na+'
     Initializing site 'Na'
       Electron density: proportional to exp(-r/0.19682)*erfc((r-0.71491)/0.41314) with norm 8.1383
       Charge density: gaussian nuclear width 0.365347 with net site charge -1
       Hard sphere radius: 1.86327 bohrs
       Positions in reference frame:
         [ +0.000000 +0.000000 +0.000000 ]
     Net charge: -1   dipole magnitude: 0
     Initializing gaussian mfKernel with width: 1.55004 Bohr
     deltaS corrections:
       site 'Na': -22.3555
   Initializing fluid molecule 'F-'
     Initializing site 'F'
       Electron density: proportional to exp(-r/0.38886)*erfc((r-0)/0.438782) with norm 8
       Charge density: gaussian nuclear width 0.374796 with net site charge 1
       Hard sphere radius: 2.39995 bohrs
       Positions in reference frame:
         [ +0.000000 +0.000000 +0.000000 ]
     Net charge: 1   dipole magnitude: 0
     Initializing gaussian mfKernel with width: 1.59012 Bohr
     deltaS corrections:
       site 'F': -9.04335

Correction to mu due to finite nuclear width = -0.0108966
   Cavity determined by nc: 0.00142 and sigma: 0.707107
   Nonlocal vdW cavity from gaussian model electron density with norm = 8 and sigma = 0.993594 bohr
   Charge asymmetry in cavity with sensitivity pCavity = 36.5 e-bohr/Eh
   Electrostatic cavity expanded by eta = 1.46 bohrs
   Weighted density cavitation model constrained by Nbulk: 0.0049383 bohr^-3, Pvap: 3.14029 kPa, Rvdw: 2.61727 bohr and sigmaBulk: 4.62e-05 Eh/bohr^2 at T: 298 K.
   Weighted density dispersion model using vdW pair potentials with single solvent site with sqrtC6eff: 0.77 SI.


---- Citations for features of the code used in this run ----

   Software package:
      R. Sundararaman, K. Letchworth-Weaver, K.A. Schwarz, D. Gunceler, Y. Ozhabes and T.A. Arias, 'JDFTx: software for joint density-functional theory', SoftwareX 6, 278 (2017)

   gga-PBE exchange-correlation functional:
      J.P. Perdew, K. Burke and M. Ernzerhof, Phys. Rev. Lett. 77, 3865 (1996)

   Pseudopotentials:
      KF Garrity, JW Bennett, KM Rabe and D Vanderbilt, Comput. Mater. Sci. 81, 446 (2014)

   Truncated Coulomb potentials:
      R. Sundararaman and T.A. Arias, Phys. Rev. B 87, 165122 (2013)

   Van der Waals correction pair-potentials:
      S. Grimme, J. Comput. Chem. 27, 1787 (2006)

   Charge-asymmetric nonlocally-determined local-electric (CANDLE) solvation model:
      R. Sundararaman and W.A. Goddard III, J. Chem. Phys. 142, 064107 (2015)

This list may not be complete. Please suggest additional citations or
report any other bugs at https://github.com/shankar1729/jdftx/issues

Initialization completed successfully at t[s]:    362.32

Fluid solver invoked on fresh (partially random / LCAO) wavefunctions
Running a vacuum solve first:

-------- Initial electronic minimization -----------
Will mix electronic density at each iteration.
	FillingsUpdate:  mu: -0.173616971  nElectrons: 413.000000
	FillingsUpdate:  mu: -0.183550980  nElectrons: 413.000000
SCF: Cycle:  0   F: -1301.366963685326937   dF: -6.280e-01   |Residual|: 5.445e-01   |deigs|: 5.850e-02  t[s]:    416.76
	FillingsUpdate:  mu: -0.167706094  nElectrons: 413.000000
SCF: Cycle:  1   F: -1302.331250225948679   dF: -9.643e-01   |Residual|: 2.596e-01   |deigs|: 1.405e-02  t[s]:    458.28
	FillingsUpdate:  mu: -0.158197738  nElectrons: 413.000000
SCF: Cycle:  2   F: -1302.517009910631714   dF: -1.858e-01   |Residual|: 7.748e-02   |deigs|: 1.036e-02  t[s]:    499.36

*************** JDFTx 1.5.0  ***************

Start date and time: Thu Sep 10 15:50:39 2020
Executable jdftx_gpu with command-line: -i Neutral.in -o Neutral.out
Running on hosts (process indices):  amax (0-6)
Divided in process groups (process indices):  0 (0)  1 (1)  2 (2)  3 (3)  4 (4)  5 (5)  6 (6)
gpuInit: Found compatible cuda device 0 'Tesla K80'
gpuInit: Found compatible cuda device 1 'Tesla K80'
gpuInit: Found compatible cuda device 2 'Tesla K80'
gpuInit: Found compatible cuda device 3 'Tesla K80'
gpuInit: Found compatible cuda device 4 'Tesla K80'
gpuInit: Found compatible cuda device 5 'Tesla K80'
gpuInit: Found compatible cuda device 6 'Tesla K80'
gpuInit: Selected device 0
Resource initialization completed at t[s]:      4.78
Run totals: 7 processes, 24 threads, 7 GPUs


Input parsed successfully to the following command list (including defaults):

basis kpoint-dependent
cache-projectors no
coords-type Lattice
core-overlap-check none
coulomb-interaction Slab 001
coulomb-truncation-embed 0 0 0.5
davidson-band-ratio 1.1
dump End State
dump-name NbTe2.$VAR
elec-cutoff 20 100
elec-eigen-algo Davidson
elec-ex-corr gga-PBE
elec-smearing Gauss 0.0073499
electronic-minimize  \
	dirUpdateScheme      FletcherReeves \
	linminMethod         DirUpdateRecommended \
	nIterations          500 \
	history              15 \
	knormThreshold       0 \
	energyDiffThreshold  1e-08 \
	nEnergyDiff          2 \
	alphaTstart          1 \
	alphaTmin            1e-10 \
	updateTestStepSize   yes \
	alphaTreduceFactor   0.1 \
	alphaTincreaseFactor 3 \
	nAlphaAdjustMax      3 \
	wolfeEnergy          0.0001 \
	wolfeGradient        0.9 \
	fdTest               no
exchange-regularization WignerSeitzTruncated
fluid LinearPCM 298.000000 1.013250
fluid-anion F- 1 MeanFieldLJ \
	epsBulk 1 \
	pMol 0 \
	epsInf 1 \
	Pvap 0 \
	sigmaBulk 0 \
	Rvdw 2.24877 \
	Res 0 \
	tauNuc 343133
fluid-cation Na+ 1 MeanFieldLJ \
	epsBulk 1 \
	pMol 0 \
	epsInf 1 \
	Pvap 0 \
	sigmaBulk 0 \
	Rvdw 2.19208 \
	Res 0 \
	tauNuc 343133
fluid-ex-corr lda-TF lda-PZ
fluid-gummel-loop 10 1.000000e-05
fluid-minimize  \
	dirUpdateScheme      PolakRibiere \
	linminMethod         DirUpdateRecommended \
	nIterations          400 \
	history              15 \
	knormThreshold       1e-11 \
	energyDiffThreshold  0 \
	nEnergyDiff          2 \
	alphaTstart          1 \
	alphaTmin            1e-10 \
	updateTestStepSize   yes \
	alphaTreduceFactor   0.1 \
	alphaTincreaseFactor 3 \
	nAlphaAdjustMax      6 \
	wolfeEnergy          0.0001 \
	wolfeGradient        0.9 \
	fdTest               no
fluid-solvent H2O 55.338 ScalarEOS \
	epsBulk 78.4 \
	pMol 0.92466 \
	epsInf 1.77 \
	Pvap 1.06736e-10 \
	sigmaBulk 4.62e-05 \
	Rvdw 2.61727 \
	Res 1.42 \
	tauNuc 343133 \
	poleEl 15 7 1
forces-output-coords Positions
initial-state NbTe2.$VAR
ion Ta   0.173052941621435   0.084401275141368   0.504629869835548 1
ion Ta   0.415661198748423   0.084818119800812   0.505535283716027 1
ion Ta   0.671398345847823   0.085883188537909   0.505706696131189 1
ion Ta   0.918885941772145   0.085987460228913   0.505193139587508 1
ion Ta   0.169628019684579   0.335316819271910   0.504874192241743 1
ion Ta   0.411972915800837   0.319872257721802   0.504576849918733 1
ion Ta   0.670185412691093   0.335187649426729   0.505203496082695 1
ion Ta   0.919044818845676   0.333396877541603   0.505325407445594 1
ion Ta   0.173200135733325   0.588814774268011   0.504733040586266 1
ion Ta   0.411632158576188   0.592527734124394   0.504843052501658 1
ion Ta   0.685431686329222   0.593026703074449   0.503835489666130 1
ion Ta   0.920042292333823   0.589166233442301   0.504535052570318 1
ion Ta   0.169750427833504   0.835151759511349   0.504847075025231 1
ion Ta   0.415610959013190   0.831033043686229   0.505371054330980 1
ion Ta   0.670032915462095   0.835495975659786   0.504826491913712 1
ion Ta   0.920108508103331   0.831441575960665   0.504445911034232 1
ion S   0.003153490216700   0.001249573518352   0.589644639455039 1
ion S   0.002963596314298   0.001836810249405   0.419922158570501 1
ion S   0.251640862727607   0.999764555505512   0.592630074235420 1
ion S   0.252575636802411   0.000169077128154   0.417484475525480 1
ion S   0.502403818423892   0.001325048298718   0.590346806681542 1
ion S   0.502756633897441   0.001588571266846   0.420835705736719 1
ion S   0.752869573814575   0.001024104386759   0.591942509314655 1
ion S   0.752771940838604   0.001940537274293   0.418568941325669 1
ion S   0.003746192702611   0.252021467687533   0.591847531678219 1
ion S   0.003125322484888   0.251816818428518   0.418516857922668 1
ion S   0.250225927383443   0.250136477643895   0.592043974057339 1
ion S   0.250183298649164   0.250656897525114   0.417608646309430 1
ion S   0.504355081383052   0.251180123342289   0.592781502501357 1
ion S   0.504767452089238   0.250601250503320   0.418131633175599 1
ion S   0.752953348161067   0.252262477884904   0.592072516733973 1
ion S   0.752769018511733   0.251544236410475   0.418857583007027 1
ion S   0.003163357731317   0.502361485359033   0.589701757303153 1
ion S   0.002903559195706   0.501569582354346   0.420046416710364 1
ion S   0.250618772964958   0.500543087834505   0.592246662646514 1
ion S   0.250290842405977   0.500142276412527   0.417358777863093 1
ion S   0.506150185356695   0.502869549993731   0.578104809990319 1
ion S   0.502712462758208   0.501812971334474   0.429937529057846 1
ion S   0.754541902967213   0.501054675514915   0.592045323336979 1
ion S   0.754043690008765   0.499563861487461   0.417224912721442 1
ion S   0.004599466619537   0.752587601383381   0.592217352788625 1
ion S   0.004960057026167   0.752653459646158   0.416966841611859 1
ion S   0.251657936531479   0.752224855021561   0.592492134422369 1
ion S   0.252313156906203   0.752670548811728   0.417467765960427 1
ion S   0.504640042100065   0.753839178457524   0.592421357257921 1
ion S   0.504529300018116   0.754333319983510   0.417803557958708 1
ion S   0.754349754904485   0.754018605863448   0.591910587727639 1
ion S   0.754131786757622   0.754915720977880   0.417071673300442 1
ion O   0.528788234707865   0.511793755446334   0.670292397599622 1
ion O   0.418914422877347   0.453118310857747   0.710509623461267 1
ion H   0.408021304364871   0.374547704807400   0.715052407463288 1
ion-species GBRV/$ID_pbe.uspp
ion-width Ecut
ionic-minimize  \
	dirUpdateScheme      L-BFGS \
	linminMethod         DirUpdateRecommended \
	nIterations          500 \
	history              15 \
	knormThreshold       0.0001 \
	energyDiffThreshold  1e-06 \
	nEnergyDiff          2 \
	alphaTstart          1 \
	alphaTmin            1e-10 \
	updateTestStepSize   yes \
	alphaTreduceFactor   0.1 \
	alphaTincreaseFactor 3 \
	nAlphaAdjustMax      3 \
	wolfeEnergy          0.0001 \
	wolfeGradient        0.9 \
	fdTest               no
kpoint   0.000000000000   0.000000000000   0.000000000000  1.00000000000000
kpoint-folding 3 3 1 
latt-move-scale 1 1 1
latt-scale 1 1 1 
lattice Triclinic 25.1736 25.1736 34.2617 90 90 120
lattice-minimize  \
	dirUpdateScheme      L-BFGS \
	linminMethod         DirUpdateRecommended \
	nIterations          0 \
	history              15 \
	knormThreshold       0 \
	energyDiffThreshold  1e-06 \
	nEnergyDiff          2 \
	alphaTstart          1 \
	alphaTmin            1e-10 \
	updateTestStepSize   yes \
	alphaTreduceFactor   0.1 \
	alphaTincreaseFactor 3 \
	nAlphaAdjustMax      3 \
	wolfeEnergy          0.0001 \
	wolfeGradient        0.9 \
	fdTest               no
lcao-params -1 1e-06 0.0073499
pcm-variant CANDLE
spintype no-spin
subspace-rotation-factor 1 yes
symmetries automatic
symmetry-threshold 0.0001



---------- Setting up symmetries ----------

Found 24 point-group symmetries of the bravais lattice
Found 1 space-group symmetries with basis
Applied RMS atom displacement 0 bohrs to make symmetries exact.

---------- Initializing the Grid ----------
R = 
[    25.1736   -12.5868          0  ]
[          0     21.801          0  ]
[          0          0    34.2617  ]
unit cell volume = 18803.1
G =
[   0.249594   0.144103         -0  ]
[          0   0.288207          0  ]
[          0         -0   0.183388  ]
Minimum fftbox size, Smin = [  116  116  156  ]
Chosen fftbox size, S = [  120  120  160  ]

---------- Initializing tighter grid for wavefunction operations ----------
R = 
[    25.1736   -12.5868          0  ]
[          0     21.801          0  ]
[          0          0    34.2617  ]
unit cell volume = 18803.1
G =
[   0.249594   0.144103         -0  ]
[          0   0.288207          0  ]
[          0         -0   0.183388  ]
Minimum fftbox size, Smin = [  104  104  140  ]
Chosen fftbox size, S = [  108  108  140  ]

---------- Exchange Correlation functional ----------
Initalized PBE GGA exchange.
Initalized PBE GGA correlation.

---------- Setting up pseudopotentials ----------
Width of ionic core gaussian charges (only for fluid interactions / plotting) set to 0.397384

Reading pseudopotential file '/home/guoxy/vasp/jdftx-1.5.0/build/pseudopotentials/GBRV/ta_pbe.uspp':
  Title: Ta.  Created by USPP 7.3.6 on 14-9-2013
  Reference state energy: -70.583193.  13 valence electrons in orbitals:
    |500>  occupation: 2  eigenvalue: -2.682396
    |510>  occupation: 6  eigenvalue: -1.447928
    |520>  occupation: 3  eigenvalue: -0.131987
    |600>  occupation: 2  eigenvalue: -0.199982
    |610>  occupation: 0  eigenvalue: -0.051129
  lMax: 3  lLocal: 3  QijEcut: 5
  7 projectors sampled on a log grid with 667 points:
    l: 0  eig: -2.682397  rCut: 1.4
    l: 0  eig: -0.199983  rCut: 1.4
    l: 1  eig: -1.447928  rCut: 1.5
    l: 1  eig: -0.051130  rCut: 1.5
    l: 2  eig: -0.131987  rCut: 1.7
    l: 2  eig: 0.150000  rCut: 1.7
    l: 3  eig: 0.250000  rCut: 2.3
  Partial core density with radius 1.2
  Transforming core density to a uniform radial grid of dG=0.02 with 1673 points.
  Transforming local potential to a uniform radial grid of dG=0.02 with 1673 points.
  Transforming nonlocal projectors to a uniform radial grid of dG=0.02 with 432 points.
  Transforming density augmentations to a uniform radial grid of dG=0.02 with 1673 points.
  Transforming atomic orbitals to a uniform radial grid of dG=0.02 with 432 points.
  Core radius for overlap checks: 2.30 bohrs.

Reading pseudopotential file '/home/guoxy/vasp/jdftx-1.5.0/build/pseudopotentials/GBRV/s_pbe.uspp':
  Title: S.  Created by USPP 7.3.6 on 1-4-15
  Reference state energy: -11.898476.  6 valence electrons in orbitals:
    |300>  occupation: 2  eigenvalue: -0.634167
    |310>  occupation: 4  eigenvalue: -0.257568
  lMax: 2  lLocal: 3  QijEcut: 6
  6 projectors sampled on a log grid with 635 points:
    l: 0  eig: -0.634161  rCut: 1.5
    l: 0  eig: 1.500000  rCut: 1.5
    l: 1  eig: -0.257567  rCut: 1.5
    l: 1  eig: 1.500000  rCut: 1.5
    l: 2  eig: -1.000000  rCut: 1.5
    l: 2  eig: 1.500000  rCut: 1.5
  Partial core density with radius 1.15
  Transforming core density to a uniform radial grid of dG=0.02 with 1673 points.
  Transforming local potential to a uniform radial grid of dG=0.02 with 1673 points.
  Transforming nonlocal projectors to a uniform radial grid of dG=0.02 with 432 points.
  Transforming density augmentations to a uniform radial grid of dG=0.02 with 1673 points.
  Transforming atomic orbitals to a uniform radial grid of dG=0.02 with 432 points.
  Core radius for overlap checks: 1.50 bohrs.

Reading pseudopotential file '/home/guoxy/vasp/jdftx-1.5.0/build/pseudopotentials/GBRV/o_pbe.uspp':
  Title: O.  Created by USPP 7.3.6 on 3-2-2014
  Reference state energy: -15.894388.  6 valence electrons in orbitals:
    |200>  occupation: 2  eigenvalue: -0.878823
    |210>  occupation: 4  eigenvalue: -0.332131
  lMax: 2  lLocal: 2  QijEcut: 6
  5 projectors sampled on a log grid with 511 points:
    l: 0  eig: -0.878823  rCut: 1.25
    l: 0  eig: 0.000000  rCut: 1.25
    l: 1  eig: -0.332132  rCut: 1.25
    l: 1  eig: 0.000000  rCut: 1.25
    l: 2  eig: 1.000000  rCut: 1.25
  Partial core density with radius 0.7
  Transforming core density to a uniform radial grid of dG=0.02 with 1673 points.
  Transforming local potential to a uniform radial grid of dG=0.02 with 1673 points.
  Transforming nonlocal projectors to a uniform radial grid of dG=0.02 with 432 points.
  Transforming density augmentations to a uniform radial grid of dG=0.02 with 1673 points.
  Transforming atomic orbitals to a uniform radial grid of dG=0.02 with 432 points.
  Core radius for overlap checks: 1.25 bohrs.

Reading pseudopotential file '/home/guoxy/vasp/jdftx-1.5.0/build/pseudopotentials/GBRV/h_pbe.uspp':
  Title: H.  Created by USPP 7.3.6 on 2-4-15
  Reference state energy: -0.458849.  1 valence electrons in orbitals:
    |100>  occupation: 1  eigenvalue: -0.238595
  lMax: 0  lLocal: 1  QijEcut: 6
  2 projectors sampled on a log grid with 395 points:
    l: 0  eig: -0.238595  rCut: 1.2
    l: 0  eig: 1.000000  rCut: 1.2
  Transforming local potential to a uniform radial grid of dG=0.02 with 1673 points.
  Transforming nonlocal projectors to a uniform radial grid of dG=0.02 with 432 points.
  Transforming density augmentations to a uniform radial grid of dG=0.02 with 1673 points.
  Transforming atomic orbitals to a uniform radial grid of dG=0.02 with 432 points.
  Core radius for overlap checks: 1.20 bohrs.

Initialized 4 species with 51 total atoms.

Folded 1 k-points by 3x3x1 to 9 k-points.

---------- Setting up k-points, bands, fillings ----------
Adding inversion symmetry to k-mesh for non-inversion-symmetric unit cell.
Reduced to 5 k-points under symmetry. 
Computing the number of bands and number of electrons
Calculating initial fillings.
nElectrons: 413.000000   nBands: 345   nStates: 5

----- Setting up reduced wavefunction bases (one per k-point) -----
average nbasis = 80341.667 , ideal nbasis = 80328.402

---------- Setting up coulomb interaction ----------
Fluid mode embedding: using embedded box, but periodic Coulomb kernel.
(Fluid response is responsible for (approximate) separation between periodic images.)
Setting up double-sized grid for truncated Coulomb potentials:
R = 
[    25.1736   -12.5868          0  ]
[          0     21.801          0  ]
[          0          0    68.5234  ]
unit cell volume = 37606.3
G =
[   0.249594   0.144103         -0  ]
[          0   0.288207          0  ]
[          0         -0  0.0916941  ]
Chosen fftbox size, S = [  120  120  320  ]
Integer grid location selected as the embedding center:
   Grid: [  0  0  80  ]
   Lattice: [  0  0  0.5  ]
   Cartesian: [  0  0  17.1308  ]
Constructing Wigner-Seitz cell: 8 faces (6 quadrilaterals, 2 hexagons)
Range-separation parameter for embedded mesh potentials due to point charges: 0.583787 bohrs.

Initializing van der Waals corrections
	NOTE: vdW corrections apply only for interactions with fluid.
	Ta:  C6:  815.23 Eh-a0^6  R0: 3.326 a0 (WARNING: beyond Grimme's data set)
	 S:  C6:   96.61 Eh-a0^6  R0: 3.180 a0
	 O:  C6:   12.14 Eh-a0^6  R0: 2.536 a0
	 H:  C6:    2.43 Eh-a0^6  R0: 1.892 a0

---------- Setting up ewald sum ----------
Optimum gaussian width for ewald sums = 6.940676 bohr.
Real space sum over 605 unit cells with max indices [  5  5  2  ]
Reciprocal space sum over 7425 terms with max indices [  7  7  16  ]

---------- Allocating electronic variables ----------
Initializing wave functions:  linear combination of atomic orbitals
Ta pseudo-atom occupations:   s ( 2 2 )  p ( 6 0 )  d ( 3 )
S pseudo-atom occupations:   s ( 2 )  p ( 4 )
O pseudo-atom occupations:   s ( 2 )  p ( 4 )
H pseudo-atom occupations:   s ( 1 )
	FillingsUpdate:  mu: -0.266246731  nElectrons: 413.000000
LCAOMinimize: Iter:   0  F: -1299.5205536087130440  |grad|_K:  4.415e-03  alpha:  1.000e+00
	FillingsUpdate:  mu: -0.232012870  nElectrons: 413.000000
LCAOMinimize: Iter:   1  F: -1300.2479699439900287  |grad|_K:  2.704e-03  alpha:  8.087e-02  linmin: -3.563e-01  cgtest:  7.867e-01  t[s]:     60.10
LCAOMinimize: Encountered beta<0, resetting CG.
	FillingsUpdate:  mu: -0.167017646  nElectrons: 413.000000
LCAOMinimize: Iter:   2  F: -1300.6968401584672392  |grad|_K:  1.186e-03  alpha:  2.237e-01  linmin:  7.745e-02  cgtest: -3.343e-01  t[s]:     82.25
	FillingsUpdate:  mu: -0.157258765  nElectrons: 413.000000
LCAOMinimize: Iter:   3  F: -1300.7153109501223298  |grad|_K:  6.022e-04  alpha:  5.843e-02  linmin: -1.027e-02  cgtest:  6.886e-01  t[s]:    104.45
LCAOMinimize: Encountered beta<0, resetting CG.
	FillingsUpdate:  mu: -0.170903062  nElectrons: 413.000000
LCAOMinimize: Iter:   4  F: -1300.7310756042907087  |grad|_K:  3.646e-04  alpha:  1.440e-01  linmin: -6.165e-03  cgtest:  3.010e-02  t[s]:    125.02
	FillingsUpdate:  mu: -0.176251928  nElectrons: 413.000000
LCAOMinimize: Iter:   5  F: -1300.7355466692793016  |grad|_K:  1.480e-04  alpha:  1.109e-01  linmin: -6.368e-04  cgtest: -7.648e-02  t[s]:    146.38
LCAOMinimize: 	Predicted alpha/alphaT>3.000000, increasing alphaT to 3.327492e-01.
	FillingsUpdate:  mu: -0.175827697  nElectrons: 413.000000
LCAOMinimize: Iter:   6  F: -1300.7378633621785866  |grad|_K:  1.406e-04  alpha:  3.535e-01  linmin:  3.205e-03  cgtest: -1.395e-02  t[s]:    174.35
	FillingsUpdate:  mu: -0.174336505  nElectrons: 413.000000
LCAOMinimize: Iter:   7  F: -1300.7386178569372532  |grad|_K:  6.991e-05  alpha:  1.267e-01  linmin: -5.141e-03  cgtest:  1.192e-01  t[s]:    195.73
	FillingsUpdate:  mu: -0.173343749  nElectrons: 413.000000
LCAOMinimize: Iter:   8  F: -1300.7388358054638502  |grad|_K:  4.381e-05  alpha:  1.470e-01  linmin:  3.034e-04  cgtest: -2.323e-02  t[s]:    218.87
	FillingsUpdate:  mu: -0.173145885  nElectrons: 413.000000
LCAOMinimize: Iter:   9  F: -1300.7389327095538647  |grad|_K:  2.171e-05  alpha:  1.688e-01  linmin:  7.874e-05  cgtest:  2.132e-02  t[s]:    240.46
	FillingsUpdate:  mu: -0.173484368  nElectrons: 413.000000
LCAOMinimize: Iter:  10  F: -1300.7389584352429210  |grad|_K:  1.119e-05  alpha:  1.825e-01  linmin: -8.285e-05  cgtest:  1.783e-03  t[s]:    262.51
	FillingsUpdate:  mu: -0.173607686  nElectrons: 413.000000
LCAOMinimize: Iter:  11  F: -1300.7389624306981659  |grad|_K:  4.968e-06  alpha:  1.066e-01  linmin:  3.544e-05  cgtest: -6.543e-04  t[s]:    286.89
	FillingsUpdate:  mu: -0.173660761  nElectrons: 413.000000
LCAOMinimize: Iter:  12  F: -1300.7389645827413460  |grad|_K:  4.589e-06  alpha:  2.915e-01  linmin:  1.351e-04  cgtest: -8.800e-04  t[s]:    306.60
	FillingsUpdate:  mu: -0.173648957  nElectrons: 413.000000
LCAOMinimize: Iter:  13  F: -1300.7389654422649983  |grad|_K:  2.007e-06  alpha:  1.365e-01  linmin:  2.947e-05  cgtest:  2.645e-03  t[s]:    328.36
	FillingsUpdate:  mu: -0.173616971  nElectrons: 413.000000
LCAOMinimize: Iter:  14  F: -1300.7389656311236195  |grad|_K:  1.326e-06  alpha:  1.566e-01  linmin: -7.635e-05  cgtest:  5.694e-04  t[s]:    350.26
LCAOMinimize: Converged (|Delta F|<1.000000e-06 for 2 iters).
----- createFluidSolver() ----- (Fluid-side solver setup)
   Initializing fluid molecule 'H2O'
     Initializing site 'O'
       Electron density: proportional to exp(-r/0.36935)*erfc((r-0.51523)/0.36823) with norm 6.826
       Charge density: gaussian nuclear width 0.478731 with net site charge 0.826
       Polarizability: cuspless exponential with width 0.32 and norm 3.73
       Hard sphere radius: 2.57003 bohrs
       Positions in reference frame:
         [ +0.000000 +0.000000 +0.000000 ]
     Initializing site 'H'
       Electron density: proportional to exp(-r/0.34641)*erfc((r-0)/0.390882) with norm 0.587
       Charge density: gaussian nuclear width 0.377945 with net site charge -0.413
       Polarizability: cuspless exponential with width 0.39 and norm 3.3
       Positions in reference frame:
         [ +0.000000 -1.441945 +1.122523 ]
         [ +0.000000 +1.441945 +1.122523 ]
     Net charge: 0   dipole magnitude: 0.927204
     Initializing spherical shell mfKernel with radius 2.61727 Bohr
     deltaS corrections:
       site 'O': -7.54299
       site 'H': -6.83917
   Initializing fluid molecule 'Na+'
     Initializing site 'Na'
       Electron density: proportional to exp(-r/0.19682)*erfc((r-0.71491)/0.41314) with norm 8.1383
       Charge density: gaussian nuclear width 0.365347 with net site charge -1
       Hard sphere radius: 1.86327 bohrs
       Positions in reference frame:
         [ +0.000000 +0.000000 +0.000000 ]
     Net charge: -1   dipole magnitude: 0
     Initializing gaussian mfKernel with width: 1.55004 Bohr
     deltaS corrections:
       site 'Na': -22.3555
   Initializing fluid molecule 'F-'
     Initializing site 'F'
       Electron density: proportional to exp(-r/0.38886)*erfc((r-0)/0.438782) with norm 8
       Charge density: gaussian nuclear width 0.374796 with net site charge 1
       Hard sphere radius: 2.39995 bohrs
       Positions in reference frame:
         [ +0.000000 +0.000000 +0.000000 ]
     Net charge: 1   dipole magnitude: 0
     Initializing gaussian mfKernel with width: 1.59012 Bohr
     deltaS corrections:
       site 'F': -9.04335

Correction to mu due to finite nuclear width = -0.0108966
   Cavity determined by nc: 0.00142 and sigma: 0.707107
   Nonlocal vdW cavity from gaussian model electron density with norm = 8 and sigma = 0.993594 bohr
   Charge asymmetry in cavity with sensitivity pCavity = 36.5 e-bohr/Eh
   Electrostatic cavity expanded by eta = 1.46 bohrs
   Weighted density cavitation model constrained by Nbulk: 0.0049383 bohr^-3, Pvap: 3.14029 kPa, Rvdw: 2.61727 bohr and sigmaBulk: 4.62e-05 Eh/bohr^2 at T: 298 K.
   Weighted density dispersion model using vdW pair potentials with single solvent site with sqrtC6eff: 0.77 SI.


---- Citations for features of the code used in this run ----

   Software package:
      R. Sundararaman, K. Letchworth-Weaver, K.A. Schwarz, D. Gunceler, Y. Ozhabes and T.A. Arias, 'JDFTx: software for joint density-functional theory', SoftwareX 6, 278 (2017)

   gga-PBE exchange-correlation functional:
      J.P. Perdew, K. Burke and M. Ernzerhof, Phys. Rev. Lett. 77, 3865 (1996)

   Pseudopotentials:
      KF Garrity, JW Bennett, KM Rabe and D Vanderbilt, Comput. Mater. Sci. 81, 446 (2014)

   Truncated Coulomb potentials:
      R. Sundararaman and T.A. Arias, Phys. Rev. B 87, 165122 (2013)

   Van der Waals correction pair-potentials:
      S. Grimme, J. Comput. Chem. 27, 1787 (2006)

   Charge-asymmetric nonlocally-determined local-electric (CANDLE) solvation model:
      R. Sundararaman and W.A. Goddard III, J. Chem. Phys. 142, 064107 (2015)

   Total energy minimization with Auxiliary Hamiltonian:
      C. Freysoldt, S. Boeck, and J. Neugebauer, Phys. Rev. B 79, 241103(R) (2009)

This list may not be complete. Please suggest additional citations or
report any other bugs at https://github.com/shankar1729/jdftx/issues

Initialization completed successfully at t[s]:    355.50

Fluid solver invoked on fresh (partially random / LCAO) wavefunctions
Running a vacuum solve first:

-------- Initial electronic minimization -----------
	FillingsUpdate:  mu: -0.173616971  nElectrons: 413.000000
ElecMinimize: Iter:   0  F: -1300.738965631127940  |grad|_K:  1.156e-04  alpha:  1.000e+00
	FillingsUpdate:  mu: -0.077929702  nElectrons: 413.000000
	SubspaceRotationAdjust: set factor to 1
ElecMinimize: Iter:   1  F: -1302.154632941958653  |grad|_K:  6.418e-05  alpha:  7.655e-01  linmin: -1.967e-05  t[s]:    402.69
	FillingsUpdate:  mu: -0.136584392  nElectrons: 413.000000
	SubspaceRotationAdjust: set factor to 0.685
ElecMinimize: Iter:   2  F: -1302.385907317320971  |grad|_K:  4.642e-05  alpha:  4.330e-01  linmin:  1.119e-04  t[s]:    432.64
	FillingsUpdate:  mu: -0.113042704  nElectrons: 413.000000
	SubspaceRotationAdjust: set factor to 0.468
ElecMinimize: Iter:   3  F: -1302.491749559823575  |grad|_K:  3.481e-05  alpha:  3.565e-01  linmin:  6.625e-05  t[s]:    461.45
	FillingsUpdate:  mu: -0.105644385  nElectrons: 413.000000
	SubspaceRotationAdjust: set factor to 0.275
ElecMinimize: Iter:   4  F: -1302.516250367752264  |grad|_K:  1.753e-05  alpha:  1.448e-01  linmin: -5.269e-05  t[s]:    489.27
ElecMinimize: 	Predicted alpha/alphaT>3.000000, increasing alphaT to 4.342619e-01.
	FillingsUpdate:  mu: -0.110841220  nElectrons: 413.000000
	SubspaceRotationAdjust: set factor to 0.322
ElecMinimize: Iter:   5  F: -1302.538879277354454  |grad|_K:  1.288e-05  alpha:  5.266e-01  linmin:  2.353e-05  t[s]:    526.69
	FillingsUpdate:  mu: -0.115211087  nElectrons: 413.000000
	SubspaceRotationAdjust: set factor to 0.243
ElecMinimize: Iter:   6  F: -1302.547054881289341  |grad|_K:  8.495e-06  alpha:  3.558e-01  linmin: -3.620e-07  t[s]:    556.00
	FillingsUpdate:  mu: -0.116330000  nElectrons: 413.000000
	SubspaceRotationAdjust: set factor to 0.332
ElecMinimize: Iter:   7  F: -1302.551674922908887  |grad|_K:  5.313e-06  alpha:  4.613e-01  linmin:  1.202e-05  t[s]:    586.68
	FillingsUpdate:  mu: -0.115369709  nElectrons: 413.000000
	SubspaceRotationAdjust: set factor to 0.289
ElecMinimize: Iter:   8  F: -1302.553698202879104  |grad|_K:  4.259e-06  alpha:  5.176e-01  linmin:  9.728e-06  t[s]:    615.56
	FillingsUpdate:  mu: -0.114674120  nElectrons: 413.000000
	SubspaceRotationAdjust: set factor to 0.271
ElecMinimize: Iter:   9  F: -1302.554663901434651  |grad|_K:  2.928e-06  alpha:  3.839e-01  linmin:  7.786e-07  t[s]:    645.84
	FillingsUpdate:  mu: -0.114456182  nElectrons: 413.000000
	SubspaceRotationAdjust: set factor to 0.383
ElecMinimize: Iter:  10  F: -1302.555342593517935  |grad|_K:  2.071e-06  alpha:  5.711e-01  linmin:  8.577e-06  t[s]:    673.21
	FillingsUpdate:  mu: -0.114705805  nElectrons: 413.000000
	SubspaceRotationAdjust: set factor to 0.339
ElecMinimize: Iter:  11  F: -1302.555616112400912  |grad|_K:  1.706e-06  alpha:  4.611e-01  linmin:  7.926e-07  t[s]:    698.39
	FillingsUpdate:  mu: -0.114980743  nElectrons: 413.000000
	SubspaceRotationAdjust: set factor to 0.288
ElecMinimize: Iter:  12  F: -1302.555770074911607  |grad|_K:  1.024e-06  alpha:  3.809e-01  linmin:  5.377e-07  t[s]:    727.81
	FillingsUpdate:  mu: -0.114905572  nElectrons: 413.000000
	SubspaceRotationAdjust: set factor to 0.332
ElecMinimize: Iter:  13  F: -1302.555845518185833  |grad|_K:  6.847e-07  alpha:  5.184e-01  linmin:  8.690e-07  t[s]:    754.57
	FillingsUpdate:  mu: -0.114793880  nElectrons: 413.000000
	SubspaceRotationAdjust: set factor to 0.296
ElecMinimize: Iter:  14  F: -1302.555878615869460  |grad|_K:  4.900e-07  alpha:  5.087e-01  linmin:  1.625e-07  t[s]:    782.54
	FillingsUpdate:  mu: -0.114782175  nElectrons: 413.000000
	SubspaceRotationAdjust: set factor to 0.248
ElecMinimize: Iter:  15  F: -1302.555892574775726  |grad|_K:  3.428e-07  alpha:  4.187e-01  linmin: -4.195e-08  t[s]:    814.78
	FillingsUpdate:  mu: -0.114811221  nElectrons: 413.000000
	SubspaceRotationAdjust: set factor to 0.308
ElecMinimize: Iter:  16  F: -1302.555901543585151  |grad|_K:  2.197e-07  alpha:  5.494e-01  linmin:  2.199e-07  t[s]:    841.79
	FillingsUpdate:  mu: -0.114817793  nElectrons: 413.000000
	SubspaceRotationAdjust: set factor to 0.34
ElecMinimize: Iter:  17  F: -1302.555905383702111  |grad|_K:  1.722e-07  alpha:  5.729e-01  linmin:  1.851e-07  t[s]:    874.70
	FillingsUpdate:  mu: -0.114811929  nElectrons: 413.000000
	SubspaceRotationAdjust: set factor to 0.331
ElecMinimize: Iter:  18  F: -1302.555907270940224  |grad|_K:  1.281e-07  alpha:  4.581e-01  linmin:  1.100e-07  t[s]:    904.34
	FillingsUpdate:  mu: -0.114810931  nElectrons: 413.000000
	SubspaceRotationAdjust: set factor to 0.37
ElecMinimize: Iter:  19  F: -1302.555908445961222  |grad|_K:  9.317e-08  alpha:  5.153e-01  linmin:  2.694e-07  t[s]:    930.86
	FillingsUpdate:  mu: -0.114822548  nElectrons: 413.000000
	SubspaceRotationAdjust: set factor to 0.436
ElecMinimize: Iter:  20  F: -1302.555909090192472  |grad|_K:  6.374e-08  alpha:  5.348e-01  linmin:  2.205e-07  t[s]:    959.36
	FillingsUpdate:  mu: -0.114824997  nElectrons: 413.000000
	SubspaceRotationAdjust: set factor to 0.413
ElecMinimize: Iter:  21  F: -1302.555909382156642  |grad|_K:  5.320e-08  alpha:  5.178e-01  linmin:  5.750e-08  t[s]:    986.70
	FillingsUpdate:  mu: -0.114824260  nElectrons: 413.000000
	SubspaceRotationAdjust: set factor to 0.313
ElecMinimize: Iter:  22  F: -1302.555909510607080  |grad|_K:  3.706e-08  alpha:  3.268e-01  linmin:  9.530e-10  t[s]:   1016.55
	FillingsUpdate:  mu: -0.114818921  nElectrons: 413.000000
	SubspaceRotationAdjust: set factor to 0.317
ElecMinimize: Iter:  23  F: -1302.555909597585469  |grad|_K:  2.503e-08  alpha:  4.561e-01  linmin: -5.248e-09  t[s]:   1046.90
	FillingsUpdate:  mu: -0.114817917  nElectrons: 413.000000
	SubspaceRotationAdjust: set factor to 0.368
ElecMinimize: Iter:  24  F: -1302.555909643852146  |grad|_K:  1.678e-08  alpha:  5.305e-01  linmin: -1.584e-07  t[s]:   1071.52
	FillingsUpdate:  mu: -0.114819758  nElectrons: 413.000000
	SubspaceRotationAdjust: set factor to 0.363
ElecMinimize: Iter:  25  F: -1302.555909663270313  |grad|_K:  1.387e-08  alpha:  4.957e-01  linmin: -8.349e-08  t[s]:   1099.70
	FillingsUpdate:  mu: -0.114819501  nElectrons: 413.000000
	SubspaceRotationAdjust: set factor to 0.36
ElecMinimize: Iter:  26  F: -1302.555909674752456  |grad|_K:  1.005e-08  alpha:  4.292e-01  linmin: -1.390e-07  t[s]:   1125.85
	FillingsUpdate:  mu: -0.114818819  nElectrons: 413.000000
	SubspaceRotationAdjust: set factor to 0.433
ElecMinimize: Iter:  27  F: -1302.555909682057518  |grad|_K:  7.275e-09  alpha:  5.191e-01  linmin:  1.211e-09  t[s]:   1151.86
	FillingsUpdate:  mu: -0.114818657  nElectrons: 413.000000
	SubspaceRotationAdjust: set factor to 0.481
ElecMinimize: Iter:  28  F: -1302.555909685921961  |grad|_K:  5.526e-09  alpha:  5.247e-01  linmin:  2.307e-07  t[s]:   1176.88
ElecMinimize: Converged (|Delta F|<1.000000e-08 for 2 iters).
Setting wave functions to eigenvectors of Hamiltonian
Vacuum energy after initial minimize, F = -1302.555909685921961

	Linear fluid (dielectric constant: 78.4, screening length: 5.74355 Bohr) occupying 0.751569 of unit cell:	Completed after 23 iterations at t[s]:   1188.93

-------- Electronic minimization -----------
	Linear fluid (dielectric constant: 78.4, screening length: 5.74355 Bohr) occupying 0.751569 of unit cell:	Completed after 0 iterations at t[s]:   1197.52
	FillingsUpdate:  mu: -0.206629244  nElectrons: 413.000000
ElecMinimize: Iter:   0  F: -1302.548720027210948  |grad|_K:  2.657e-06  alpha:  1.000e+00
	Linear fluid (dielectric constant: 78.4, screening length: 5.74355 Bohr) occupying 0.751894 of unit cell:	Completed after 16 iterations at t[s]:   1222.34
	Linear fluid (dielectric constant: 78.4, screening length: 5.74355 Bohr) occupying 0.751753 of unit cell:	Completed after 11 iterations at t[s]:   1237.53
	FillingsUpdate:  mu: -0.205845451  nElectrons: 413.000000
	SubspaceRotationAdjust: set factor to 0.286
ElecMinimize: Iter:   1  F: -1302.549265428358922  |grad|_K:  3.177e-06  alpha:  5.591e-01  linmin:  8.580e-07  t[s]:   1248.76
	Linear fluid (dielectric constant: 78.4, screening length: 5.74355 Bohr) occupying 0.752111 of unit cell:	Completed after 15 iterations at t[s]:   1261.72
	Linear fluid (dielectric constant: 78.4, screening length: 5.74355 Bohr) occupying 0.751958 of unit cell:	Completed after 10 iterations at t[s]:   1276.70
	FillingsUpdate:  mu: -0.205331988  nElectrons: 413.000000
	SubspaceRotationAdjust: set factor to 0.222
ElecMinimize: Iter:   2  F: -1302.549705765517274  |grad|_K:  1.271e-06  alpha:  3.162e-01  linmin:  1.264e-06  t[s]:   1288.09
	Linear fluid (dielectric constant: 78.4, screening length: 5.74355 Bohr) occupying 0.752004 of unit cell:	Completed after 4 iterations at t[s]:   1298.52
	Linear fluid (dielectric constant: 78.4, screening length: 5.74355 Bohr) occupying 0.752063 of unit cell:	Completed after 7 iterations at t[s]:   1310.11
	FillingsUpdate:  mu: -0.205359648  nElectrons: 413.000000
	SubspaceRotationAdjust: set factor to 0.321
ElecMinimize: Iter:   3  F: -1302.549869228953639  |grad|_K:  6.790e-07  alpha:  7.286e-01  linmin: -2.050e-06  t[s]:   1322.70
	Linear fluid (dielectric constant: 78.4, screening length: 5.74355 Bohr) occupying 0.752093 of unit cell:	Completed after 7 iterations at t[s]:   1333.58
	Linear fluid (dielectric constant: 78.4, screening length: 5.74355 Bohr) occupying 0.752088 of unit cell:	Completed after 3 iterations at t[s]:   1344.00
	FillingsUpdate:  mu: -0.205269930  nElectrons: 413.000000
	SubspaceRotationAdjust: set factor to 0.298
ElecMinimize: Iter:   4  F: -1302.549908710499039  |grad|_K:  4.622e-07  alpha:  6.137e-01  linmin:  1.664e-07  t[s]:   1354.84
	Linear fluid (dielectric constant: 78.4, screening length: 5.74355 Bohr) occupying 0.752097 of unit cell:	Completed after 7 iterations at t[s]:   1364.49
	Linear fluid (dielectric constant: 78.4, screening length: 5.74355 Bohr) occupying 0.752094 of unit cell:	Completed after 3 iterations at t[s]:   1375.16
	FillingsUpdate:  mu: -0.205241869  nElectrons: 413.000000
	SubspaceRotationAdjust: set factor to 0.216
ElecMinimize: Iter:   5  F: -1302.549922278682971  |grad|_K:  3.095e-07  alpha:  4.591e-01  linmin:  1.241e-06  t[s]:   1388.02
	Linear fluid (dielectric constant: 78.4, screening length: 5.74355 Bohr) occupying 0.752095 of unit cell:	Completed after 3 iterations at t[s]:   1398.07
	Linear fluid (dielectric constant: 78.4, screening length: 5.74355 Bohr) occupying 0.752095 of unit cell:	Completed after 0 iterations at t[s]:   1409.35
	FillingsUpdate:  mu: -0.205234590  nElectrons: 413.000000
	SubspaceRotationAdjust: set factor to 0.296
ElecMinimize: Iter:   6  F: -1302.549929798367884  |grad|_K:  1.693e-07  alpha:  5.605e-01  linmin: -1.651e-05  t[s]:   1421.28
	Linear fluid (dielectric constant: 78.4, screening length: 5.74355 Bohr) occupying 0.752094 of unit cell:	Completed after 2 iterations at t[s]:   1429.82
	Linear fluid (dielectric constant: 78.4, screening length: 5.74355 Bohr) occupying 0.752094 of unit cell:	Completed after 0 iterations at t[s]:   1440.17
	FillingsUpdate:  mu: -0.205235937  nElectrons: 413.000000
	SubspaceRotationAdjust: set factor to 0.235
ElecMinimize: Iter:   7  F: -1302.549932169443309  |grad|_K:  1.417e-07  alpha:  5.616e-01  linmin: -3.446e-05  t[s]:   1451.00
	Linear fluid (dielectric constant: 78.4, screening length: 5.74355 Bohr) occupying 0.752092 of unit cell:	Completed after 3 iterations at t[s]:   1459.96
	Linear fluid (dielectric constant: 78.4, screening length: 5.74355 Bohr) occupying 0.752092 of unit cell:	Completed after 2 iterations at t[s]:   1470.59
	FillingsUpdate:  mu: -0.205250931  nElectrons: 413.000000
	SubspaceRotationAdjust: set factor to 0.187
ElecMinimize: Iter:   8  F: -1302.549933300486146  |grad|_K:  9.077e-08  alpha:  3.699e-01  linmin:  9.485e-06  t[s]:   1480.85
	Linear fluid (dielectric constant: 78.4, screening length: 5.74355 Bohr) occupying 0.752092 of unit cell:	Completed after 0 iterations at t[s]:   1489.82
	Linear fluid (dielectric constant: 78.4, screening length: 5.74355 Bohr) occupying 0.752091 of unit cell:	Completed after 0 iterations at t[s]:   1500.18
	FillingsUpdate:  mu: -0.205250980  nElectrons: 413.000000
	SubspaceRotationAdjust: set factor to 0.278
ElecMinimize: Iter:   9  F: -1302.549933952576794  |grad|_K:  6.265e-08  alpha:  5.933e-01  linmin: -7.425e-08  t[s]:   1510.95
	Linear fluid (dielectric constant: 78.4, screening length: 5.74355 Bohr) occupying 0.752091 of unit cell:	Completed after 2 iterations at t[s]:   1521.18
	Linear fluid (dielectric constant: 78.4, screening length: 5.74355 Bohr) occupying 0.752091 of unit cell:	Completed after 0 iterations at t[s]:   1530.65
	FillingsUpdate:  mu: -0.205246313  nElectrons: 413.000000
	SubspaceRotationAdjust: set factor to 0.267
ElecMinimize: Iter:  10  F: -1302.549934109866399  |grad|_K:  5.603e-08  alpha:  3.653e-01  linmin:  6.201e-08  t[s]:   1541.42
	Linear fluid (dielectric constant: 78.4, screening length: 5.74355 Bohr) occupying 0.752091 of unit cell:	Completed after 0 iterations at t[s]:   1550.79
	Linear fluid (dielectric constant: 78.4, screening length: 5.74355 Bohr) occupying 0.752090 of unit cell:	Completed after 0 iterations at t[s]:   1560.61
	FillingsUpdate:  mu: -0.205246466  nElectrons: 413.000000
	SubspaceRotationAdjust: set factor to 0.345
ElecMinimize: Iter:  11  F: -1302.549934310156004  |grad|_K:  5.038e-08  alpha:  4.595e-01  linmin:  2.011e-08  t[s]:   1572.79
	Linear fluid (dielectric constant: 78.4, screening length: 5.74355 Bohr) occupying 0.752090 of unit cell:	Completed after 3 iterations at t[s]:   1581.28
	Linear fluid (dielectric constant: 78.4, screening length: 5.74355 Bohr) occupying 0.752090 of unit cell:	Completed after 0 iterations at t[s]:   1590.83
	FillingsUpdate:  mu: -0.205248671  nElectrons: 413.000000
	SubspaceRotationAdjust: set factor to 0.298
ElecMinimize: Iter:  12  F: -1302.549934327824303  |grad|_K:  8.600e-08  alpha:  1.133e-01  linmin:  7.349e-05  t[s]:   1602.99
ElecMinimize: 	Bad step direction: g.d > 0.
ElecMinimize: 	Undoing step.
	Linear fluid (dielectric constant: 78.4, screening length: 5.74355 Bohr) occupying 0.752090 of unit cell:	Completed after 0 iterations at t[s]:   1611.75
ElecMinimize: 	Step failed: resetting search direction.
	FillingsUpdate:  mu: -0.205248671  nElectrons: 413.000000
	SubspaceRotationAdjust: set factor to 0.274
ElecMinimize: Iter:  13  F: -1302.549934327811570  |grad|_K:  8.254e-08  alpha:  0.000e+00
	Linear fluid (dielectric constant: 78.4, screening length: 5.74355 Bohr) occupying 0.752090 of unit cell:	Completed after 1 iterations at t[s]:   1631.70
	Linear fluid (dielectric constant: 78.4, screening length: 5.74355 Bohr) occupying 0.752090 of unit cell:	Completed after 0 iterations at t[s]:   1643.10
ElecMinimize: 	Step increased F by 5.196580e-08, reducing alpha to 5.563631e-03.
	Linear fluid (dielectric constant: 78.4, screening length: 5.74355 Bohr) occupying 0.752090 of unit cell:	Completed after 0 iterations at t[s]:   1662.46
ElecMinimize: 	Step increased F by 8.349161e-08, reducing alpha to 5.563631e-04.
	Linear fluid (dielectric constant: 78.4, screening length: 5.74355 Bohr) occupying 0.752090 of unit cell:	Completed after 0 iterations at t[s]:   1680.52
ElecMinimize: 	Step increased F by 8.688107e-08, reducing alpha to 5.563631e-05.
ElecMinimize: 	Step failed to reduce F after 3 attempts. Quitting step.
ElecMinimize: 	Undoing step.
	Linear fluid (dielectric constant: 78.4, screening length: 5.74355 Bohr) occupying 0.752090 of unit cell:	Completed after 0 iterations at t[s]:   1697.46
ElecMinimize: 	Step failed along negative gradient direction.
ElecMinimize: Probably at roundoff error limit. (Stopping)
Setting wave functions to eigenvectors of Hamiltonian
Single-point solvation energy estimate, DeltaF = +0.005975445072409

# Ionic positions in lattice coordinates:
ion Ta   0.173052941621435   0.084401275141368   0.504629869835548 1
ion Ta   0.415661198748423   0.084818119800812   0.505535283716027 1
ion Ta   0.671398345847823   0.085883188537909   0.505706696131189 1
ion Ta   0.918885941772145   0.085987460228913   0.505193139587508 1
ion Ta   0.169628019684579   0.335316819271910   0.504874192241743 1
ion Ta   0.411972915800837   0.319872257721802   0.504576849918733 1
ion Ta   0.670185412691093   0.335187649426729   0.505203496082695 1
ion Ta   0.919044818845676   0.333396877541603   0.505325407445594 1
ion Ta   0.173200135733325   0.588814774268011   0.504733040586266 1
ion Ta   0.411632158576188   0.592527734124394   0.504843052501658 1
ion Ta   0.685431686329222   0.593026703074449   0.503835489666130 1
ion Ta   0.920042292333823   0.589166233442301   0.504535052570318 1
ion Ta   0.169750427833504   0.835151759511349   0.504847075025231 1
ion Ta   0.415610959013190   0.831033043686229   0.505371054330980 1
ion Ta   0.670032915462095   0.835495975659786   0.504826491913712 1
ion Ta   0.920108508103331   0.831441575960665   0.504445911034232 1
ion S   0.003153490216700   0.001249573518352   0.589644639455039 1
ion S   0.002963596314298   0.001836810249405   0.419922158570501 1
ion S   0.251640862727607   0.999764555505512   0.592630074235420 1
ion S   0.252575636802411   0.000169077128154   0.417484475525480 1
ion S   0.502403818423892   0.001325048298718   0.590346806681542 1
ion S   0.502756633897441   0.001588571266846   0.420835705736719 1
ion S   0.752869573814575   0.001024104386759   0.591942509314655 1
ion S   0.752771940838604   0.001940537274293   0.418568941325669 1
ion S   0.003746192702611   0.252021467687533   0.591847531678219 1
ion S   0.003125322484888   0.251816818428518   0.418516857922668 1
ion S   0.250225927383443   0.250136477643895   0.592043974057339 1
ion S   0.250183298649164   0.250656897525114   0.417608646309430 1
ion S   0.504355081383052   0.251180123342289   0.592781502501357 1
ion S   0.504767452089238   0.250601250503320   0.418131633175599 1
ion S   0.752953348161067   0.252262477884904   0.592072516733973 1
ion S   0.752769018511733   0.251544236410475   0.418857583007027 1
ion S   0.003163357731317   0.502361485359033   0.589701757303153 1
ion S   0.002903559195706   0.501569582354346   0.420046416710364 1
ion S   0.250618772964958   0.500543087834505   0.592246662646514 1
ion S   0.250290842405977   0.500142276412527   0.417358777863093 1
ion S   0.506150185356695   0.502869549993731   0.578104809990319 1
ion S   0.502712462758208   0.501812971334474   0.429937529057846 1
ion S   0.754541902967213   0.501054675514915   0.592045323336979 1
ion S   0.754043690008765   0.499563861487461   0.417224912721442 1
ion S   0.004599466619537   0.752587601383381   0.592217352788625 1
ion S   0.004960057026167   0.752653459646158   0.416966841611859 1
ion S   0.251657936531479   0.752224855021561   0.592492134422369 1
ion S   0.252313156906203   0.752670548811728   0.417467765960427 1
ion S   0.504640042100065   0.753839178457524   0.592421357257921 1
ion S   0.504529300018116   0.754333319983510   0.417803557958708 1
ion S   0.754349754904485   0.754018605863448   0.591910587727639 1
ion S   0.754131786757622   0.754915720977880   0.417071673300442 1
ion O   0.528788234707865   0.511793755446334   0.670292397599622 1
ion O   0.418914422877347   0.453118310857747   0.710509623461267 1
ion H   0.408021304364871   0.374547704807400   0.715052407463288 1


# Forces in Lattice coordinates:
force Ta  -0.111075357131662   0.040900117210615   0.013846327465756 1
force Ta   0.115804575529049  -0.074926250429444   0.009175845713581 1
force Ta  -0.061601989989486   0.001264102932005  -0.000971197519500 1
force Ta   0.051468467188951  -0.057168405936767   0.005414754532406 1
force Ta  -0.000872458990272  -0.008296958553157   0.005511049460928 1
force Ta   0.003158891673477   0.069894001301436   0.009477329707974 1
force Ta  -0.002474226020108  -0.006739168131947   0.008365364053577 1
force Ta  -0.007796567045312   0.059848410376221   0.002592881840098 1
force Ta  -0.078276232468125  -0.033297165495013   0.006215022274303 1
force Ta   0.086553574450316  -0.078033029692352  -0.005481438453865 1
force Ta  -0.073485528794709  -0.002883385460475  -0.001580541044680 1
force Ta   0.079735618421589  -0.115868737047246   0.010795197693971 1
force Ta  -0.003519190964120  -0.004871344255489   0.009842735267326 1
force Ta   0.036682057858054   0.082668014101382   0.003126509207480 1
force Ta  -0.002954165169709   0.003677920315589   0.006393585950141 1
force Ta  -0.036386576647383   0.110382656011352   0.013203060538685 1
force S   0.008670439440033  -0.008312648170237   0.036536110644905 1
force S   0.011728456480979  -0.008572204757660  -0.042592895505038 1
force S   0.004382030071067   0.003911632393516   0.003048821036220 1
force S   0.004640952730498   0.005683020908939  -0.018356219403771 1
force S  -0.008800381281189  -0.000748950231435   0.035982786802411 1
force S  -0.007770440995489   0.000863627674352  -0.039029415648395 1
force S   0.003165404688238   0.008205768300563   0.016807275541623 1
force S   0.005215419446380   0.004450117693861  -0.013085601349073 1
force S  -0.010325580905733   0.000095749080744   0.014450139822308 1
force S  -0.009082057732487   0.001177617685665  -0.018117007734130 1
force S   0.000701411759235  -0.006796337654932  -0.005285648315211 1
force S   0.010899102837716  -0.015372782394923  -0.038937688246285 1
force S   0.002646357561148  -0.013392714897681  -0.016456808250671 1
force S  -0.009631024684518  -0.007255457436731  -0.039270803562607 1
force S   0.010901996930434  -0.010602103483730   0.018770033213853 1
force S   0.012828616551148  -0.008882328339794  -0.021721925822437 1
force S   0.002512056111525   0.010127686048674   0.038888591131702 1
force S   0.004993191467863   0.009334026781476  -0.039408092857177 1
force S  -0.008411614447298   0.012830469242257   0.024440312206366 1
force S  -0.003950507903263   0.017212303316770  -0.019989503439571 1
force S  -0.007956275442036   0.003653858024279   0.019193806170810 1
force S  -0.010174149834972  -0.000065486551311  -0.028060806603914 1
force S   0.005180689854899   0.006594882714289   0.020005035616335 1
force S   0.005681705863284   0.010736911292912  -0.026068191388258 1
force S  -0.004103692633945  -0.000759530959158   0.001551360597260 1
force S  -0.005773139103304   0.001934624683895  -0.002771604263805 1
force S   0.008326505688066  -0.002898076308331   0.011071469116089 1
force S   0.013623908127993  -0.009889817905399  -0.010882453689605 1
force S  -0.016531738168545   0.008141887077414   0.026531834498398 1
force S  -0.018887267014241   0.008540869231389  -0.022050652523591 1
force S   0.013520366984165  -0.005496452695273   0.017958891023678 1
force S   0.014048830662374  -0.009795644685718  -0.025985167365069 1
force O   0.000152025056948   0.001712854102131   0.034474067530164 1
force O  -0.069566471916232   0.177545188166714  -0.084792901197050 1
force H   0.062940367430258  -0.174256575446426   0.167221185214296 1

# Energy components:
   A_diel =        0.0043637252460592
   Eewald =     7626.3975385850490056
       EH =     8667.9598626028619037
     Eloc =   -17612.6501479759026552
      Enl =     -218.5367824551987042
      Exc =     -480.9093970648398226
 Exc_core =      252.7125708048517652
       KE =      462.5465268971653927
-------------------------------------
     Etot =    -1302.4754648807681860
       TS =        0.0744693600813076
-------------------------------------
        F =    -1302.5499342408495522

IonicMinimize: Iter:   0  F: -1302.549934240849552  |grad|_K:  1.497e-03  t[s]:   1717.68

#--- Lowdin population analysis ---
# oxidation-state Ta -0.403 -0.400 -0.390 -0.389 -0.411 -0.466 -0.407 -0.389 -0.400 -0.456 -0.452 -0.401 -0.413 -0.398 -0.406 -0.402
# oxidation-state S +0.230 +0.231 +0.264 +0.266 +0.229 +0.231 +0.251 +0.253 +0.250 +0.253 +0.251 +0.262 +0.244 +0.266 +0.250 +0.253 +0.231 +0.231 +0.270 +0.262 +0.813 +0.269 +0.259 +0.262 +0.264 +0.264 +0.264 +0.264 +0.257 +0.264 +0.258 +0.262
# oxidation-state O -0.244 -0.312
# oxidation-state H +0.460

	Linear fluid (dielectric constant: 78.4, screening length: 5.74355 Bohr) occupying 0.752069 of unit cell:	Completed after 6 iterations at t[s]:   1728.44

-------- Electronic minimization -----------
	Linear fluid (dielectric constant: 78.4, screening length: 5.74355 Bohr) occupying 0.752069 of unit cell:	Completed after 0 iterations at t[s]:   1736.64
	FillingsUpdate:  mu: -0.205160093  nElectrons: 413.000000
ElecMinimize: Iter:   0  F: -1302.549933934648834  |grad|_K:  9.074e-07  alpha:  1.000e+00
	Linear fluid (dielectric constant: 78.4, screening length: 5.74355 Bohr) occupying 0.752067 of unit cell:	Completed after 7 iterations at t[s]:   1760.52
	Linear fluid (dielectric constant: 78.4, screening length: 5.74355 Bohr) occupying 0.752066 of unit cell:	Completed after 2 iterations at t[s]:   1773.08
	FillingsUpdate:  mu: -0.205298074  nElectrons: 413.000000
	SubspaceRotationAdjust: set factor to 0.266
ElecMinimize: Iter:   1  F: -1302.550056200558629  |grad|_K:  9.051e-07  alpha:  1.069e+00  linmin: -1.330e-05  t[s]:   1785.21
	Linear fluid (dielectric constant: 78.4, screening length: 5.74355 Bohr) occupying 0.752066 of unit cell:	Completed after 8 iterations at t[s]:   1795.42
	Linear fluid (dielectric constant: 78.4, screening length: 5.74355 Bohr) occupying 0.752066 of unit cell:	Completed after 3 iterations at t[s]:   1804.67
	FillingsUpdate:  mu: -0.205325434  nElectrons: 413.000000
	SubspaceRotationAdjust: set factor to 0.221
ElecMinimize: Iter:   2  F: -1302.550144744202044  |grad|_K:  8.396e-07  alpha:  7.744e-01  linmin:  4.947e-05  t[s]:   1817.20
	Linear fluid (dielectric constant: 78.4, screening length: 5.74355 Bohr) occupying 0.752067 of unit cell:	Completed after 7 iterations at t[s]:   1829.20
	Linear fluid (dielectric constant: 78.4, screening length: 5.74355 Bohr) occupying 0.752067 of unit cell:	Completed after 3 iterations at t[s]:   1839.93
	FillingsUpdate:  mu: -0.205240062  nElectrons: 413.000000
	SubspaceRotationAdjust: set factor to 0.149
ElecMinimize: Iter:   3  F: -1302.550193906921550  |grad|_K:  3.429e-07  alpha:  5.074e-01  linmin:  1.425e-05  t[s]:   1850.53
	Linear fluid (dielectric constant: 78.4, screening length: 5.74355 Bohr) occupying 0.752068 of unit cell:	Completed after 3 iterations at t[s]:   1859.79
	Linear fluid (dielectric constant: 78.4, screening length: 5.74355 Bohr) occupying 0.752068 of unit cell:	Completed after 0 iterations at t[s]:   1870.84
	FillingsUpdate:  mu: -0.205232019  nElectrons: 413.000000
	SubspaceRotationAdjust: set factor to 0.179
ElecMinimize: Iter:   4  F: -1302.550202876833055  |grad|_K:  1.550e-07  alpha:  5.486e-01  linmin: -1.032e-04  t[s]:   1882.56
	Linear fluid (dielectric constant: 78.4, screening length: 5.74355 Bohr) occupying 0.752068 of unit cell:	Completed after 2 iterations at t[s]:   1891.23
	Linear fluid (dielectric constant: 78.4, screening length: 5.74355 Bohr) occupying 0.752068 of unit cell:	Completed after 0 iterations at t[s]:   1902.44
	FillingsUpdate:  mu: -0.205231581  nElectrons: 413.000000
	SubspaceRotationAdjust: set factor to 0.2
ElecMinimize: Iter:   5  F: -1302.550204835786644  |grad|_K:  8.044e-08  alpha:  5.718e-01  linmin: -1.295e-04  t[s]:   1910.49
	Linear fluid (dielectric constant: 78.4, screening length: 5.74355 Bohr) occupying 0.752068 of unit cell:	Completed after 0 iterations at t[s]:   1916.47
	Linear fluid (dielectric constant: 78.4, screening length: 5.74355 Bohr) occupying 0.752068 of unit cell:	Completed after 2 iterations at t[s]:   1923.20
	FillingsUpdate:  mu: -0.205235585  nElectrons: 413.000000
	SubspaceRotationAdjust: set factor to 0.199
ElecMinimize: Iter:   6  F: -1302.550205399143806  |grad|_K:  6.511e-08  alpha:  8.305e-01  linmin:  1.854e-04  t[s]:   1930.75
	Linear fluid (dielectric constant: 78.4, screening length: 5.74355 Bohr) occupying 0.752069 of unit cell:	Completed after 0 iterations at t[s]:   1937.06
	Linear fluid (dielectric constant: 78.4, screening length: 5.74355 Bohr) occupying 0.752069 of unit cell:	Completed after 0 iterations at t[s]:   1943.85
	FillingsUpdate:  mu: -0.205235636  nElectrons: 413.000000
	SubspaceRotationAdjust: set factor to 0.267
ElecMinimize: Iter:   7  F: -1302.550205651775059  |grad|_K:  5.012e-08  alpha:  6.059e-01  linmin:  4.596e-09  t[s]:   1951.98
	Linear fluid (dielectric constant: 78.4, screening length: 5.74355 Bohr) occupying 0.752069 of unit cell:	Completed after 3 iterations at t[s]:   1958.79
	Linear fluid (dielectric constant: 78.4, screening length: 5.74355 Bohr) occupying 0.752069 of unit cell:	Completed after 0 iterations at t[s]:   1965.37
	FillingsUpdate:  mu: -0.205237473  nElectrons: 413.000000
	SubspaceRotationAdjust: set factor to 0.217
ElecMinimize: Iter:   8  F: -1302.550205745664698  |grad|_K:  5.049e-08  alpha:  3.087e-01  linmin:  6.069e-05  t[s]:   1973.37
	Linear fluid (dielectric constant: 78.4, screening length: 5.74355 Bohr) occupying 0.752069 of unit cell:	Completed after 0 iterations at t[s]:   1979.80
	Linear fluid (dielectric constant: 78.4, screening length: 5.74355 Bohr) occupying 0.752069 of unit cell:	Completed after 0 iterations at t[s]:   1986.31
	FillingsUpdate:  mu: -0.205237504  nElectrons: 413.000000
	SubspaceRotationAdjust: set factor to 0.27
ElecMinimize: Iter:   9  F: -1302.550205846519702  |grad|_K:  4.985e-08  alpha:  3.618e-01  linmin:  6.675e-08  t[s]:   1993.49
	Linear fluid (dielectric constant: 78.4, screening length: 5.74355 Bohr) occupying 0.752068 of unit cell:	Completed after 2 iterations at t[s]:   1999.81
	Linear fluid (dielectric constant: 78.4, screening length: 5.74355 Bohr) occupying 0.752069 of unit cell:	Completed after 0 iterations at t[s]:   2006.75
ElecMinimize: 	Step increased F by 2.164211e-08, reducing alpha to 8.902840e-03.
	Linear fluid (dielectric constant: 78.4, screening length: 5.74355 Bohr) occupying 0.752069 of unit cell:	Completed after 0 iterations at t[s]:   2019.73
	FillingsUpdate:  mu: -0.205234894  nElectrons: 413.000000
	SubspaceRotationAdjust: set factor to 0.197
ElecMinimize: Iter:  10  F: -1302.550205858197387  |grad|_K:  6.687e-08  alpha:  8.903e-03  linmin:  6.888e-05  t[s]:   2028.00
	Linear fluid (dielectric constant: 78.4, screening length: 5.74355 Bohr) occupying 0.752069 of unit cell:	Completed after 0 iterations at t[s]:   2033.75
ElecMinimize: 	Predicted alpha/alphaT>3.000000, increasing alphaT to 2.670852e-02.
	Linear fluid (dielectric constant: 78.4, screening length: 5.74355 Bohr) occupying 0.752069 of unit cell:	Completed after 0 iterations at t[s]:   2040.28
	Linear fluid (dielectric constant: 78.4, screening length: 5.74355 Bohr) occupying 0.752069 of unit cell:	Completed after 0 iterations at t[s]:   2047.23
	FillingsUpdate:  mu: -0.205234885  nElectrons: 413.000000
	SubspaceRotationAdjust: set factor to 0.157
ElecMinimize: Iter:  11  F: -1302.550205862878329  |grad|_K:  5.814e-08  alpha:  4.097e-02  linmin: -3.242e-07  t[s]:   2055.43
	Linear fluid (dielectric constant: 78.4, screening length: 5.74355 Bohr) occupying 0.752069 of unit cell:	Completed after 0 iterations at t[s]:   2061.42
ElecMinimize: 	Predicted alpha/alphaT>3.000000, increasing alphaT to 1.229054e-01.
	Linear fluid (dielectric constant: 78.4, screening length: 5.74355 Bohr) occupying 0.752068 of unit cell:	Completed after 0 iterations at t[s]:   2067.86
	Linear fluid (dielectric constant: 78.4, screening length: 5.74355 Bohr) occupying 0.752068 of unit cell:	Completed after 0 iterations at t[s]:   2074.49
	FillingsUpdate:  mu: -0.205234901  nElectrons: 413.000000
	SubspaceRotationAdjust: set factor to 0.123
ElecMinimize: Iter:  12  F: -1302.550205921659654  |grad|_K:  4.674e-08  alpha:  1.240e-01  linmin: -3.218e-05  t[s]:   2082.89
	Linear fluid (dielectric constant: 78.4, screening length: 5.74355 Bohr) occupying 0.752068 of unit cell:	Completed after 1 iterations at t[s]:   2089.34
	Linear fluid (dielectric constant: 78.4, screening length: 5.74355 Bohr) occupying 0.752068 of unit cell:	Completed after 0 iterations at t[s]:   2095.61
ElecMinimize: 	Step increased F by 7.500739e-08, reducing alpha to 3.052677e-03.
	Linear fluid (dielectric constant: 78.4, screening length: 5.74355 Bohr) occupying 0.752068 of unit cell:	Completed after 0 iterations at t[s]:   2107.72
ElecMinimize: 	Step increased F by 7.051653e-08, reducing alpha to 3.052677e-04.
	Linear fluid (dielectric constant: 78.4, screening length: 5.74355 Bohr) occupying 0.752068 of unit cell:	Completed after 0 iterations at t[s]:   2120.37
ElecMinimize: 	Step increased F by 7.008020e-08, reducing alpha to 3.052677e-05.
ElecMinimize: 	Step failed to reduce F after 3 attempts. Quitting step.
ElecMinimize: 	Undoing step.
	Linear fluid (dielectric constant: 78.4, screening length: 5.74355 Bohr) occupying 0.752068 of unit cell:	Completed after 0 iterations at t[s]:   2133.77
ElecMinimize: 	Step failed: resetting search direction.
	FillingsUpdate:  mu: -0.205236278  nElectrons: 413.000000
	SubspaceRotationAdjust: set factor to 0.0697
ElecMinimize: Iter:  13  F: -1302.550205851575356  |grad|_K:  2.373e-08  alpha:  3.053e-05
	Linear fluid (dielectric constant: 78.4, screening length: 5.74355 Bohr) occupying 0.752068 of unit cell:	Completed after 0 iterations at t[s]:   2146.62
ElecMinimize: 	Predicted alpha/alphaT>3.000000, increasing alphaT to 3.720868e-01.
[...]
force S   0.001083288801165   0.001499875409254   0.004506062736881 1
force S  -0.001209033023075   0.001804463723932   0.005022645179924 1
force S  -0.000549890531070   0.002518606256040  -0.001713782686780 1
force S  -0.001141195617329   0.000354153657753  -0.004930531041928 1
force S  -0.000408856078198   0.001349251102870   0.000233676117801 1
force S  -0.002517284486911   0.002116734985703  -0.001621073353441 1
force S   0.004684962092376  -0.002594460213086  -0.001415534214463 1
force S  -0.000475969759293   0.001351606591463   0.001424655010798 1
force S   0.002114720830354   0.001798925637018   0.002440375286951 1
force S   0.000252637342288   0.001725325679326   0.001214571607608 1
force S   0.000506340738519   0.001306125996833   0.003579562903679 1
force S  -0.000775015946486   0.000168669490983   0.009462396463182 1
force S   0.000447895716618   0.002650708665172  -0.002111639918860 1
force S   0.000144909059422  -0.001862399281124   0.003062973659538 1
force S   0.000141030900469   0.005984235348791  -0.000924556282795 1
force O   0.001037588333162  -0.006089724487931   0.006112920125602 1
force O   0.000370789749692   0.010089435237639  -0.011286604363444 1
force H   0.002724844102329   0.000698178575926   0.002163287865431 1

# Energy components:
   A_diel =       -0.0002616366527391
   Eewald =     7617.7244419567050500
       EH =     8660.5414965034688066
     Eloc =   -17596.5034559818450361
      Enl =     -218.5260084943886341
      Exc =     -480.8719648851285342
 Exc_core =      252.7126142755562626
       KE =      462.4483629608280353
-------------------------------------
     Etot =    -1302.4747753014569298
       TS =        0.0784639197108453
-------------------------------------
        F =    -1302.5532392211678143

IonicMinimize: Iter:  32  F: -1302.553239221167814  |grad|_K:  1.256e-04  alpha:  3.017e-01  linmin: -1.861e-02  t[s]:  51339.12

#--- Lowdin population analysis ---
# oxidation-state Ta -0.402 -0.401 -0.391 -0.389 -0.407 -0.462 -0.404 -0.390 -0.404 -0.458 -0.450 -0.402 -0.406 -0.402 -0.405 -0.401
# oxidation-state S +0.238 +0.238 +0.256 +0.257 +0.238 +0.238 +0.249 +0.250 +0.247 +0.249 +0.262 +0.257 +0.250 +0.260 +0.248 +0.250 +0.238 +0.237 +0.266 +0.257 +0.823 +0.277 +0.253 +0.258 +0.256 +0.256 +0.257 +0.256 +0.254 +0.259 +0.255 +0.258
# oxidation-state O -0.243 -0.324
# oxidation-state H +0.488

	Linear fluid (dielectric constant: 78.4, screening length: 5.74355 Bohr) occupying 0.751578 of unit cell:	Completed after 8 iterations at t[s]:  51348.08

-------- Electronic minimization -----------
	Linear fluid (dielectric constant: 78.4, screening length: 5.74355 Bohr) occupying 0.751578 of unit cell:	Completed after 0 iterations at t[s]:  51354.06
	FillingsUpdate:  mu: -0.204327556  nElectrons: 413.000000
ElecMinimize: Iter:   0  F: -1302.553084821023504  |grad|_K:  1.280e-06  alpha:  1.000e+00
	Linear fluid (dielectric constant: 78.4, screening length: 5.74355 Bohr) occupying 0.751578 of unit cell:	Completed after 9 iterations at t[s]:  51372.01
	Linear fluid (dielectric constant: 78.4, screening length: 5.74355 Bohr) occupying 0.751578 of unit cell:	Completed after 8 iterations at t[s]:  51380.73
	FillingsUpdate:  mu: -0.204343147  nElectrons: 413.000000
	SubspaceRotationAdjust: set factor to 0.115
ElecMinimize: Iter:   1  F: -1302.553191173623873  |grad|_K:  3.933e-07  alpha:  4.678e-01  linmin:  4.134e-05  t[s]:  51388.40
	Linear fluid (dielectric constant: 78.4, screening length: 5.74355 Bohr) occupying 0.751578 of unit cell:	Completed after 3 iterations at t[s]:  51396.07
	Linear fluid (dielectric constant: 78.4, screening length: 5.74355 Bohr) occupying 0.751577 of unit cell:	Completed after 2 iterations at t[s]:  51404.33
	FillingsUpdate:  mu: -0.204343508  nElectrons: 413.000000
	SubspaceRotationAdjust: set factor to 0.144
ElecMinimize: Iter:   2  F: -1302.553207692321166  |grad|_K:  2.734e-07  alpha:  7.733e-01  linmin:  2.207e-04  t[s]:  51412.41
	Linear fluid (dielectric constant: 78.4, screening length: 5.74355 Bohr) occupying 0.751576 of unit cell:	Completed after 2 iterations at t[s]:  51419.85
	Linear fluid (dielectric constant: 78.4, screening length: 5.74355 Bohr) occupying 0.751576 of unit cell:	Completed after 1 iterations at t[s]:  51427.49
	FillingsUpdate:  mu: -0.204343800  nElectrons: 413.000000
	SubspaceRotationAdjust: set factor to 0.179
ElecMinimize: Iter:   3  F: -1302.553220299299028  |grad|_K:  3.200e-07  alpha:  1.220e+00  linmin: -1.163e-04  t[s]:  51435.59
	Linear fluid (dielectric constant: 78.4, screening length: 5.74355 Bohr) occupying 0.751574 of unit cell:	Completed after 3 iterations at t[s]:  51442.73
	Linear fluid (dielectric constant: 78.4, screening length: 5.74355 Bohr) occupying 0.751575 of unit cell:	Completed after 2 iterations at t[s]:  51450.40
	FillingsUpdate:  mu: -0.204345705  nElectrons: 413.000000
	SubspaceRotationAdjust: set factor to 0.2
ElecMinimize: Iter:   4  F: -1302.553232314563729  |grad|_K:  2.661e-07  alpha:  8.379e-01  linmin:  1.295e-05  t[s]:  51458.98
	Linear fluid (dielectric constant: 78.4, screening length: 5.74355 Bohr) occupying 0.751574 of unit cell:	Completed after 2 iterations at t[s]:  51466.41
	Linear fluid (dielectric constant: 78.4, screening length: 5.74355 Bohr) occupying 0.751574 of unit cell:	Completed after 0 iterations at t[s]:  51474.07
	FillingsUpdate:  mu: -0.204347802  nElectrons: 413.000000
	SubspaceRotationAdjust: set factor to 0.21
ElecMinimize: Iter:   5  F: -1302.553239049101194  |grad|_K:  1.854e-07  alpha:  6.833e-01  linmin:  1.636e-04  t[s]:  51482.89
	Linear fluid (dielectric constant: 78.4, screening length: 5.74355 Bohr) occupying 0.751574 of unit cell:	Completed after 1 iterations at t[s]:  51489.40
	Linear fluid (dielectric constant: 78.4, screening length: 5.74355 Bohr) occupying 0.751574 of unit cell:	Completed after 0 iterations at t[s]:  51497.56
	FillingsUpdate:  mu: -0.204347337  nElectrons: 413.000000
	SubspaceRotationAdjust: set factor to 0.227
ElecMinimize: Iter:   6  F: -1302.553241769360284  |grad|_K:  1.176e-07  alpha:  5.840e-01  linmin: -3.399e-05  t[s]:  51506.84
	Linear fluid (dielectric constant: 78.4, screening length: 5.74355 Bohr) occupying 0.751574 of unit cell:	Completed after 1 iterations at t[s]:  51513.90
	Linear fluid (dielectric constant: 78.4, screening length: 5.74355 Bohr) occupying 0.751574 of unit cell:	Completed after 0 iterations at t[s]:  51520.82
	FillingsUpdate:  mu: -0.204346997  nElectrons: 413.000000
	SubspaceRotationAdjust: set factor to 0.247
ElecMinimize: Iter:   7  F: -1302.553242832737851  |grad|_K:  7.051e-08  alpha:  5.536e-01  linmin: -5.527e-04  t[s]:  51528.77
	Linear fluid (dielectric constant: 78.4, screening length: 5.74355 Bohr) occupying 0.751574 of unit cell:	Completed after 0 iterations at t[s]:  51534.94
	Linear fluid (dielectric constant: 78.4, screening length: 5.74355 Bohr) occupying 0.751574 of unit cell:	Completed after 0 iterations at t[s]:  51543.02
	FillingsUpdate:  mu: -0.204347095  nElectrons: 413.000000
	SubspaceRotationAdjust: set factor to 0.286
ElecMinimize: Iter:   8  F: -1302.553243210737264  |grad|_K:  4.733e-08  alpha:  5.277e-01  linmin: -3.318e-04  t[s]:  51552.10
	Linear fluid (dielectric constant: 78.4, screening length: 5.74355 Bohr) occupying 0.751575 of unit cell:	Completed after 0 iterations at t[s]:  51558.95
	Linear fluid (dielectric constant: 78.4, screening length: 5.74355 Bohr) occupying 0.751575 of unit cell:	Completed after 0 iterations at t[s]:  51567.14
	FillingsUpdate:  mu: -0.204346768  nElectrons: 413.000000
	SubspaceRotationAdjust: set factor to 0.301
ElecMinimize: Iter:   9  F: -1302.553243396258722  |grad|_K:  3.873e-08  alpha:  5.809e-01  linmin:  1.247e-03  t[s]:  51574.72
	Linear fluid (dielectric constant: 78.4, screening length: 5.74355 Bohr) occupying 0.751575 of unit cell:	Completed after 0 iterations at t[s]:  51581.16
	Linear fluid (dielectric constant: 78.4, screening length: 5.74355 Bohr) occupying 0.751575 of unit cell:	Completed after 0 iterations at t[s]:  51589.42
	FillingsUpdate:  mu: -0.204346778  nElectrons: 413.000000
	SubspaceRotationAdjust: set factor to 0.397
ElecMinimize: Iter:  10  F: -1302.553243453415689  |grad|_K:  2.896e-08  alpha:  3.758e-01  linmin: -3.931e-03  t[s]:  51598.21
	Linear fluid (dielectric constant: 78.4, screening length: 5.74355 Bohr) occupying 0.751575 of unit cell:	Completed after 0 iterations at t[s]:  51605.10
	Linear fluid (dielectric constant: 78.4, screening length: 5.74355 Bohr) occupying 0.751575 of unit cell:	Completed after 0 iterations at t[s]:  51612.12
	FillingsUpdate:  mu: -0.204346757  nElectrons: 413.000000
	SubspaceRotationAdjust: set factor to 0.327
ElecMinimize: Iter:  11  F: -1302.553243470377083  |grad|_K:  2.411e-08  alpha:  2.092e-01  linmin: -9.211e-03  t[s]:  51620.32
	Linear fluid (dielectric constant: 78.4, screening length: 5.74355 Bohr) occupying 0.751575 of unit cell:	Completed after 1 iterations at t[s]:  51627.34
	Linear fluid (dielectric constant: 78.4, screening length: 5.74355 Bohr) occupying 0.751575 of unit cell:	Completed after 0 iterations at t[s]:  51635.75
ElecMinimize: 	Step increased F by 7.344534e-08, reducing alpha to 4.411348e-03.
	Linear fluid (dielectric constant: 78.4, screening length: 5.74355 Bohr) occupying 0.751575 of unit cell:	Completed after 0 iterations at t[s]:  51650.02
ElecMinimize: 	Step increased F by 7.343283e-08, reducing alpha to 4.411348e-04.
	Linear fluid (dielectric constant: 78.4, screening length: 5.74355 Bohr) occupying 0.751575 of unit cell:	Completed after 0 iterations at t[s]:  51663.80
ElecMinimize: 	Step increased F by 7.344534e-08, reducing alpha to 4.411348e-05.
ElecMinimize: 	Step failed to reduce F after 3 attempts. Quitting step.
ElecMinimize: 	Undoing step.
	Linear fluid (dielectric constant: 78.4, screening length: 5.74355 Bohr) occupying 0.751575 of unit cell:	Completed after 0 iterations at t[s]:  51678.15
ElecMinimize: 	Step failed: resetting search direction.
	FillingsUpdate:  mu: -0.204347182  nElectrons: 413.000000
	SubspaceRotationAdjust: set factor to 0.317
ElecMinimize: Iter:  12  F: -1302.553243396848302  |grad|_K:  2.421e-08  alpha:  4.411e-05
	Linear fluid (dielectric constant: 78.4, screening length: 5.74355 Bohr) occupying 0.751575 of unit cell:	Completed after 0 iterations at t[s]:  51693.64
	Linear fluid (dielectric constant: 78.4, screening length: 5.74355 Bohr) occupying 0.751575 of unit cell:	Completed after 0 iterations at t[s]:  51700.88
	FillingsUpdate:  mu: -0.204347152  nElectrons: 413.000000
	SubspaceRotationAdjust: set factor to 0.266
ElecMinimize: Iter:  13  F: -1302.553243406059664  |grad|_K:  2.116e-08  alpha:  1.579e-01  linmin: -1.639e-02  t[s]:  51709.44
	Linear fluid (dielectric constant: 78.4, screening length: 5.74355 Bohr) occupying 0.751575 of unit cell:	Completed after 0 iterations at t[s]:  51715.94
	Linear fluid (dielectric constant: 78.4, screening length: 5.74355 Bohr) occupying 0.751575 of unit cell:	Completed after 0 iterations at t[s]:  51723.74
	FillingsUpdate:  mu: -0.204347119  nElectrons: 413.000000
	SubspaceRotationAdjust: set factor to 0.21
ElecMinimize: Iter:  14  F: -1302.553243411938183  |grad|_K:  1.789e-08  alpha:  1.008e-01  linmin: -1.851e-02  t[s]:  51731.67
ElecMinimize: Converged (|Delta F|<1.000000e-08 for 2 iters).
Setting wave functions to eigenvectors of Hamiltonian

# Ionic positions in lattice coordinates:
ion Ta   0.170959647319022   0.083592780187595   0.504005368852518 1
ion Ta   0.417316909620277   0.083782722846159   0.504557430235358 1
ion Ta   0.669755072113077   0.084358752796647   0.504575813944610 1
ion Ta   0.919217832281124   0.084340837694774   0.504323647478456 1
ion Ta   0.168990463883763   0.334054413050919   0.504092977929464 1
ion Ta   0.412344700444932   0.320468202520206   0.504866331336273 1
ion Ta   0.669956652032336   0.333933293939609   0.504384612696532 1
ion Ta   0.919247065512043   0.333932053546118   0.504374698131804 1
ion Ta   0.170971377448432   0.586377433276090   0.504010805888182 1
ion Ta   0.412433053335121   0.590867993048918   0.504634670940991 1
ion Ta   0.682935834443214   0.591114164452857   0.504237933452039 1
ion Ta   0.919730350036973   0.586386708568760   0.504140436271618 1
ion Ta   0.169512659839430   0.834242078802477   0.504080353342302 1
ion Ta   0.417357609143308   0.832521669128645   0.504516605162734 1
ion Ta   0.669841459033018   0.835017727322151   0.504298513830088 1
ion Ta   0.919731365353005   0.832404504631103   0.504066545947372 1
ion S   0.002942083231290   0.000535088800894   0.589870651533098 1
ion S   0.002786343904797   0.000698879810907   0.418317674334344 1
ion S   0.251947141976516   0.999672055395675   0.591280525179613 1
ion S   0.252564649216804   0.000061172963005   0.417113864038186 1
ion S   0.502300543746110   0.000596361387224   0.590345057245731 1
ion S   0.502458797853269   0.000779317547071   0.418752111174488 1
ion S   0.752990086761808   0.001107631450992   0.591006943749066 1
ion S   0.752828086826138   0.001333121929775   0.417776166592704 1
ion S   0.002632982055381   0.250798493813223   0.590782606529291 1
ion S   0.002299922156940   0.250673676561010   0.417731392006402 1
ion S   0.249842539540215   0.249282784512302   0.591538233500814 1
ion S   0.250766564352594   0.249968351727410   0.416955194579665 1
ion S   0.504103565370590   0.249696073972549   0.591902102655928 1
ion S   0.503817246080961   0.249998441545009   0.417429786860830 1
ion S   0.753007456501194   0.250823336030139   0.591059424160719 1
ion S   0.752808966160714   0.250542715537109   0.417837213853155 1
ion S   0.002998933227773   0.501462530175704   0.589934665624571 1
ion S   0.002701493927871   0.501084842137865   0.418371854752905 1
ion S   0.250025185718134   0.499753490421460   0.591458317979565 1
ion S   0.250652601371751   0.499777419530771   0.416885044102307 1
ion S   0.505090549926826   0.501958805853358   0.580226645725763 1
ion S   0.502190424618277   0.500534318382963   0.429262195737942 1
ion S   0.754105249475068   0.499869291163125   0.591654493180982 1
ion S   0.753410355968830   0.499408948889813   0.416997560935806 1
ion S   0.003845078832240   0.751476649106021   0.591126572548344 1
ion S   0.003711624287078   0.751356611671669   0.417021739984152 1
ion S   0.252018190116433   0.751284541879281   0.591270504925255 1
ion S   0.252557298878930   0.751526181042179   0.417086427250210 1
ion S   0.503987383174203   0.753144075323517   0.591842939066030 1
ion S   0.503814150297600   0.752909270727170   0.417289802998928 1
ion S   0.754112891246688   0.753397316370736   0.591610145610482 1
ion S   0.753421712573225   0.753094448073736   0.416902743084644 1
ion O   0.528154078950990   0.516798288239970   0.671879137685156 1
ion O   0.417549787074364   0.461862393525264   0.712034643778323 1
ion H   0.425484091759329   0.402597764688059   0.740868419594339 1


# Forces in Lattice coordinates:
force Ta   0.004334643106197  -0.002402659012500   0.001746671280608 1
force Ta  -0.003762472227171   0.001150535516477   0.001921137648370 1
force Ta   0.000760059846826  -0.000210230153110   0.000980385019059 1
force Ta  -0.002909585881452   0.003199058519297   0.000830305990078 1
force Ta   0.002284216510600  -0.000829653268850  -0.000039785444570 1
force Ta   0.000898126589054  -0.002816529956957   0.001637130492970 1
force Ta  -0.002373860279102   0.000564268467799   0.000515070136565 1
force Ta   0.000755046232861  -0.004668939607326   0.000650728371862 1
force Ta   0.000241111333204   0.002183382985997  -0.002294745123099 1
force Ta  -0.006096227217238   0.004831313807057  -0.004180564102353 1
force Ta  -0.000181208984524  -0.001966821283889  -0.000897386311809 1
force Ta   0.002670420625750  -0.000208100358361  -0.002495983605003 1
force Ta   0.001135183904008  -0.000744593779551   0.000878701318891 1
force Ta  -0.003389734515075  -0.001210734638746  -0.001282196831458 1
force Ta  -0.000500240601234  -0.001198864582835  -0.003326349157027 1
force Ta   0.003518649976346  -0.001941405302504  -0.002829013844102 1
force S   0.001500126939176  -0.001403448335387   0.004441812725084 1
force S   0.001065694688610  -0.001274540572827   0.001937012343743 1
force S   0.000016434852497  -0.000281602356195  -0.002276995385124 1
force S  -0.000083199723706  -0.001753276631777   0.007242418864377 1
force S  -0.001790459148500   0.001594627496298  -0.003924011500720 1
force S   0.000153604166359  -0.000944530243906   0.007715420462685 1
force S   0.000856896931694  -0.001532042517697   0.004615804459143 1
force S   0.000992612342769  -0.000824336998212   0.001120077730671 1
force S   0.001118385371206   0.000409143796115   0.008491379388743 1
force S   0.000550806513423   0.000616867391131  -0.003173391137043 1
force S   0.001288714787539  -0.001979760338343   0.003897265670326 1
force S   0.000012914958261  -0.001296993603357   0.004690488875556 1
force S  -0.000933208244256  -0.000004989553071   0.001265006887201 1
force S   0.000839636709668  -0.001338129928616   0.005000294353799 1
force S  -0.002154872903475   0.003282277633351   0.002219313467845 1
force S   0.000530821002769   0.001024831862247   0.001203308277660 1
force S  -0.001648749863703   0.002056935743257   0.001516329078798 1
force S   0.000725668872081   0.001910085893241   0.001757971571842 1
force S   0.000302670842525   0.000248436693683   0.004455320432602 1
force S  -0.000285560253773   0.001709990830663   0.003896038293262 1
force S   0.001356488044374  -0.003400080581886   0.001167582661768 1
force S   0.000880892050836  -0.001432418066873   0.002980579743570 1
force S  -0.000611578079827   0.001476124546728   0.002512886919231 1
force S   0.001653492212449   0.001729935675802   0.002857551969869 1
force S  -0.000353171626825   0.000525930617421   0.001295786475326 1
force S   0.001251071517037   0.000336185962455   0.002437618994688 1
force S  -0.001269217685763   0.001832312376089  -0.003693916844671 1
force S  -0.000908152047758   0.001224702104449   0.008926547478691 1
force S  -0.000323751412112  -0.000646720446869   0.004302904931903 1
force S  -0.000086333931405   0.000482951658449   0.003850735331870 1
force S   0.001927994825025  -0.002126653025384   0.005903812111082 1
force S   0.002708286827989  -0.000513968695477   0.002595584358215 1
force O   0.012721859089332  -0.006035902901850  -0.007948175567513 1
force O  -0.007678771555664   0.000927926475239   0.004813477633084 1
force H  -0.001868991298654   0.006262604242679  -0.003420274867649 1

# Energy components:
   A_diel =       -0.0003249862373512
   Eewald =     7617.6942611344320540
       EH =     8660.5284496296044381
     Eloc =   -17596.4600021426376770
      Enl =     -218.5256365764991529
      Exc =     -480.8716774725749588
 Exc_core =      252.7126133295811883
       KE =      462.4475802905806177
-------------------------------------
     Etot =    -1302.4747367937509352
       TS =        0.0785066181873559
-------------------------------------
        F =    -1302.5532434119381833

IonicMinimize: Iter:  33  F: -1302.553243411938183  |grad|_K:  9.691e-05  alpha:  1.000e+00  linmin:  6.385e-02  t[s]:  51739.71
IonicMinimize: Converged (|grad|_K<1.000000e-04).

#--- Lowdin population analysis ---
# oxidation-state Ta -0.402 -0.401 -0.391 -0.391 -0.408 -0.463 -0.405 -0.390 -0.402 -0.457 -0.451 -0.402 -0.405 -0.400 -0.405 -0.402
# oxidation-state S +0.238 +0.238 +0.256 +0.256 +0.238 +0.238 +0.248 +0.250 +0.248 +0.249 +0.263 +0.256 +0.250 +0.259 +0.248 +0.250 +0.238 +0.238 +0.266 +0.256 +0.823 +0.277 +0.254 +0.257 +0.256 +0.256 +0.257 +0.256 +0.253 +0.259 +0.255 +0.258
# oxidation-state O -0.242 -0.324
# oxidation-state H +0.489


Dumping 'NbTe2.fillings' ... done
Dumping 'NbTe2.wfns' ... done
Dumping 'NbTe2.fluidState' ... done
Dumping 'NbTe2.ionpos' ... done
Dumping 'NbTe2.eigenvals' ... done
End date and time: Fri Sep 11 06:13:03 2020  (Duration: 0-14:22:23.93)
Done!
