
*************** JDFTx 1.5.0  ***************

Start date and time: Thu Jul  9 14:24:41 2020
Executable jdftx_gpu with command-line: -i Charged.in -o Charged.out
Running on hosts (process indices):  amax (0)
Divided in process groups (process indices):  0 (0)
gpuInit: Found compatible cuda device 0 'Tesla K80'
gpuInit: Selected device 0
Resource initialization completed at t[s]:      6.65
Run totals: 1 processes, 24 threads, 1 GPUs


Input parsed successfully to the following command list (including defaults):

basis kpoint-dependent
cache-projectors no
coords-type Lattice
core-overlap-check none
coulomb-interaction Slab 001
coulomb-truncation-embed 0 0 0.5
davidson-band-ratio 1.1
dump End State
dump-name NbTe2.$VAR
elec-cutoff 20 100
elec-eigen-algo Davidson
elec-ex-corr gga-PBE
elec-smearing Gauss 0.0073499
electronic-minimize  \
	dirUpdateScheme      FletcherReeves \
	linminMethod         DirUpdateRecommended \
	nIterations          100 \
	history              15 \
	knormThreshold       0 \
	energyDiffThreshold  1e-08 \
	nEnergyDiff          2 \
	alphaTstart          1 \
	alphaTmin            1e-10 \
	updateTestStepSize   yes \
	alphaTreduceFactor   0.1 \
	alphaTincreaseFactor 3 \
	nAlphaAdjustMax      3 \
	wolfeEnergy          0.0001 \
	wolfeGradient        0.9 \
	fdTest               no
electronic-scf  \
	nIterations	300 \
	energyDiffThreshold	1e-08 \
	residualThreshold	1e-07 \
	mixFraction	0.5 \
	qMetric	0.8 \
	history	10 \
	nEigSteps	2 \
	eigDiffThreshold	1e-08 \
	mixedVariable	Density \
	qKerker	0.8 \
	qKappa	-1 \
	verbose	no \
	mixFractionMag	1.5
exchange-regularization WignerSeitzTruncated
fluid LinearPCM 298.000000 1.013250
fluid-anion F- 1 MeanFieldLJ \
	epsBulk 1 \
	pMol 0 \
	epsInf 1 \
	Pvap 0 \
	sigmaBulk 0 \
	Rvdw 2.24877 \
	Res 0 \
	tauNuc 343133
fluid-cation Na+ 1 MeanFieldLJ \
	epsBulk 1 \
	pMol 0 \
	epsInf 1 \
	Pvap 0 \
	sigmaBulk 0 \
	Rvdw 2.19208 \
	Res 0 \
	tauNuc 343133
fluid-ex-corr lda-TF lda-PZ
fluid-gummel-loop 10 1.000000e-05
fluid-minimize  \
	dirUpdateScheme      PolakRibiere \
	linminMethod         DirUpdateRecommended \
	nIterations          400 \
	history              15 \
	knormThreshold       1e-11 \
	energyDiffThreshold  0 \
	nEnergyDiff          2 \
	alphaTstart          1 \
	alphaTmin            1e-10 \
	updateTestStepSize   yes \
	alphaTreduceFactor   0.1 \
	alphaTincreaseFactor 3 \
	nAlphaAdjustMax      6 \
	wolfeEnergy          0.0001 \
	wolfeGradient        0.9 \
	fdTest               no
fluid-solvent H2O 55.338 ScalarEOS \
	epsBulk 78.4 \
	pMol 0.92466 \
	epsInf 1.77 \
	Pvap 1.06736e-10 \
	sigmaBulk 4.62e-05 \
	Rvdw 2.61727 \
	Res 1.42 \
	tauNuc 343133 \
	poleEl 15 7 1
forces-output-coords Positions
initial-state NbTe2.$VAR
ion V   0.164570085948515   0.170415642748548   0.499509899791594 0
ion V   0.647982733832122   0.185265112906442   0.507244341747887 0
ion V   0.180114478031291   0.671835713566214   0.506949696817849 0
ion V   0.665615683058185   0.654329851946107   0.506249850482278 0
ion Ag   0.331042681023202   0.333283926376380   0.497124852608891 0
ion Ag   0.836071025856290   0.335409422776235   0.496500579308045 0
ion Ag   0.328279114749448   0.840529468998667   0.496922109310182 0
ion Ag   0.832022963557337   0.836727460125411   0.485283531981112 0
ion P   0.501890391706758  -0.002717898749601   0.559158447589675 0
ion P   0.501773583716576  -0.002817693855350   0.439178064557172 0
ion P   0.992411967050324   0.005432371972299   0.559355240908379 0
ion P   0.992009032763918   0.005915779679232   0.439389509461050 0
ion P   0.498702693599560   0.503098450319540   0.474691684177936 0
ion P   0.000540616731834   0.507201374389614   0.558891917022862 0
ion P   0.001226087674529   0.507009254430669   0.438976245885139 0
ion Se   0.158223936929046   0.324844586999717   0.407784901792634 0
ion Se   0.020631612387613   0.328539013374928   0.592287360461891 0
ion Se   0.322792970273661   0.155137027560137   0.592664470666345 0
ion Se   0.017309262317826   0.162532425982557   0.407440080297067 0
ion Se   0.319844873090013   0.021675380814429   0.407744361264194 0
ion Se   0.150582768494957   0.026453052928108   0.592871101608320 0
ion Se   0.648773475211971   0.329688915972183   0.417599460346128 0
ion Se   0.512960972383916   0.333050507282829   0.579652640237077 0
ion Se   0.814525477568043   0.165583093438159   0.593079308256928 0
ion Se   0.523929281269920   0.154778298799713   0.405923565128419 0
ion Se   0.811753381997360   0.032640058977332   0.408132273492904 0
ion Se   0.663395108446327   0.009753692453271   0.588777626984793 0
ion Se   0.149318869517893   0.826374643567010   0.405707479683971 0
ion Se   0.003921928891788   0.831632102181013   0.588294144931991 0
ion Se   0.327919351613536   0.659243663029998   0.579443032954436 0
ion Se   0.028079847743233   0.659993161831553   0.407449695874782 0
ion Se   0.324912644500183   0.526280564963041   0.417714360246199 0
ion Se   0.161387648012285   0.523885778427682   0.592659716311926 0
ion Se   0.655412475707440   0.818026518520668   0.407540869478485 0
ion Se   0.519692561781790   0.819165564474576   0.592631316175202 0
ion Se   0.826990853687959   0.669372399897485   0.587762964092165 0
ion Se   0.522189967304370   0.652774835404451   0.416887335923675 0
ion Se   0.821346087788367   0.529206157524413   0.405504179534857 0
ion Se   0.654445518780573   0.518609405964369   0.578830683605557 0
ion-species GBRV/$ID_pbe.uspp
ion-width Ecut
ionic-minimize  \
	dirUpdateScheme      L-BFGS \
	linminMethod         DirUpdateRecommended \
	nIterations          0 \
	history              15 \
	knormThreshold       0.0001 \
	energyDiffThreshold  1e-06 \
	nEnergyDiff          2 \
	alphaTstart          1 \
	alphaTmin            1e-10 \
	updateTestStepSize   yes \
	alphaTreduceFactor   0.1 \
	alphaTincreaseFactor 3 \
	nAlphaAdjustMax      3 \
	wolfeEnergy          0.0001 \
	wolfeGradient        0.9 \
	fdTest               no
kpoint   0.000000000000   0.000000000000   0.000000000000  1.00000000000000
kpoint-folding 3 3 1 
latt-move-scale 1 1 1
latt-scale 1 1 1 
lattice Triclinic 23.9923 24.0273 34.9463 90 90 60.0482
lattice-minimize  \
	dirUpdateScheme      L-BFGS \
	linminMethod         DirUpdateRecommended \
	nIterations          0 \
	history              15 \
	knormThreshold       0 \
	energyDiffThreshold  1e-06 \
	nEnergyDiff          2 \
	alphaTstart          1 \
	alphaTmin            1e-10 \
	updateTestStepSize   yes \
	alphaTreduceFactor   0.1 \
	alphaTincreaseFactor 3 \
	nAlphaAdjustMax      3 \
	wolfeEnergy          0.0001 \
	wolfeGradient        0.9 \
	fdTest               no
lcao-params -1 1e-06 0.0073499
pcm-variant CANDLE
spintype no-spin
subspace-rotation-factor 1 yes
symmetries automatic
symmetry-threshold 0.0001
target-mu -0.24475 no




---------- Setting up symmetries ----------

Found 8 point-group symmetries of the bravais lattice
Found 1 space-group symmetries with basis
Applied RMS atom displacement 0 bohrs to make symmetries exact.

---------- Initializing the Grid ----------
R = 
[    23.9923    11.9961          0  ]
[          0    20.8184          0  ]
[          0          0    34.9463  ]
unit cell volume = 17455
G =
[   0.261883  -0.150905          0  ]
[          0    0.30181          0  ]
[          0          0   0.179795  ]
Minimum fftbox size, Smin = [  112  112  160  ]
Chosen fftbox size, S = [  112  112  160  ]

---------- Initializing tighter grid for wavefunction operations ----------
R = 
[    23.9923    11.9961          0  ]
[          0    20.8184          0  ]
[          0          0    34.9463  ]
unit cell volume = 17455
G =
[   0.261883  -0.150905          0  ]
[          0    0.30181          0  ]
[          0          0   0.179795  ]
Minimum fftbox size, Smin = [  100  100  144  ]
Chosen fftbox size, S = [  100  100  144  ]

---------- Exchange Correlation functional ----------
Initalized PBE GGA exchange.
Initalized PBE GGA correlation.

---------- Setting up pseudopotentials ----------
Width of ionic core gaussian charges (only for fluid interactions / plotting) set to 0.397384

Reading pseudopotential file '/home/guoxy/vasp/jdftx-1.5.0/build/pseudopotentials/GBRV/v_pbe.uspp':
  Title: V.  Created by USPP 7.3.6 on 31-3-15
  Reference state energy: -72.228583.  13 valence electrons in orbitals:
    |300>  occupation: 2  eigenvalue: -2.581040
    |310>  occupation: 6  eigenvalue: -1.618497
    |400>  occupation: 2  eigenvalue: -0.172800
    |320>  occupation: 3  eigenvalue: -0.189802
  lMax: 2  lLocal: 3  QijEcut: 6
  6 projectors sampled on a log grid with 593 points:
    l: 0  eig: -2.581041  rCut: 1.5
    l: 0  eig: -0.172801  rCut: 1.5
    l: 1  eig: -1.618497  rCut: 1.6
    l: 1  eig: 0.150000  rCut: 1.6
    l: 2  eig: -0.189802  rCut: 1.7
    l: 2  eig: 0.150000  rCut: 1.7
  Partial core density with radius 0.8
  Transforming core density to a uniform radial grid of dG=0.02 with 1637 points.
  Transforming local potential to a uniform radial grid of dG=0.02 with 1637 points.
  Transforming nonlocal projectors to a uniform radial grid of dG=0.02 with 432 points.
  Transforming density augmentations to a uniform radial grid of dG=0.02 with 1637 points.
  Transforming atomic orbitals to a uniform radial grid of dG=0.02 with 432 points.
  Core radius for overlap checks: 1.80 bohrs.

Reading pseudopotential file '/home/guoxy/vasp/jdftx-1.5.0/build/pseudopotentials/GBRV/ag_pbe.uspp':
  Title: Ag.  Created by USPP 7.3.6 on 1-4-15
  Reference state energy: -147.606242.  19 valence electrons in orbitals:
    |400>  occupation: 2  eigenvalue: -3.637437
    |410>  occupation: 6  eigenvalue: -2.297267
    |420>  occupation: 10  eigenvalue: -0.417763
    |500>  occupation: 0.5  eigenvalue: -0.283525
    |510>  occupation: 0  eigenvalue: -0.122889
  lMax: 2  lLocal: 0  QijEcut: 5.5
  6 projectors sampled on a log grid with 717 points:
    l: 0  eig: -0.283528  rCut: 1.5
    l: 0  eig: -3.637440  rCut: 1.5
    l: 1  eig: -0.122892  rCut: 1.5
    l: 1  eig: -2.297267  rCut: 1.5
    l: 2  eig: -0.417762  rCut: 1.7
    l: 2  eig: -1.000000  rCut: 1.7
  Partial core density with radius 1.2
  Transforming core density to a uniform radial grid of dG=0.02 with 1637 points.
  Transforming local potential to a uniform radial grid of dG=0.02 with 1637 points.
  Transforming nonlocal projectors to a uniform radial grid of dG=0.02 with 432 points.
  Transforming density augmentations to a uniform radial grid of dG=0.02 with 1637 points.
  Transforming atomic orbitals to a uniform radial grid of dG=0.02 with 432 points.
  Core radius for overlap checks: 1.70 bohrs.

Reading pseudopotential file '/home/guoxy/vasp/jdftx-1.5.0/build/pseudopotentials/GBRV/p_pbe.uspp':
  Title: P.  Created by USPP 7.3.6 on 11-6-15
  Reference state energy: -7.561951.  5 valence electrons in orbitals:
    |300>  occupation: 2  eigenvalue: -0.513368
    |310>  occupation: 3  eigenvalue: -0.202371
  lMax: 2  lLocal: 3  QijEcut: 5
  6 projectors sampled on a log grid with 631 points:
    l: 0  eig: -0.513363  rCut: 1.5
    l: 0  eig: 0.500000  rCut: 1.5
    l: 1  eig: -0.202372  rCut: 1.5
    l: 1  eig: 1.000000  rCut: 1.5
    l: 2  eig: -0.500000  rCut: 1.5
    l: 2  eig: 1.500000  rCut: 1.5
  Partial core density with radius 1.35
  Transforming core density to a uniform radial grid of dG=0.02 with 1637 points.
  Transforming local potential to a uniform radial grid of dG=0.02 with 1637 points.
  Transforming nonlocal projectors to a uniform radial grid of dG=0.02 with 432 points.
  Transforming density augmentations to a uniform radial grid of dG=0.02 with 1637 points.
  Transforming atomic orbitals to a uniform radial grid of dG=0.02 with 432 points.
  Core radius for overlap checks: 1.50 bohrs.

Reading pseudopotential file '/home/guoxy/vasp/jdftx-1.5.0/build/pseudopotentials/GBRV/se_pbe.uspp':
  Title: Se.  Created by USPP 7.3.6 on 14-9-2013
  Reference state energy: -21.672887.  6 valence electrons in orbitals:
    |400>  occupation: 2  eigenvalue: -0.635284
    |410>  occupation: 4  eigenvalue: -0.239295
  lMax: 2  lLocal: 3  QijEcut: 5
  6 projectors sampled on a log grid with 625 points:
    l: 0  eig: -0.635278  rCut: 1.5
    l: 0  eig: 0.500000  rCut: 1.5
    l: 1  eig: -0.239295  rCut: 1.5
    l: 1  eig: 0.500000  rCut: 1.5
    l: 2  eig: 0.000000  rCut: 1.8
    l: 2  eig: 1.000000  rCut: 1.8
  Partial core density with radius 1.2
  Transforming core density to a uniform radial grid of dG=0.02 with 1637 points.
  Transforming local potential to a uniform radial grid of dG=0.02 with 1637 points.
  Transforming nonlocal projectors to a uniform radial grid of dG=0.02 with 432 points.
  Transforming density augmentations to a uniform radial grid of dG=0.02 with 1637 points.
  Transforming atomic orbitals to a uniform radial grid of dG=0.02 with 432 points.
  Core radius for overlap checks: 1.80 bohrs.

Initialized 4 species with 39 total atoms.

Folded 1 k-points by 3x3x1 to 9 k-points.

---------- Setting up k-points, bands, fillings ----------
Adding inversion symmetry to k-mesh for non-inversion-symmetric unit cell.
Reduced to 5 k-points under symmetry. 
Computing the number of bands and number of electrons
Reading initial fillings from file NbTe2.fillings.
nElectrons: 307.000000   nBands: 216   nStates: 5

----- Setting up reduced wavefunction bases (one per k-point) -----
average nbasis = 74563.000 , ideal nbasis = 74569.187

---------- Setting up coulomb interaction ----------
Fluid mode embedding: using embedded box, but periodic Coulomb kernel.
(Fluid response is responsible for (approximate) separation between periodic images.)
Setting up double-sized grid for truncated Coulomb potentials:
R = 
[    23.9923    11.9961          0  ]
[          0    20.8184          0  ]
[          0          0    69.8926  ]
unit cell volume = 34910
G =
[   0.261883  -0.150905          0  ]
[          0    0.30181          0  ]
[          0          0  0.0898977  ]
Chosen fftbox size, S = [  112  112  320  ]
Integer grid location selected as the embedding center:
   Grid: [  0  0  80  ]
   Lattice: [  0  0  0.5  ]
   Cartesian: [  0  0  17.4732  ]
Constructing Wigner-Seitz cell: 8 faces (6 quadrilaterals, 2 hexagons)
Range-separation parameter for embedded mesh potentials due to point charges: 0.589591 bohrs.

Initializing van der Waals corrections
	NOTE: vdW corrections apply only for interactions with fluid.
	 V:  C6:  187.33 Eh-a0^6  R0: 2.952 a0
	Ag:  C6:  427.91 Eh-a0^6  R0: 3.097 a0
	 P:  C6:  135.99 Eh-a0^6  R0: 3.222 a0
	Se:  C6:  219.24 Eh-a0^6  R0: 3.347 a0

---------- Setting up ewald sum ----------
Optimum gaussian width for ewald sums = 7.080264 bohr.
Real space sum over 605 unit cells with max indices [  5  5  2  ]
Reciprocal space sum over 7425 terms with max indices [  7  7  16  ]

---------- Allocating electronic variables ----------
Initializing wave functions:  reading from 'NbTe2.wfns'
----- createFluidSolver() ----- (Fluid-side solver setup)
   Initializing fluid molecule 'H2O'
     Initializing site 'O'
       Electron density: proportional to exp(-r/0.36935)*erfc((r-0.51523)/0.36823) with norm 6.826
       Charge density: gaussian nuclear width 0.478731 with net site charge 0.826
       Polarizability: cuspless exponential with width 0.32 and norm 3.73
       Hard sphere radius: 2.57003 bohrs
       Positions in reference frame:
         [ +0.000000 +0.000000 +0.000000 ]
     Initializing site 'H'
       Electron density: proportional to exp(-r/0.34641)*erfc((r-0)/0.390882) with norm 0.587
       Charge density: gaussian nuclear width 0.377945 with net site charge -0.413
       Polarizability: cuspless exponential with width 0.39 and norm 3.3
       Positions in reference frame:
         [ +0.000000 -1.441945 +1.122523 ]
         [ +0.000000 +1.441945 +1.122523 ]
     Net charge: 0   dipole magnitude: 0.927204
     Initializing spherical shell mfKernel with radius 2.61727 Bohr
     deltaS corrections:
       site 'O': -7.54299
       site 'H': -6.83917
   Initializing fluid molecule 'Na+'
     Initializing site 'Na'
       Electron density: proportional to exp(-r/0.19682)*erfc((r-0.71491)/0.41314) with norm 8.1383
       Charge density: gaussian nuclear width 0.365347 with net site charge -1
       Hard sphere radius: 1.86327 bohrs
       Positions in reference frame:
         [ +0.000000 +0.000000 +0.000000 ]
     Net charge: -1   dipole magnitude: 0
     Initializing gaussian mfKernel with width: 1.55004 Bohr
     deltaS corrections:
       site 'Na': -22.3555
   Initializing fluid molecule 'F-'
     Initializing site 'F'
       Electron density: proportional to exp(-r/0.38886)*erfc((r-0)/0.438782) with norm 8
       Charge density: gaussian nuclear width 0.374796 with net site charge 1
       Hard sphere radius: 2.39995 bohrs
       Positions in reference frame:
         [ +0.000000 +0.000000 +0.000000 ]
     Net charge: 1   dipole magnitude: 0
     Initializing gaussian mfKernel with width: 1.59012 Bohr
     deltaS corrections:
       site 'F': -9.04335

Correction to mu due to finite nuclear width = -0.00872544
   Cavity determined by nc: 0.00142 and sigma: 0.707107
   Nonlocal vdW cavity from gaussian model electron density with norm = 8 and sigma = 0.993594 bohr
   Charge asymmetry in cavity with sensitivity pCavity = 36.5 e-bohr/Eh
   Electrostatic cavity expanded by eta = 1.46 bohrs
   Weighted density cavitation model constrained by Nbulk: 0.0049383 bohr^-3, Pvap: 3.14029 kPa, Rvdw: 2.61727 bohr and sigmaBulk: 4.62e-05 Eh/bohr^2 at T: 298 K.
   Weighted density dispersion model using vdW pair potentials with single solvent site with sqrtC6eff: 0.77 SI.
Reading fluid state from 'NbTe2.fluidState'


---- Citations for features of the code used in this run ----

   Software package:
      R. Sundararaman, K. Letchworth-Weaver, K.A. Schwarz, D. Gunceler, Y. Ozhabes and T.A. Arias, 'JDFTx: software for joint density-functional theory', SoftwareX 6, 278 (2017)

   gga-PBE exchange-correlation functional:
      J.P. Perdew, K. Burke and M. Ernzerhof, Phys. Rev. Lett. 77, 3865 (1996)

   Pseudopotentials:
      KF Garrity, JW Bennett, KM Rabe and D Vanderbilt, Comput. Mater. Sci. 81, 446 (2014)

   Truncated Coulomb potentials:
      R. Sundararaman and T.A. Arias, Phys. Rev. B 87, 165122 (2013)

   Van der Waals correction pair-potentials:
      S. Grimme, J. Comput. Chem. 27, 1787 (2006)

   Charge-asymmetric nonlocally-determined local-electric (CANDLE) solvation model:
      R. Sundararaman and W.A. Goddard III, J. Chem. Phys. 142, 064107 (2015)

   Grand-canonical (fixed-potential) DFT:
      R. Sundararaman, W. A. Goddard III and T. A. Arias, J. Chem. Phys. 146, 114104 (2017)

This list may not be complete. Please suggest additional citations or
report any other bugs at https://github.com/shankar1729/jdftx/issues

Initialization completed successfully at t[s]:     20.71

Shifting auxilliary hamiltonian by -0.070414 to set nElectrons=307.000000
	Linear fluid (dielectric constant: 78.4, screening length: 5.74355 Bohr) occupying 0.753681 of unit cell:	Completed after 0 iterations at t[s]:     29.04

-------- Electronic minimization -----------
Will mix electronic density at each iteration.
	FillingsUpdate:  mu: -0.244750400  nElectrons: 307.000000
	Linear fluid (dielectric constant: 78.4, screening length: 5.74355 Bohr) occupying 0.753681 of unit cell:	Completed after 0 iterations at t[s]:     37.90
	FillingsUpdate:  mu: -0.244750400  nElectrons: 270.283735
	Linear fluid (dielectric constant: 78.4, screening length: 5.74355 Bohr) occupying 0.759649 of unit cell:	Completed after 25 iterations at t[s]:     96.10
SCF: Cycle:  0   G: -1050.822770047191625   dG: +2.793e+01   |Residual|: 9.763e-01   |deigs|: 9.913e-08  t[s]:     97.67
	Linear fluid (dielectric constant: 78.4, screening length: 5.74355 Bohr) occupying 0.738270 of unit cell:	Completed after 22 iterations at t[s]:    100.69
	FillingsUpdate:  mu: -0.244750400  nElectrons: 343.281469
	Linear fluid (dielectric constant: 78.4, screening length: 5.74355 Bohr) occupying 0.812809 of unit cell:	Completed after 26 iterations at t[s]:    166.56
SCF: Cycle:  1   G: -1005.887129262420331   dG: +4.494e+01   |Residual|: 3.845e+00   |deigs|: 1.445e-01  t[s]:    167.92
	Linear fluid (dielectric constant: 78.4, screening length: 5.74355 Bohr) occupying 0.738725 of unit cell:	Completed after 21 iterations at t[s]:    170.58
	FillingsUpdate:  mu: -0.244750400  nElectrons: 303.550091
	Linear fluid (dielectric constant: 78.4, screening length: 5.74355 Bohr) occupying 0.757398 of unit cell:	Completed after 22 iterations at t[s]:    235.14
SCF: Cycle:  2   G: -1073.277579373490653   dG: -6.739e+01   |Residual|: 1.280e+00   |deigs|: 1.132e-01  t[s]:    236.34
	Linear fluid (dielectric constant: 78.4, screening length: 5.74355 Bohr) occupying 0.738582 of unit cell:	Completed after 19 iterations at t[s]:    239.01
	FillingsUpdate:  mu: -0.244750400  nElectrons: 300.483319
	Linear fluid (dielectric constant: 78.4, screening length: 5.74355 Bohr) occupying 0.757893 of unit cell:	Completed after 23 iterations at t[s]:    305.66
SCF: Cycle:  3   G: -1076.981275884649449   dG: -3.704e+00   |Residual|: 6.435e-01   |deigs|: 3.615e-02  t[s]:    307.58
	Linear fluid (dielectric constant: 78.4, screening length: 5.74355 Bohr) occupying 0.735339 of unit cell:	Completed after 19 iterations at t[s]:    310.36
	FillingsUpdate:  mu: -0.244750400  nElectrons: 303.092185
	Linear fluid (dielectric constant: 78.4, screening length: 5.74355 Bohr) occupying 0.758320 of unit cell:	Completed after 23 iterations at t[s]:    376.33
SCF: Cycle:  4   G: -1077.671731936979313   dG: -6.905e-01   |Residual|: 4.854e-01   |deigs|: 1.517e-02  t[s]:    378.05
	Linear fluid (dielectric constant: 78.4, screening length: 5.74355 Bohr) occupying 0.735039 of unit cell:	Completed after 17 iterations at t[s]:    380.38
	FillingsUpdate:  mu: -0.244750400  nElectrons: 301.087009
	Linear fluid (dielectric constant: 78.4, screening length: 5.74355 Bohr) occupying 0.758422 of unit cell:	Completed after 22 iterations at t[s]:    445.07
SCF: Cycle:  5   G: -1078.579487014200822   dG: -9.078e-01   |Residual|: 1.534e-01   |deigs|: 3.917e-03  t[s]:    446.69
	Linear fluid (dielectric constant: 78.4, screening length: 5.74355 Bohr) occupying 0.731774 of unit cell:	Completed after 17 iterations at t[s]:    449.23
	FillingsUpdate:  mu: -0.244750400  nElectrons: 301.313990
	Linear fluid (dielectric constant: 78.4, screening length: 5.74355 Bohr) occupying 0.758217 of unit cell:	Completed after 21 iterations at t[s]:    515.20
SCF: Cycle:  6   G: -1078.357731560476395   dG: +2.218e-01   |Residual|: 2.667e-01   |deigs|: 3.179e-03  t[s]:    516.61
	Linear fluid (dielectric constant: 78.4, screening length: 5.74355 Bohr) occupying 0.725230 of unit cell:	Completed after 15 iterations at t[s]:    518.72
	FillingsUpdate:  mu: -0.244750400  nElectrons: 304.789715
	Linear fluid (dielectric constant: 78.4, screening length: 5.74355 Bohr) occupying 0.758499 of unit cell:	Completed after 20 iterations at t[s]:    585.83
SCF: Cycle:  7   G: -1078.355805707910122   dG: +1.926e-03   |Residual|: 3.337e-01   |deigs|: 7.000e-03  t[s]:    587.75
	Linear fluid (dielectric constant: 78.4, screening length: 5.74355 Bohr) occupying 0.724378 of unit cell:	Completed after 17 iterations at t[s]:    590.28
	FillingsUpdate:  mu: -0.244750400  nElectrons: 304.461858
	Linear fluid (dielectric constant: 78.4, screening length: 5.74355 Bohr) occupying 0.758539 of unit cell:	Completed after 21 iterations at t[s]:    657.32
SCF: Cycle:  8   G: -1078.452732800123613   dG: -9.693e-02   |Residual|: 3.009e-01   |deigs|: 6.612e-04  t[s]:    658.92
	Linear fluid (dielectric constant: 78.4, screening length: 5.74355 Bohr) occupying 0.723915 of unit cell:	Completed after 17 iterations at t[s]:    661.30
	FillingsUpdate:  mu: -0.244750400  nElectrons: 304.077278
	Linear fluid (dielectric constant: 78.4, screening length: 5.74355 Bohr) occupying 0.758560 of unit cell:	Completed after 20 iterations at t[s]:    726.63
SCF: Cycle:  9   G: -1078.580118428693368   dG: -1.274e-01   |Residual|: 2.483e-01   |deigs|: 6.145e-04  t[s]:    728.10
	Linear fluid (dielectric constant: 78.4, screening length: 5.74355 Bohr) occupying 0.717853 of unit cell:	Completed after 15 iterations at t[s]:    730.50
	FillingsUpdate:  mu: -0.244750400  nElectrons: 303.326945
	Linear fluid (dielectric constant: 78.4, screening length: 5.74355 Bohr) occupying 0.758831 of unit cell:	Completed after 20 iterations at t[s]:    795.32
SCF: Cycle: 10   G: -1078.801799122637476   dG: -2.217e-01   |Residual|: 8.864e-02   |deigs|: 1.336e-03  t[s]:    796.71
	Linear fluid (dielectric constant: 78.4, screening length: 5.74355 Bohr) occupying 0.717475 of unit cell:	Completed after 15 iterations at t[s]:    799.10
	FillingsUpdate:  mu: -0.244750400  nElectrons: 302.051824
	Linear fluid (dielectric constant: 78.4, screening length: 5.74355 Bohr) occupying 0.758912 of unit cell:	Completed after 21 iterations at t[s]:    866.32
SCF: Cycle: 11   G: -1078.543167131482733   dG: +2.586e-01   |Residual|: 2.086e-01   |deigs|: 3.339e-03  t[s]:    868.17
	Linear fluid (dielectric constant: 78.4, screening length: 5.74355 Bohr) occupying 0.710771 of unit cell:	Completed after 15 iterations at t[s]:    870.41
	FillingsUpdate:  mu: -0.244750400  nElectrons: 302.180929
	Linear fluid (dielectric constant: 78.4, screening length: 5.74355 Bohr) occupying 0.759303 of unit cell:	Completed after 22 iterations at t[s]:    936.38
SCF: Cycle: 12   G: -1078.468219784811026   dG: +7.495e-02   |Residual|: 2.470e-01   |deigs|: 9.466e-04  t[s]:    937.91
	Linear fluid (dielectric constant: 78.4, screening length: 5.74355 Bohr) occupying 0.707380 of unit cell:	Completed after 15 iterations at t[s]:    940.17
	FillingsUpdate:  mu: -0.244750400  nElectrons: 303.352029
	Linear fluid (dielectric constant: 78.4, screening length: 5.74355 Bohr) occupying 0.760002 of unit cell:	Completed after 19 iterations at t[s]:   1005.71
SCF: Cycle: 13   G: -1078.806377613384939   dG: -3.382e-01   |Residual|: 1.027e-01   |deigs|: 3.677e-03  t[s]:   1006.99
	Linear fluid (dielectric constant: 78.4, screening length: 5.74355 Bohr) occupying 0.705381 of unit cell:	Completed after 15 iterations at t[s]:   1009.25
	FillingsUpdate:  mu: -0.244750400  nElectrons: 302.287845
	Linear fluid (dielectric constant: 78.4, screening length: 5.74355 Bohr) occupying 0.760382 of unit cell:	Completed after 20 iterations at t[s]:   1075.14
SCF: Cycle: 14   G: -1078.673649258715159   dG: +1.327e-01   |Residual|: 1.561e-01   |deigs|: 2.418e-03  t[s]:   1076.65
	Linear fluid (dielectric constant: 78.4, screening length: 5.74355 Bohr) occupying 0.723230 of unit cell:	Completed after 19 iterations at t[s]:   1079.44
	FillingsUpdate:  mu: -0.244750400  nElectrons: 302.822789
	Linear fluid (dielectric constant: 78.4, screening length: 5.74355 Bohr) occupying 0.761763 of unit cell:	Completed after 20 iterations at t[s]:   1144.75
SCF: Cycle: 15   G: -1078.776511795881106   dG: -1.029e-01   |Residual|: 1.096e-01   |deigs|: 1.329e-03  t[s]:   1146.58
	Linear fluid (dielectric constant: 78.4, screening length: 5.74355 Bohr) occupying 0.734681 of unit cell:	Completed after 20 iterations at t[s]:   1149.55
	FillingsUpdate:  mu: -0.244750400  nElectrons: 305.513201
	Linear fluid (dielectric constant: 78.4, screening length: 5.74355 Bohr) occupying 0.761752 of unit cell:	Completed after 20 iterations at t[s]:   1213.68
SCF: Cycle: 16   G: -1078.732604365118050   dG: +4.391e-02   |Residual|: 1.194e-01   |deigs|: 4.949e-03  t[s]:   1215.07
	Linear fluid (dielectric constant: 78.4, screening length: 5.74355 Bohr) occupying 0.727040 of unit cell:	Completed after 18 iterations at t[s]:   1217.92
	FillingsUpdate:  mu: -0.244750400  nElectrons: 303.830340
	Linear fluid (dielectric constant: 78.4, screening length: 5.74355 Bohr) occupying 0.761429 of unit cell:	Completed after 18 iterations at t[s]:   1282.06
SCF: Cycle: 17   G: -1078.848455301345211   dG: -1.159e-01   |Residual|: 4.194e-02   |deigs|: 2.930e-03  t[s]:   1283.30
	Linear fluid (dielectric constant: 78.4, screening length: 5.74355 Bohr) occupying 0.724845 of unit cell:	Completed after 15 iterations at t[s]:   1285.35
	FillingsUpdate:  mu: -0.244750400  nElectrons: 303.572070
	Linear fluid (dielectric constant: 78.4, screening length: 5.74355 Bohr) occupying 0.760661 of unit cell:	Completed after 18 iterations at t[s]:   1350.65
SCF: Cycle: 18   G: -1078.841625755722816   dG: +6.830e-03   |Residual|: 5.023e-02   |deigs|: 1.284e-03  t[s]:   1352.03
	Linear fluid (dielectric constant: 78.4, screening length: 5.74355 Bohr) occupying 0.746267 of unit cell:	Completed after 16 iterations at t[s]:   1354.34
	FillingsUpdate:  mu: -0.244750400  nElectrons: 303.743693
	Linear fluid (dielectric constant: 78.4, screening length: 5.74355 Bohr) occupying 0.760853 of unit cell:	Completed after 18 iterations at t[s]:   1419.33
SCF: Cycle: 19   G: -1078.853177894249484   dG: -1.155e-02   |Residual|: 2.396e-02   |deigs|: 1.344e-03  t[s]:   1420.71
	Linear fluid (dielectric constant: 78.4, screening length: 5.74355 Bohr) occupying 0.749135 of unit cell:	Completed after 16 iterations at t[s]:   1423.62
	FillingsUpdate:  mu: -0.244750400  nElectrons: 303.922198
	Linear fluid (dielectric constant: 78.4, screening length: 5.74355 Bohr) occupying 0.760948 of unit cell:	Completed after 12 iterations at t[s]:   1489.76
SCF: Cycle: 20   G: -1078.854733900733663   dG: -1.556e-03   |Residual|: 2.170e-02   |deigs|: 5.096e-04  t[s]:   1491.56
	Linear fluid (dielectric constant: 78.4, screening length: 5.74355 Bohr) occupying 0.755403 of unit cell:	Completed after 13 iterations at t[s]:   1493.53
	FillingsUpdate:  mu: -0.244750400  nElectrons: 304.382866
	Linear fluid (dielectric constant: 78.4, screening length: 5.74355 Bohr) occupying 0.761331 of unit cell:	Completed after 17 iterations at t[s]:   1558.17
SCF: Cycle: 21   G: -1078.847515345653164   dG: +7.219e-03   |Residual|: 2.948e-02   |deigs|: 1.229e-03  t[s]:   1559.46
	Linear fluid (dielectric constant: 78.4, screening length: 5.74355 Bohr) occupying 0.758776 of unit cell:	Completed after 17 iterations at t[s]:   1561.79
	FillingsUpdate:  mu: -0.244750400  nElectrons: 303.874016
	Linear fluid (dielectric constant: 78.4, screening length: 5.74355 Bohr) occupying 0.761003 of unit cell:	Completed after 14 iterations at t[s]:   1626.42
SCF: Cycle: 22   G: -1078.855850483746281   dG: -8.335e-03   |Residual|: 1.432e-02   |deigs|: 1.328e-03  t[s]:   1627.86
	Linear fluid (dielectric constant: 78.4, screening length: 5.74355 Bohr) occupying 0.759667 of unit cell:	Completed after 16 iterations at t[s]:   1630.22
	FillingsUpdate:  mu: -0.244750400  nElectrons: 303.347794
	Linear fluid (dielectric constant: 78.4, screening length: 5.74355 Bohr) occupying 0.760779 of unit cell:	Completed after 18 iterations at t[s]:   1696.07
SCF: Cycle: 23   G: -1078.839679893093489   dG: +1.617e-02   |Residual|: 4.350e-02   |deigs|: 1.123e-03  t[s]:   1697.48
	Linear fluid (dielectric constant: 78.4, screening length: 5.74355 Bohr) occupying 0.760785 of unit cell:	Completed after 17 iterations at t[s]:   1699.69
	FillingsUpdate:  mu: -0.244750400  nElectrons: 303.698413
	Linear fluid (dielectric constant: 78.4, screening length: 5.74355 Bohr) occupying 0.760900 of unit cell:	Completed after 16 iterations at t[s]:   1763.82
SCF: Cycle: 24   G: -1078.852775831263216   dG: -1.310e-02   |Residual|: 2.348e-02   |deigs|: 7.453e-04  t[s]:   1765.40
	Linear fluid (dielectric constant: 78.4, screening length: 5.74355 Bohr) occupying 0.761453 of unit cell:	Completed after 16 iterations at t[s]:   1767.89
	FillingsUpdate:  mu: -0.244750400  nElectrons: 303.969246
	Linear fluid (dielectric constant: 78.4, screening length: 5.74355 Bohr) occupying 0.761015 of unit cell:	Completed after 13 iterations at t[s]:   1831.77
SCF: Cycle: 25   G: -1078.856502667188579   dG: -3.727e-03   |Residual|: 6.776e-03   |deigs|: 5.562e-04  t[s]:   1833.30
	Linear fluid (dielectric constant: 78.4, screening length: 5.74355 Bohr) occupying 0.761093 of unit cell:	Completed after 13 iterations at t[s]:   1835.27
	FillingsUpdate:  mu: -0.244750400  nElectrons: 303.820539
	Linear fluid (dielectric constant: 78.4, screening length: 5.74355 Bohr) occupying 0.761018 of unit cell:	Completed after 13 iterations at t[s]:   1898.99
SCF: Cycle: 26   G: -1078.856324168412584   dG: +1.785e-04   |Residual|: 4.419e-03   |deigs|: 6.090e-04  t[s]:   1900.37
	Linear fluid (dielectric constant: 78.4, screening length: 5.74355 Bohr) occupying 0.761227 of unit cell:	Completed after 13 iterations at t[s]:   1902.47
	FillingsUpdate:  mu: -0.244750400  nElectrons: 303.882893
	Linear fluid (dielectric constant: 78.4, screening length: 5.74355 Bohr) occupying 0.761055 of unit cell:	Completed after 12 iterations at t[s]:   1966.91
SCF: Cycle: 27   G: -1078.856588929765394   dG: -2.648e-04   |Residual|: 3.412e-03   |deigs|: 2.712e-04  t[s]:   1968.28
	Linear fluid (dielectric constant: 78.4, screening length: 5.74355 Bohr) occupying 0.760789 of unit cell:	Completed after 12 iterations at t[s]:   1970.04
	FillingsUpdate:  mu: -0.244750400  nElectrons: 303.934898
	Linear fluid (dielectric constant: 78.4, screening length: 5.74355 Bohr) occupying 0.761021 of unit cell:	Completed after 9 iterations at t[s]:   2033.14
SCF: Cycle: 28   G: -1078.856387167817502   dG: +2.018e-04   |Residual|: 8.011e-03   |deigs|: 2.783e-04  t[s]:   2034.68
	Linear fluid (dielectric constant: 78.4, screening length: 5.74355 Bohr) occupying 0.761082 of unit cell:	Completed after 9 iterations at t[s]:   2036.35
	FillingsUpdate:  mu: -0.244750400  nElectrons: 303.961026
	Linear fluid (dielectric constant: 78.4, screening length: 5.74355 Bohr) occupying 0.761067 of unit cell:	Completed after 11 iterations at t[s]:   2113.88
SCF: Cycle: 29   G: -1078.856590078498357   dG: -2.029e-04   |Residual|: 3.509e-03   |deigs|: 1.693e-04  t[s]:   2115.66
	Linear fluid (dielectric constant: 78.4, screening length: 5.74355 Bohr) occupying 0.761015 of unit cell:	Completed after 11 iterations at t[s]:   2117.48
	FillingsUpdate:  mu: -0.244750400  nElectrons: 303.924652
	Linear fluid (dielectric constant: 78.4, screening length: 5.74355 Bohr) occupying 0.761040 of unit cell:	Completed after 4 iterations at t[s]:   2180.75
SCF: Cycle: 30   G: -1078.856673210610779   dG: -8.313e-05   |Residual|: 8.777e-04   |deigs|: 2.236e-04  t[s]:   2182.23
	Linear fluid (dielectric constant: 78.4, screening length: 5.74355 Bohr) occupying 0.761005 of unit cell:	Completed after 3 iterations at t[s]:   2183.19
	FillingsUpdate:  mu: -0.244750400  nElectrons: 303.940693
	Linear fluid (dielectric constant: 78.4, screening length: 5.74355 Bohr) occupying 0.761037 of unit cell:	Completed after 9 iterations at t[s]:   2248.15
SCF: Cycle: 31   G: -1078.856657741997424   dG: +1.547e-05   |Residual|: 1.712e-03   |deigs|: 1.053e-04  t[s]:   2249.83
	Linear fluid (dielectric constant: 78.4, screening length: 5.74355 Bohr) occupying 0.761017 of unit cell:	Completed after 9 iterations at t[s]:   2251.55
	FillingsUpdate:  mu: -0.244750400  nElectrons: 303.917081
	Linear fluid (dielectric constant: 78.4, screening length: 5.74355 Bohr) occupying 0.761034 of unit cell:	Completed after 8 iterations at t[s]:   2314.38
SCF: Cycle: 32   G: -1078.856670540018058   dG: -1.280e-05   |Residual|: 7.453e-04   |deigs|: 7.103e-05  t[s]:   2315.87
	Linear fluid (dielectric constant: 78.4, screening length: 5.74355 Bohr) occupying 0.761050 of unit cell:	Completed after 9 iterations at t[s]:   2317.51
	FillingsUpdate:  mu: -0.244750400  nElectrons: 303.949347
	Linear fluid (dielectric constant: 78.4, screening length: 5.74355 Bohr) occupying 0.761040 of unit cell:	Completed after 9 iterations at t[s]:   2381.21
SCF: Cycle: 33   G: -1078.856656692741581   dG: +1.385e-05   |Residual|: 1.444e-03   |deigs|: 1.092e-04  t[s]:   2382.97
	Linear fluid (dielectric constant: 78.4, screening length: 5.74355 Bohr) occupying 0.761047 of unit cell:	Completed after 9 iterations at t[s]:   2384.60
	FillingsUpdate:  mu: -0.244750400  nElectrons: 303.920326
	Linear fluid (dielectric constant: 78.4, screening length: 5.74355 Bohr) occupying 0.761035 of unit cell:	Completed after 8 iterations at t[s]:   2448.93
SCF: Cycle: 34   G: -1078.856671963692861   dG: -1.527e-05   |Residual|: 7.907e-04   |deigs|: 1.070e-04  t[s]:   2455.51
	Linear fluid (dielectric constant: 78.4, screening length: 5.74355 Bohr) occupying 0.761041 of unit cell:	Completed after 7 iterations at t[s]:   2457.04
	FillingsUpdate:  mu: -0.244750400  nElectrons: 303.944134
	Linear fluid (dielectric constant: 78.4, screening length: 5.74355 Bohr) occupying 0.761037 of unit cell:	Completed after 9 iterations at t[s]:   2526.34
SCF: Cycle: 35   G: -1078.856662919378550   dG: +9.044e-06   |Residual|: 1.113e-03   |deigs|: 1.095e-04  t[s]:   2527.66
	Linear fluid (dielectric constant: 78.4, screening length: 5.74355 Bohr) occupying 0.761030 of unit cell:	Completed after 9 iterations at t[s]:   2529.39
	FillingsUpdate:  mu: -0.244750400  nElectrons: 303.911425
	Linear fluid (dielectric constant: 78.4, screening length: 5.74355 Bohr) occupying 0.761032 of unit cell:	Completed after 10 iterations at t[s]:   2594.32
SCF: Cycle: 36   G: -1078.856646352407097   dG: +1.657e-05   |Residual|: 1.988e-03   |deigs|: 1.066e-04  t[s]:   2595.92
	Linear fluid (dielectric constant: 78.4, screening length: 5.74355 Bohr) occupying 0.761028 of unit cell:	Completed after 10 iterations at t[s]:   2597.59
	FillingsUpdate:  mu: -0.244750400  nElectrons: 303.945726
	Linear fluid (dielectric constant: 78.4, screening length: 5.74355 Bohr) occupying 0.761035 of unit cell:	Completed after 10 iterations at t[s]:   2662.97
SCF: Cycle: 37   G: -1078.856663360833181   dG: -1.701e-05   |Residual|: 1.060e-03   |deigs|: 8.242e-05  t[s]:   2664.58
	Linear fluid (dielectric constant: 78.4, screening length: 5.74355 Bohr) occupying 0.761030 of unit cell:	Completed after 9 iterations at t[s]:   2666.29
	FillingsUpdate:  mu: -0.244750400  nElectrons: 303.908678
	Linear fluid (dielectric constant: 78.4, screening length: 5.74355 Bohr) occupying 0.761032 of unit cell:	Completed after 9 iterations at t[s]:   2730.74
SCF: Cycle: 38   G: -1078.856636346187315   dG: +2.701e-05   |Residual|: 2.349e-03   |deigs|: 8.966e-05  t[s]:   2732.46
	Linear fluid (dielectric constant: 78.4, screening length: 5.74355 Bohr) occupying 0.761035 of unit cell:	Completed after 10 iterations at t[s]:   2734.07
	FillingsUpdate:  mu: -0.244750400  nElectrons: 303.945422
	Linear fluid (dielectric constant: 78.4, screening length: 5.74355 Bohr) occupying 0.761035 of unit cell:	Completed after 10 iterations at t[s]:   2796.42
SCF: Cycle: 39   G: -1078.856662918482698   dG: -2.657e-05   |Residual|: 1.048e-03   |deigs|: 7.215e-05  t[s]:   2798.23
	Linear fluid (dielectric constant: 78.4, screening length: 5.74355 Bohr) occupying 0.761033 of unit cell:	Completed after 9 iterations at t[s]:   2800.05
	FillingsUpdate:  mu: -0.244750400  nElectrons: 303.913964
	Linear fluid (dielectric constant: 78.4, screening length: 5.74355 Bohr) occupying 0.761034 of unit cell:	Completed after 10 iterations at t[s]:   2862.09
SCF: Cycle: 40   G: -1078.856643157051167   dG: +1.976e-05   |Residual|: 2.175e-03   |deigs|: 6.118e-05  t[s]:   2863.26
	Linear fluid (dielectric constant: 78.4, screening length: 5.74355 Bohr) occupying 0.761037 of unit cell:	Completed after 9 iterations at t[s]:   2864.83
	FillingsUpdate:  mu: -0.244750400  nElectrons: 303.967667
	Linear fluid (dielectric constant: 78.4, screening length: 5.74355 Bohr) occupying 0.761040 of unit cell:	Completed after 12 iterations at t[s]:   2928.27
SCF: Cycle: 41   G: -1078.856615070651742   dG: +2.809e-05   |Residual|: 2.350e-03   |deigs|: 1.054e-04  t[s]:   2929.82
	Linear fluid (dielectric constant: 78.4, screening length: 5.74355 Bohr) occupying 0.761036 of unit cell:	Completed after 11 iterations at t[s]:   2931.78
	FillingsUpdate:  mu: -0.244750400  nElectrons: 303.942188
	Linear fluid (dielectric constant: 78.4, screening length: 5.74355 Bohr) occupying 0.761038 of unit cell:	Completed after 10 iterations at t[s]:   2989.21
SCF: Cycle: 42   G: -1078.856665157036559   dG: -5.009e-05   |Residual|: 9.959e-04   |deigs|: 4.928e-05  t[s]:   2990.77
	Linear fluid (dielectric constant: 78.4, screening length: 5.74355 Bohr) occupying 0.761042 of unit cell:	Completed after 9 iterations at t[s]:   2992.44
	FillingsUpdate:  mu: -0.244750400  nElectrons: 303.926839
	Linear fluid (dielectric constant: 78.4, screening length: 5.74355 Bohr) occupying 0.761037 of unit cell:	Completed after 7 iterations at t[s]:   3049.88
SCF: Cycle: 43   G: -1078.856657067303331   dG: +8.090e-06   |Residual|: 1.661e-03   |deigs|: 3.236e-05  t[s]:   3051.27
	Linear fluid (dielectric constant: 78.4, screening length: 5.74355 Bohr) occupying 0.761039 of unit cell:	Completed after 6 iterations at t[s]:   3052.66
	FillingsUpdate:  mu: -0.244750400  nElectrons: 303.944080
	Linear fluid (dielectric constant: 78.4, screening length: 5.74355 Bohr) occupying 0.761038 of unit cell:	Completed after 8 iterations at t[s]:   3115.07
SCF: Cycle: 44   G: -1078.856666673817926   dG: -9.607e-06   |Residual|: 9.035e-04   |deigs|: 4.097e-05  t[s]:   3116.57
	Linear fluid (dielectric constant: 78.4, screening length: 5.74355 Bohr) occupying 0.761030 of unit cell:	Completed after 9 iterations at t[s]:   3118.39
	FillingsUpdate:  mu: -0.244750400  nElectrons: 303.925695
	Linear fluid (dielectric constant: 78.4, screening length: 5.74355 Bohr) occupying 0.761034 of unit cell:	Completed after 6 iterations at t[s]:   3182.16
SCF: Cycle: 45   G: -1078.856668747446747   dG: -2.074e-06   |Residual|: 1.054e-03   |deigs|: 4.077e-05  t[s]:   3183.73
	Linear fluid (dielectric constant: 78.4, screening length: 5.74355 Bohr) occupying 0.761022 of unit cell:	Completed after 4 iterations at t[s]:   3184.84
	FillingsUpdate:  mu: -0.244750400  nElectrons: 303.938795
	Linear fluid (dielectric constant: 78.4, screening length: 5.74355 Bohr) occupying 0.761034 of unit cell:	Completed after 7 iterations at t[s]:   3248.85
SCF: Cycle: 46   G: -1078.856672392937980   dG: -3.645e-06   |Residual|: 5.008e-04   |deigs|: 3.695e-05  t[s]:   3250.33
	Linear fluid (dielectric constant: 78.4, screening length: 5.74355 Bohr) occupying 0.761024 of unit cell:	Completed after 7 iterations at t[s]:   3251.70
	FillingsUpdate:  mu: -0.244750400  nElectrons: 303.919062
	Linear fluid (dielectric constant: 78.4, screening length: 5.74355 Bohr) occupying 0.761032 of unit cell:	Completed after 8 iterations at t[s]:   3314.19
SCF: Cycle: 47   G: -1078.856671495566388   dG: +8.974e-07   |Residual|: 7.026e-04   |deigs|: 5.574e-05  t[s]:   3315.38
	Linear fluid (dielectric constant: 78.4, screening length: 5.74355 Bohr) occupying 0.761027 of unit cell:	Completed after 8 iterations at t[s]:   3316.79
	FillingsUpdate:  mu: -0.244750400  nElectrons: 303.942153
	Linear fluid (dielectric constant: 78.4, screening length: 5.74355 Bohr) occupying 0.761034 of unit cell:	Completed after 9 iterations at t[s]:   3381.07
SCF: Cycle: 48   G: -1078.856667947718051   dG: +3.548e-06   |Residual|: 9.802e-04   |deigs|: 5.389e-05  t[s]:   3382.84
	Linear fluid (dielectric constant: 78.4, screening length: 5.74355 Bohr) occupying 0.761026 of unit cell:	Completed after 9 iterations at t[s]:   3384.50
	FillingsUpdate:  mu: -0.244750400  nElectrons: 303.925577
	Linear fluid (dielectric constant: 78.4, screening length: 5.74355 Bohr) occupying 0.761033 of unit cell:	Completed after 3 iterations at t[s]:   3447.22
SCF: Cycle: 49   G: -1078.856675371386018   dG: -7.424e-06   |Residual|: 3.531e-04   |deigs|: 3.717e-05  t[s]:   3448.70
	Linear fluid (dielectric constant: 78.4, screening length: 5.74355 Bohr) occupying 0.761028 of unit cell:	Completed after 3 iterations at t[s]:   3449.76
	FillingsUpdate:  mu: -0.244750400  nElectrons: 303.938327
	Linear fluid (dielectric constant: 78.4, screening length: 5.74355 Bohr) occupying 0.761034 of unit cell:	Completed after 7 iterations at t[s]:   3508.59
SCF: Cycle: 50   G: -1078.856671144182656   dG: +4.227e-06   |Residual|: 7.029e-04   |deigs|: 3.690e-05  t[s]:   3509.85
	Linear fluid (dielectric constant: 78.4, screening length: 5.74355 Bohr) occupying 0.761027 of unit cell:	Completed after 7 iterations at t[s]:   3511.16
	FillingsUpdate:  mu: -0.244750400  nElectrons: 303.907015
	Linear fluid (dielectric constant: 78.4, screening length: 5.74355 Bohr) occupying 0.761031 of unit cell:	Completed after 10 iterations at t[s]:   3573.75
SCF: Cycle: 51   G: -1078.856638340330846   dG: +3.280e-05   |Residual|: 2.215e-03   |deigs|: 6.045e-05  t[s]:   3575.11
	Linear fluid (dielectric constant: 78.4, screening length: 5.74355 Bohr) occupying 0.761024 of unit cell:	Completed after 10 iterations at t[s]:   3576.83
	FillingsUpdate:  mu: -0.244750400  nElectrons: 303.939647
	Linear fluid (dielectric constant: 78.4, screening length: 5.74355 Bohr) occupying 0.761033 of unit cell:	Completed after 9 iterations at t[s]:   3633.75
SCF: Cycle: 52   G: -1078.856667298730372   dG: -2.896e-05   |Residual|: 9.411e-04   |deigs|: 6.185e-05  t[s]:   3635.09
	Linear fluid (dielectric constant: 78.4, screening length: 5.74355 Bohr) occupying 0.761024 of unit cell:	Completed after 9 iterations at t[s]:   3636.75
	FillingsUpdate:  mu: -0.244750400  nElectrons: 303.904981
	Linear fluid (dielectric constant: 78.4, screening length: 5.74355 Bohr) occupying 0.761030 of unit cell:	Completed after 10 iterations at t[s]:   3695.31
SCF: Cycle: 53   G: -1078.856639099407630   dG: +2.820e-05   |Residual|: 2.129e-03   |deigs|: 6.724e-05  t[s]:   3696.49
	Linear fluid (dielectric constant: 78.4, screening length: 5.74355 Bohr) occupying 0.761025 of unit cell:	Completed after 10 iterations at t[s]:   3698.14
	FillingsUpdate:  mu: -0.244750400  nElectrons: 303.936238
	Linear fluid (dielectric constant: 78.4, screening length: 5.74355 Bohr) occupying 0.761033 of unit cell:	Completed after 8 iterations at t[s]:   3757.40
SCF: Cycle: 54   G: -1078.856668236886662   dG: -2.914e-05   |Residual|: 9.712e-04   |deigs|: 6.105e-05  t[s]:   3758.92
	Linear fluid (dielectric constant: 78.4, screening length: 5.74355 Bohr) occupying 0.761026 of unit cell:	Completed after 7 iterations at t[s]:   3760.33
	FillingsUpdate:  mu: -0.244750400  nElectrons: 303.903313
	Linear fluid (dielectric constant: 78.4, screening length: 5.74355 Bohr) occupying 0.761030 of unit cell:	Completed after 10 iterations at t[s]:   3820.05
SCF: Cycle: 55   G: -1078.856637998549559   dG: +3.024e-05   |Residual|: 2.111e-03   |deigs|: 6.488e-05  t[s]:   3821.47
	Linear fluid (dielectric constant: 78.4, screening length: 5.74355 Bohr) occupying 0.761027 of unit cell:	Completed after 10 iterations at t[s]:   3823.12
	FillingsUpdate:  mu: -0.244750400  nElectrons: 303.939019
	Linear fluid (dielectric constant: 78.4, screening length: 5.74355 Bohr) occupying 0.761034 of unit cell:	Completed after 9 iterations at t[s]:   3880.90
SCF: Cycle: 56   G: -1078.856667049049065   dG: -2.905e-05   |Residual|: 9.924e-04   |deigs|: 7.146e-05  t[s]:   3882.21
	Linear fluid (dielectric constant: 78.4, screening length: 5.74355 Bohr) occupying 0.761026 of unit cell:	Completed after 8 iterations at t[s]:   3883.67
	FillingsUpdate:  mu: -0.244750400  nElectrons: 303.899951
	Linear fluid (dielectric constant: 78.4, screening length: 5.74355 Bohr) occupying 0.761030 of unit cell:	Completed after 10 iterations at t[s]:   3942.80
SCF: Cycle: 57   G: -1078.856622226693844   dG: +4.482e-05   |Residual|: 2.575e-03   |deigs|: 7.590e-05  t[s]:   3944.19
	Linear fluid (dielectric constant: 78.4, screening length: 5.74355 Bohr) occupying 0.761027 of unit cell:	Completed after 12 iterations at t[s]:   3946.22
	FillingsUpdate:  mu: -0.244750400  nElectrons: 303.927392
	Linear fluid (dielectric constant: 78.4, screening length: 5.74355 Bohr) occupying 0.761033 of unit cell:	Completed after 4 iterations at t[s]:   4006.95
SCF: Cycle: 58   G: -1078.856672358495643   dG: -5.013e-05   |Residual|: 7.593e-04   |deigs|: 5.396e-05  t[s]:   4008.44
	Linear fluid (dielectric constant: 78.4, screening length: 5.74355 Bohr) occupying 0.761029 of unit cell:	Completed after 4 iterations at t[s]:   4009.49
	FillingsUpdate:  mu: -0.244750400  nElectrons: 303.933340
	Linear fluid (dielectric constant: 78.4, screening length: 5.74355 Bohr) occupying 0.761034 of unit cell:	Completed after 6 iterations at t[s]:   4067.87
SCF: Cycle: 59   G: -1078.856675476617738   dG: -3.118e-06   |Residual|: 2.750e-04   |deigs|: 1.983e-05  t[s]:   4069.21
	Linear fluid (dielectric constant: 78.4, screening length: 5.74355 Bohr) occupying 0.761023 of unit cell:	Completed after 3 iterations at t[s]:   4070.16
	FillingsUpdate:  mu: -0.244750400  nElectrons: 303.890985
	Linear fluid (dielectric constant: 78.4, screening length: 5.74355 Bohr) occupying 0.761028 of unit cell:	Completed after 11 iterations at t[s]:   4132.56
SCF: Cycle: 60   G: -1078.856602102659281   dG: +7.337e-05   |Residual|: 2.888e-03   |deigs|: 8.631e-05  t[s]:   4134.07
	Linear fluid (dielectric constant: 78.4, screening length: 5.74355 Bohr) occupying 0.761024 of unit cell:	Completed after 12 iterations at t[s]:   4135.99
	FillingsUpdate:  mu: -0.244750400  nElectrons: 303.922436
	Linear fluid (dielectric constant: 78.4, screening length: 5.74355 Bohr) occupying 0.761032 of unit cell:	Completed after 7 iterations at t[s]:   4192.58
SCF: Cycle: 61   G: -1078.856671801290076   dG: -6.970e-05   |Residual|: 7.519e-04   |deigs|: 6.084e-05  t[s]:   4194.00
	Linear fluid (dielectric constant: 78.4, screening length: 5.74355 Bohr) occupying 0.761023 of unit cell:	Completed after 7 iterations at t[s]:   4195.68
	FillingsUpdate:  mu: -0.244750400  nElectrons: 303.932852
	Linear fluid (dielectric constant: 78.4, screening length: 5.74355 Bohr) occupying 0.761032 of unit cell:	Completed after 4 iterations at t[s]:   4252.84
SCF: Cycle: 62   G: -1078.856671719324368   dG: +8.197e-08   |Residual|: 7.816e-04   |deigs|: 2.594e-05  t[s]:   4254.05
	Linear fluid (dielectric constant: 78.4, screening length: 5.74355 Bohr) occupying 0.761021 of unit cell:	Completed after 4 iterations at t[s]:   4255.06
	FillingsUpdate:  mu: -0.244750400  nElectrons: 303.907937
	Linear fluid (dielectric constant: 78.4, screening length: 5.74355 Bohr) occupying 0.761030 of unit cell:	Completed after 8 iterations at t[s]:   4319.38
SCF: Cycle: 63   G: -1078.856654865041719   dG: +1.685e-05   |Residual|: 1.554e-03   |deigs|: 5.203e-05  t[s]:   4321.11
	Linear fluid (dielectric constant: 78.4, screening length: 5.74355 Bohr) occupying 0.761021 of unit cell:	Completed after 9 iterations at t[s]:   4322.66
	FillingsUpdate:  mu: -0.244750400  nElectrons: 303.913056
	Linear fluid (dielectric constant: 78.4, screening length: 5.74355 Bohr) occupying 0.761030 of unit cell:	Completed after 9 iterations at t[s]:   4380.02
SCF: Cycle: 64   G: -1078.856654218869835   dG: +6.462e-07   |Residual|: 1.710e-03   |deigs|: 1.542e-05  t[s]:   4382.03
	Linear fluid (dielectric constant: 78.4, screening length: 5.74355 Bohr) occupying 0.761020 of unit cell:	Completed after 9 iterations at t[s]:   4383.63
	FillingsUpdate:  mu: -0.244750400  nElectrons: 303.917529
	Linear fluid (dielectric constant: 78.4, screening length: 5.74355 Bohr) occupying 0.761030 of unit cell:	Completed after 9 iterations at t[s]:   4447.04
SCF: Cycle: 65   G: -1078.856651043068041   dG: +3.176e-06   |Residual|: 1.899e-03   |deigs|: 1.527e-05  t[s]:   4448.41
	Linear fluid (dielectric constant: 78.4, screening length: 5.74355 Bohr) occupying 0.761020 of unit cell:	Completed after 9 iterations at t[s]:   4449.98
	FillingsUpdate:  mu: -0.244750400  nElectrons: 303.927600
	Linear fluid (dielectric constant: 78.4, screening length: 5.74355 Bohr) occupying 0.761032 of unit cell:	Completed after 6 iterations at t[s]:   4505.53
SCF: Cycle: 66   G: -1078.856667406801307   dG: -1.636e-05   |Residual|: 1.104e-03   |deigs|: 1.876e-05  t[s]:   4506.93
	Linear fluid (dielectric constant: 78.4, screening length: 5.74355 Bohr) occupying 0.761022 of unit cell:	Completed after 6 iterations at t[s]:   4508.33
	FillingsUpdate:  mu: -0.244750400  nElectrons: 303.918626
	Linear fluid (dielectric constant: 78.4, screening length: 5.74355 Bohr) occupying 0.761031 of unit cell:	Completed after 8 iterations at t[s]:   4560.18
SCF: Cycle: 67   G: -1078.856666546980705   dG: +8.598e-07   |Residual|: 1.182e-03   |deigs|: 1.940e-05  t[s]:   4561.56
	Linear fluid (dielectric constant: 78.4, screening length: 5.74355 Bohr) occupying 0.761024 of unit cell:	Completed after 7 iterations at t[s]:   4562.99
	FillingsUpdate:  mu: -0.244750400  nElectrons: 303.933929
	Linear fluid (dielectric constant: 78.4, screening length: 5.74355 Bohr) occupying 0.761033 of unit cell:	Completed after 7 iterations at t[s]:   4626.87
SCF: Cycle: 68   G: -1078.856663622627138   dG: +2.924e-06   |Residual|: 1.338e-03   |deigs|: 3.492e-05  t[s]:   4628.62
	Linear fluid (dielectric constant: 78.4, screening length: 5.74355 Bohr) occupying 0.761024 of unit cell:	Completed after 7 iterations at t[s]:   4629.97
	FillingsUpdate:  mu: -0.244750400  nElectrons: 303.902778
	Linear fluid (dielectric constant: 78.4, screening length: 5.74355 Bohr) occupying 0.761030 of unit cell:	Completed after 8 iterations at t[s]:   4689.67
SCF: Cycle: 69   G: -1078.856638649114302   dG: +2.497e-05   |Residual|: 2.092e-03   |deigs|: 6.747e-05  t[s]:   4691.28
	Linear fluid (dielectric constant: 78.4, screening length: 5.74355 Bohr) occupying 0.761022 of unit cell:	Completed after 10 iterations at t[s]:   4692.99
	FillingsUpdate:  mu: -0.244750400  nElectrons: 303.917830
	Linear fluid (dielectric constant: 78.4, screening length: 5.74355 Bohr) occupying 0.761031 of unit cell:	Completed after 9 iterations at t[s]:   4744.24
SCF: Cycle: 70   G: -1078.856657502623648   dG: -1.885e-05   |Residual|: 1.605e-03   |deigs|: 3.148e-05  t[s]:   4745.61
	Linear fluid (dielectric constant: 78.4, screening length: 5.74355 Bohr) occupying 0.761022 of unit cell:	Completed after 9 iterations at t[s]:   4747.15
	FillingsUpdate:  mu: -0.244750400  nElectrons: 303.933013
	Linear fluid (dielectric constant: 78.4, screening length: 5.74355 Bohr) occupying 0.761032 of unit cell:	Completed after 7 iterations at t[s]:   4795.64
SCF: Cycle: 71   G: -1078.856671080559636   dG: -1.358e-05   |Residual|: 7.719e-04   |deigs|: 2.936e-05  t[s]:   4796.97
	Linear fluid (dielectric constant: 78.4, screening length: 5.74355 Bohr) occupying 0.761019 of unit cell:	Completed after 4 iterations at t[s]:   4798.00
	FillingsUpdate:  mu: -0.244750400  nElectrons: 303.888927
	Linear fluid (dielectric constant: 78.4, screening length: 5.74355 Bohr) occupying 0.761028 of unit cell:	Completed after 10 iterations at t[s]:   4858.09
SCF: Cycle: 72   G: -1078.856591973892591   dG: +7.911e-05   |Residual|: 3.192e-03   |deigs|: 8.404e-05  t[s]:   4859.73
	Linear fluid (dielectric constant: 78.4, screening length: 5.74355 Bohr) occupying 0.761020 of unit cell:	Completed after 11 iterations at t[s]:   4861.73
	FillingsUpdate:  mu: -0.244750400  nElectrons: 303.902460
	Linear fluid (dielectric constant: 78.4, screening length: 5.74355 Bohr) occupying 0.761029 of unit cell:	Completed after 11 iterations at t[s]:   4905.21
SCF: Cycle: 73   G: -1078.856632405225582   dG: -4.043e-05   |Residual|: 2.296e-03   |deigs|: 2.567e-05  t[s]:   4906.56
	Linear fluid (dielectric constant: 78.4, screening length: 5.74355 Bohr) occupying 0.761018 of unit cell:	Completed after 11 iterations at t[s]:   4908.26
	FillingsUpdate:  mu: -0.244750400  nElectrons: 303.901915
	Linear fluid (dielectric constant: 78.4, screening length: 5.74355 Bohr) occupying 0.761029 of unit cell:	Completed after 12 iterations at t[s]:   4961.91
SCF: Cycle: 74   G: -1078.856622030649078   dG: +1.037e-05   |Residual|: 2.611e-03   |deigs|: 5.330e-06  t[s]:   4963.23
	Linear fluid (dielectric constant: 78.4, screening length: 5.74355 Bohr) occupying 0.761019 of unit cell:	Completed after 12 iterations at t[s]:   4965.09
	FillingsUpdate:  mu: -0.244750400  nElectrons: 303.898918
	Linear fluid (dielectric constant: 78.4, screening length: 5.74355 Bohr) occupying 0.761029 of unit cell:	Completed after 11 iterations at t[s]:   5007.94
SCF: Cycle: 75   G: -1078.856626269598564   dG: -4.239e-06   |Residual|: 2.412e-03   |deigs|: 9.702e-06  t[s]:   5009.24
	Linear fluid (dielectric constant: 78.4, screening length: 5.74355 Bohr) occupying 0.761018 of unit cell:	Completed after 12 iterations at t[s]:   5011.16
	FillingsUpdate:  mu: -0.244750400  nElectrons: 303.897530
	Linear fluid (dielectric constant: 78.4, screening length: 5.74355 Bohr) occupying 0.761029 of unit cell:	Completed after 11 iterations at t[s]:   5071.15
SCF: Cycle: 76   G: -1078.856618877612618   dG: +7.392e-06   |Residual|: 2.622e-03   |deigs|: 1.022e-05  t[s]:   5072.99
	Linear fluid (dielectric constant: 78.4, screening length: 5.74355 Bohr) occupying 0.761018 of unit cell:	Completed after 12 iterations at t[s]:   5074.89
	FillingsUpdate:  mu: -0.244750400  nElectrons: 303.897699
	Linear fluid (dielectric constant: 78.4, screening length: 5.74355 Bohr) occupying 0.761029 of unit cell:	Completed after 11 iterations at t[s]:   5115.41
SCF: Cycle: 77   G: -1078.856620033901891   dG: -1.156e-06   |Residual|: 2.589e-03   |deigs|: 7.224e-07  t[s]:   5116.97
	Linear fluid (dielectric constant: 78.4, screening length: 5.74355 Bohr) occupying 0.761025 of unit cell:	Completed after 12 iterations at t[s]:   5118.92
	FillingsUpdate:  mu: -0.244750400  nElectrons: 303.918616
	Linear fluid (dielectric constant: 78.4, screening length: 5.74355 Bohr) occupying 0.761032 of unit cell:	Completed after 8 iterations at t[s]:   5181.91
SCF: Cycle: 78   G: -1078.856668950475523   dG: -4.892e-05   |Residual|: 9.008e-04   |deigs|: 4.775e-05  t[s]:   5183.36
	Linear fluid (dielectric constant: 78.4, screening length: 5.74355 Bohr) occupying 0.761027 of unit cell:	Completed after 9 iterations at t[s]:   5184.97
	FillingsUpdate:  mu: -0.244750400  nElectrons: 303.936222
	Linear fluid (dielectric constant: 78.4, screening length: 5.74355 Bohr) occupying 0.761033 of unit cell:	Completed after 7 iterations at t[s]:   5238.19
SCF: Cycle: 79   G: -1078.856673287263447   dG: -4.337e-06   |Residual|: 5.015e-04   |deigs|: 3.758e-05  t[s]:   5239.90
	Linear fluid (dielectric constant: 78.4, screening length: 5.74355 Bohr) occupying 0.761027 of unit cell:	Completed after 7 iterations at t[s]:   5241.29
	FillingsUpdate:  mu: -0.244750400  nElectrons: 303.903967
	Linear fluid (dielectric constant: 78.4, screening length: 5.74355 Bohr) occupying 0.761031 of unit cell:	Completed after 10 iterations at t[s]:   5297.38
SCF: Cycle: 80   G: -1078.856637204333765   dG: +3.608e-05   |Residual|: 2.182e-03   |deigs|: 6.138e-05  t[s]:   5298.66
	Linear fluid (dielectric constant: 78.4, screening length: 5.74355 Bohr) occupying 0.761025 of unit cell:	Completed after 10 iterations at t[s]:   5300.34
	FillingsUpdate:  mu: -0.244750400  nElectrons: 303.925633
	Linear fluid (dielectric constant: 78.4, screening length: 5.74355 Bohr) occupying 0.761032 of unit cell:	Completed after 7 iterations at t[s]:   5343.26
SCF: Cycle: 81   G: -1078.856664056485897   dG: -2.685e-05   |Residual|: 1.310e-03   |deigs|: 4.441e-05  t[s]:   5344.93
	Linear fluid (dielectric constant: 78.4, screening length: 5.74355 Bohr) occupying 0.761025 of unit cell:	Completed after 7 iterations at t[s]:   5346.51
	FillingsUpdate:  mu: -0.244750400  nElectrons: 303.926026
	Linear fluid (dielectric constant: 78.4, screening length: 5.74355 Bohr) occupying 0.761032 of unit cell:	Completed after 3 iterations at t[s]:   5388.61
SCF: Cycle: 82   G: -1078.856672859360287   dG: -8.803e-06   |Residual|: 7.406e-04   |deigs|: 1.175e-05  t[s]:   5390.09
	Linear fluid (dielectric constant: 78.4, screening length: 5.74355 Bohr) occupying 0.761022 of unit cell:	Completed after 3 iterations at t[s]:   5391.11
	FillingsUpdate:  mu: -0.244750400  nElectrons: 303.920748
	Linear fluid (dielectric constant: 78.4, screening length: 5.74355 Bohr) occupying 0.761033 of unit cell:	Completed after 8 iterations at t[s]:   5451.25
SCF: Cycle: 83   G: -1078.856668662707989   dG: +4.197e-06   |Residual|: 1.181e-03   |deigs|: 6.038e-05  t[s]:   5453.03
	Linear fluid (dielectric constant: 78.4, screening length: 5.74355 Bohr) occupying 0.761022 of unit cell:	Completed after 7 iterations at t[s]:   5454.62
	FillingsUpdate:  mu: -0.244750400  nElectrons: 303.906690
	Linear fluid (dielectric constant: 78.4, screening length: 5.74355 Bohr) occupying 0.761031 of unit cell:	Completed after 11 iterations at t[s]:   5518.65
SCF: Cycle: 84   G: -1078.856613680112559   dG: +5.498e-05   |Residual|: 3.045e-03   |deigs|: 2.815e-05  t[s]:   5520.06
	Linear fluid (dielectric constant: 78.4, screening length: 5.74355 Bohr) occupying 0.761023 of unit cell:	Completed after 12 iterations at t[s]:   5521.99
	FillingsUpdate:  mu: -0.244750400  nElectrons: 303.913586
	Linear fluid (dielectric constant: 78.4, screening length: 5.74355 Bohr) occupying 0.761031 of unit cell:	Completed after 9 iterations at t[s]:   5583.85
SCF: Cycle: 85   G: -1078.856659050206872   dG: -4.537e-05   |Residual|: 1.512e-03   |deigs|: 5.651e-05  t[s]:   5585.44
	Linear fluid (dielectric constant: 78.4, screening length: 5.74355 Bohr) occupying 0.761022 of unit cell:	Completed after 9 iterations at t[s]:   5587.45
	FillingsUpdate:  mu: -0.244750400  nElectrons: 303.915255
	Linear fluid (dielectric constant: 78.4, screening length: 5.74355 Bohr) occupying 0.761031 of unit cell:	Completed after 10 iterations at t[s]:   5644.35
SCF: Cycle: 86   G: -1078.856645297044906   dG: +1.375e-05   |Residual|: 2.120e-03   |deigs|: 1.858e-05  t[s]:   5646.22
	Linear fluid (dielectric constant: 78.4, screening length: 5.74355 Bohr) occupying 0.761022 of unit cell:	Completed after 10 iterations at t[s]:   5647.95
	FillingsUpdate:  mu: -0.244750400  nElectrons: 303.922868
	Linear fluid (dielectric constant: 78.4, screening length: 5.74355 Bohr) occupying 0.761032 of unit cell:	Completed after 8 iterations at t[s]:   5688.79
SCF: Cycle: 87   G: -1078.856663249870053   dG: -1.795e-05   |Residual|: 1.364e-03   |deigs|: 1.302e-05  t[s]:   5690.25
	Linear fluid (dielectric constant: 78.4, screening length: 5.74355 Bohr) occupying 0.761023 of unit cell:	Completed after 7 iterations at t[s]:   5691.79
	FillingsUpdate:  mu: -0.244750400  nElectrons: 303.929533
	Linear fluid (dielectric constant: 78.4, screening length: 5.74355 Bohr) occupying 0.761033 of unit cell:	Completed after 3 iterations at t[s]:   5747.23
SCF: Cycle: 88   G: -1078.856670558039696   dG: -7.308e-06   |Residual|: 9.586e-04   |deigs|: 1.571e-05  t[s]:   5748.66
	Linear fluid (dielectric constant: 78.4, screening length: 5.74355 Bohr) occupying 0.761023 of unit cell:	Completed after 3 iterations at t[s]:   5749.83
	FillingsUpdate:  mu: -0.244750400  nElectrons: 303.917970
	Linear fluid (dielectric constant: 78.4, screening length: 5.74355 Bohr) occupying 0.761032 of unit cell:	Completed after 8 iterations at t[s]:   5798.73
SCF: Cycle: 89   G: -1078.856668949551022   dG: +1.608e-06   |Residual|: 1.007e-03   |deigs|: 2.703e-05  t[s]:   5800.23
	Linear fluid (dielectric constant: 78.4, screening length: 5.74355 Bohr) occupying 0.761022 of unit cell:	Completed after 8 iterations at t[s]:   5801.92
	FillingsUpdate:  mu: -0.244750400  nElectrons: 303.906026
	Linear fluid (dielectric constant: 78.4, screening length: 5.74355 Bohr) occupying 0.761030 of unit cell:	Completed after 10 iterations at t[s]:   5865.41
SCF: Cycle: 90   G: -1078.856638238150026   dG: +3.071e-05   |Residual|: 2.251e-03   |deigs|: 2.490e-05  t[s]:   5866.66
	Linear fluid (dielectric constant: 78.4, screening length: 5.74355 Bohr) occupying 0.761022 of unit cell:	Completed after 10 iterations at t[s]:   5868.29
	FillingsUpdate:  mu: -0.244750400  nElectrons: 303.910481
	Linear fluid (dielectric constant: 78.4, screening length: 5.74355 Bohr) occupying 0.761030 of unit cell:	Completed after 11 iterations at t[s]:   5918.74
SCF: Cycle: 91   G: -1078.856640540067247   dG: -2.302e-06   |Residual|: 2.220e-03   |deigs|: 1.366e-05  t[s]:   5920.29
	Linear fluid (dielectric constant: 78.4, screening length: 5.74355 Bohr) occupying 0.761024 of unit cell:	Completed after 10 iterations at t[s]:   5922.18
	FillingsUpdate:  mu: -0.244750400  nElectrons: 303.923839
	Linear fluid (dielectric constant: 78.4, screening length: 5.74355 Bohr) occupying 0.761032 of unit cell:	Completed after 8 iterations at t[s]:   5987.63
SCF: Cycle: 92   G: -1078.856661770895471   dG: -2.123e-05   |Residual|: 1.447e-03   |deigs|: 2.665e-05  t[s]:   5989.59
	Linear fluid (dielectric constant: 78.4, screening length: 5.74355 Bohr) occupying 0.761024 of unit cell:	Completed after 7 iterations at t[s]:   5991.13
	FillingsUpdate:  mu: -0.244750400  nElectrons: 303.930820
	Linear fluid (dielectric constant: 78.4, screening length: 5.74355 Bohr) occupying 0.761033 of unit cell:	Completed after 3 iterations at t[s]:   6037.16
SCF: Cycle: 93   G: -1078.856672702957439   dG: -1.093e-05   |Residual|: 7.613e-04   |deigs|: 1.626e-05  t[s]:   6038.80
	Linear fluid (dielectric constant: 78.4, screening length: 5.74355 Bohr) occupying 0.761025 of unit cell:	Completed after 3 iterations at t[s]:   6039.84
	FillingsUpdate:  mu: -0.244750400  nElectrons: 303.915347
	Linear fluid (dielectric constant: 78.4, screening length: 5.74355 Bohr) occupying 0.761031 of unit cell:	Completed after 8 iterations at t[s]:   6086.32
SCF: Cycle: 94   G: -1078.856666460141469   dG: +6.243e-06   |Residual|: 1.115e-03   |deigs|: 3.424e-05  t[s]:   6087.61
	Linear fluid (dielectric constant: 78.4, screening length: 5.74355 Bohr) occupying 0.761025 of unit cell:	Completed after 9 iterations at t[s]:   6089.28
	FillingsUpdate:  mu: -0.244750400  nElectrons: 303.912278
	Linear fluid (dielectric constant: 78.4, screening length: 5.74355 Bohr) occupying 0.761031 of unit cell:	Completed after 9 iterations at t[s]:   6147.74
SCF: Cycle: 95   G: -1078.856654645014942   dG: +1.182e-05   |Residual|: 1.690e-03   |deigs|: 8.674e-06  t[s]:   6149.54
	Linear fluid (dielectric constant: 78.4, screening length: 5.74355 Bohr) occupying 0.761025 of unit cell:	Completed after 9 iterations at t[s]:   6151.34
	FillingsUpdate:  mu: -0.244750400  nElectrons: 303.920504
	Linear fluid (dielectric constant: 78.4, screening length: 5.74355 Bohr) occupying 0.761032 of unit cell:	Completed after 8 iterations at t[s]:   6196.26
SCF: Cycle: 96   G: -1078.856657657338928   dG: -3.012e-06   |Residual|: 1.655e-03   |deigs|: 1.901e-05  t[s]:   6197.69
	Linear fluid (dielectric constant: 78.4, screening length: 5.74355 Bohr) occupying 0.761024 of unit cell:	Completed after 8 iterations at t[s]:   6199.31
	FillingsUpdate:  mu: -0.244750400  nElectrons: 303.930890
	Linear fluid (dielectric constant: 78.4, screening length: 5.74355 Bohr) occupying 0.761033 of unit cell:	Completed after 4 iterations at t[s]:   6252.84
SCF: Cycle: 97   G: -1078.856671351066097   dG: -1.369e-05   |Residual|: 8.243e-04   |deigs|: 1.984e-05  t[s]:   6254.34
	Linear fluid (dielectric constant: 78.4, screening length: 5.74355 Bohr) occupying 0.761026 of unit cell:	Completed after 4 iterations at t[s]:   6255.49
	FillingsUpdate:  mu: -0.244750400  nElectrons: 303.915736
	Linear fluid (dielectric constant: 78.4, screening length: 5.74355 Bohr) occupying 0.761032 of unit cell:	Completed after 8 iterations at t[s]:   6303.75
SCF: Cycle: 98   G: -1078.856667964295866   dG: +3.387e-06   |Residual|: 9.680e-04   |deigs|: 3.400e-05  t[s]:   6305.71
	Linear fluid (dielectric constant: 78.4, screening length: 5.74355 Bohr) occupying 0.761027 of unit cell:	Completed after 8 iterations at t[s]:   6307.51
	FillingsUpdate:  mu: -0.244750400  nElectrons: 303.918264
	Linear fluid (dielectric constant: 78.4, screening length: 5.74355 Bohr) occupying 0.761031 of unit cell:	Completed after 9 iterations at t[s]:   6367.46
SCF: Cycle: 99   G: -1078.856665321621904   dG: +2.643e-06   |Residual|: 1.207e-03   |deigs|: 9.725e-06  t[s]:   6369.03
	Linear fluid (dielectric constant: 78.4, screening length: 5.74355 Bohr) occupying 0.761027 of unit cell:	Completed after 9 iterations at t[s]:   6370.74
	FillingsUpdate:  mu: -0.244750400  nElectrons: 303.924454
	Linear fluid (dielectric constant: 78.4, screening length: 5.74355 Bohr) occupying 0.761032 of unit cell:	Completed after 6 iterations at t[s]:   6426.18
SCF: Cycle: 100   G: -1078.856667871553327   dG: -2.550e-06   |Residual|: 1.089e-03   |deigs|: 1.344e-05  t[s]:   6427.99
	Linear fluid (dielectric constant: 78.4, screening length: 5.74355 Bohr) occupying 0.761026 of unit cell:	Completed after 7 iterations at t[s]:   6429.32
	FillingsUpdate:  mu: -0.244750400  nElectrons: 303.929386
	Linear fluid (dielectric constant: 78.4, screening length: 5.74355 Bohr) occupying 0.761033 of unit cell:	Completed after 3 iterations at t[s]:   6483.24
SCF: Cycle: 101   G: -1078.856674111003258   dG: -6.239e-06   |Residual|: 5.578e-04   |deigs|: 1.177e-05  t[s]:   6484.66
	Linear fluid (dielectric constant: 78.4, screening length: 5.74355 Bohr) occupying 0.761027 of unit cell:	Completed after 3 iterations at t[s]:   6485.67
	FillingsUpdate:  mu: -0.244750400  nElectrons: 303.921852
	Linear fluid (dielectric constant: 78.4, screening length: 5.74355 Bohr) occupying 0.761032 of unit cell:	Completed after 6 iterations at t[s]:   6530.48
SCF: Cycle: 102   G: -1078.856673430792853   dG: +6.802e-07   |Residual|: 6.026e-04   |deigs|: 1.710e-05  t[s]:   6531.88
	Linear fluid (dielectric constant: 78.4, screening length: 5.74355 Bohr) occupying 0.761027 of unit cell:	Completed after 7 iterations at t[s]:   6533.26
	FillingsUpdate:  mu: -0.244750400  nElectrons: 303.920344
	Linear fluid (dielectric constant: 78.4, screening length: 5.74355 Bohr) occupying 0.761032 of unit cell:	Completed after 8 iterations at t[s]:   6595.33
SCF: Cycle: 103   G: -1078.856665988456825   dG: +7.442e-06   |Residual|: 1.214e-03   |deigs|: 6.864e-06  t[s]:   6597.13
	Linear fluid (dielectric constant: 78.4, screening length: 5.74355 Bohr) occupying 0.761026 of unit cell:	Completed after 9 iterations at t[s]:   6598.87
	FillingsUpdate:  mu: -0.244750400  nElectrons: 303.925461
	Linear fluid (dielectric constant: 78.4, screening length: 5.74355 Bohr) occupying 0.761032 of unit cell:	Completed after 6 iterations at t[s]:   6642.58
SCF: Cycle: 104   G: -1078.856668611100076   dG: -2.623e-06   |Residual|: 1.035e-03   |deigs|: 1.060e-05  t[s]:   6644.43
	Linear fluid (dielectric constant: 78.4, screening length: 5.74355 Bohr) occupying 0.761025 of unit cell:	Completed after 4 iterations at t[s]:   6645.68
	FillingsUpdate:  mu: -0.244750400  nElectrons: 303.930430
	Linear fluid (dielectric constant: 78.4, screening length: 5.74355 Bohr) occupying 0.761034 of unit cell:	Completed after 3 iterations at t[s]:   6702.87
SCF: Cycle: 105   G: -1078.856673721351854   dG: -5.110e-06   |Residual|: 7.684e-04   |deigs|: 2.519e-05  t[s]:   6704.82
	Linear fluid (dielectric constant: 78.4, screening length: 5.74355 Bohr) occupying 0.761027 of unit cell:	Completed after 2 iterations at t[s]:   6705.79
	FillingsUpdate:  mu: -0.244750400  nElectrons: 303.924337
	Linear fluid (dielectric constant: 78.4, screening length: 5.74355 Bohr) occupying 0.761032 of unit cell:	Completed after 4 iterations at t[s]:   6750.94
SCF: Cycle: 106   G: -1078.856675209182868   dG: -1.488e-06   |Residual|: 3.633e-04   |deigs|: 2.931e-05  t[s]:   6752.48
	Linear fluid (dielectric constant: 78.4, screening length: 5.74355 Bohr) occupying 0.761027 of unit cell:	Completed after 3 iterations at t[s]:   6753.59
	FillingsUpdate:  mu: -0.244750400  nElectrons: 303.932381
	Linear fluid (dielectric constant: 78.4, screening length: 5.74355 Bohr) occupying 0.761034 of unit cell:	Completed after 4 iterations at t[s]:   6798.37
SCF: Cycle: 107   G: -1078.856673974539717   dG: +1.235e-06   |Residual|: 5.339e-04   |deigs|: 2.494e-05  t[s]:   6800.12
	Linear fluid (dielectric constant: 78.4, screening length: 5.74355 Bohr) occupying 0.761027 of unit cell:	Completed after 3 iterations at t[s]:   6801.20
	FillingsUpdate:  mu: -0.244750400  nElectrons: 303.907040
	Linear fluid (dielectric constant: 78.4, screening length: 5.74355 Bohr) occupying 0.761031 of unit cell:	Completed after 9 iterations at t[s]:   6847.21
SCF: Cycle: 108   G: -1078.856653926376339   dG: +2.005e-05   |Residual|: 1.562e-03   |deigs|: 5.277e-05  t[s]:   6849.18
	Linear fluid (dielectric constant: 78.4, screening length: 5.74355 Bohr) occupying 0.761027 of unit cell:	Completed after 9 iterations at t[s]:   6851.10
	FillingsUpdate:  mu: -0.244750400  nElectrons: 303.912852
	Linear fluid (dielectric constant: 78.4, screening length: 5.74355 Bohr) occupying 0.761031 of unit cell:	Completed after 10 iterations at t[s]:   6894.76
SCF: Cycle: 109   G: -1078.856651403052638   dG: +2.523e-06   |Residual|: 1.810e-03   |deigs|: 1.698e-05  t[s]:   6896.32
	Linear fluid (dielectric constant: 78.4, screening length: 5.74355 Bohr) occupying 0.761027 of unit cell:	Completed after 10 iterations at t[s]:   6897.99
	FillingsUpdate:  mu: -0.244750400  nElectrons: 303.920969
	Linear fluid (dielectric constant: 78.4, screening length: 5.74355 Bohr) occupying 0.761032 of unit cell:	Completed after 8 iterations at t[s]:   6947.04
SCF: Cycle: 110   G: -1078.856662516568576   dG: -1.111e-05   |Residual|: 1.356e-03   |deigs|: 1.552e-05  t[s]:   6948.91
	Linear fluid (dielectric constant: 78.4, screening length: 5.74355 Bohr) occupying 0.761027 of unit cell:	Completed after 8 iterations at t[s]:   6950.79
	FillingsUpdate:  mu: -0.244750400  nElectrons: 303.931651
	Linear fluid (dielectric constant: 78.4, screening length: 5.74355 Bohr) occupying 0.761033 of unit cell:	Completed after 4 iterations at t[s]:   6994.26
SCF: Cycle: 111   G: -1078.856672237267958   dG: -9.721e-06   |Residual|: 7.025e-04   |deigs|: 2.172e-05  t[s]:   6996.19
	Linear fluid (dielectric constant: 78.4, screening length: 5.74355 Bohr) occupying 0.761028 of unit cell:	Completed after 4 iterations at t[s]:   6997.42
	FillingsUpdate:  mu: -0.244750400  nElectrons: 303.910742
	Linear fluid (dielectric constant: 78.4, screening length: 5.74355 Bohr) occupying 0.761031 of unit cell:	Completed after 8 iterations at t[s]:   7042.74
SCF: Cycle: 112   G: -1078.856659834036464   dG: +1.240e-05   |Residual|: 1.382e-03   |deigs|: 4.272e-05  t[s]:   7044.24
	Linear fluid (dielectric constant: 78.4, screening length: 5.74355 Bohr) occupying 0.761028 of unit cell:	Completed after 9 iterations at t[s]:   7046.06
	FillingsUpdate:  mu: -0.244750400  nElectrons: 303.911387
	Linear fluid (dielectric constant: 78.4, screening length: 5.74355 Bohr) occupying 0.761031 of unit cell:	Completed after 10 iterations at t[s]:   7089.81
SCF: Cycle: 113   G: -1078.856648271723770   dG: +1.156e-05   |Residual|: 1.921e-03   |deigs|: 1.164e-05  t[s]:   7091.25
	Linear fluid (dielectric constant: 78.4, screening length: 5.74355 Bohr) occupying 0.761028 of unit cell:	Completed after 10 iterations at t[s]:   7092.91
	FillingsUpdate:  mu: -0.244750400  nElectrons: 303.920119
	Linear fluid (dielectric constant: 78.4, screening length: 5.74355 Bohr) occupying 0.761032 of unit cell:	Completed after 9 iterations at t[s]:   7138.62
SCF: Cycle: 114   G: -1078.856660899717554   dG: -1.263e-05   |Residual|: 1.427e-03   |deigs|: 1.623e-05  t[s]:   7140.36
	Linear fluid (dielectric constant: 78.4, screening length: 5.74355 Bohr) occupying 0.761028 of unit cell:	Completed after 8 iterations at t[s]:   7141.87
	FillingsUpdate:  mu: -0.244750400  nElectrons: 303.932082
	Linear fluid (dielectric constant: 78.4, screening length: 5.74355 Bohr) occupying 0.761033 of unit cell:	Completed after 7 iterations at t[s]:   7185.32
SCF: Cycle: 115   G: -1078.856671837703971   dG: -1.094e-05   |Residual|: 7.200e-04   |deigs|: 2.411e-05  t[s]:   7187.06
	Linear fluid (dielectric constant: 78.4, screening length: 5.74355 Bohr) occupying 0.761028 of unit cell:	Completed after 4 iterations at t[s]:   7188.21
	FillingsUpdate:  mu: -0.244750400  nElectrons: 303.901130
	Linear fluid (dielectric constant: 78.4, screening length: 5.74355 Bohr) occupying 0.761031 of unit cell:	Completed after 10 iterations at t[s]:   7233.87
SCF: Cycle: 116   G: -1078.856634523258890   dG: +3.731e-05   |Residual|: 2.265e-03   |deigs|: 5.994e-05  t[s]:   7235.40
	Linear fluid (dielectric constant: 78.4, screening length: 5.74355 Bohr) occupying 0.761028 of unit cell:	Completed after 11 iterations at t[s]:   7237.17
	FillingsUpdate:  mu: -0.244750400  nElectrons: 303.913401
	Linear fluid (dielectric constant: 78.4, screening length: 5.74355 Bohr) occupying 0.761031 of unit cell:	Completed after 9 iterations at t[s]:   7282.13
SCF: Cycle: 117   G: -1078.856659469574652   dG: -2.495e-05   |Residual|: 1.427e-03   |deigs|: 2.241e-05  t[s]:   7283.75
	Linear fluid (dielectric constant: 78.4, screening length: 5.74355 Bohr) occupying 0.761028 of unit cell:	Completed after 9 iterations at t[s]:   7285.44
	FillingsUpdate:  mu: -0.244750400  nElectrons: 303.923989
	Linear fluid (dielectric constant: 78.4, screening length: 5.74355 Bohr) occupying 0.761032 of unit cell:	Completed after 6 iterations at t[s]:   7328.92
SCF: Cycle: 118   G: -1078.856665223029040   dG: -5.753e-06   |Residual|: 1.236e-03   |deigs|: 2.286e-05  t[s]:   7330.82
	Linear fluid (dielectric constant: 78.4, screening length: 5.74355 Bohr) occupying 0.761029 of unit cell:	Completed after 7 iterations at t[s]:   7332.49
	FillingsUpdate:  mu: -0.244750400  nElectrons: 303.930065
	Linear fluid (dielectric constant: 78.4, screening length: 5.74355 Bohr) occupying 0.761033 of unit cell:	Completed after 3 iterations at t[s]:   7376.38
SCF: Cycle: 119   G: -1078.856674975586202   dG: -9.753e-06   |Residual|: 4.014e-04   |deigs|: 1.288e-05  t[s]:   7377.90
	Linear fluid (dielectric constant: 78.4, screening length: 5.74355 Bohr) occupying 0.761028 of unit cell:	Completed after 3 iterations at t[s]:   7378.93
	FillingsUpdate:  mu: -0.244750400  nElectrons: 303.918610
	Linear fluid (dielectric constant: 78.4, screening length: 5.74355 Bohr) occupying 0.761032 of unit cell:	Completed after 7 iterations at t[s]:   7424.50
SCF: Cycle: 120   G: -1078.856671480985142   dG: +3.495e-06   |Residual|: 7.206e-04   |deigs|: 2.399e-05  t[s]:   7426.22
	Linear fluid (dielectric constant: 78.4, screening length: 5.74355 Bohr) occupying 0.761029 of unit cell:	Completed after 7 iterations at t[s]:   7427.65
	FillingsUpdate:  mu: -0.244750400  nElectrons: 303.919812
	Linear fluid (dielectric constant: 78.4, screening length: 5.74355 Bohr) occupying 0.761032 of unit cell:	Completed after 7 iterations at t[s]:   7472.39
SCF: Cycle: 121   G: -1078.856661502305542   dG: +9.979e-06   |Residual|: 1.488e-03   |deigs|: 1.218e-05  t[s]:   7473.85
	Linear fluid (dielectric constant: 78.4, screening length: 5.74355 Bohr) occupying 0.761029 of unit cell:	Completed after 7 iterations at t[s]:   7475.47
	FillingsUpdate:  mu: -0.244750400  nElectrons: 303.939378
	Linear fluid (dielectric constant: 78.4, screening length: 5.74355 Bohr) occupying 0.761034 of unit cell:	Completed after 8 iterations at t[s]:   7521.78
SCF: Cycle: 122   G: -1078.856668361563379   dG: -6.859e-06   |Residual|: 8.840e-04   |deigs|: 3.677e-05  t[s]:   7523.17
	Linear fluid (dielectric constant: 78.4, screening length: 5.74355 Bohr) occupying 0.761029 of unit cell:	Completed after 8 iterations at t[s]:   7524.85
	FillingsUpdate:  mu: -0.244750400  nElectrons: 303.893873
	Linear fluid (dielectric constant: 78.4, screening length: 5.74355 Bohr) occupying 0.761030 of unit cell:	Completed after 11 iterations at t[s]:   7568.62
[...]
    |310>  occupation: 3  eigenvalue: -0.202371
  lMax: 2  lLocal: 3  QijEcut: 5
  6 projectors sampled on a log grid with 631 points:
    l: 0  eig: -0.513363  rCut: 1.5
    l: 0  eig: 0.500000  rCut: 1.5
    l: 1  eig: -0.202372  rCut: 1.5
    l: 1  eig: 1.000000  rCut: 1.5
    l: 2  eig: -0.500000  rCut: 1.5
    l: 2  eig: 1.500000  rCut: 1.5
  Partial core density with radius 1.35
  Transforming core density to a uniform radial grid of dG=0.02 with 1637 points.
  Transforming local potential to a uniform radial grid of dG=0.02 with 1637 points.
  Transforming nonlocal projectors to a uniform radial grid of dG=0.02 with 432 points.
  Transforming density augmentations to a uniform radial grid of dG=0.02 with 1637 points.
  Transforming atomic orbitals to a uniform radial grid of dG=0.02 with 432 points.
  Core radius for overlap checks: 1.50 bohrs.

Reading pseudopotential file '/home/guoxy/vasp/jdftx-1.5.0/build/pseudopotentials/GBRV/se_pbe.uspp':
  Title: Se.  Created by USPP 7.3.6 on 14-9-2013
  Reference state energy: -21.672887.  6 valence electrons in orbitals:
    |400>  occupation: 2  eigenvalue: -0.635284
    |410>  occupation: 4  eigenvalue: -0.239295
  lMax: 2  lLocal: 3  QijEcut: 5
  6 projectors sampled on a log grid with 625 points:
    l: 0  eig: -0.635278  rCut: 1.5
    l: 0  eig: 0.500000  rCut: 1.5
    l: 1  eig: -0.239295  rCut: 1.5
    l: 1  eig: 0.500000  rCut: 1.5
    l: 2  eig: 0.000000  rCut: 1.8
    l: 2  eig: 1.000000  rCut: 1.8
  Partial core density with radius 1.2
  Transforming core density to a uniform radial grid of dG=0.02 with 1637 points.
  Transforming local potential to a uniform radial grid of dG=0.02 with 1637 points.
  Transforming nonlocal projectors to a uniform radial grid of dG=0.02 with 432 points.
  Transforming density augmentations to a uniform radial grid of dG=0.02 with 1637 points.
  Transforming atomic orbitals to a uniform radial grid of dG=0.02 with 432 points.
  Core radius for overlap checks: 1.80 bohrs.

Initialized 4 species with 39 total atoms.

Folded 1 k-points by 3x3x1 to 9 k-points.

---------- Setting up k-points, bands, fillings ----------
Adding inversion symmetry to k-mesh for non-inversion-symmetric unit cell.
Reduced to 5 k-points under symmetry. 
Computing the number of bands and number of electrons
Reading initial fillings from file NbTe2.fillings.
nElectrons: 303.928848   nBands: 216   nStates: 5

----- Setting up reduced wavefunction bases (one per k-point) -----
average nbasis = 74563.000 , ideal nbasis = 74569.187

---------- Setting up coulomb interaction ----------
Fluid mode embedding: using embedded box, but periodic Coulomb kernel.
(Fluid response is responsible for (approximate) separation between periodic images.)
Setting up double-sized grid for truncated Coulomb potentials:
R = 
[    23.9923    11.9961          0  ]
[          0    20.8184          0  ]
[          0          0    69.8926  ]
unit cell volume = 34910
G =
[   0.261883  -0.150905          0  ]
[          0    0.30181          0  ]
[          0          0  0.0898977  ]
Chosen fftbox size, S = [  112  112  320  ]
Integer grid location selected as the embedding center:
   Grid: [  0  0  80  ]
   Lattice: [  0  0  0.5  ]
   Cartesian: [  0  0  17.4732  ]
Constructing Wigner-Seitz cell: 8 faces (6 quadrilaterals, 2 hexagons)
Range-separation parameter for embedded mesh potentials due to point charges: 0.589591 bohrs.

Initializing van der Waals corrections
	NOTE: vdW corrections apply only for interactions with fluid.
	 V:  C6:  187.33 Eh-a0^6  R0: 2.952 a0
	Ag:  C6:  427.91 Eh-a0^6  R0: 3.097 a0
	 P:  C6:  135.99 Eh-a0^6  R0: 3.222 a0
	Se:  C6:  219.24 Eh-a0^6  R0: 3.347 a0

---------- Setting up ewald sum ----------
Optimum gaussian width for ewald sums = 7.080264 bohr.
Real space sum over 605 unit cells with max indices [  5  5  2  ]
Reciprocal space sum over 7425 terms with max indices [  7  7  16  ]

---------- Allocating electronic variables ----------
Initializing wave functions:  reading from 'NbTe2.wfns'
----- createFluidSolver() ----- (Fluid-side solver setup)
   Initializing fluid molecule 'H2O'
     Initializing site 'O'
       Electron density: proportional to exp(-r/0.36935)*erfc((r-0.51523)/0.36823) with norm 6.826
       Charge density: gaussian nuclear width 0.478731 with net site charge 0.826
       Polarizability: cuspless exponential with width 0.32 and norm 3.73
       Hard sphere radius: 2.57003 bohrs
       Positions in reference frame:
         [ +0.000000 +0.000000 +0.000000 ]
     Initializing site 'H'
       Electron density: proportional to exp(-r/0.34641)*erfc((r-0)/0.390882) with norm 0.587
       Charge density: gaussian nuclear width 0.377945 with net site charge -0.413
       Polarizability: cuspless exponential with width 0.39 and norm 3.3
       Positions in reference frame:
         [ +0.000000 -1.441945 +1.122523 ]
         [ +0.000000 +1.441945 +1.122523 ]
     Net charge: 0   dipole magnitude: 0.927204
     Initializing spherical shell mfKernel with radius 2.61727 Bohr
     deltaS corrections:
       site 'O': -7.54299
       site 'H': -6.83917
   Initializing fluid molecule 'Na+'
     Initializing site 'Na'
       Electron density: proportional to exp(-r/0.19682)*erfc((r-0.71491)/0.41314) with norm 8.1383
       Charge density: gaussian nuclear width 0.365347 with net site charge -1
       Hard sphere radius: 1.86327 bohrs
       Positions in reference frame:
         [ +0.000000 +0.000000 +0.000000 ]
     Net charge: -1   dipole magnitude: 0
     Initializing gaussian mfKernel with width: 1.55004 Bohr
     deltaS corrections:
       site 'Na': -22.3555
   Initializing fluid molecule 'F-'
     Initializing site 'F'
       Electron density: proportional to exp(-r/0.38886)*erfc((r-0)/0.438782) with norm 8
       Charge density: gaussian nuclear width 0.374796 with net site charge 1
       Hard sphere radius: 2.39995 bohrs
       Positions in reference frame:
         [ +0.000000 +0.000000 +0.000000 ]
     Net charge: 1   dipole magnitude: 0
     Initializing gaussian mfKernel with width: 1.59012 Bohr
     deltaS corrections:
       site 'F': -9.04335

Correction to mu due to finite nuclear width = -0.00872544
   Cavity determined by nc: 0.00142 and sigma: 0.707107
   Nonlocal vdW cavity from gaussian model electron density with norm = 8 and sigma = 0.993594 bohr
   Charge asymmetry in cavity with sensitivity pCavity = 36.5 e-bohr/Eh
   Electrostatic cavity expanded by eta = 1.46 bohrs
   Weighted density cavitation model constrained by Nbulk: 0.0049383 bohr^-3, Pvap: 3.14029 kPa, Rvdw: 2.61727 bohr and sigmaBulk: 4.62e-05 Eh/bohr^2 at T: 298 K.
   Weighted density dispersion model using vdW pair potentials with single solvent site with sqrtC6eff: 0.77 SI.
Reading fluid state from 'NbTe2.fluidState'


---- Citations for features of the code used in this run ----

   Software package:
      R. Sundararaman, K. Letchworth-Weaver, K.A. Schwarz, D. Gunceler, Y. Ozhabes and T.A. Arias, 'JDFTx: software for joint density-functional theory', SoftwareX 6, 278 (2017)

   gga-PBE exchange-correlation functional:
      J.P. Perdew, K. Burke and M. Ernzerhof, Phys. Rev. Lett. 77, 3865 (1996)

   Pseudopotentials:
      KF Garrity, JW Bennett, KM Rabe and D Vanderbilt, Comput. Mater. Sci. 81, 446 (2014)

   Truncated Coulomb potentials:
      R. Sundararaman and T.A. Arias, Phys. Rev. B 87, 165122 (2013)

   Van der Waals correction pair-potentials:
      S. Grimme, J. Comput. Chem. 27, 1787 (2006)

   Charge-asymmetric nonlocally-determined local-electric (CANDLE) solvation model:
      R. Sundararaman and W.A. Goddard III, J. Chem. Phys. 142, 064107 (2015)

   Total energy minimization with Auxiliary Hamiltonian:
      C. Freysoldt, S. Boeck, and J. Neugebauer, Phys. Rev. B 79, 241103(R) (2009)

   Grand-canonical (fixed-potential) DFT:
      R. Sundararaman, W. A. Goddard III and T. A. Arias, J. Chem. Phys. 146, 114104 (2017)

This list may not be complete. Please suggest additional citations or
report any other bugs at https://github.com/shankar1729/jdftx/issues

Initialization completed successfully at t[s]:     27.60

Shifting auxilliary hamiltonian by 0.000009 to set nElectrons=303.928848
	Linear fluid (dielectric constant: 78.4, screening length: 5.74355 Bohr) occupying 0.761033 of unit cell:	Completed after 3 iterations at t[s]:     36.53

-------- Electronic minimization -----------
	Linear fluid (dielectric constant: 78.4, screening length: 5.74355 Bohr) occupying 0.761033 of unit cell:	Completed after 0 iterations at t[s]:     45.47
	FillingsUpdate:  mu: -0.244750400  nElectrons: 303.928848
ElecMinimize: Iter:   0  G: -1078.856674684800055  |grad|_K:  8.373e-07  alpha:  1.000e+00
	Linear fluid (dielectric constant: 78.4, screening length: 5.74355 Bohr) occupying 0.761040 of unit cell:	Completed after 15 iterations at t[s]:     79.40
	Linear fluid (dielectric constant: 78.4, screening length: 5.74355 Bohr) occupying 0.761033 of unit cell:	Completed after 15 iterations at t[s]:     94.35
	FillingsUpdate:  mu: -0.244750400  nElectrons: 303.931428
	SubspaceRotationAdjust: set factor to 0.524
ElecMinimize: Iter:   1  G: -1078.856675875267911  |grad|_K:  2.907e-07  alpha:  1.953e-02  linmin: -4.939e-03  cgtest:  1.041e-01  t[s]:    110.62
	Linear fluid (dielectric constant: 78.4, screening length: 5.74355 Bohr) occupying 0.761033 of unit cell:	Completed after 1 iterations at t[s]:    123.62
	Linear fluid (dielectric constant: 78.4, screening length: 5.74355 Bohr) occupying 0.761033 of unit cell:	Completed after 2 iterations at t[s]:    135.96
	FillingsUpdate:  mu: -0.244750400  nElectrons: 303.930212
	SubspaceRotationAdjust: set factor to 0.277
ElecMinimize: Iter:   2  G: -1078.856676186682307  |grad|_K:  1.111e-07  alpha:  4.116e-02  linmin: -2.551e-02  cgtest:  3.845e-01  t[s]:    151.47
ElecMinimize: Encountered beta<0, resetting CG.
	Linear fluid (dielectric constant: 78.4, screening length: 5.74355 Bohr) occupying 0.761033 of unit cell:	Completed after 0 iterations at t[s]:    164.79
ElecMinimize: 	Predicted alpha/alphaT>3.000000, increasing alphaT to 1.234723e-01.
	Linear fluid (dielectric constant: 78.4, screening length: 5.74355 Bohr) occupying 0.761033 of unit cell:	Completed after 3 iterations at t[s]:    177.25
	Linear fluid (dielectric constant: 78.4, screening length: 5.74355 Bohr) occupying 0.761033 of unit cell:	Completed after 0 iterations at t[s]:    189.34
	FillingsUpdate:  mu: -0.244750400  nElectrons: 303.928747
	SubspaceRotationAdjust: set factor to 0.156
ElecMinimize: Iter:   3  G: -1078.856676281634464  |grad|_K:  5.596e-08  alpha:  9.913e-02  linmin:  1.953e-03  cgtest: -4.826e-02  t[s]:    204.99
	Linear fluid (dielectric constant: 78.4, screening length: 5.74355 Bohr) occupying 0.761033 of unit cell:	Completed after 0 iterations at t[s]:    217.78
ElecMinimize: 	Predicted alpha/alphaT>3.000000, increasing alphaT to 2.974002e-01.
	Linear fluid (dielectric constant: 78.4, screening length: 5.74355 Bohr) occupying 0.761033 of unit cell:	Completed after 2 iterations at t[s]:    229.55
	Linear fluid (dielectric constant: 78.4, screening length: 5.74355 Bohr) occupying 0.761033 of unit cell:	Completed after 0 iterations at t[s]:    240.77
	FillingsUpdate:  mu: -0.244750400  nElectrons: 303.928298
	SubspaceRotationAdjust: set factor to 0.0916
	SubspaceRotationAdjust: resetting CG because factor has changed by 0.0915505
	Linear fluid (dielectric constant: 78.4, screening length: 5.74355 Bohr) occupying 0.761033 of unit cell:	Completed after 0 iterations at t[s]:    264.06
ElecMinimize: 	State modified externally: resetting search direction.
ElecMinimize: Iter:   4  G: -1078.856676324205864  |grad|_K:  6.883e-08  alpha:  9.634e-02
	Linear fluid (dielectric constant: 78.4, screening length: 5.74355 Bohr) occupying 0.761033 of unit cell:	Completed after 2 iterations at t[s]:    293.13
	Linear fluid (dielectric constant: 78.4, screening length: 5.74355 Bohr) occupying 0.761033 of unit cell:	Completed after 0 iterations at t[s]:    306.29
ElecMinimize: 	Step increased G by 4.621711e-08, reducing alpha to 2.792123e-03.
	Linear fluid (dielectric constant: 78.4, screening length: 5.74355 Bohr) occupying 0.761033 of unit cell:	Completed after 0 iterations at t[s]:    333.05
ElecMinimize: 	Step increased G by 4.374283e-08, reducing alpha to 2.792123e-04.
	Linear fluid (dielectric constant: 78.4, screening length: 5.74355 Bohr) occupying 0.761033 of unit cell:	Completed after 0 iterations at t[s]:    359.39
ElecMinimize: 	Step increased G by 4.351114e-08, reducing alpha to 2.792123e-05.
ElecMinimize: 	Step failed to reduce G after 3 attempts. Quitting step.
ElecMinimize: 	Undoing step.
	Linear fluid (dielectric constant: 78.4, screening length: 5.74355 Bohr) occupying 0.761033 of unit cell:	Completed after 0 iterations at t[s]:    385.03
ElecMinimize: 	Step failed along negative gradient direction.
ElecMinimize: Probably at roundoff error limit. (Stopping)
Setting wave functions to eigenvectors of Hamiltonian

# Ionic positions in lattice coordinates:
ion V   0.164570085948515   0.170415642748548   0.499509899791594 0
ion V   0.647982733832122   0.185265112906442   0.507244341747887 0
ion V   0.180114478031291   0.671835713566214   0.506949696817849 0
ion V   0.665615683058185   0.654329851946107   0.506249850482278 0
ion Ag   0.331042681023202   0.333283926376380   0.497124852608891 0
ion Ag   0.836071025856290   0.335409422776235   0.496500579308045 0
ion Ag   0.328279114749448   0.840529468998667   0.496922109310182 0
ion Ag   0.832022963557337   0.836727460125411   0.485283531981112 0
ion P   0.501890391706758  -0.002717898749601   0.559158447589675 0
ion P   0.501773583716576  -0.002817693855350   0.439178064557172 0
ion P   0.992411967050324   0.005432371972299   0.559355240908379 0
ion P   0.992009032763918   0.005915779679232   0.439389509461050 0
ion P   0.498702693599560   0.503098450319540   0.474691684177936 0
ion P   0.000540616731834   0.507201374389614   0.558891917022862 0
ion P   0.001226087674529   0.507009254430669   0.438976245885139 0
ion Se   0.158223936929046   0.324844586999717   0.407784901792634 0
ion Se   0.020631612387613   0.328539013374928   0.592287360461891 0
ion Se   0.322792970273661   0.155137027560137   0.592664470666345 0
ion Se   0.017309262317826   0.162532425982557   0.407440080297067 0
ion Se   0.319844873090013   0.021675380814429   0.407744361264194 0
ion Se   0.150582768494957   0.026453052928108   0.592871101608320 0
ion Se   0.648773475211971   0.329688915972183   0.417599460346128 0
ion Se   0.512960972383916   0.333050507282829   0.579652640237077 0
ion Se   0.814525477568043   0.165583093438159   0.593079308256928 0
ion Se   0.523929281269920   0.154778298799713   0.405923565128419 0
ion Se   0.811753381997360   0.032640058977332   0.408132273492904 0
ion Se   0.663395108446327   0.009753692453271   0.588777626984793 0
ion Se   0.149318869517893   0.826374643567010   0.405707479683971 0
ion Se   0.003921928891788   0.831632102181013   0.588294144931991 0
ion Se   0.327919351613536   0.659243663029998   0.579443032954436 0
ion Se   0.028079847743233   0.659993161831553   0.407449695874782 0
ion Se   0.324912644500183   0.526280564963041   0.417714360246199 0
ion Se   0.161387648012285   0.523885778427682   0.592659716311926 0
ion Se   0.655412475707440   0.818026518520668   0.407540869478485 0
ion Se   0.519692561781790   0.819165564474576   0.592631316175202 0
ion Se   0.826990853687959   0.669372399897485   0.587762964092165 0
ion Se   0.522189967304370   0.652774835404451   0.416887335923675 0
ion Se   0.821346087788367   0.529206157524413   0.405504179534857 0
ion Se   0.654445518780573   0.518609405964369   0.578830683605557 0


# Forces in Lattice coordinates:
force V   0.000722014224198  -0.001195874018869   0.074432727388586 0
force V   0.031031169863915   0.133539299526323   0.031522595421091 0
force V   0.112746838364300  -0.022993942313050   0.031560138921869 0
force V  -0.119361735382971  -0.106737081152798   0.058544824916906 0
force Ag   0.005521425281410  -0.030676199518625   0.008758499925011 0
force Ag   0.028386089891530   0.031261208045679   0.006483308761045 0
force Ag  -0.030048269501568  -0.008960427282137   0.006385524941595 0
force Ag  -0.001781238821449   0.000160550300557   0.068122566588640 0
force P  -0.030110744758419  -0.069771804132287  -0.122317361165344 0
force P   0.039678530562967   0.038971406033973   0.092750890990302 0
force P  -0.038881687445666   0.030115495591744  -0.117437246325435 0
force P  -0.004685279019285  -0.040330334747286   0.082913180016517 0
force P   0.004568053557402   0.003182514629687   0.054217507056593 0
force P   0.073134897642233   0.042374072536941  -0.124995359543030 0
force P  -0.047724917853094  -0.004953009983329   0.082234731887194 0
force Se  -0.037847357304649  -0.093162882622513   0.085159934640483 0
force Se   0.034455414609738  -0.078778570506611  -0.091122309905966 0
force Se  -0.110089264295793  -0.036553239288672  -0.093549126625526 0
force Se   0.086930156857154   0.049065522456639   0.093059093533288 0
force Se  -0.053389738012290   0.042183728958981   0.091769608236177 0
force Se   0.069314405964409   0.112407627057901  -0.105800285824492 0
force Se  -0.035646826733519  -0.047461668465734   0.058964347950982 0
force Se   0.032150719155465  -0.007289257559859  -0.094223220137606 0
force Se  -0.047995802149197  -0.013654140033908  -0.003247300575310 0
force Se   0.002409841471205   0.020184383943670   0.023315298302750 0
force Se  -0.039054361832629  -0.017789993134379  -0.012936336958065 0
force Se   0.071736287108956   0.044929195382706  -0.049777170073236 0
force Se   0.018624703386462  -0.002209844857607   0.026158893885613 0
force Se  -0.022828294017107  -0.072074037052307  -0.050196048632571 0
force Se  -0.040462421742051  -0.030528743002374  -0.093635788804622 0
force Se   0.025246615383322   0.043407220530747  -0.008558435208277 0
force Se  -0.009230930603901   0.041054764839917   0.058182182649491 0
force Se   0.035384814590800   0.055469725700958  -0.000057662143777 0
force Se   0.015682294605853  -0.032547822940151  -0.011269615190111 0
force Se   0.012304089614217  -0.026817223612230   0.000541887706823 0
force Se  -0.053399245266351   0.025167882436938  -0.041148610595837 0
force Se   0.035425485931134   0.010682365078537   0.048325720221541 0
force Se  -0.015143960732738  -0.010803727592406   0.021180599378859 0
force Se   0.004370567643897   0.034528917117021  -0.093116971303349 0

# Energy components:
   A_diel =       -0.1411378678077977
   Eewald =     4638.4025826154384049
       EH =     5539.1889545373387591
     Eloc =   -11552.9400960786897485
      Enl =       91.2405931618532975
      Exc =     -473.1114433423149421
 Exc_core =      305.3785494907119187
       KE =      298.7651287360541232
  MuShift =        0.0268019639804028
-------------------------------------
     Etot =    -1153.1900667834354408
       TS =        0.0531820439884632
-------------------------------------
        F =    -1153.2432488274239404
      muN =      -74.3865725467173320
-------------------------------------
        G =    -1078.8566762807065516

IonicMinimize: Iter:   0  G: -1078.856676280706552  |grad|_K:  0.000e+00  t[s]:    410.63
IonicMinimize: Converged (|grad|_K<1.000000e-04).

#--- Lowdin population analysis ---
# oxidation-state V +0.776 +0.715 +0.716 +0.714
# oxidation-state Ag -0.633 -0.631 -0.632 -0.645
# oxidation-state P +0.517 +0.506 +0.517 +0.505 +0.369 +0.518 +0.505
# oxidation-state Se +0.090 +0.063 +0.061 +0.092 +0.088 +0.059 +0.085 +0.111 +0.075 +0.062 +0.048 +0.043 +0.062 +0.046 +0.111 +0.046 +0.084 +0.075 +0.047 +0.077 +0.045 +0.085 +0.058 +0.110


Dumping 'NbTe2.fillings' ... done
Dumping 'NbTe2.wfns' ... done
Dumping 'NbTe2.fluidState' ... done
Dumping 'NbTe2.eigenvals' ... done
End date and time: Sat Jul 11 19:07:28 2020  (Duration: 0-0:06:56.94)
Done!
