
*************** JDFTx 1.5.0  ***************

Start date and time: Fri Jul 10 14:31:31 2020
Executable jdftx_gpu with command-line: -i Charged.in -o Charged.out
Running on hosts (process indices):  amax (0)
Divided in process groups (process indices):  0 (0)
gpuInit: Found compatible cuda device 0 'Tesla K80'
gpuInit: Selected device 0
Resource initialization completed at t[s]:     19.27
Run totals: 1 processes, 24 threads, 1 GPUs


Input parsed successfully to the following command list (including defaults):

basis kpoint-dependent
cache-projectors no
coords-type Lattice
core-overlap-check none
coulomb-interaction Slab 001
coulomb-truncation-embed 0 0 0.5
davidson-band-ratio 1.1
dump End State
dump-name NbTe2.$VAR
elec-cutoff 20 100
elec-eigen-algo Davidson
elec-ex-corr gga-PBE
elec-smearing Gauss 0.0073499
electronic-minimize  \
	dirUpdateScheme      FletcherReeves \
	linminMethod         DirUpdateRecommended \
	nIterations          500 \
	history              15 \
	knormThreshold       0 \
	energyDiffThreshold  1e-08 \
	nEnergyDiff          2 \
	alphaTstart          1 \
	alphaTmin            1e-10 \
	updateTestStepSize   yes \
	alphaTreduceFactor   0.1 \
	alphaTincreaseFactor 3 \
	nAlphaAdjustMax      3 \
	wolfeEnergy          0.0001 \
	wolfeGradient        0.9 \
	fdTest               no
exchange-regularization WignerSeitzTruncated
fluid LinearPCM 298.000000 1.013250
fluid-anion F- 1 MeanFieldLJ \
	epsBulk 1 \
	pMol 0 \
	epsInf 1 \
	Pvap 0 \
	sigmaBulk 0 \
	Rvdw 2.24877 \
	Res 0 \
	tauNuc 343133
fluid-cation Na+ 1 MeanFieldLJ \
	epsBulk 1 \
	pMol 0 \
	epsInf 1 \
	Pvap 0 \
	sigmaBulk 0 \
	Rvdw 2.19208 \
	Res 0 \
	tauNuc 343133
fluid-ex-corr lda-TF lda-PZ
fluid-gummel-loop 10 1.000000e-05
fluid-minimize  \
	dirUpdateScheme      PolakRibiere \
	linminMethod         DirUpdateRecommended \
	nIterations          400 \
	history              15 \
	knormThreshold       1e-11 \
	energyDiffThreshold  0 \
	nEnergyDiff          2 \
	alphaTstart          1 \
	alphaTmin            1e-10 \
	updateTestStepSize   yes \
	alphaTreduceFactor   0.1 \
	alphaTincreaseFactor 3 \
	nAlphaAdjustMax      6 \
	wolfeEnergy          0.0001 \
	wolfeGradient        0.9 \
	fdTest               no
fluid-solvent H2O 55.338 ScalarEOS \
	epsBulk 78.4 \
	pMol 0.92466 \
	epsInf 1.77 \
	Pvap 1.06736e-10 \
	sigmaBulk 4.62e-05 \
	Rvdw 2.61727 \
	Res 1.42 \
	tauNuc 343133 \
	poleEl 15 7 1
forces-output-coords Positions
initial-state NbTe2.$VAR
ion Bi   0.384133687338441   0.657308242987105   0.660447865028821 0
ion Bi   0.865866286661565   0.657308242987105   0.660447865028821 0
ion Bi   0.125000000000000   0.339190338220315   0.343712773784231 0
ion Bi   0.625000012999998   0.338374861218874   0.343621265432529 0
ion Bi   0.373878399406298   0.299994981305798   0.412971305260341 0
ion Bi   0.876121574593707   0.299994981305798   0.412971305260341 0
ion Bi   0.125000000000000   0.691502249758642   0.586868763968068 0
ion Bi   0.625000012999998   0.701298370694092   0.589172541463180 0
ion Bi   0.376969313711022   0.077758707829818   0.383876880414826 0
ion Bi   0.873030660288983   0.077758707829818   0.383876880414826 0
ion Bi   0.125000000000000   0.914433843122398   0.621832257256598 0
ion Bi   0.625000012999998   0.930746146026250   0.623688424981922 0
ion Bi   0.374693596059624   0.973139911286359   0.555959543103309 0
ion Bi   0.875306377940382   0.973139911286359   0.555959543103309 0
ion Bi   0.125000000000000   0.025404672798676   0.449364098812153 0
ion Bi   0.625000012999998   0.026236451778371   0.450980253391529 0
ion Bi   0.376613352293233   0.200446434006915   0.580806851540216 0
ion Bi   0.873386621706772   0.200446434006915   0.580806851540216 0
ion Bi   0.125000000000000   0.799296167037932   0.422656613634160 0
ion Bi   0.625000012999998   0.800795421270573   0.423995929319892 0
ion Bi   0.371914102078498   0.754446905378075   0.492350177999424 0
ion Bi   0.878085871921507   0.754446905378075   0.492350177999424 0
ion Bi   0.125000000000000   0.240412260781595   0.511127388852920 0
ion Bi   0.625000012999998   0.246360230213617   0.512353803105262 0
ion Bi   0.390338238510877   0.532222534998704   0.462818420267657 0
ion Bi   0.859661735489128   0.532222534998704   0.462818420267657 0
ion Bi   0.125000000000000   0.472826619291017   0.524041877870901 0
ion Bi   0.625000012999998   0.477646323692323   0.533371668230238 0
ion Bi   0.125000000000000   0.563643216975644   0.364950181444599 0
ion Bi   0.625000012999998   0.563752840919515   0.364040239198115 0
ion Bi   0.319404668721959   0.449397405991909   0.622943461273189 0
ion Bi   0.930595305278046   0.449397405991909   0.622943461273189 0
ion Bi   0.125000000000000   0.385630059668959   0.702654896406749 0
ion Bi   0.373035440619878   0.610566164904808   0.295901250301804 0
ion Bi   0.876964533380127   0.610566164904808   0.295901250301804 0
ion I   0.125000000000000   0.589045195813493   0.749264669294202 0
ion I   0.625000012999998   0.602967401678836   0.735865434747821 0
ion I   0.375313856631631   0.400799781140085   0.254251721715006 0
ion I   0.874686117368373   0.400799781140085   0.254251721715006 0
ion I   0.125000000000000   0.155955895479208   0.674715230028667 0
ion I   0.625000012999998   0.164956137969894   0.667375153639350 0
ion I   0.377726476925313   0.835897348465318   0.330467181663852 0
ion I   0.872273497074692   0.835897348465318   0.330467181663852 0
ion-species GBRV/$ID_pbe.uspp
ion-width Ecut
ionic-minimize  \
	dirUpdateScheme      L-BFGS \
	linminMethod         DirUpdateRecommended \
	nIterations          0 \
	history              15 \
	knormThreshold       0.0001 \
	energyDiffThreshold  1e-06 \
	nEnergyDiff          2 \
	alphaTstart          1 \
	alphaTmin            1e-10 \
	updateTestStepSize   yes \
	alphaTreduceFactor   0.1 \
	alphaTincreaseFactor 3 \
	nAlphaAdjustMax      3 \
	wolfeEnergy          0.0001 \
	wolfeGradient        0.9 \
	fdTest               no
kpoint   0.000000000000   0.000000000000   0.000000000000  1.00000000000000
kpoint-folding 4 3 1 
latt-move-scale 1 1 1
latt-scale 1 1 1 
lattice Triclinic 16.7699 25.1035 56.5964 90 90 90
lattice-minimize  \
	dirUpdateScheme      L-BFGS \
	linminMethod         DirUpdateRecommended \
	nIterations          0 \
	history              15 \
	knormThreshold       0 \
	energyDiffThreshold  1e-06 \
	nEnergyDiff          2 \
	alphaTstart          1 \
	alphaTmin            1e-10 \
	updateTestStepSize   yes \
	alphaTreduceFactor   0.1 \
	alphaTincreaseFactor 3 \
	nAlphaAdjustMax      3 \
	wolfeEnergy          0.0001 \
	wolfeGradient        0.9 \
	fdTest               no
lcao-params -1 1e-06 0.0073499
pcm-variant CANDLE
spintype no-spin
subspace-rotation-factor 1 yes
symmetries automatic
symmetry-threshold 0.0001
target-mu -0.24475 no




---------- Setting up symmetries ----------

Found 8 point-group symmetries of the bravais lattice
Found 2 space-group symmetries with basis
Applied RMS atom displacement 1.77956e-07 bohrs to make symmetries exact.

---------- Initializing the Grid ----------
R = 
[    16.7699          0          0  ]
[          0    25.1035          0  ]
[          0          0    56.5964  ]
unit cell volume = 23826.2
G =
[    0.37467          0          0  ]
[          0   0.250291          0  ]
[          0          0   0.111017  ]
Minimum fftbox size, Smin = [  76  116  256  ]
Chosen fftbox size, S = [  80  120  256  ]

---------- Initializing tighter grid for wavefunction operations ----------
R = 
[    16.7699          0          0  ]
[          0    25.1035          0  ]
[          0          0    56.5964  ]
unit cell volume = 23826.2
G =
[    0.37467          0          0  ]
[          0   0.250291          0  ]
[          0          0   0.111017  ]
Minimum fftbox size, Smin = [  68  104  228  ]
Chosen fftbox size, S = [  70  108  240  ]

---------- Exchange Correlation functional ----------
Initalized PBE GGA exchange.
Initalized PBE GGA correlation.

---------- Setting up pseudopotentials ----------
Width of ionic core gaussian charges (only for fluid interactions / plotting) set to 0.397384

Reading pseudopotential file '/home/guoxy/vasp/jdftx-1.5.0/build/pseudopotentials/GBRV/bi_pbe.uspp':
  Title: Bi.  Created by USPP 7.3.6 on 14-9-2013
  Reference state energy: -92.204004.  15 valence electrons in orbitals:
    |520>  occupation: 10  eigenvalue: -1.293263
    |600>  occupation: 2  eigenvalue: -0.812524
    |610>  occupation: 2  eigenvalue: -0.420386
  lMax: 2  lLocal: 3  QijEcut: 5
  6 projectors sampled on a log grid with 747 points:
    l: 0  eig: -0.812524  rCut: 2.5
    l: 0  eig: 0.500000  rCut: 2.5
    l: 1  eig: -0.420386  rCut: 2.5
    l: 1  eig: 1.000000  rCut: 2.5
    l: 2  eig: -1.293263  rCut: 2.3
    l: 2  eig: -0.500000  rCut: 2.3
  Partial core density with radius 1
  Transforming core density to a uniform radial grid of dG=0.02 with 1282 points.
  Transforming local potential to a uniform radial grid of dG=0.02 with 1282 points.
  Transforming nonlocal projectors to a uniform radial grid of dG=0.02 with 432 points.
  Transforming density augmentations to a uniform radial grid of dG=0.02 with 1282 points.
  Transforming atomic orbitals to a uniform radial grid of dG=0.02 with 432 points.
  Core radius for overlap checks: 2.50 bohrs.

Reading pseudopotential file '/home/guoxy/vasp/jdftx-1.5.0/build/pseudopotentials/GBRV/i_pbe.uspp':
  Title: I.  Created by USPP 7.3.6 on 14-9-2013
  Reference state energy: -32.770235.  7 valence electrons in orbitals:
    |500>  occupation: 2  eigenvalue: -0.639712
    |510>  occupation: 5  eigenvalue: -0.260406
  lMax: 2  lLocal: 3  QijEcut: 5
  6 projectors sampled on a log grid with 725 points:
    l: 0  eig: -0.639710  rCut: 1.9
    l: 0  eig: 0.000000  rCut: 1.9
    l: 1  eig: -0.260404  rCut: 2
    l: 1  eig: 0.000000  rCut: 2
    l: 2  eig: -0.500000  rCut: 2.45
    l: 2  eig: 0.500000  rCut: 2.45
  Partial core density with radius 1.3
  Transforming core density to a uniform radial grid of dG=0.02 with 1282 points.
  Transforming local potential to a uniform radial grid of dG=0.02 with 1282 points.
  Transforming nonlocal projectors to a uniform radial grid of dG=0.02 with 432 points.
  Transforming density augmentations to a uniform radial grid of dG=0.02 with 1282 points.
  Transforming atomic orbitals to a uniform radial grid of dG=0.02 with 432 points.
  Core radius for overlap checks: 2.45 bohrs.

Initialized 2 species with 43 total atoms.

Folded 1 k-points by 4x3x1 to 12 k-points.

---------- Setting up k-points, bands, fillings ----------
Adding inversion symmetry to k-mesh for non-inversion-symmetric unit cell.
Reduced to 6 k-points under symmetry. 
Computing the number of bands and number of electrons
Reading initial fillings from file NbTe2.fillings.
nElectrons: 581.000000   nBands: 347   nStates: 6

----- Setting up reduced wavefunction bases (one per k-point) -----
average nbasis = 101802.417 , ideal nbasis = 101787.256

---------- Setting up coulomb interaction ----------
Fluid mode embedding: using embedded box, but periodic Coulomb kernel.
(Fluid response is responsible for (approximate) separation between periodic images.)
Setting up double-sized grid for truncated Coulomb potentials:
R = 
[    16.7699          0          0  ]
[          0    25.1035          0  ]
[          0          0    113.193  ]
unit cell volume = 47652.4
G =
[    0.37467          0          0  ]
[          0   0.250291          0  ]
[          0          0  0.0555087  ]
Chosen fftbox size, S = [  80  120  512  ]
Integer grid location selected as the embedding center:
   Grid: [  0  0  128  ]
   Lattice: [  0  0  0.5  ]
   Cartesian: [  0  0  28.2982  ]
Constructing Wigner-Seitz cell: 6 faces (6 quadrilaterals, 0 hexagons)
Range-separation parameter for embedded mesh potentials due to point charges: 0.593177 bohrs.

Initializing van der Waals corrections
	NOTE: vdW corrections apply only for interactions with fluid.
	Bi:  C6:  893.28 Eh-a0^6  R0: 3.555 a0 (WARNING: beyond Grimme's data set)
	 I:  C6:  546.38 Eh-a0^6  R0: 3.575 a0

---------- Setting up ewald sum ----------
Optimum gaussian width for ewald sums = 7.727283 bohr.
Real space sum over 585 unit cells with max indices [  6  4  2  ]
Reciprocal space sum over 7007 terms with max indices [  5  6  24  ]

---------- Allocating electronic variables ----------
Initializing wave functions:  reading from 'NbTe2.wfns'
----- createFluidSolver() ----- (Fluid-side solver setup)
   Initializing fluid molecule 'H2O'
     Initializing site 'O'
       Electron density: proportional to exp(-r/0.36935)*erfc((r-0.51523)/0.36823) with norm 6.826
       Charge density: gaussian nuclear width 0.478731 with net site charge 0.826
       Polarizability: cuspless exponential with width 0.32 and norm 3.73
       Hard sphere radius: 2.57003 bohrs
       Positions in reference frame:
         [ +0.000000 +0.000000 +0.000000 ]
     Initializing site 'H'
       Electron density: proportional to exp(-r/0.34641)*erfc((r-0)/0.390882) with norm 0.587
       Charge density: gaussian nuclear width 0.377945 with net site charge -0.413
       Polarizability: cuspless exponential with width 0.39 and norm 3.3
       Positions in reference frame:
         [ +0.000000 -1.441945 +1.122523 ]
         [ +0.000000 +1.441945 +1.122523 ]
     Net charge: 0   dipole magnitude: 0.927204
     Initializing spherical shell mfKernel with radius 2.61727 Bohr
     deltaS corrections:
       site 'O': -7.54299
       site 'H': -6.83917
   Initializing fluid molecule 'Na+'
     Initializing site 'Na'
       Electron density: proportional to exp(-r/0.19682)*erfc((r-0.71491)/0.41314) with norm 8.1383
       Charge density: gaussian nuclear width 0.365347 with net site charge -1
       Hard sphere radius: 1.86327 bohrs
       Positions in reference frame:
         [ +0.000000 +0.000000 +0.000000 ]
     Net charge: -1   dipole magnitude: 0
     Initializing gaussian mfKernel with width: 1.55004 Bohr
     deltaS corrections:
       site 'Na': -22.3555
   Initializing fluid molecule 'F-'
     Initializing site 'F'
       Electron density: proportional to exp(-r/0.38886)*erfc((r-0)/0.438782) with norm 8
       Charge density: gaussian nuclear width 0.374796 with net site charge 1
       Hard sphere radius: 2.39995 bohrs
       Positions in reference frame:
         [ +0.000000 +0.000000 +0.000000 ]
     Net charge: 1   dipole magnitude: 0
     Initializing gaussian mfKernel with width: 1.59012 Bohr
     deltaS corrections:
       site 'F': -9.04335

Correction to mu due to finite nuclear width = -0.0120974
   Cavity determined by nc: 0.00142 and sigma: 0.707107
   Nonlocal vdW cavity from gaussian model electron density with norm = 8 and sigma = 0.993594 bohr
   Charge asymmetry in cavity with sensitivity pCavity = 36.5 e-bohr/Eh
   Electrostatic cavity expanded by eta = 1.46 bohrs
   Weighted density cavitation model constrained by Nbulk: 0.0049383 bohr^-3, Pvap: 3.14029 kPa, Rvdw: 2.61727 bohr and sigmaBulk: 4.62e-05 Eh/bohr^2 at T: 298 K.
   Weighted density dispersion model using vdW pair potentials with single solvent site with sqrtC6eff: 0.77 SI.
Reading fluid state from 'NbTe2.fluidState'


---- Citations for features of the code used in this run ----

   Software package:
      R. Sundararaman, K. Letchworth-Weaver, K.A. Schwarz, D. Gunceler, Y. Ozhabes and T.A. Arias, 'JDFTx: software for joint density-functional theory', SoftwareX 6, 278 (2017)

   gga-PBE exchange-correlation functional:
      J.P. Perdew, K. Burke and M. Ernzerhof, Phys. Rev. Lett. 77, 3865 (1996)

   Pseudopotentials:
      KF Garrity, JW Bennett, KM Rabe and D Vanderbilt, Comput. Mater. Sci. 81, 446 (2014)

   Truncated Coulomb potentials:
      R. Sundararaman and T.A. Arias, Phys. Rev. B 87, 165122 (2013)

   Van der Waals correction pair-potentials:
      S. Grimme, J. Comput. Chem. 27, 1787 (2006)

   Charge-asymmetric nonlocally-determined local-electric (CANDLE) solvation model:
      R. Sundararaman and W.A. Goddard III, J. Chem. Phys. 142, 064107 (2015)

   Total energy minimization with Auxiliary Hamiltonian:
      C. Freysoldt, S. Boeck, and J. Neugebauer, Phys. Rev. B 79, 241103(R) (2009)

   Grand-canonical (fixed-potential) DFT:
      R. Sundararaman, W. A. Goddard III and T. A. Arias, J. Chem. Phys. 146, 114104 (2017)

This list may not be complete. Please suggest additional citations or
report any other bugs at https://github.com/shankar1729/jdftx/issues

Initialization completed successfully at t[s]:     74.23

Shifting auxilliary hamiltonian by -0.072518 to set nElectrons=581.000000
	Linear fluid (dielectric constant: 78.4, screening length: 5.74355 Bohr) occupying 0.708514 of unit cell:	Completed after 0 iterations at t[s]:     86.15

-------- Electronic minimization -----------
	Linear fluid (dielectric constant: 78.4, screening length: 5.74355 Bohr) occupying 0.708514 of unit cell:	Completed after 0 iterations at t[s]:     99.27

Stack trace:
	 0: /home/guoxy/vasp/jdftx-1.5.0/build/libjdftx_gpu.so(_Z10printStackb+0x34) [0x2b9b5fdb8ed4]
	 1: /home/guoxy/vasp/jdftx-1.5.0/build/libjdftx_gpu.so(_Z14stackTraceExiti+0xd) [0x2b9b5fdb93cd]
	 2: /home/guoxy/vasp/jdftx-1.5.0/build/libjdftx_gpu.so(_Z7Vnl_gpuILi0ELi0EEviii7vector3IdEPKS0_IiE7matrix3IdEPKS1_RK15RadialFunctionGP7complexS8_+0x1e4) [0x2b9b60054d44]
	 3: /home/guoxy/vasp/jdftx-1.5.0/build/libjdftx_gpu.so(_ZNK11SpeciesInfo4getVERK12ColumnBundlePK7vector3IdE+0x355) [0x2b9b5fee0175]
	 4: /home/guoxy/vasp/jdftx-1.5.0/build/libjdftx_gpu.so(_ZNK11SpeciesInfo14augmentOverlapERK12ColumnBundleRS0_P6matrix+0x127) [0x2b9b5fed44e7]
	 5: /home/guoxy/vasp/jdftx-1.5.0/build/libjdftx_gpu.so(_ZNK7IonInfo14augmentOverlapERK12ColumnBundleRS0_PSt6vectorI6matrixSaIS5_EE+0x188) [0x2b9b5fe96548]
	 6: /home/guoxy/vasp/jdftx-1.5.0/build/libjdftx_gpu.so(_Z1ORK12ColumnBundlePSt6vectorI6matrixSaIS3_EE+0xae) [0x2b9b5fdd71be]
	 7: /home/guoxy/vasp/jdftx-1.5.0/build/libjdftx_gpu.so(_ZN8ElecVars17elecEnergyAndGradER8EnergiesP12ElecGradientS3_b+0x51e) [0x2b9b5fe40c4e]
	 8: /home/guoxy/vasp/jdftx-1.5.0/build/libjdftx_gpu.so(_ZN13ElecMinimizer7computeEP12ElecGradientS1_+0x88) [0x2b9b5fe339b8]
	 9: /home/guoxy/vasp/jdftx-1.5.0/build/libjdftx_gpu.so(_ZN11MinimizableI12ElecGradientE8minimizeERK14MinimizeParams+0x13b) [0x2b9b5fe3ad7b]
	10: /home/guoxy/vasp/jdftx-1.5.0/build/libjdftx_gpu.so(_Z12elecMinimizeR10Everything+0xb0) [0x2b9b5fe368e0]
	11: /home/guoxy/vasp/jdftx-1.5.0/build/libjdftx_gpu.so(_Z17elecFluidMinimizeR10Everything+0xe6) [0x2b9b5fe37016]
	12: /home/guoxy/vasp/jdftx-1.5.0/build/libjdftx_gpu.so(+0x3b2009) [0x2b9b5fe9c009]
	13: /home/guoxy/vasp/jdftx-1.5.0/build/libjdftx_gpu.so(_ZN11MinimizableI13IonicGradientE5lBFGSERK14MinimizeParams+0x9b) [0x2b9b5fe9e2ab]
	14: /home/guoxy/vasp/jdftx-1.5.0/build/libjdftx_gpu.so(_ZN11MinimizableI13IonicGradientE8minimizeERK14MinimizeParams+0x8d5) [0x2b9b5fe9fb85]
	15: /home/guoxy/vasp/jdftx-1.5.0/build/libjdftx_gpu.so(_ZN14IonicMinimizer8minimizeERK14MinimizeParams+0xd) [0x2b9b5fe9c40d]
	16: jdftx_gpu(main+0xe39) [0x405cb9]
	17: /lib/x86_64-linux-gnu/libc.so.6(__libc_start_main+0xf0) [0x2b9b60bd1830]
	18: jdftx_gpu(_start+0x29) [0x406d59]
Writing 'jdftx-stacktrace' (for use with script printStackTrace): done.

*************** JDFTx 1.5.0  ***************

Start date and time: Fri Jul 10 21:05:59 2020
Executable jdftx_gpu with command-line: -i Charged.in -o Charged.out
Running on hosts (process indices):  amax (0)
Divided in process groups (process indices):  0 (0)
gpuInit: Found compatible cuda device 0 'Tesla K80'
gpuInit: Selected device 0
Resource initialization completed at t[s]:      8.81
Run totals: 1 processes, 24 threads, 1 GPUs


Input parsed successfully to the following command list (including defaults):

basis kpoint-dependent
cache-projectors no
coords-type Lattice
core-overlap-check none
coulomb-interaction Slab 001
coulomb-truncation-embed 0 0 0.5
davidson-band-ratio 1.1
dump End State
dump-name NbTe2.$VAR
elec-cutoff 20 100
elec-eigen-algo Davidson
elec-ex-corr gga-PBE
elec-smearing Gauss 0.0073499
electronic-minimize  \
	dirUpdateScheme      FletcherReeves \
	linminMethod         DirUpdateRecommended \
	nIterations          100 \
	history              15 \
	knormThreshold       0 \
	energyDiffThreshold  1e-08 \
	nEnergyDiff          2 \
	alphaTstart          1 \
	alphaTmin            1e-10 \
	updateTestStepSize   yes \
	alphaTreduceFactor   0.1 \
	alphaTincreaseFactor 3 \
	nAlphaAdjustMax      3 \
	wolfeEnergy          0.0001 \
	wolfeGradient        0.9 \
	fdTest               no
electronic-scf  \
	nIterations	500 \
	energyDiffThreshold	1e-08 \
	residualThreshold	1e-07 \
	mixFraction	0.5 \
	qMetric	0.8 \
	history	10 \
	nEigSteps	2 \
	eigDiffThreshold	1e-08 \
	mixedVariable	Density \
	qKerker	0.8 \
	qKappa	-1 \
	verbose	no \
	mixFractionMag	1.5
exchange-regularization WignerSeitzTruncated
fluid LinearPCM 298.000000 1.013250
fluid-anion F- 1 MeanFieldLJ \
	epsBulk 1 \
	pMol 0 \
	epsInf 1 \
	Pvap 0 \
	sigmaBulk 0 \
	Rvdw 2.24877 \
	Res 0 \
	tauNuc 343133
fluid-cation Na+ 1 MeanFieldLJ \
	epsBulk 1 \
	pMol 0 \
	epsInf 1 \
	Pvap 0 \
	sigmaBulk 0 \
	Rvdw 2.19208 \
	Res 0 \
	tauNuc 343133
fluid-ex-corr lda-TF lda-PZ
fluid-gummel-loop 10 1.000000e-05
fluid-minimize  \
	dirUpdateScheme      PolakRibiere \
	linminMethod         DirUpdateRecommended \
	nIterations          400 \
	history              15 \
	knormThreshold       1e-11 \
	energyDiffThreshold  0 \
	nEnergyDiff          2 \
	alphaTstart          1 \
	alphaTmin            1e-10 \
	updateTestStepSize   yes \
	alphaTreduceFactor   0.1 \
	alphaTincreaseFactor 3 \
	nAlphaAdjustMax      6 \
	wolfeEnergy          0.0001 \
	wolfeGradient        0.9 \
	fdTest               no
fluid-solvent H2O 55.338 ScalarEOS \
	epsBulk 78.4 \
	pMol 0.92466 \
	epsInf 1.77 \
	Pvap 1.06736e-10 \
	sigmaBulk 4.62e-05 \
	Rvdw 2.61727 \
	Res 1.42 \
	tauNuc 343133 \
	poleEl 15 7 1
forces-output-coords Positions
initial-state NbTe2.$VAR
ion Bi   0.384133687338441   0.657308242987105   0.660447865028821 0
ion Bi   0.865866286661565   0.657308242987105   0.660447865028821 0
ion Bi   0.125000000000000   0.339190338220315   0.343712773784231 0
ion Bi   0.625000012999998   0.338374861218874   0.343621265432529 0
ion Bi   0.373878399406298   0.299994981305798   0.412971305260341 0
ion Bi   0.876121574593707   0.299994981305798   0.412971305260341 0
ion Bi   0.125000000000000   0.691502249758642   0.586868763968068 0
ion Bi   0.625000012999998   0.701298370694092   0.589172541463180 0
ion Bi   0.376969313711022   0.077758707829818   0.383876880414826 0
ion Bi   0.873030660288983   0.077758707829818   0.383876880414826 0
ion Bi   0.125000000000000   0.914433843122398   0.621832257256598 0
ion Bi   0.625000012999998   0.930746146026250   0.623688424981922 0
ion Bi   0.374693596059624   0.973139911286359   0.555959543103309 0
ion Bi   0.875306377940382   0.973139911286359   0.555959543103309 0
ion Bi   0.125000000000000   0.025404672798676   0.449364098812153 0
ion Bi   0.625000012999998   0.026236451778371   0.450980253391529 0
ion Bi   0.376613352293233   0.200446434006915   0.580806851540216 0
ion Bi   0.873386621706772   0.200446434006915   0.580806851540216 0
ion Bi   0.125000000000000   0.799296167037932   0.422656613634160 0
ion Bi   0.625000012999998   0.800795421270573   0.423995929319892 0
ion Bi   0.371914102078498   0.754446905378075   0.492350177999424 0
ion Bi   0.878085871921507   0.754446905378075   0.492350177999424 0
ion Bi   0.125000000000000   0.240412260781595   0.511127388852920 0
ion Bi   0.625000012999998   0.246360230213617   0.512353803105262 0
ion Bi   0.390338238510877   0.532222534998704   0.462818420267657 0
ion Bi   0.859661735489128   0.532222534998704   0.462818420267657 0
ion Bi   0.125000000000000   0.472826619291017   0.524041877870901 0
ion Bi   0.625000012999998   0.477646323692323   0.533371668230238 0
ion Bi   0.125000000000000   0.563643216975644   0.364950181444599 0
ion Bi   0.625000012999998   0.563752840919515   0.364040239198115 0
ion Bi   0.319404668721959   0.449397405991909   0.622943461273189 0
ion Bi   0.930595305278046   0.449397405991909   0.622943461273189 0
ion Bi   0.125000000000000   0.385630059668959   0.702654896406749 0
ion Bi   0.373035440619878   0.610566164904808   0.295901250301804 0
ion Bi   0.876964533380127   0.610566164904808   0.295901250301804 0
ion I   0.125000000000000   0.589045195813493   0.749264669294202 0
ion I   0.625000012999998   0.602967401678836   0.735865434747821 0
ion I   0.375313856631631   0.400799781140085   0.254251721715006 0
ion I   0.874686117368373   0.400799781140085   0.254251721715006 0
ion I   0.125000000000000   0.155955895479208   0.674715230028667 0
ion I   0.625000012999998   0.164956137969894   0.667375153639350 0
ion I   0.377726476925313   0.835897348465318   0.330467181663852 0
ion I   0.872273497074692   0.835897348465318   0.330467181663852 0
ion-species GBRV/$ID_pbe.uspp
ion-width Ecut
ionic-minimize  \
	dirUpdateScheme      L-BFGS \
	linminMethod         DirUpdateRecommended \
	nIterations          0 \
	history              15 \
	knormThreshold       0.0001 \
	energyDiffThreshold  1e-06 \
	nEnergyDiff          2 \
	alphaTstart          1 \
	alphaTmin            1e-10 \
	updateTestStepSize   yes \
	alphaTreduceFactor   0.1 \
	alphaTincreaseFactor 3 \
	nAlphaAdjustMax      3 \
	wolfeEnergy          0.0001 \
	wolfeGradient        0.9 \
	fdTest               no
kpoint   0.000000000000   0.000000000000   0.000000000000  1.00000000000000
kpoint-folding 4 3 1 
latt-move-scale 1 1 1
latt-scale 1 1 1 
lattice Triclinic 16.7699 25.1035 56.5964 90 90 90
lattice-minimize  \
	dirUpdateScheme      L-BFGS \
	linminMethod         DirUpdateRecommended \
	nIterations          0 \
	history              15 \
	knormThreshold       0 \
	energyDiffThreshold  1e-06 \
	nEnergyDiff          2 \
	alphaTstart          1 \
	alphaTmin            1e-10 \
	updateTestStepSize   yes \
	alphaTreduceFactor   0.1 \
	alphaTincreaseFactor 3 \
	nAlphaAdjustMax      3 \
	wolfeEnergy          0.0001 \
	wolfeGradient        0.9 \
	fdTest               no
lcao-params -1 1e-06 0.0073499
pcm-variant CANDLE
spintype no-spin
subspace-rotation-factor 1 yes
symmetries automatic
symmetry-threshold 0.0001
target-mu -0.24475 no




---------- Setting up symmetries ----------

Found 8 point-group symmetries of the bravais lattice
Found 2 space-group symmetries with basis
Applied RMS atom displacement 1.77956e-07 bohrs to make symmetries exact.

---------- Initializing the Grid ----------
R = 
[    16.7699          0          0  ]
[          0    25.1035          0  ]
[          0          0    56.5964  ]
unit cell volume = 23826.2
G =
[    0.37467          0          0  ]
[          0   0.250291          0  ]
[          0          0   0.111017  ]
Minimum fftbox size, Smin = [  76  116  256  ]
Chosen fftbox size, S = [  80  120  256  ]

---------- Initializing tighter grid for wavefunction operations ----------
R = 
[    16.7699          0          0  ]
[          0    25.1035          0  ]
[          0          0    56.5964  ]
unit cell volume = 23826.2
G =
[    0.37467          0          0  ]
[          0   0.250291          0  ]
[          0          0   0.111017  ]
Minimum fftbox size, Smin = [  68  104  228  ]
Chosen fftbox size, S = [  70  108  240  ]

---------- Exchange Correlation functional ----------
Initalized PBE GGA exchange.
Initalized PBE GGA correlation.

---------- Setting up pseudopotentials ----------
Width of ionic core gaussian charges (only for fluid interactions / plotting) set to 0.397384

Reading pseudopotential file '/home/guoxy/vasp/jdftx-1.5.0/build/pseudopotentials/GBRV/bi_pbe.uspp':
  Title: Bi.  Created by USPP 7.3.6 on 14-9-2013
  Reference state energy: -92.204004.  15 valence electrons in orbitals:
    |520>  occupation: 10  eigenvalue: -1.293263
    |600>  occupation: 2  eigenvalue: -0.812524
    |610>  occupation: 2  eigenvalue: -0.420386
  lMax: 2  lLocal: 3  QijEcut: 5
  6 projectors sampled on a log grid with 747 points:
    l: 0  eig: -0.812524  rCut: 2.5
    l: 0  eig: 0.500000  rCut: 2.5
    l: 1  eig: -0.420386  rCut: 2.5
    l: 1  eig: 1.000000  rCut: 2.5
    l: 2  eig: -1.293263  rCut: 2.3
    l: 2  eig: -0.500000  rCut: 2.3
  Partial core density with radius 1
  Transforming core density to a uniform radial grid of dG=0.02 with 1282 points.
  Transforming local potential to a uniform radial grid of dG=0.02 with 1282 points.
  Transforming nonlocal projectors to a uniform radial grid of dG=0.02 with 432 points.
  Transforming density augmentations to a uniform radial grid of dG=0.02 with 1282 points.
  Transforming atomic orbitals to a uniform radial grid of dG=0.02 with 432 points.
  Core radius for overlap checks: 2.50 bohrs.

Reading pseudopotential file '/home/guoxy/vasp/jdftx-1.5.0/build/pseudopotentials/GBRV/i_pbe.uspp':
  Title: I.  Created by USPP 7.3.6 on 14-9-2013
  Reference state energy: -32.770235.  7 valence electrons in orbitals:
    |500>  occupation: 2  eigenvalue: -0.639712
    |510>  occupation: 5  eigenvalue: -0.260406
  lMax: 2  lLocal: 3  QijEcut: 5
  6 projectors sampled on a log grid with 725 points:
    l: 0  eig: -0.639710  rCut: 1.9
    l: 0  eig: 0.000000  rCut: 1.9
    l: 1  eig: -0.260404  rCut: 2
    l: 1  eig: 0.000000  rCut: 2
    l: 2  eig: -0.500000  rCut: 2.45
    l: 2  eig: 0.500000  rCut: 2.45
  Partial core density with radius 1.3
  Transforming core density to a uniform radial grid of dG=0.02 with 1282 points.
  Transforming local potential to a uniform radial grid of dG=0.02 with 1282 points.
  Transforming nonlocal projectors to a uniform radial grid of dG=0.02 with 432 points.
  Transforming density augmentations to a uniform radial grid of dG=0.02 with 1282 points.
  Transforming atomic orbitals to a uniform radial grid of dG=0.02 with 432 points.
  Core radius for overlap checks: 2.45 bohrs.

Initialized 2 species with 43 total atoms.

Folded 1 k-points by 4x3x1 to 12 k-points.

---------- Setting up k-points, bands, fillings ----------
Adding inversion symmetry to k-mesh for non-inversion-symmetric unit cell.
Reduced to 6 k-points under symmetry. 
Computing the number of bands and number of electrons
Reading initial fillings from file NbTe2.fillings.
nElectrons: 581.000000   nBands: 347   nStates: 6

----- Setting up reduced wavefunction bases (one per k-point) -----
average nbasis = 101802.417 , ideal nbasis = 101787.256

---------- Setting up coulomb interaction ----------
Fluid mode embedding: using embedded box, but periodic Coulomb kernel.
(Fluid response is responsible for (approximate) separation between periodic images.)
Setting up double-sized grid for truncated Coulomb potentials:
R = 
[    16.7699          0          0  ]
[          0    25.1035          0  ]
[          0          0    113.193  ]
unit cell volume = 47652.4
G =
[    0.37467          0          0  ]
[          0   0.250291          0  ]
[          0          0  0.0555087  ]
Chosen fftbox size, S = [  80  120  512  ]
Integer grid location selected as the embedding center:
   Grid: [  0  0  128  ]
   Lattice: [  0  0  0.5  ]
   Cartesian: [  0  0  28.2982  ]
Constructing Wigner-Seitz cell: 6 faces (6 quadrilaterals, 0 hexagons)
Range-separation parameter for embedded mesh potentials due to point charges: 0.593177 bohrs.

Initializing van der Waals corrections
	NOTE: vdW corrections apply only for interactions with fluid.
	Bi:  C6:  893.28 Eh-a0^6  R0: 3.555 a0 (WARNING: beyond Grimme's data set)
	 I:  C6:  546.38 Eh-a0^6  R0: 3.575 a0

---------- Setting up ewald sum ----------
Optimum gaussian width for ewald sums = 7.727283 bohr.
Real space sum over 585 unit cells with max indices [  6  4  2  ]
Reciprocal space sum over 7007 terms with max indices [  5  6  24  ]

---------- Allocating electronic variables ----------
Initializing wave functions:  reading from 'NbTe2.wfns'
----- createFluidSolver() ----- (Fluid-side solver setup)
   Initializing fluid molecule 'H2O'
     Initializing site 'O'
       Electron density: proportional to exp(-r/0.36935)*erfc((r-0.51523)/0.36823) with norm 6.826
       Charge density: gaussian nuclear width 0.478731 with net site charge 0.826
       Polarizability: cuspless exponential with width 0.32 and norm 3.73
       Hard sphere radius: 2.57003 bohrs
       Positions in reference frame:
         [ +0.000000 +0.000000 +0.000000 ]
     Initializing site 'H'
       Electron density: proportional to exp(-r/0.34641)*erfc((r-0)/0.390882) with norm 0.587
       Charge density: gaussian nuclear width 0.377945 with net site charge -0.413
       Polarizability: cuspless exponential with width 0.39 and norm 3.3
       Positions in reference frame:
         [ +0.000000 -1.441945 +1.122523 ]
         [ +0.000000 +1.441945 +1.122523 ]
     Net charge: 0   dipole magnitude: 0.927204
     Initializing spherical shell mfKernel with radius 2.61727 Bohr
     deltaS corrections:
       site 'O': -7.54299
       site 'H': -6.83917
   Initializing fluid molecule 'Na+'
     Initializing site 'Na'
       Electron density: proportional to exp(-r/0.19682)*erfc((r-0.71491)/0.41314) with norm 8.1383
       Charge density: gaussian nuclear width 0.365347 with net site charge -1
       Hard sphere radius: 1.86327 bohrs
       Positions in reference frame:
         [ +0.000000 +0.000000 +0.000000 ]
     Net charge: -1   dipole magnitude: 0
     Initializing gaussian mfKernel with width: 1.55004 Bohr
     deltaS corrections:
       site 'Na': -22.3555
   Initializing fluid molecule 'F-'
     Initializing site 'F'
       Electron density: proportional to exp(-r/0.38886)*erfc((r-0)/0.438782) with norm 8
       Charge density: gaussian nuclear width 0.374796 with net site charge 1
       Hard sphere radius: 2.39995 bohrs
       Positions in reference frame:
         [ +0.000000 +0.000000 +0.000000 ]
     Net charge: 1   dipole magnitude: 0
     Initializing gaussian mfKernel with width: 1.59012 Bohr
     deltaS corrections:
       site 'F': -9.04335

Correction to mu due to finite nuclear width = -0.0120974
   Cavity determined by nc: 0.00142 and sigma: 0.707107
   Nonlocal vdW cavity from gaussian model electron density with norm = 8 and sigma = 0.993594 bohr
   Charge asymmetry in cavity with sensitivity pCavity = 36.5 e-bohr/Eh
   Electrostatic cavity expanded by eta = 1.46 bohrs
   Weighted density cavitation model constrained by Nbulk: 0.0049383 bohr^-3, Pvap: 3.14029 kPa, Rvdw: 2.61727 bohr and sigmaBulk: 4.62e-05 Eh/bohr^2 at T: 298 K.
   Weighted density dispersion model using vdW pair potentials with single solvent site with sqrtC6eff: 0.77 SI.
Reading fluid state from 'NbTe2.fluidState'


---- Citations for features of the code used in this run ----

   Software package:
      R. Sundararaman, K. Letchworth-Weaver, K.A. Schwarz, D. Gunceler, Y. Ozhabes and T.A. Arias, 'JDFTx: software for joint density-functional theory', SoftwareX 6, 278 (2017)

   gga-PBE exchange-correlation functional:
      J.P. Perdew, K. Burke and M. Ernzerhof, Phys. Rev. Lett. 77, 3865 (1996)

   Pseudopotentials:
      KF Garrity, JW Bennett, KM Rabe and D Vanderbilt, Comput. Mater. Sci. 81, 446 (2014)

   Truncated Coulomb potentials:
      R. Sundararaman and T.A. Arias, Phys. Rev. B 87, 165122 (2013)

   Van der Waals correction pair-potentials:
      S. Grimme, J. Comput. Chem. 27, 1787 (2006)

   Charge-asymmetric nonlocally-determined local-electric (CANDLE) solvation model:
      R. Sundararaman and W.A. Goddard III, J. Chem. Phys. 142, 064107 (2015)

   Grand-canonical (fixed-potential) DFT:
      R. Sundararaman, W. A. Goddard III and T. A. Arias, J. Chem. Phys. 146, 114104 (2017)

This list may not be complete. Please suggest additional citations or
report any other bugs at https://github.com/shankar1729/jdftx/issues

Initialization completed successfully at t[s]:     26.96

Shifting auxilliary hamiltonian by -0.072518 to set nElectrons=581.000000
	Linear fluid (dielectric constant: 78.4, screening length: 5.74355 Bohr) occupying 0.708514 of unit cell:	Completed after 0 iterations at t[s]:     40.83

-------- Electronic minimization -----------
Will mix electronic density at each iteration.
	FillingsUpdate:  mu: -0.244750400  nElectrons: 581.000000
	Linear fluid (dielectric constant: 78.4, screening length: 5.74355 Bohr) occupying 0.708514 of unit cell:	Completed after 0 iterations at t[s]:     55.29
	FillingsUpdate:  mu: -0.244750400  nElectrons: 506.363821
	Linear fluid (dielectric constant: 78.4, screening length: 5.74355 Bohr) occupying 0.719780 of unit cell:	Completed after 97 iterations at t[s]:    192.76
SCF: Cycle:  0   G: -2368.973180480863903   dG: +9.741e+01   |Residual|: 9.581e-01   |deigs|: 2.118e-06  t[s]:    194.98
	Linear fluid (dielectric constant: 78.4, screening length: 5.74355 Bohr) occupying 0.690351 of unit cell:	Completed after 33 iterations at t[s]:    199.69
	FillingsUpdate:  mu: -0.244750400  nElectrons: 654.733228
	Linear fluid (dielectric constant: 78.4, screening length: 5.74355 Bohr) occupying 0.758444 of unit cell:	Completed after 37 iterations at t[s]:    335.75
SCF: Cycle:  1   G: -2332.214287192428401   dG: +3.676e+01   |Residual|: 1.115e+00   |deigs|: 2.008e-01  t[s]:    337.68
	Linear fluid (dielectric constant: 78.4, screening length: 5.74355 Bohr) occupying 0.690155 of unit cell:	Completed after 30 iterations at t[s]:    341.94
	FillingsUpdate:  mu: -0.244750400  nElectrons: 581.230410
	Linear fluid (dielectric constant: 78.4, screening length: 5.74355 Bohr) occupying 0.714392 of unit cell:	Completed after 28 iterations at t[s]:    475.66
SCF: Cycle:  2   G: -2466.155936804359044   dG: -1.339e+02   |Residual|: 2.637e-01   |deigs|: 1.269e-01  t[s]:    477.62
	Linear fluid (dielectric constant: 78.4, screening length: 5.74355 Bohr) occupying 0.688999 of unit cell:	Completed after 23 iterations at t[s]:    480.96
	FillingsUpdate:  mu: -0.244750400  nElectrons: 580.044208
	Linear fluid (dielectric constant: 78.4, screening length: 5.74355 Bohr) occupying 0.713287 of unit cell:	Completed after 28 iterations at t[s]:    612.98
SCF: Cycle:  3   G: -2466.375050405129059   dG: -2.191e-01   |Residual|: 1.490e-01   |deigs|: 5.104e-03  t[s]:    615.14
	Linear fluid (dielectric constant: 78.4, screening length: 5.74355 Bohr) occupying 0.687138 of unit cell:	Completed after 22 iterations at t[s]:    618.45
	FillingsUpdate:  mu: -0.244750400  nElectrons: 574.757799
	Linear fluid (dielectric constant: 78.4, screening length: 5.74355 Bohr) occupying 0.713086 of unit cell:	Completed after 28 iterations at t[s]:    766.15
SCF: Cycle:  4   G: -2466.102041784850371   dG: +2.730e-01   |Residual|: 6.664e-02   |deigs|: 8.970e-03  t[s]:    768.31
	Linear fluid (dielectric constant: 78.4, screening length: 5.74355 Bohr) occupying 0.685182 of unit cell:	Completed after 22 iterations at t[s]:    771.69
	FillingsUpdate:  mu: -0.244750400  nElectrons: 574.477111
	Linear fluid (dielectric constant: 78.4, screening length: 5.74355 Bohr) occupying 0.713183 of unit cell:	Completed after 28 iterations at t[s]:    905.07
SCF: Cycle:  5   G: -2466.028313718544268   dG: +7.373e-02   |Residual|: 6.095e-02   |deigs|: 7.895e-04  t[s]:    907.36
	Linear fluid (dielectric constant: 78.4, screening length: 5.74355 Bohr) occupying 0.682747 of unit cell:	Completed after 20 iterations at t[s]:    910.48
	FillingsUpdate:  mu: -0.244750400  nElectrons: 573.787536
	Linear fluid (dielectric constant: 78.4, screening length: 5.74355 Bohr) occupying 0.713472 of unit cell:	Completed after 28 iterations at t[s]:   1109.80
SCF: Cycle:  6   G: -2465.879272014031812   dG: +1.490e-01   |Residual|: 7.029e-02   |deigs|: 8.821e-04  t[s]:   1112.75
	Linear fluid (dielectric constant: 78.4, screening length: 5.74355 Bohr) occupying 0.680269 of unit cell:	Completed after 20 iterations at t[s]:   1116.81
	FillingsUpdate:  mu: -0.244750400  nElectrons: 573.730824
	Linear fluid (dielectric constant: 78.4, screening length: 5.74355 Bohr) occupying 0.713879 of unit cell:	Completed after 28 iterations at t[s]:   1271.27
SCF: Cycle:  7   G: -2465.903541142943141   dG: -2.427e-02   |Residual|: 7.105e-02   |deigs|: 1.741e-04  t[s]:   1274.29
	Linear fluid (dielectric constant: 78.4, screening length: 5.74355 Bohr) occupying 0.679350 of unit cell:	Completed after 20 iterations at t[s]:   1278.72
	FillingsUpdate:  mu: -0.244750400  nElectrons: 574.312353
	Linear fluid (dielectric constant: 78.4, screening length: 5.74355 Bohr) occupying 0.714267 of unit cell:	Completed after 28 iterations at t[s]:   1443.35
SCF: Cycle:  8   G: -2466.076630467576251   dG: -1.731e-01   |Residual|: 5.916e-02   |deigs|: 7.902e-04  t[s]:   1446.68
	Linear fluid (dielectric constant: 78.4, screening length: 5.74355 Bohr) occupying 0.679848 of unit cell:	Completed after 20 iterations at t[s]:   1450.62
	FillingsUpdate:  mu: -0.244750400  nElectrons: 574.308808
	Linear fluid (dielectric constant: 78.4, screening length: 5.74355 Bohr) occupying 0.715046 of unit cell:	Completed after 28 iterations at t[s]:   1603.34
SCF: Cycle:  9   G: -2466.126477152692587   dG: -4.985e-02   |Residual|: 5.096e-02   |deigs|: 2.516e-04  t[s]:   1605.99
	Linear fluid (dielectric constant: 78.4, screening length: 5.74355 Bohr) occupying 0.683146 of unit cell:	Completed after 21 iterations at t[s]:   1609.85
	FillingsUpdate:  mu: -0.244750400  nElectrons: 575.522335
	Linear fluid (dielectric constant: 78.4, screening length: 5.74355 Bohr) occupying 0.715437 of unit cell:	Completed after 26 iterations at t[s]:   1754.13
SCF: Cycle: 10   G: -2466.382683178383559   dG: -2.562e-01   |Residual|: 3.491e-02   |deigs|: 2.013e-03  t[s]:   1756.25
	Linear fluid (dielectric constant: 78.4, screening length: 5.74355 Bohr) occupying 0.697859 of unit cell:	Completed after 24 iterations at t[s]:   1759.72
	FillingsUpdate:  mu: -0.244750400  nElectrons: 574.683955
	Linear fluid (dielectric constant: 78.4, screening length: 5.74355 Bohr) occupying 0.716494 of unit cell:	Completed after 28 iterations at t[s]:   1892.79
SCF: Cycle: 11   G: -2466.297054172399385   dG: +8.563e-02   |Residual|: 3.398e-02   |deigs|: 1.210e-03  t[s]:   1894.92
	Linear fluid (dielectric constant: 78.4, screening length: 5.74355 Bohr) occupying 0.706305 of unit cell:	Completed after 27 iterations at t[s]:   1898.83
	FillingsUpdate:  mu: -0.244750400  nElectrons: 578.872505
	Linear fluid (dielectric constant: 78.4, screening length: 5.74355 Bohr) occupying 0.716810 of unit cell:	Completed after 26 iterations at t[s]:   2042.53
SCF: Cycle: 12   G: -2466.385884219577747   dG: -8.883e-02   |Residual|: 3.018e-02   |deigs|: 7.250e-03  t[s]:   2046.13
	Linear fluid (dielectric constant: 78.4, screening length: 5.74355 Bohr) occupying 0.708719 of unit cell:	Completed after 26 iterations at t[s]:   2051.12
	FillingsUpdate:  mu: -0.244750400  nElectrons: 580.387632
	Linear fluid (dielectric constant: 78.4, screening length: 5.74355 Bohr) occupying 0.716769 of unit cell:	Completed after 28 iterations at t[s]:   2243.19
SCF: Cycle: 13   G: -2466.114466519746657   dG: +2.714e-01   |Residual|: 4.758e-02   |deigs|: 3.181e-03  t[s]:   2247.67
	Linear fluid (dielectric constant: 78.4, screening length: 5.74355 Bohr) occupying 0.709856 of unit cell:	Completed after 27 iterations at t[s]:   2253.73
	FillingsUpdate:  mu: -0.244750400  nElectrons: 579.292462
	Linear fluid (dielectric constant: 78.4, screening length: 5.74355 Bohr) occupying 0.716440 of unit cell:	Completed after 26 iterations at t[s]:   2400.10
SCF: Cycle: 14   G: -2466.352375356401353   dG: -2.379e-01   |Residual|: 3.070e-02   |deigs|: 2.626e-03  t[s]:   2401.78
	Linear fluid (dielectric constant: 78.4, screening length: 5.74355 Bohr) occupying 0.710195 of unit cell:	Completed after 24 iterations at t[s]:   2405.11
	FillingsUpdate:  mu: -0.244750400  nElectrons: 578.799600
	Linear fluid (dielectric constant: 78.4, screening length: 5.74355 Bohr) occupying 0.716181 of unit cell:	Completed after 24 iterations at t[s]:   2532.45
SCF: Cycle: 15   G: -2466.427995040458882   dG: -7.562e-02   |Residual|: 2.141e-02   |deigs|: 1.088e-03  t[s]:   2534.12
	Linear fluid (dielectric constant: 78.4, screening length: 5.74355 Bohr) occupying 0.713528 of unit cell:	Completed after 24 iterations at t[s]:   2537.42
	FillingsUpdate:  mu: -0.244750400  nElectrons: 575.257473
	Linear fluid (dielectric constant: 78.4, screening length: 5.74355 Bohr) occupying 0.715984 of unit cell:	Completed after 25 iterations at t[s]:   2677.65
SCF: Cycle: 16   G: -2466.371310252286548   dG: +5.668e-02   |Residual|: 3.026e-02   |deigs|: 6.030e-03  t[s]:   2679.29
	Linear fluid (dielectric constant: 78.4, screening length: 5.74355 Bohr) occupying 0.714989 of unit cell:	Completed after 25 iterations at t[s]:   2682.75
	FillingsUpdate:  mu: -0.244750400  nElectrons: 575.174931
	Linear fluid (dielectric constant: 78.4, screening length: 5.74355 Bohr) occupying 0.716112 of unit cell:	Completed after 26 iterations at t[s]:   2835.08
SCF: Cycle: 17   G: -2466.368031475784392   dG: +3.279e-03   |Residual|: 2.976e-02   |deigs|: 2.229e-04  t[s]:   2840.49
	Linear fluid (dielectric constant: 78.4, screening length: 5.74355 Bohr) occupying 0.715974 of unit cell:	Completed after 26 iterations at t[s]:   2852.08
	FillingsUpdate:  mu: -0.244750400  nElectrons: 576.841238
	Linear fluid (dielectric constant: 78.4, screening length: 5.74355 Bohr) occupying 0.716278 of unit cell:	Completed after 19 iterations at t[s]:   2983.55
SCF: Cycle: 18   G: -2466.510325890517379   dG: -1.423e-01   |Residual|: 6.194e-03   |deigs|: 2.711e-03  t[s]:   2985.40
	Linear fluid (dielectric constant: 78.4, screening length: 5.74355 Bohr) occupying 0.716267 of unit cell:	Completed after 19 iterations at t[s]:   2988.24
	FillingsUpdate:  mu: -0.244750400  nElectrons: 577.030877
	Linear fluid (dielectric constant: 78.4, screening length: 5.74355 Bohr) occupying 0.716291 of unit cell:	Completed after 17 iterations at t[s]:   3115.19
SCF: Cycle: 19   G: -2466.513299917168297   dG: -2.974e-03   |Residual|: 3.451e-03   |deigs|: 3.731e-04  t[s]:   3117.12
	Linear fluid (dielectric constant: 78.4, screening length: 5.74355 Bohr) occupying 0.716128 of unit cell:	Completed after 16 iterations at t[s]:   3119.61
	FillingsUpdate:  mu: -0.244750400  nElectrons: 577.008224
	Linear fluid (dielectric constant: 78.4, screening length: 5.74355 Bohr) occupying 0.716247 of unit cell:	Completed after 17 iterations at t[s]:   3245.92
SCF: Cycle: 20   G: -2466.513026348786752   dG: +2.736e-04   |Residual|: 3.135e-03   |deigs|: 5.694e-05  t[s]:   3247.56
	Linear fluid (dielectric constant: 78.4, screening length: 5.74355 Bohr) occupying 0.716020 of unit cell:	Completed after 17 iterations at t[s]:   3250.07
	FillingsUpdate:  mu: -0.244750400  nElectrons: 577.084264
	Linear fluid (dielectric constant: 78.4, screening length: 5.74355 Bohr) occupying 0.716229 of unit cell:	Completed after 16 iterations at t[s]:   3376.61
SCF: Cycle: 21   G: -2466.513482733633282   dG: -4.564e-04   |Residual|: 2.096e-03   |deigs|: 1.228e-04  t[s]:   3378.28
	Linear fluid (dielectric constant: 78.4, screening length: 5.74355 Bohr) occupying 0.716155 of unit cell:	Completed after 17 iterations at t[s]:   3380.81
	FillingsUpdate:  mu: -0.244750400  nElectrons: 577.140035
	Linear fluid (dielectric constant: 78.4, screening length: 5.74355 Bohr) occupying 0.716252 of unit cell:	Completed after 13 iterations at t[s]:   3470.06
SCF: Cycle: 22   G: -2466.513658136954291   dG: -1.754e-04   |Residual|: 1.291e-03   |deigs|: 9.410e-05  t[s]:   3471.79
	Linear fluid (dielectric constant: 78.4, screening length: 5.74355 Bohr) occupying 0.716360 of unit cell:	Completed after 13 iterations at t[s]:   3473.92
	FillingsUpdate:  mu: -0.244750400  nElectrons: 577.237477
	Linear fluid (dielectric constant: 78.4, screening length: 5.74355 Bohr) occupying 0.716289 of unit cell:	Completed after 16 iterations at t[s]:   3600.25
SCF: Cycle: 23   G: -2466.513325595245533   dG: +3.325e-04   |Residual|: 1.621e-03   |deigs|: 1.762e-04  t[s]:   3601.87
	Linear fluid (dielectric constant: 78.4, screening length: 5.74355 Bohr) occupying 0.716491 of unit cell:	Completed after 17 iterations at t[s]:   3604.46
	FillingsUpdate:  mu: -0.244750400  nElectrons: 577.167630
	Linear fluid (dielectric constant: 78.4, screening length: 5.74355 Bohr) occupying 0.716304 of unit cell:	Completed after 15 iterations at t[s]:   3693.35
SCF: Cycle: 24   G: -2466.513642430650179   dG: -3.168e-04   |Residual|: 9.228e-04   |deigs|: 1.228e-04  t[s]:   3695.08
	Linear fluid (dielectric constant: 78.4, screening length: 5.74355 Bohr) occupying 0.716510 of unit cell:	Completed after 15 iterations at t[s]:   3697.49
	FillingsUpdate:  mu: -0.244750400  nElectrons: 577.177224
	Linear fluid (dielectric constant: 78.4, screening length: 5.74355 Bohr) occupying 0.716306 of unit cell:	Completed after 16 iterations at t[s]:   3779.27
SCF: Cycle: 25   G: -2466.513610464370686   dG: +3.197e-05   |Residual|: 8.976e-04   |deigs|: 2.662e-05  t[s]:   3781.04
	Linear fluid (dielectric constant: 78.4, screening length: 5.74355 Bohr) occupying 0.716447 of unit cell:	Completed after 15 iterations at t[s]:   3783.43
	FillingsUpdate:  mu: -0.244750400  nElectrons: 577.196413
	Linear fluid (dielectric constant: 78.4, screening length: 5.74355 Bohr) occupying 0.716293 of unit cell:	Completed after 16 iterations at t[s]:   3863.67
SCF: Cycle: 26   G: -2466.513562517664923   dG: +4.795e-05   |Residual|: 9.750e-04   |deigs|: 4.040e-05  t[s]:   3865.39
	Linear fluid (dielectric constant: 78.4, screening length: 5.74355 Bohr) occupying 0.716391 of unit cell:	Completed after 15 iterations at t[s]:   3867.69
	FillingsUpdate:  mu: -0.244750400  nElectrons: 577.186452
	Linear fluid (dielectric constant: 78.4, screening length: 5.74355 Bohr) occupying 0.716283 of unit cell:	Completed after 15 iterations at t[s]:   3949.35
SCF: Cycle: 27   G: -2466.513612221333915   dG: -4.970e-05   |Residual|: 7.607e-04   |deigs|: 2.237e-05  t[s]:   3951.17
	Linear fluid (dielectric constant: 78.4, screening length: 5.74355 Bohr) occupying 0.716294 of unit cell:	Completed after 14 iterations at t[s]:   3953.45
	FillingsUpdate:  mu: -0.244750400  nElectrons: 577.171633
	Linear fluid (dielectric constant: 78.4, screening length: 5.74355 Bohr) occupying 0.716266 of unit cell:	Completed after 14 iterations at t[s]:   4042.45
SCF: Cycle: 28   G: -2466.513660572579283   dG: -4.835e-05   |Residual|: 4.505e-04   |deigs|: 3.553e-05  t[s]:   4044.34
	Linear fluid (dielectric constant: 78.4, screening length: 5.74355 Bohr) occupying 0.716256 of unit cell:	Completed after 12 iterations at t[s]:   4046.36
	FillingsUpdate:  mu: -0.244750400  nElectrons: 577.159781
	Linear fluid (dielectric constant: 78.4, screening length: 5.74355 Bohr) occupying 0.716259 of unit cell:	Completed after 10 iterations at t[s]:   4127.37
SCF: Cycle: 29   G: -2466.513674014911430   dG: -1.344e-05   |Residual|: 3.204e-04   |deigs|: 2.395e-05  t[s]:   4129.05
	Linear fluid (dielectric constant: 78.4, screening length: 5.74355 Bohr) occupying 0.716261 of unit cell:	Completed after 10 iterations at t[s]:   4130.86
	FillingsUpdate:  mu: -0.244750400  nElectrons: 577.147762
	Linear fluid (dielectric constant: 78.4, screening length: 5.74355 Bohr) occupying 0.716260 of unit cell:	Completed after 10 iterations at t[s]:   4212.09
SCF: Cycle: 30   G: -2466.513674701624950   dG: -6.867e-07   |Residual|: 2.546e-04   |deigs|: 2.885e-05  t[s]:   4214.00
	Linear fluid (dielectric constant: 78.4, screening length: 5.74355 Bohr) occupying 0.716248 of unit cell:	Completed after 10 iterations at t[s]:   4215.80
	FillingsUpdate:  mu: -0.244750400  nElectrons: 577.197318
	Linear fluid (dielectric constant: 78.4, screening length: 5.74355 Bohr) occupying 0.716261 of unit cell:	Completed after 13 iterations at t[s]:   4305.47
SCF: Cycle: 31   G: -2466.513625628929731   dG: +4.907e-05   |Residual|: 6.445e-04   |deigs|: 8.500e-05  t[s]:   4307.26
	Linear fluid (dielectric constant: 78.4, screening length: 5.74355 Bohr) occupying 0.716218 of unit cell:	Completed after 14 iterations at t[s]:   4309.56
	FillingsUpdate:  mu: -0.244750400  nElectrons: 577.172373
	Linear fluid (dielectric constant: 78.4, screening length: 5.74355 Bohr) occupying 0.716254 of unit cell:	Completed after 12 iterations at t[s]:   4390.30
SCF: Cycle: 32   G: -2466.513666861786533   dG: -4.123e-05   |Residual|: 3.162e-04   |deigs|: 4.615e-05  t[s]:   4392.09
	Linear fluid (dielectric constant: 78.4, screening length: 5.74355 Bohr) occupying 0.716218 of unit cell:	Completed after 12 iterations at t[s]:   4394.04
	FillingsUpdate:  mu: -0.244750400  nElectrons: 577.161625
	Linear fluid (dielectric constant: 78.4, screening length: 5.74355 Bohr) occupying 0.716254 of unit cell:	Completed after 8 iterations at t[s]:   4475.52
SCF: Cycle: 33   G: -2466.513677161206033   dG: -1.030e-05   |Residual|: 1.892e-04   |deigs|: 2.009e-05  t[s]:   4477.18
	Linear fluid (dielectric constant: 78.4, screening length: 5.74355 Bohr) occupying 0.716229 of unit cell:	Completed after 8 iterations at t[s]:   4478.75
	FillingsUpdate:  mu: -0.244750400  nElectrons: 577.153428
	Linear fluid (dielectric constant: 78.4, screening length: 5.74355 Bohr) occupying 0.716255 of unit cell:	Completed after 8 iterations at t[s]:   4559.87
SCF: Cycle: 34   G: -2466.513676803531780   dG: +3.577e-07   |Residual|: 2.077e-04   |deigs|: 1.663e-05  t[s]:   4561.70
	Linear fluid (dielectric constant: 78.4, screening length: 5.74355 Bohr) occupying 0.716221 of unit cell:	Completed after 4 iterations at t[s]:   4562.84
	FillingsUpdate:  mu: -0.244750400  nElectrons: 577.250971
	Linear fluid (dielectric constant: 78.4, screening length: 5.74355 Bohr) occupying 0.716258 of unit cell:	Completed after 16 iterations at t[s]:   4689.89
SCF: Cycle: 35   G: -2466.513302362357535   dG: +3.744e-04   |Residual|: 1.284e-03   |deigs|: 1.745e-04  t[s]:   4691.81
	Linear fluid (dielectric constant: 78.4, screening length: 5.74355 Bohr) occupying 0.716223 of unit cell:	Completed after 16 iterations at t[s]:   4694.44
	FillingsUpdate:  mu: -0.244750400  nElectrons: 577.168506
	Linear fluid (dielectric constant: 78.4, screening length: 5.74355 Bohr) occupying 0.716255 of unit cell:	Completed after 9 iterations at t[s]:   4775.56
SCF: Cycle: 36   G: -2466.513674574286597   dG: -3.722e-04   |Residual|: 2.573e-04   |deigs|: 1.500e-04  t[s]:   4777.45
	Linear fluid (dielectric constant: 78.4, screening length: 5.74355 Bohr) occupying 0.716223 of unit cell:	Completed after 9 iterations at t[s]:   4779.16
	FillingsUpdate:  mu: -0.244750400  nElectrons: 577.149536
	Linear fluid (dielectric constant: 78.4, screening length: 5.74355 Bohr) occupying 0.716254 of unit cell:	Completed after 10 iterations at t[s]:   4859.26
SCF: Cycle: 37   G: -2466.513675675650575   dG: -1.101e-06   |Residual|: 1.936e-04   |deigs|: 3.299e-05  t[s]:   4861.19
	Linear fluid (dielectric constant: 78.4, screening length: 5.74355 Bohr) occupying 0.716221 of unit cell:	Completed after 9 iterations at t[s]:   4862.92
	FillingsUpdate:  mu: -0.244750400  nElectrons: 577.180338
	Linear fluid (dielectric constant: 78.4, screening length: 5.74355 Bohr) occupying 0.716257 of unit cell:	Completed after 10 iterations at t[s]:   4943.98
SCF: Cycle: 38   G: -2466.513666204634319   dG: +9.471e-06   |Residual|: 3.968e-04   |deigs|: 5.190e-05  t[s]:   4945.63
	Linear fluid (dielectric constant: 78.4, screening length: 5.74355 Bohr) occupying 0.716211 of unit cell:	Completed after 10 iterations at t[s]:   4947.42
	FillingsUpdate:  mu: -0.244750400  nElectrons: 577.153998
	Linear fluid (dielectric constant: 78.4, screening length: 5.74355 Bohr) occupying 0.716253 of unit cell:	Completed after 6 iterations at t[s]:   5028.57
SCF: Cycle: 39   G: -2466.513676570828466   dG: -1.037e-05   |Residual|: 2.522e-04   |deigs|: 4.344e-05  t[s]:   5030.30
	Linear fluid (dielectric constant: 78.4, screening length: 5.74355 Bohr) occupying 0.716212 of unit cell:	Completed after 4 iterations at t[s]:   5031.49
	FillingsUpdate:  mu: -0.244750400  nElectrons: 577.167017
	Linear fluid (dielectric constant: 78.4, screening length: 5.74355 Bohr) occupying 0.716255 of unit cell:	Completed after 10 iterations at t[s]:   5112.81
SCF: Cycle: 40   G: -2466.513673770888545   dG: +2.800e-06   |Residual|: 2.424e-04   |deigs|: 3.111e-05  t[s]:   5114.65
	Linear fluid (dielectric constant: 78.4, screening length: 5.74355 Bohr) occupying 0.716215 of unit cell:	Completed after 9 iterations at t[s]:   5116.33
	FillingsUpdate:  mu: -0.244750400  nElectrons: 577.132979
	Linear fluid (dielectric constant: 78.4, screening length: 5.74355 Bohr) occupying 0.716253 of unit cell:	Completed after 13 iterations at t[s]:   5197.69
SCF: Cycle: 41   G: -2466.513653657234045   dG: +2.011e-05   |Residual|: 3.834e-04   |deigs|: 5.957e-05  t[s]:   5199.74
	Linear fluid (dielectric constant: 78.4, screening length: 5.74355 Bohr) occupying 0.716212 of unit cell:	Completed after 14 iterations at t[s]:   5201.98
	FillingsUpdate:  mu: -0.244750400  nElectrons: 577.156751
	Linear fluid (dielectric constant: 78.4, screening length: 5.74355 Bohr) occupying 0.716254 of unit cell:	Completed after 8 iterations at t[s]:   5282.57
SCF: Cycle: 42   G: -2466.513675795135441   dG: -2.214e-05   |Residual|: 2.038e-04   |deigs|: 4.191e-05  t[s]:   5284.67
	Linear fluid (dielectric constant: 78.4, screening length: 5.74355 Bohr) occupying 0.716211 of unit cell:	Completed after 8 iterations at t[s]:   5286.29
	FillingsUpdate:  mu: -0.244750400  nElectrons: 577.178194
	Linear fluid (dielectric constant: 78.4, screening length: 5.74355 Bohr) occupying 0.716255 of unit cell:	Completed after 12 iterations at t[s]:   5367.78
SCF: Cycle: 43   G: -2466.513664178175986   dG: +1.162e-05   |Residual|: 2.772e-04   |deigs|: 3.988e-05  t[s]:   5369.52
	Linear fluid (dielectric constant: 78.4, screening length: 5.74355 Bohr) occupying 0.716213 of unit cell:	Completed after 11 iterations at t[s]:   5371.43
	FillingsUpdate:  mu: -0.244750400  nElectrons: 577.142517
	Linear fluid (dielectric constant: 78.4, screening length: 5.74355 Bohr) occupying 0.716253 of unit cell:	Completed after 10 iterations at t[s]:   5452.58
SCF: Cycle: 44   G: -2466.513671234845788   dG: -7.057e-06   |Residual|: 3.428e-04   |deigs|: 6.019e-05  t[s]:   5454.44
	Linear fluid (dielectric constant: 78.4, screening length: 5.74355 Bohr) occupying 0.716215 of unit cell:	Completed after 10 iterations at t[s]:   5456.36
	FillingsUpdate:  mu: -0.244750400  nElectrons: 577.159362
	Linear fluid (dielectric constant: 78.4, screening length: 5.74355 Bohr) occupying 0.716255 of unit cell:	Completed after 9 iterations at t[s]:   5537.11
SCF: Cycle: 45   G: -2466.513672519801730   dG: -1.285e-06   |Residual|: 3.130e-04   |deigs|: 3.374e-05  t[s]:   5538.95
	Linear fluid (dielectric constant: 78.4, screening length: 5.74355 Bohr) occupying 0.716218 of unit cell:	Completed after 9 iterations at t[s]:   5540.74
	FillingsUpdate:  mu: -0.244750400  nElectrons: 577.162336
	Linear fluid (dielectric constant: 78.4, screening length: 5.74355 Bohr) occupying 0.716255 of unit cell:	Completed after 5 iterations at t[s]:   5622.02
SCF: Cycle: 46   G: -2466.513677713737252   dG: -5.194e-06   |Residual|: 1.663e-04   |deigs|: 2.254e-05  t[s]:   5623.96
	Linear fluid (dielectric constant: 78.4, screening length: 5.74355 Bohr) occupying 0.716220 of unit cell:	Completed after 3 iterations at t[s]:   5624.94
	FillingsUpdate:  mu: -0.244750400  nElectrons: 577.133722
	Linear fluid (dielectric constant: 78.4, screening length: 5.74355 Bohr) occupying 0.716254 of unit cell:	Completed after 13 iterations at t[s]:   5706.55
SCF: Cycle: 47   G: -2466.513654295873948   dG: +2.342e-05   |Residual|: 3.667e-04   |deigs|: 4.948e-05  t[s]:   5708.27
	Linear fluid (dielectric constant: 78.4, screening length: 5.74355 Bohr) occupying 0.716222 of unit cell:	Completed after 13 iterations at t[s]:   5710.41
	FillingsUpdate:  mu: -0.244750400  nElectrons: 577.150128
	Linear fluid (dielectric constant: 78.4, screening length: 5.74355 Bohr) occupying 0.716255 of unit cell:	Completed after 12 iterations at t[s]:   5791.66
SCF: Cycle: 48   G: -2466.513670519914285   dG: -1.622e-05   |Residual|: 2.602e-04   |deigs|: 3.280e-05  t[s]:   5793.36
	Linear fluid (dielectric constant: 78.4, screening length: 5.74355 Bohr) occupying 0.716229 of unit cell:	Completed after 12 iterations at t[s]:   5795.46
	FillingsUpdate:  mu: -0.244750400  nElectrons: 577.146573
	Linear fluid (dielectric constant: 78.4, screening length: 5.74355 Bohr) occupying 0.716256 of unit cell:	Completed after 11 iterations at t[s]:   5876.93
SCF: Cycle: 49   G: -2466.513670388342689   dG: +1.316e-07   |Residual|: 2.693e-04   |deigs|: 1.123e-05  t[s]:   5878.71
	Linear fluid (dielectric constant: 78.4, screening length: 5.74355 Bohr) occupying 0.716224 of unit cell:	Completed after 12 iterations at t[s]:   5880.68
	FillingsUpdate:  mu: -0.244750400  nElectrons: 577.154347
	Linear fluid (dielectric constant: 78.4, screening length: 5.74355 Bohr) occupying 0.716255 of unit cell:	Completed after 9 iterations at t[s]:   5969.26
SCF: Cycle: 50   G: -2466.513675140231044   dG: -4.752e-06   |Residual|: 1.833e-04   |deigs|: 1.420e-05  t[s]:   5971.02
	Linear fluid (dielectric constant: 78.4, screening length: 5.74355 Bohr) occupying 0.716229 of unit cell:	Completed after 9 iterations at t[s]:   5972.72
	FillingsUpdate:  mu: -0.244750400  nElectrons: 577.156573
	Linear fluid (dielectric constant: 78.4, screening length: 5.74355 Bohr) occupying 0.716256 of unit cell:	Completed after 4 iterations at t[s]:   6053.36
SCF: Cycle: 51   G: -2466.513677726000878   dG: -2.586e-06   |Residual|: 1.099e-04   |deigs|: 1.082e-05  t[s]:   6055.35
	Linear fluid (dielectric constant: 78.4, screening length: 5.74355 Bohr) occupying 0.716238 of unit cell:	Completed after 4 iterations at t[s]:   6056.54
	FillingsUpdate:  mu: -0.244750400  nElectrons: 577.170150
	Linear fluid (dielectric constant: 78.4, screening length: 5.74355 Bohr) occupying 0.716257 of unit cell:	Completed after 12 iterations at t[s]:   6138.30
SCF: Cycle: 52   G: -2466.513663341219399   dG: +1.438e-05   |Residual|: 3.360e-04   |deigs|: 3.301e-05  t[s]:   6140.28
	Linear fluid (dielectric constant: 78.4, screening length: 5.74355 Bohr) occupying 0.716243 of unit cell:	Completed after 11 iterations at t[s]:   6142.33
	FillingsUpdate:  mu: -0.244750400  nElectrons: 577.113819
	Linear fluid (dielectric constant: 78.4, screening length: 5.74355 Bohr) occupying 0.716255 of unit cell:	Completed after 14 iterations at t[s]:   6223.79
SCF: Cycle: 53   G: -2466.513608013348858   dG: +5.533e-05   |Residual|: 6.507e-04   |deigs|: 1.017e-04  t[s]:   6225.48
	Linear fluid (dielectric constant: 78.4, screening length: 5.74355 Bohr) occupying 0.716241 of unit cell:	Completed after 14 iterations at t[s]:   6227.67
	FillingsUpdate:  mu: -0.244750400  nElectrons: 577.118312
	Linear fluid (dielectric constant: 78.4, screening length: 5.74355 Bohr) occupying 0.716256 of unit cell:	Completed after 14 iterations at t[s]:   6309.44
SCF: Cycle: 54   G: -2466.513605539645141   dG: +2.474e-06   |Residual|: 5.891e-04   |deigs|: 1.654e-05  t[s]:   6311.15
	Linear fluid (dielectric constant: 78.4, screening length: 5.74355 Bohr) occupying 0.716230 of unit cell:	Completed after 14 iterations at t[s]:   6313.37
	FillingsUpdate:  mu: -0.244750400  nElectrons: 577.131591
	Linear fluid (dielectric constant: 78.4, screening length: 5.74355 Bohr) occupying 0.716255 of unit cell:	Completed after 14 iterations at t[s]:   6394.24
SCF: Cycle: 55   G: -2466.513643469618273   dG: -3.793e-05   |Residual|: 4.063e-04   |deigs|: 2.397e-05  t[s]:   6395.85
	Linear fluid (dielectric constant: 78.4, screening length: 5.74355 Bohr) occupying 0.716227 of unit cell:	Completed after 14 iterations at t[s]:   6398.20
	FillingsUpdate:  mu: -0.244750400  nElectrons: 577.124264
	Linear fluid (dielectric constant: 78.4, screening length: 5.74355 Bohr) occupying 0.716254 of unit cell:	Completed after 14 iterations at t[s]:   6480.09
SCF: Cycle: 56   G: -2466.513628019433781   dG: +1.545e-05   |Residual|: 5.051e-04   |deigs|: 1.329e-05  t[s]:   6481.95
	Linear fluid (dielectric constant: 78.4, screening length: 5.74355 Bohr) occupying 0.716231 of unit cell:	Completed after 15 iterations at t[s]:   6484.27
	FillingsUpdate:  mu: -0.244750400  nElectrons: 577.125243
	Linear fluid (dielectric constant: 78.4, screening length: 5.74355 Bohr) occupying 0.716255 of unit cell:	Completed after 14 iterations at t[s]:   6554.87
SCF: Cycle: 57   G: -2466.513632589766530   dG: -4.570e-06   |Residual|: 4.869e-04   |deigs|: 2.913e-06  t[s]:   6556.80
	Linear fluid (dielectric constant: 78.4, screening length: 5.74355 Bohr) occupying 0.716232 of unit cell:	Completed after 14 iterations at t[s]:   6559.06
	FillingsUpdate:  mu: -0.244750400  nElectrons: 577.128720
	Linear fluid (dielectric constant: 78.4, screening length: 5.74355 Bohr) occupying 0.716255 of unit cell:	Completed after 14 iterations at t[s]:   6641.91
SCF: Cycle: 58   G: -2466.513638259327763   dG: -5.670e-06   |Residual|: 4.384e-04   |deigs|: 6.304e-06  t[s]:   6644.09
	Linear fluid (dielectric constant: 78.4, screening length: 5.74355 Bohr) occupying 0.716239 of unit cell:	Completed after 14 iterations at t[s]:   6646.42
	FillingsUpdate:  mu: -0.244750400  nElectrons: 577.149507
	Linear fluid (dielectric constant: 78.4, screening length: 5.74355 Bohr) occupying 0.716257 of unit cell:	Completed after 10 iterations at t[s]:   6726.99
SCF: Cycle: 59   G: -2466.513672417377165   dG: -3.416e-05   |Residual|: 2.174e-04   |deigs|: 3.730e-05  t[s]:   6729.03
	Linear fluid (dielectric constant: 78.4, screening length: 5.74355 Bohr) occupying 0.716239 of unit cell:	Completed after 10 iterations at t[s]:   6730.90
	FillingsUpdate:  mu: -0.244750400  nElectrons: 577.166326
	Linear fluid (dielectric constant: 78.4, screening length: 5.74355 Bohr) occupying 0.716258 of unit cell:	Completed after 9 iterations at t[s]:   6811.85
SCF: Cycle: 60   G: -2466.513676471573945   dG: -4.054e-06   |Residual|: 1.838e-04   |deigs|: 2.881e-05  t[s]:   6813.81
	Linear fluid (dielectric constant: 78.4, screening length: 5.74355 Bohr) occupying 0.716255 of unit cell:	Completed after 8 iterations at t[s]:   6815.53
	FillingsUpdate:  mu: -0.244750400  nElectrons: 577.129947
	Linear fluid (dielectric constant: 78.4, screening length: 5.74355 Bohr) occupying 0.716258 of unit cell:	Completed after 14 iterations at t[s]:   6896.25
SCF: Cycle: 61   G: -2466.513639870272073   dG: +3.660e-05   |Residual|: 4.756e-04   |deigs|: 6.383e-05  t[s]:   6898.09
	Linear fluid (dielectric constant: 78.4, screening length: 5.74355 Bohr) occupying 0.716253 of unit cell:	Completed after 15 iterations at t[s]:   6900.52
	FillingsUpdate:  mu: -0.244750400  nElectrons: 577.153095
	Linear fluid (dielectric constant: 78.4, screening length: 5.74355 Bohr) occupying 0.716259 of unit cell:	Completed after 8 iterations at t[s]:   6980.97
SCF: Cycle: 62   G: -2466.513675539731594   dG: -3.567e-05   |Residual|: 2.261e-04   |deigs|: 4.325e-05  t[s]:   6982.75
	Linear fluid (dielectric constant: 78.4, screening length: 5.74355 Bohr) occupying 0.716251 of unit cell:	Completed after 8 iterations at t[s]:   6984.37
	FillingsUpdate:  mu: -0.244750400  nElectrons: 577.171167
	Linear fluid (dielectric constant: 78.4, screening length: 5.74355 Bohr) occupying 0.716259 of unit cell:	Completed after 10 iterations at t[s]:   7066.48
SCF: Cycle: 63   G: -2466.513670105274741   dG: +5.434e-06   |Residual|: 2.848e-04   |deigs|: 3.278e-05  t[s]:   7068.15
	Linear fluid (dielectric constant: 78.4, screening length: 5.74355 Bohr) occupying 0.716245 of unit cell:	Completed after 10 iterations at t[s]:   7069.96
	FillingsUpdate:  mu: -0.244750400  nElectrons: 577.111212
	Linear fluid (dielectric constant: 78.4, screening length: 5.74355 Bohr) occupying 0.716255 of unit cell:	Completed after 14 iterations at t[s]:   7151.20
SCF: Cycle: 64   G: -2466.513606636698114   dG: +6.347e-05   |Residual|: 7.091e-04   |deigs|: 1.017e-04  t[s]:   7152.84
	Linear fluid (dielectric constant: 78.4, screening length: 5.74355 Bohr) occupying 0.716245 of unit cell:	Completed after 14 iterations at t[s]:   7155.00
	FillingsUpdate:  mu: -0.244750400  nElectrons: 577.129240
	Linear fluid (dielectric constant: 78.4, screening length: 5.74355 Bohr) occupying 0.716257 of unit cell:	Completed after 14 iterations at t[s]:   7236.79
SCF: Cycle: 65   G: -2466.513635397786402   dG: -2.876e-05   |Residual|: 4.375e-04   |deigs|: 3.384e-05  t[s]:   7238.48
	Linear fluid (dielectric constant: 78.4, screening length: 5.74355 Bohr) occupying 0.716250 of unit cell:	Completed after 14 iterations at t[s]:   7240.71
	FillingsUpdate:  mu: -0.244750400  nElectrons: 577.133332
	Linear fluid (dielectric constant: 78.4, screening length: 5.74355 Bohr) occupying 0.716257 of unit cell:	Completed after 12 iterations at t[s]:   7322.49
SCF: Cycle: 66   G: -2466.513651780152941   dG: -1.638e-05   |Residual|: 3.603e-04   |deigs|: 1.288e-05  t[s]:   7324.24
	Linear fluid (dielectric constant: 78.4, screening length: 5.74355 Bohr) occupying 0.716249 of unit cell:	Completed after 12 iterations at t[s]:   7326.33
	FillingsUpdate:  mu: -0.244750400  nElectrons: 577.131584
	Linear fluid (dielectric constant: 78.4, screening length: 5.74355 Bohr) occupying 0.716257 of unit cell:	Completed after 12 iterations at t[s]:   7407.57
SCF: Cycle: 67   G: -2466.513639015020090   dG: +1.277e-05   |Residual|: 4.087e-04   |deigs|: 1.057e-05  t[s]:   7409.46
	Linear fluid (dielectric constant: 78.4, screening length: 5.74355 Bohr) occupying 0.716249 of unit cell:	Completed after 12 iterations at t[s]:   7411.47
	FillingsUpdate:  mu: -0.244750400  nElectrons: 577.137537
	Linear fluid (dielectric constant: 78.4, screening length: 5.74355 Bohr) occupying 0.716257 of unit cell:	Completed after 12 iterations at t[s]:   7492.95
SCF: Cycle: 68   G: -2466.513655755482887   dG: -1.674e-05   |Residual|: 3.102e-04   |deigs|: 1.312e-05  t[s]:   7494.64
	Linear fluid (dielectric constant: 78.4, screening length: 5.74355 Bohr) occupying 0.716250 of unit cell:	Completed after 12 iterations at t[s]:   7496.64
	FillingsUpdate:  mu: -0.244750400  nElectrons: 577.135017
	Linear fluid (dielectric constant: 78.4, screening length: 5.74355 Bohr) occupying 0.716257 of unit cell:	Completed after 12 iterations at t[s]:   7569.75
SCF: Cycle: 69   G: -2466.513651670627041   dG: +4.085e-06   |Residual|: 3.396e-04   |deigs|: 4.550e-06  t[s]:   7571.67
	Linear fluid (dielectric constant: 78.4, screening length: 5.74355 Bohr) occupying 0.716245 of unit cell:	Completed after 12 iterations at t[s]:   7573.78
	FillingsUpdate:  mu: -0.244750400  nElectrons: 577.133440
	Linear fluid (dielectric constant: 78.4, screening length: 5.74355 Bohr) occupying 0.716256 of unit cell:	Completed after 12 iterations at t[s]:   7652.31
SCF: Cycle: 70   G: -2466.513646374908149   dG: +5.296e-06   |Residual|: 3.671e-04   |deigs|: 4.489e-06  t[s]:   7654.02
	Linear fluid (dielectric constant: 78.4, screening length: 5.74355 Bohr) occupying 0.716248 of unit cell:	Completed after 12 iterations at t[s]:   7656.07
	FillingsUpdate:  mu: -0.244750400  nElectrons: 577.131299
	Linear fluid (dielectric constant: 78.4, screening length: 5.74355 Bohr) occupying 0.716256 of unit cell:	Completed after 12 iterations at t[s]:   7737.80
SCF: Cycle: 71   G: -2466.513642049437294   dG: +4.325e-06   |Residual|: 3.946e-04   |deigs|: 5.160e-06  t[s]:   7739.82
	Linear fluid (dielectric constant: 78.4, screening length: 5.74355 Bohr) occupying 0.716243 of unit cell:	Completed after 12 iterations at t[s]:   7742.03
	FillingsUpdate:  mu: -0.244750400  nElectrons: 577.148913
	Linear fluid (dielectric constant: 78.4, screening length: 5.74355 Bohr) occupying 0.716257 of unit cell:	Completed after 10 iterations at t[s]:   7822.57
SCF: Cycle: 72   G: -2466.513669440490958   dG: -2.739e-05   |Residual|: 2.191e-04   |deigs|: 3.102e-05  t[s]:   7824.38
	Linear fluid (dielectric constant: 78.4, screening length: 5.74355 Bohr) occupying 0.716244 of unit cell:	Completed after 10 iterations at t[s]:   7826.28
	FillingsUpdate:  mu: -0.244750400  nElectrons: 577.159855
	Linear fluid (dielectric constant: 78.4, screening length: 5.74355 Bohr) occupying 0.716258 of unit cell:	Completed after 4 iterations at t[s]:   7906.50
SCF: Cycle: 73   G: -2466.513677579893283   dG: -8.139e-06   |Residual|: 1.316e-04   |deigs|: 2.379e-05  t[s]:   7908.22
	Linear fluid (dielectric constant: 78.4, screening length: 5.74355 Bohr) occupying 0.716243 of unit cell:	Completed after 3 iterations at t[s]:   7909.23
	FillingsUpdate:  mu: -0.244750400  nElectrons: 577.150139
	Linear fluid (dielectric constant: 78.4, screening length: 5.74355 Bohr) occupying 0.716256 of unit cell:	Completed after 9 iterations at t[s]:   7991.39
SCF: Cycle: 74   G: -2466.513675892942047   dG: +1.687e-06   |Residual|: 2.004e-04   |deigs|: 2.020e-05  t[s]:   7993.25
	Linear fluid (dielectric constant: 78.4, screening length: 5.74355 Bohr) occupying 0.716246 of unit cell:	Completed after 9 iterations at t[s]:   7994.95
	FillingsUpdate:  mu: -0.244750400  nElectrons: 577.162543
	Linear fluid (dielectric constant: 78.4, screening length: 5.74355 Bohr) occupying 0.716258 of unit cell:	Completed after 5 iterations at t[s]:   8075.80
SCF: Cycle: 75   G: -2466.513676658112217   dG: -7.652e-07   |Residual|: 1.720e-04   |deigs|: 2.071e-05  t[s]:   8077.55
	Linear fluid (dielectric constant: 78.4, screening length: 5.74355 Bohr) occupying 0.716245 of unit cell:	Completed after 3 iterations at t[s]:   8078.64
	FillingsUpdate:  mu: -0.244750400  nElectrons: 577.113737
	Linear fluid (dielectric constant: 78.4, screening length: 5.74355 Bohr) occupying 0.716256 of unit cell:	Completed after 14 iterations at t[s]:   8167.69
SCF: Cycle: 76   G: -2466.513586334518095   dG: +9.032e-05   |Residual|: 6.348e-04   |deigs|: 8.931e-05  t[s]:   8169.49
	Linear fluid (dielectric constant: 78.4, screening length: 5.74355 Bohr) occupying 0.716243 of unit cell:	Completed after 14 iterations at t[s]:   8171.81
	FillingsUpdate:  mu: -0.244750400  nElectrons: 577.148083
	Linear fluid (dielectric constant: 78.4, screening length: 5.74355 Bohr) occupying 0.716257 of unit cell:	Completed after 11 iterations at t[s]:   8253.04
SCF: Cycle: 77   G: -2466.513671516245267   dG: -8.518e-05   |Residual|: 2.033e-04   |deigs|: 6.386e-05  t[s]:   8254.84
	Linear fluid (dielectric constant: 78.4, screening length: 5.74355 Bohr) occupying 0.716242 of unit cell:	Completed after 10 iterations at t[s]:   8256.67
	FillingsUpdate:  mu: -0.244750400  nElectrons: 577.158764
	Linear fluid (dielectric constant: 78.4, screening length: 5.74355 Bohr) occupying 0.716257 of unit cell:	Completed after 4 iterations at t[s]:   8336.41
SCF: Cycle: 78   G: -2466.513677291906333   dG: -5.776e-06   |Residual|: 1.154e-04   |deigs|: 1.886e-05  t[s]:   8338.45
	Linear fluid (dielectric constant: 78.4, screening length: 5.74355 Bohr) occupying 0.716242 of unit cell:	Completed after 3 iterations at t[s]:   8339.53
	FillingsUpdate:  mu: -0.244750400  nElectrons: 577.184651
	Linear fluid (dielectric constant: 78.4, screening length: 5.74355 Bohr) occupying 0.716257 of unit cell:	Completed after 12 iterations at t[s]:   8420.97
SCF: Cycle: 79   G: -2466.513635936457376   dG: +4.136e-05   |Residual|: 4.260e-04   |deigs|: 5.425e-05  t[s]:   8422.69
	Linear fluid (dielectric constant: 78.4, screening length: 5.74355 Bohr) occupying 0.716241 of unit cell:	Completed after 12 iterations at t[s]:   8424.72
	FillingsUpdate:  mu: -0.244750400  nElectrons: 577.135870
	Linear fluid (dielectric constant: 78.4, screening length: 5.74355 Bohr) occupying 0.716256 of unit cell:	Completed after 12 iterations at t[s]:   8505.74
SCF: Cycle: 80   G: -2466.513663812786490   dG: -2.788e-05   |Residual|: 3.827e-04   |deigs|: 8.687e-05  t[s]:   8507.45
	Linear fluid (dielectric constant: 78.4, screening length: 5.74355 Bohr) occupying 0.716242 of unit cell:	Completed after 11 iterations at t[s]:   8509.39
	FillingsUpdate:  mu: -0.244750400  nElectrons: 577.143703
	Linear fluid (dielectric constant: 78.4, screening length: 5.74355 Bohr) occupying 0.716257 of unit cell:	Completed after 12 iterations at t[s]:   8590.94
SCF: Cycle: 81   G: -2466.513662315458987   dG: +1.497e-06   |Residual|: 2.880e-04   |deigs|: 2.055e-05  t[s]:   8592.55
	Linear fluid (dielectric constant: 78.4, screening length: 5.74355 Bohr) occupying 0.716243 of unit cell:	Completed after 11 iterations at t[s]:   8594.42
	FillingsUpdate:  mu: -0.244750400  nElectrons: 577.143304
	Linear fluid (dielectric constant: 78.4, screening length: 5.74355 Bohr) occupying 0.716256 of unit cell:	Completed after 12 iterations at t[s]:   8676.15
SCF: Cycle: 82   G: -2466.513667087594513   dG: -4.772e-06   |Residual|: 2.281e-04   |deigs|: 1.362e-05  t[s]:   8678.07
	Linear fluid (dielectric constant: 78.4, screening length: 5.74355 Bohr) occupying 0.716243 of unit cell:	Completed after 12 iterations at t[s]:   8680.19
	FillingsUpdate:  mu: -0.244750400  nElectrons: 577.139945
	Linear fluid (dielectric constant: 78.4, screening length: 5.74355 Bohr) occupying 0.716256 of unit cell:	Completed after 12 iterations at t[s]:   8761.07
SCF: Cycle: 83   G: -2466.513661119026892   dG: +5.969e-06   |Residual|: 2.888e-04   |deigs|: 1.195e-05  t[s]:   8762.79
	Linear fluid (dielectric constant: 78.4, screening length: 5.74355 Bohr) occupying 0.716243 of unit cell:	Completed after 12 iterations at t[s]:   8764.83
	FillingsUpdate:  mu: -0.244750400  nElectrons: 577.131204
	Linear fluid (dielectric constant: 78.4, screening length: 5.74355 Bohr) occupying 0.716256 of unit cell:	Completed after 13 iterations at t[s]:   8846.14
SCF: Cycle: 84   G: -2466.513644585003021   dG: +1.653e-05   |Residual|: 3.905e-04   |deigs|: 1.542e-05  t[s]:   8848.12
	Linear fluid (dielectric constant: 78.4, screening length: 5.74355 Bohr) occupying 0.716242 of unit cell:	Completed after 14 iterations at t[s]:   8850.32
	FillingsUpdate:  mu: -0.244750400  nElectrons: 577.136650
	Linear fluid (dielectric constant: 78.4, screening length: 5.74355 Bohr) occupying 0.716256 of unit cell:	Completed after 12 iterations at t[s]:   8931.98
SCF: Cycle: 85   G: -2466.513658066342032   dG: -1.348e-05   |Residual|: 3.264e-04   |deigs|: 1.096e-05  t[s]:   8933.80
	Linear fluid (dielectric constant: 78.4, screening length: 5.74355 Bohr) occupying 0.716240 of unit cell:	Completed after 12 iterations at t[s]:   8935.88
	FillingsUpdate:  mu: -0.244750400  nElectrons: 577.131702
	Linear fluid (dielectric constant: 78.4, screening length: 5.74355 Bohr) occupying 0.716256 of unit cell:	Completed after 12 iterations at t[s]:   9017.84
SCF: Cycle: 86   G: -2466.513641836015722   dG: +1.623e-05   |Residual|: 4.023e-04   |deigs|: 1.241e-05  t[s]:   9019.69
	Linear fluid (dielectric constant: 78.4, screening length: 5.74355 Bohr) occupying 0.716242 of unit cell:	Completed after 12 iterations at t[s]:   9021.64
	FillingsUpdate:  mu: -0.244750400  nElectrons: 577.156156
	Linear fluid (dielectric constant: 78.4, screening length: 5.74355 Bohr) occupying 0.716257 of unit cell:	Completed after 8 iterations at t[s]:   9103.46
SCF: Cycle: 87   G: -2466.513675326340945   dG: -3.349e-05   |Residual|: 1.864e-04   |deigs|: 4.368e-05  t[s]:   9105.29
	Linear fluid (dielectric constant: 78.4, screening length: 5.74355 Bohr) occupying 0.716243 of unit cell:	Completed after 6 iterations at t[s]:   9106.67
	FillingsUpdate:  mu: -0.244750400  nElectrons: 577.202943
	Linear fluid (dielectric constant: 78.4, screening length: 5.74355 Bohr) occupying 0.716259 of unit cell:	Completed after 14 iterations at t[s]:   9188.48
SCF: Cycle: 88   G: -2466.513590549712262   dG: +8.478e-05   |Residual|: 6.501e-04   |deigs|: 8.467e-05  t[s]:   9190.13
[...]
         [ +0.000000 -1.441945 +1.122523 ]
         [ +0.000000 +1.441945 +1.122523 ]
     Net charge: 0   dipole magnitude: 0.927204
     Initializing spherical shell mfKernel with radius 2.61727 Bohr
     deltaS corrections:
       site 'O': -7.54299
       site 'H': -6.83917
   Initializing fluid molecule 'Na+'
     Initializing site 'Na'
       Electron density: proportional to exp(-r/0.19682)*erfc((r-0.71491)/0.41314) with norm 8.1383
       Charge density: gaussian nuclear width 0.365347 with net site charge -1
       Hard sphere radius: 1.86327 bohrs
       Positions in reference frame:
         [ +0.000000 +0.000000 +0.000000 ]
     Net charge: -1   dipole magnitude: 0
     Initializing gaussian mfKernel with width: 1.55004 Bohr
     deltaS corrections:
       site 'Na': -22.3555
   Initializing fluid molecule 'F-'
     Initializing site 'F'
       Electron density: proportional to exp(-r/0.38886)*erfc((r-0)/0.438782) with norm 8
       Charge density: gaussian nuclear width 0.374796 with net site charge 1
       Hard sphere radius: 2.39995 bohrs
       Positions in reference frame:
         [ +0.000000 +0.000000 +0.000000 ]
     Net charge: 1   dipole magnitude: 0
     Initializing gaussian mfKernel with width: 1.59012 Bohr
     deltaS corrections:
       site 'F': -9.04335

Correction to mu due to finite nuclear width = -0.0120974
   Cavity determined by nc: 0.00142 and sigma: 0.707107
   Nonlocal vdW cavity from gaussian model electron density with norm = 8 and sigma = 0.993594 bohr
   Charge asymmetry in cavity with sensitivity pCavity = 36.5 e-bohr/Eh
   Electrostatic cavity expanded by eta = 1.46 bohrs
   Weighted density cavitation model constrained by Nbulk: 0.0049383 bohr^-3, Pvap: 3.14029 kPa, Rvdw: 2.61727 bohr and sigmaBulk: 4.62e-05 Eh/bohr^2 at T: 298 K.
   Weighted density dispersion model using vdW pair potentials with single solvent site with sqrtC6eff: 0.77 SI.
Reading fluid state from 'NbTe2.fluidState'


---- Citations for features of the code used in this run ----

   Software package:
      R. Sundararaman, K. Letchworth-Weaver, K.A. Schwarz, D. Gunceler, Y. Ozhabes and T.A. Arias, 'JDFTx: software for joint density-functional theory', SoftwareX 6, 278 (2017)

   gga-PBE exchange-correlation functional:
      J.P. Perdew, K. Burke and M. Ernzerhof, Phys. Rev. Lett. 77, 3865 (1996)

   Pseudopotentials:
      KF Garrity, JW Bennett, KM Rabe and D Vanderbilt, Comput. Mater. Sci. 81, 446 (2014)

   Truncated Coulomb potentials:
      R. Sundararaman and T.A. Arias, Phys. Rev. B 87, 165122 (2013)

   Van der Waals correction pair-potentials:
      S. Grimme, J. Comput. Chem. 27, 1787 (2006)

   Charge-asymmetric nonlocally-determined local-electric (CANDLE) solvation model:
      R. Sundararaman and W.A. Goddard III, J. Chem. Phys. 142, 064107 (2015)

   Total energy minimization with Auxiliary Hamiltonian:
      C. Freysoldt, S. Boeck, and J. Neugebauer, Phys. Rev. B 79, 241103(R) (2009)

   Grand-canonical (fixed-potential) DFT:
      R. Sundararaman, W. A. Goddard III and T. A. Arias, J. Chem. Phys. 146, 114104 (2017)

This list may not be complete. Please suggest additional citations or
report any other bugs at https://github.com/shankar1729/jdftx/issues

Initialization completed successfully at t[s]:     50.16

Shifting auxilliary hamiltonian by -0.000000 to set nElectrons=577.139908
	Linear fluid (dielectric constant: 78.4, screening length: 5.74355 Bohr) occupying 0.716257 of unit cell:	Completed after 10 iterations at t[s]:     55.60

-------- Electronic minimization -----------
	Linear fluid (dielectric constant: 78.4, screening length: 5.74355 Bohr) occupying 0.716257 of unit cell:	Completed after 0 iterations at t[s]:     60.59
	FillingsUpdate:  mu: -0.244750400  nElectrons: 577.139908
ElecMinimize: Iter:   0  G: -2466.513664802982476  |grad|_K:  1.384e-06  alpha:  1.000e+00
	Linear fluid (dielectric constant: 78.4, screening length: 5.74355 Bohr) occupying 0.716255 of unit cell:	Completed after 22 iterations at t[s]:     84.10
	Linear fluid (dielectric constant: 78.4, screening length: 5.74355 Bohr) occupying 0.716257 of unit cell:	Completed after 22 iterations at t[s]:     94.90
	FillingsUpdate:  mu: -0.244750400  nElectrons: 577.154772
	SubspaceRotationAdjust: set factor to 0.384
ElecMinimize: Iter:   1  G: -2466.513673688145445  |grad|_K:  1.481e-07  alpha:  2.280e-02  linmin:  5.648e-03  t[s]:    105.73
	Linear fluid (dielectric constant: 78.4, screening length: 5.74355 Bohr) occupying 0.716257 of unit cell:	Completed after 0 iterations at t[s]:    114.87
ElecMinimize: 	Predicted alpha/alphaT>3.000000, increasing alphaT to 6.840086e-02.
	Linear fluid (dielectric constant: 78.4, screening length: 5.74355 Bohr) occupying 0.716257 of unit cell:	Completed after 3 iterations at t[s]:    123.33
	Linear fluid (dielectric constant: 78.4, screening length: 5.74355 Bohr) occupying 0.716257 of unit cell:	Completed after 0 iterations at t[s]:    132.31
	FillingsUpdate:  mu: -0.244750400  nElectrons: 577.154542
	SubspaceRotationAdjust: set factor to 0.243
ElecMinimize: Iter:   2  G: -2466.513674130518666  |grad|_K:  4.495e-08  alpha:  8.884e-02  linmin: -1.125e-02  t[s]:    144.13
	Linear fluid (dielectric constant: 78.4, screening length: 5.74355 Bohr) occupying 0.716257 of unit cell:	Completed after 0 iterations at t[s]:    153.50
ElecMinimize: 	Predicted alpha/alphaT>3.000000, increasing alphaT to 2.665096e-01.
	Linear fluid (dielectric constant: 78.4, screening length: 5.74355 Bohr) occupying 0.716257 of unit cell:	Completed after 3 iterations at t[s]:    162.42
	Linear fluid (dielectric constant: 78.4, screening length: 5.74355 Bohr) occupying 0.716257 of unit cell:	Completed after 0 iterations at t[s]:    170.52
	FillingsUpdate:  mu: -0.244750400  nElectrons: 577.155577
	SubspaceRotationAdjust: set factor to 0.136
ElecMinimize: Iter:   3  G: -2466.513674179472218  |grad|_K:  4.075e-08  alpha:  1.480e-01  linmin:  2.379e-03  t[s]:    180.41
	Linear fluid (dielectric constant: 78.4, screening length: 5.74355 Bohr) occupying 0.716258 of unit cell:	Completed after 0 iterations at t[s]:    190.30
ElecMinimize: 	Predicted alpha/alphaT>3.000000, increasing alphaT to 4.439694e-01.
	Linear fluid (dielectric constant: 78.4, screening length: 5.74355 Bohr) occupying 0.716258 of unit cell:	Completed after 5 iterations at t[s]:    199.74
	Linear fluid (dielectric constant: 78.4, screening length: 5.74355 Bohr) occupying 0.716258 of unit cell:	Completed after 3 iterations at t[s]:    208.64
	FillingsUpdate:  mu: -0.244750400  nElectrons: 577.157088
	SubspaceRotationAdjust: set factor to 0.071
	SubspaceRotationAdjust: resetting CG because factor has changed by 0.0709789
	Linear fluid (dielectric constant: 78.4, screening length: 5.74355 Bohr) occupying 0.716258 of unit cell:	Completed after 0 iterations at t[s]:    223.58
ElecMinimize: 	State modified externally: resetting search direction.
ElecMinimize: Iter:   4  G: -2466.513674288784841  |grad|_K:  2.435e-08  alpha:  1.127e-01
	Linear fluid (dielectric constant: 78.4, screening length: 5.74355 Bohr) occupying 0.716258 of unit cell:	Completed after 0 iterations at t[s]:    243.86
ElecMinimize: 	Predicted alpha/alphaT>3.000000, increasing alphaT to 3.382081e-01.
	Linear fluid (dielectric constant: 78.4, screening length: 5.74355 Bohr) occupying 0.716258 of unit cell:	Completed after 0 iterations at t[s]:    253.18
ElecMinimize: 	Predicted alpha/alphaT>3.000000, increasing alphaT to 1.014624e+00.
	Linear fluid (dielectric constant: 78.4, screening length: 5.74355 Bohr) occupying 0.716258 of unit cell:	Completed after 4 iterations at t[s]:    261.65
	Linear fluid (dielectric constant: 78.4, screening length: 5.74355 Bohr) occupying 0.716258 of unit cell:	Completed after 2 iterations at t[s]:    271.61
ElecMinimize: 	Step increased G by 5.728543e-08, reducing alpha to 2.070549e-02.
	Linear fluid (dielectric constant: 78.4, screening length: 5.74355 Bohr) occupying 0.716258 of unit cell:	Completed after 0 iterations at t[s]:    288.56
	FillingsUpdate:  mu: -0.244750400  nElectrons: 577.157040
	SubspaceRotationAdjust: set factor to 0.041
ElecMinimize: Iter:   5  G: -2466.513674291984898  |grad|_K:  4.384e-08  alpha:  2.071e-02  linmin:  2.972e-02  t[s]:    298.83
ElecMinimize: 	Bad step direction: g.d > 0.
ElecMinimize: 	Undoing step.
	Linear fluid (dielectric constant: 78.4, screening length: 5.74355 Bohr) occupying 0.716258 of unit cell:	Completed after 0 iterations at t[s]:    309.15
ElecMinimize: 	Step failed: resetting search direction.
	FillingsUpdate:  mu: -0.244750400  nElectrons: 577.157040
	SubspaceRotationAdjust: set factor to 0.026
ElecMinimize: Iter:   6  G: -2466.513674291971256  |grad|_K:  3.492e-08  alpha:  0.000e+00
	Linear fluid (dielectric constant: 78.4, screening length: 5.74355 Bohr) occupying 0.716258 of unit cell:	Completed after 0 iterations at t[s]:    329.03
ElecMinimize: 	Wrong curvature in test step, increasing alphaT to 6.211647e-02.
	Linear fluid (dielectric constant: 78.4, screening length: 5.74355 Bohr) occupying 0.716258 of unit cell:	Completed after 0 iterations at t[s]:    334.20
	FillingsUpdate:  mu: -0.244750400  nElectrons: 577.157099
	SubspaceRotationAdjust: set factor to 0.0184
ElecMinimize: Iter:   7  G: -2466.513674302696472  |grad|_K:  2.934e-08  alpha: -1.627e+01  linmin: -4.552e-02  t[s]:    344.09
	Linear fluid (dielectric constant: 78.4, screening length: 5.74355 Bohr) occupying 0.716261 of unit cell:	Completed after 8 iterations at t[s]:    355.14
	Linear fluid (dielectric constant: 78.4, screening length: 5.74355 Bohr) occupying 0.716258 of unit cell:	Completed after 4 iterations at t[s]:    365.36
ElecMinimize: 	Step increased G by 1.078342e-08, reducing alpha to 2.019101e-02.
	Linear fluid (dielectric constant: 78.4, screening length: 5.74355 Bohr) occupying 0.716258 of unit cell:	Completed after 0 iterations at t[s]:    383.17
	FillingsUpdate:  mu: -0.244750400  nElectrons: 577.157176
	SubspaceRotationAdjust: set factor to 0.0101
ElecMinimize: Iter:   8  G: -2466.513674411185093  |grad|_K:  2.812e-08  alpha:  2.019e-02  linmin:  3.943e-02  t[s]:    393.05
ElecMinimize: 	Bad step direction: g.d > 0.
ElecMinimize: 	Undoing step.
	Linear fluid (dielectric constant: 78.4, screening length: 5.74355 Bohr) occupying 0.716258 of unit cell:	Completed after 0 iterations at t[s]:    402.50
ElecMinimize: 	Step failed: resetting search direction.
	FillingsUpdate:  mu: -0.244750400  nElectrons: 577.157176
	SubspaceRotationAdjust: set factor to 0.0116
ElecMinimize: Iter:   9  G: -2466.513674411169177  |grad|_K:  2.415e-08  alpha:  0.000e+00
	Linear fluid (dielectric constant: 78.4, screening length: 5.74355 Bohr) occupying 0.716258 of unit cell:	Completed after 0 iterations at t[s]:    422.58
ElecMinimize: 	Predicted alpha/alphaT>3.000000, increasing alphaT to 6.057302e-02.
	Linear fluid (dielectric constant: 78.4, screening length: 5.74355 Bohr) occupying 0.716258 of unit cell:	Completed after 0 iterations at t[s]:    430.79
ElecMinimize: 	Predicted alpha/alphaT>3.000000, increasing alphaT to 1.817191e-01.
	Linear fluid (dielectric constant: 78.4, screening length: 5.74355 Bohr) occupying 0.716257 of unit cell:	Completed after 0 iterations at t[s]:    439.24
ElecMinimize: 	Predicted alpha/alphaT>3.000000, increasing alphaT to 5.451572e-01.
	Linear fluid (dielectric constant: 78.4, screening length: 5.74355 Bohr) occupying 0.716254 of unit cell:	Completed after 9 iterations at t[s]:    448.45
ElecMinimize: 	Step increased G by 1.613618e-06, reducing alpha to 3.166015e-01.
	Linear fluid (dielectric constant: 78.4, screening length: 5.74355 Bohr) occupying 0.716257 of unit cell:	Completed after 4 iterations at t[s]:    467.44
ElecMinimize: 	Step increased G by 6.114851e-08, reducing alpha to 3.166015e-02.
	Linear fluid (dielectric constant: 78.4, screening length: 5.74355 Bohr) occupying 0.716258 of unit cell:	Completed after 0 iterations at t[s]:    485.32
ElecMinimize: 	Step increased G by 6.187747e-09, reducing alpha to 3.166015e-03.
ElecMinimize: 	Step failed to reduce G after 3 attempts. Quitting step.
ElecMinimize: 	Undoing step.
	Linear fluid (dielectric constant: 78.4, screening length: 5.74355 Bohr) occupying 0.716258 of unit cell:	Completed after 0 iterations at t[s]:    503.56
ElecMinimize: 	Step failed along negative gradient direction.
ElecMinimize: Probably at roundoff error limit. (Stopping)
Setting wave functions to eigenvectors of Hamiltonian

# Ionic positions in lattice coordinates:
ion Bi   0.384133696710532   0.657308242987105   0.660447865028821 0
ion Bi   0.865866296033656   0.657308242987105   0.660447865028821 0
ion Bi   0.124999996372094   0.339190338220315   0.343712773784231 0
ion Bi   0.624999996372094   0.338374861218874   0.343621265432529 0
ion Bi   0.373878408778389   0.299994981305798   0.412971305260341 0
ion Bi   0.876121583965798   0.299994981305798   0.412971305260341 0
ion Bi   0.124999996372094   0.691502249758642   0.586868763968068 0
ion Bi   0.624999996372094   0.701298370694092   0.589172541463180 0
ion Bi   0.376969323083114   0.077758707829818   0.383876880414826 0
ion Bi   0.873030669661074   0.077758707829818   0.383876880414826 0
ion Bi   0.124999996372094   0.914433843122398   0.621832257256598 0
ion Bi   0.624999996372094   0.930746146026250   0.623688424981922 0
ion Bi   0.374693605431715   0.973139911286359   0.555959543103309 0
ion Bi   0.875306387312473   0.973139911286359   0.555959543103309 0
ion Bi   0.124999996372094   0.025404672798676   0.449364098812153 0
ion Bi   0.624999996372094   0.026236451778371   0.450980253391529 0
ion Bi   0.376613361665324   0.200446434006915   0.580806851540216 0
ion Bi   0.873386631078863   0.200446434006915   0.580806851540216 0
ion Bi   0.124999996372094   0.799296167037932   0.422656613634160 0
ion Bi   0.624999996372094   0.800795421270573   0.423995929319892 0
ion Bi   0.371914111450589   0.754446905378075   0.492350177999424 0
ion Bi   0.878085881293599   0.754446905378075   0.492350177999424 0
ion Bi   0.124999996372094   0.240412260781595   0.511127388852920 0
ion Bi   0.624999996372094   0.246360230213617   0.512353803105262 0
ion Bi   0.390338247882968   0.532222534998704   0.462818420267657 0
ion Bi   0.859661744861219   0.532222534998704   0.462818420267657 0
ion Bi   0.124999996372094   0.472826619291017   0.524041877870901 0
ion Bi   0.624999996372094   0.477646323692323   0.533371668230238 0
ion Bi   0.124999996372094   0.563643216975644   0.364950181444599 0
ion Bi   0.624999996372094   0.563752840919515   0.364040239198115 0
ion Bi   0.319404678094050   0.449397405991909   0.622943461273189 0
ion Bi   0.930595314650137   0.449397405991909   0.622943461273189 0
ion Bi   0.124999996372094   0.385630059668959   0.702654896406749 0
ion Bi   0.373035449991969   0.610566164904808   0.295901250301804 0
ion Bi   0.876964542752218   0.610566164904808   0.295901250301804 0
ion I   0.124999996372094   0.589045195813493   0.749264669294202 0
ion I   0.624999996372094   0.602967401678836   0.735865434747821 0
ion I   0.375313866003723   0.400799781140085   0.254251721715006 0
ion I   0.874686126740465   0.400799781140085   0.254251721715006 0
ion I   0.124999996372094   0.155955895479208   0.674715230028667 0
ion I   0.624999996372094   0.164956137969894   0.667375153639350 0
ion I   0.377726486297404   0.835897348465318   0.330467181663852 0
ion I   0.872273506446783   0.835897348465318   0.330467181663852 0


# Forces in Lattice coordinates:
force Bi   0.031484225876958   0.014422860550700   0.613544968669355 0
force Bi  -0.031484225876958   0.014422860550700   0.613544968669355 0
force Bi   0.000000000000000   0.045389472334740  -0.468523612629208 0
force Bi   0.000000000000000   0.038601342880246  -0.439491280954222 0
force Bi   0.003149296810855  -0.004937609341691   0.151492732807170 0
force Bi  -0.003149296810855  -0.004937609341691   0.151492732807170 0
force Bi   0.000000000000000   0.029621738774129  -0.195788904015018 0
force Bi   0.000000000000000   0.017259147627632  -0.121762212578744 0
force Bi  -0.003887526071634  -0.091830654564475  -0.145624661206966 0
force Bi   0.003887526071634  -0.091830654564475  -0.145624661206966 0
force Bi   0.000000000000000   0.102901998272294   0.101725728374817 0
force Bi   0.000000000000000   0.098817618072944   0.143854278924282 0
force Bi  -0.001575210360573   0.004162234662986  -0.125839045431603 0
force Bi   0.001575210360573   0.004162234662986  -0.125839045431603 0
force Bi   0.000000000000000   0.006341799275087   0.116970293220472 0
force Bi   0.000000000000000   0.003864473229917   0.122314330580833 0
force Bi   0.004035403264760  -0.012641457393635   0.358605437491200 0
force Bi  -0.004035403264760  -0.012641457393635   0.358605437491200 0
force Bi   0.000000000000000  -0.004888938790394  -0.302418146338624 0
force Bi   0.000000000000000   0.007232235706921  -0.275295380631402 0
force Bi   0.001700830233445   0.007514127674185   0.075617388712230 0
force Bi  -0.001700830233445   0.007514127674185   0.075617388712230 0
force Bi   0.000000000000000   0.012407101641206  -0.114309830787596 0
force Bi   0.000000000000000   0.024417367323709  -0.148566781175214 0
force Bi   0.014981711593692   0.014235996397763  -0.234108653073053 0
force Bi  -0.014981711593692   0.014235996397763  -0.234108653073053 0
force Bi   0.000000000000000  -0.030136682878481   0.191626272444211 0
force Bi   0.000000000000000  -0.023883100200611   0.168680887019676 0
force Bi   0.000000000000000   0.038916476450624   0.142975816347841 0
force Bi   0.000000000000000   0.024667165843288   0.149895213031586 0
force Bi  -0.030147152425094  -0.054898251796534  -0.146691498061962 0
force Bi   0.030147152425094  -0.054898251796534  -0.146691498061962 0
force Bi   0.000000000000000   0.011022671732815   0.622005229404135 0
force Bi   0.001381980685473  -0.033378856941416  -0.322146588675746 0
force Bi  -0.001381980685473  -0.033378856941416  -0.322146588675746 0
force I   0.000000000000000  -0.075327459893731  -0.512734085811339 0
force I   0.000000000000000   0.025972994094110  -0.493815324077447 0
force I   0.002146850785167   0.072256610542075   0.456218304895279 0
force I  -0.002146850785167   0.072256610542075   0.456218304895279 0
force I   0.000000000000000   0.006159477848352  -0.430228286805409 0
force I   0.000000000000000  -0.065491600268568  -0.480768406615377 0
force I   0.001665695714817  -0.032234820854987   0.390546722900333 0
force I  -0.001665695714817  -0.032234820854987   0.390546722900333 0

# Energy components:
   A_diel =       -0.5317323738057087
   Eewald =    27818.1229064936887880
       EH =    29828.7789391283004079
     Eloc =   -60923.9022619925672188
      Enl =      824.8168488519841048
      Exc =    -1323.0201881776711161
 Exc_core =      896.3847553282944318
       KE =      271.5973930705935118
  MuShift =        0.0464883577925993
-------------------------------------
     Etot =    -2607.7068513133935994
       TS =        0.0662675968387915
-------------------------------------
        F =    -2607.7731189102323697
      muN =     -141.2594445046764235
-------------------------------------
        G =    -2466.5136744055557756

IonicMinimize: Iter:   0  G: -2466.513674405555776  |grad|_K:  0.000e+00  t[s]:    520.05
IonicMinimize: Converged (|grad|_K<1.000000e-04).

#--- Lowdin population analysis ---
# oxidation-state Bi +0.396 +0.396 +0.371 +0.364 -0.037 -0.037 -0.030 -0.069 +0.353 +0.353 +0.350 +0.408 +0.005 +0.005 +0.012 +0.006 +0.236 +0.236 +0.228 +0.235 -0.003 -0.003 -0.023 -0.000 +0.087 +0.087 +0.087 +0.058 -0.055 -0.038 +0.079 +0.079 +0.750 +0.648 +0.648
# oxidation-state I -0.048 -0.032 -0.045 -0.045 -0.184 -0.150 -0.184 -0.184


Dumping 'NbTe2.fillings' ... done
Dumping 'NbTe2.wfns' ... done
Dumping 'NbTe2.fluidState' ... done
Dumping 'NbTe2.eigenvals' ... done
End date and time: Sun Jul 12 10:50:25 2020  (Duration: 0-0:08:45.36)
Done!
