
*************** JDFTx 1.5.0  ***************

Start date and time: Tue Jul 14 15:56:42 2020
Executable jdftx_gpu with command-line: -i Charged.in -o Charged.out
Running on hosts (process indices):  amax (0-3)
Divided in process groups (process indices):  0 (0)  1 (1)  2 (2)  3 (3)
gpuInit: Found compatible cuda device 0 'Tesla K80'
gpuInit: Found compatible cuda device 1 'Tesla K80'
gpuInit: Found compatible cuda device 2 'Tesla K80'
gpuInit: Found compatible cuda device 3 'Tesla K80'
gpuInit: Selected device 0
Resource initialization completed at t[s]:      7.97
Run totals: 4 processes, 24 threads, 4 GPUs


Input parsed successfully to the following command list (including defaults):

basis kpoint-dependent
cache-projectors no
coords-type Lattice
core-overlap-check none
coulomb-interaction Slab 001
coulomb-truncation-embed 0 0 0.5
davidson-band-ratio 1.1
dump End State
dump-name NbTe2.$VAR
elec-cutoff 20 100
elec-eigen-algo Davidson
elec-ex-corr gga-PBE
elec-smearing Gauss 0.0073499
electronic-minimize  \
	dirUpdateScheme      FletcherReeves \
	linminMethod         DirUpdateRecommended \
	nIterations          500 \
	history              15 \
	knormThreshold       0 \
	energyDiffThreshold  1e-08 \
	nEnergyDiff          2 \
	alphaTstart          1 \
	alphaTmin            1e-10 \
	updateTestStepSize   yes \
	alphaTreduceFactor   0.1 \
	alphaTincreaseFactor 3 \
	nAlphaAdjustMax      3 \
	wolfeEnergy          0.0001 \
	wolfeGradient        0.9 \
	fdTest               no
exchange-regularization WignerSeitzTruncated
fluid LinearPCM 298.000000 1.013250
fluid-anion F- 1 MeanFieldLJ \
	epsBulk 1 \
	pMol 0 \
	epsInf 1 \
	Pvap 0 \
	sigmaBulk 0 \
	Rvdw 2.24877 \
	Res 0 \
	tauNuc 343133
fluid-cation Na+ 1 MeanFieldLJ \
	epsBulk 1 \
	pMol 0 \
	epsInf 1 \
	Pvap 0 \
	sigmaBulk 0 \
	Rvdw 2.19208 \
	Res 0 \
	tauNuc 343133
fluid-ex-corr lda-TF lda-PZ
fluid-gummel-loop 10 1.000000e-05
fluid-minimize  \
	dirUpdateScheme      PolakRibiere \
	linminMethod         DirUpdateRecommended \
	nIterations          400 \
	history              15 \
	knormThreshold       1e-11 \
	energyDiffThreshold  0 \
	nEnergyDiff          2 \
	alphaTstart          1 \
	alphaTmin            1e-10 \
	updateTestStepSize   yes \
	alphaTreduceFactor   0.1 \
	alphaTincreaseFactor 3 \
	nAlphaAdjustMax      6 \
	wolfeEnergy          0.0001 \
	wolfeGradient        0.9 \
	fdTest               no
fluid-solvent H2O 55.338 ScalarEOS \
	epsBulk 78.4 \
	pMol 0.92466 \
	epsInf 1.77 \
	Pvap 1.06736e-10 \
	sigmaBulk 4.62e-05 \
	Rvdw 2.61727 \
	Res 1.42 \
	tauNuc 343133 \
	poleEl 15 7 1
forces-output-coords Positions
initial-state NbTe2.$VAR
ion V   0.000003915806342  -0.000007481621683   0.500000013816485 0
ion V   0.333337249139678  -0.000007481621683   0.500000013816485 0
ion V   0.666670582473013  -0.000007481621683   0.500000013816485 0
ion V   0.118360540884399   0.289932764171445   0.496665701501858 0
ion V   0.451693874217734   0.289932764171445   0.496665701501858 0
ion V   0.785027207551070   0.289932764171445   0.496665701501858 0
ion V   0.214966383737691   0.710069878035411   0.503333813334261 0
ion V   0.548299717071027   0.710069878035411   0.503333813334261 0
ion V   0.881633050404356   0.710069878035411   0.503333813334261 0
ion Te   0.148909228743426   0.107618409854826   0.601456291517578 0
ion Te   0.482242562076755   0.107618409854826   0.601456291517578 0
ion Te   0.815575895410091   0.107618409854826   0.601456291517578 0
ion Te   0.184423026760567   0.892384850815033   0.398541853258829 0
ion Te   0.517756360093903   0.892384850815033   0.398541853258829 0
ion Te   0.851089693427232   0.892384850815033   0.398541853258829 0
ion Te   0.258622164666425   0.448319537859820   0.581165873000853 0
ion Te   0.591955497999761   0.448319537859820   0.581165873000853 0
ion Te   0.925288831333097   0.448319537859820   0.581165873000853 0
ion Te   0.074715936147527   0.551693928623516   0.418835227360105 0
ion Te   0.408049269480863   0.551693928623516   0.418835227360105 0
ion Te   0.741382602814198   0.551693928623516   0.418835227360105 0
ion Te   0.035798582517607   0.786008819206182   0.604437843681969 0
ion Te   0.369131915850943   0.786008819206182   0.604437843681969 0
ion Te   0.702465249184278   0.786008819206182   0.604437843681969 0
ion Te   0.297533554069344   0.213979293055448   0.395563382528069 0
ion Te   0.630866887402672   0.213979293055448   0.395563382528069 0
ion Te   0.964200220736008   0.213979293055448   0.395563382528069 0
ion-species GBRV/$ID_pbe.uspp
ion-width Ecut
ionic-minimize  \
	dirUpdateScheme      L-BFGS \
	linminMethod         DirUpdateRecommended \
	nIterations          0 \
	history              15 \
	knormThreshold       0.0001 \
	energyDiffThreshold  1e-06 \
	nEnergyDiff          2 \
	alphaTstart          1 \
	alphaTmin            1e-10 \
	updateTestStepSize   yes \
	alphaTreduceFactor   0.1 \
	alphaTincreaseFactor 3 \
	nAlphaAdjustMax      3 \
	wolfeEnergy          0.0001 \
	wolfeGradient        0.9 \
	fdTest               no
kpoint   0.000000000000   0.000000000000   0.000000000000  1.00000000000000
kpoint-folding 3 4 1 
latt-move-scale 1 1 1
latt-scale 1 1 1 
lattice Triclinic 19.0519 17.837 35.2048 90 90 79.7456
lattice-minimize  \
	dirUpdateScheme      L-BFGS \
	linminMethod         DirUpdateRecommended \
	nIterations          0 \
	history              15 \
	knormThreshold       0 \
	energyDiffThreshold  1e-06 \
	nEnergyDiff          2 \
	alphaTstart          1 \
	alphaTmin            1e-10 \
	updateTestStepSize   yes \
	alphaTreduceFactor   0.1 \
	alphaTincreaseFactor 3 \
	nAlphaAdjustMax      3 \
	wolfeEnergy          0.0001 \
	wolfeGradient        0.9 \
	fdTest               no
lcao-params -1 1e-06 0.0073499
pcm-variant CANDLE
spintype no-spin
subspace-rotation-factor 1 yes
symmetries automatic
symmetry-threshold 0.0001
target-mu -0.171252 no




---------- Setting up symmetries ----------

Found 4 point-group symmetries of the bravais lattice
Found 3 space-group symmetries with basis
Applied RMS atom displacement 3.69487e-14 bohrs to make symmetries exact.

---------- Initializing the Grid ----------
R = 
[    19.0519    3.17532          0  ]
[          0    17.5521          0  ]
[          0          0    35.2048  ]
unit cell volume = 11772.5
G =
[   0.329793 -0.0596624          0  ]
[          0   0.357974          0  ]
[          0          0   0.178475  ]
Minimum fftbox size, Smin = [  88  84  160  ]
Chosen fftbox size, S = [  90  84  160  ]

---------- Initializing tighter grid for wavefunction operations ----------
R = 
[    19.0519    3.17532          0  ]
[          0    17.5521          0  ]
[          0          0    35.2048  ]
unit cell volume = 11772.5
G =
[   0.329793 -0.0596624          0  ]
[          0   0.357974          0  ]
[          0          0   0.178475  ]
Minimum fftbox size, Smin = [  80  72  144  ]
Chosen fftbox size, S = [  80  72  144  ]

---------- Exchange Correlation functional ----------
Initalized PBE GGA exchange.
Initalized PBE GGA correlation.

---------- Setting up pseudopotentials ----------
Width of ionic core gaussian charges (only for fluid interactions / plotting) set to 0.397384

Reading pseudopotential file '/home/guoxy/vasp/jdftx-1.5.0/build/pseudopotentials/GBRV/v_pbe.uspp':
  Title: V.  Created by USPP 7.3.6 on 31-3-15
  Reference state energy: -72.228583.  13 valence electrons in orbitals:
    |300>  occupation: 2  eigenvalue: -2.581040
    |310>  occupation: 6  eigenvalue: -1.618497
    |400>  occupation: 2  eigenvalue: -0.172800
    |320>  occupation: 3  eigenvalue: -0.189802
  lMax: 2  lLocal: 3  QijEcut: 6
  6 projectors sampled on a log grid with 593 points:
    l: 0  eig: -2.581041  rCut: 1.5
    l: 0  eig: -0.172801  rCut: 1.5
    l: 1  eig: -1.618497  rCut: 1.6
    l: 1  eig: 0.150000  rCut: 1.6
    l: 2  eig: -0.189802  rCut: 1.7
    l: 2  eig: 0.150000  rCut: 1.7
  Partial core density with radius 0.8
  Transforming core density to a uniform radial grid of dG=0.02 with 1364 points.
  Transforming local potential to a uniform radial grid of dG=0.02 with 1364 points.
  Transforming nonlocal projectors to a uniform radial grid of dG=0.02 with 432 points.
  Transforming density augmentations to a uniform radial grid of dG=0.02 with 1364 points.
  Transforming atomic orbitals to a uniform radial grid of dG=0.02 with 432 points.
  Core radius for overlap checks: 1.80 bohrs.

Reading pseudopotential file '/home/guoxy/vasp/jdftx-1.5.0/build/pseudopotentials/GBRV/te_pbe.uspp':
  Title: Te.  Created by USPP 7.3.6 on 14-9-2013
  Reference state energy: -13.134220.  6 valence electrons in orbitals:
    |500>  occupation: 2  eigenvalue: -0.555231
    |510>  occupation: 4  eigenvalue: -0.218781
  lMax: 2  lLocal: 2  QijEcut: 5
  5 projectors sampled on a log grid with 723 points:
    l: 0  eig: -0.555229  rCut: 2.1
    l: 0  eig: 1.000000  rCut: 2.1
    l: 1  eig: -0.218780  rCut: 2.1
    l: 1  eig: 1.000000  rCut: 2.1
    l: 2  eig: 1.000000  rCut: 2.6
  Partial core density with radius 1.8
  Transforming core density to a uniform radial grid of dG=0.02 with 1364 points.
  Transforming local potential to a uniform radial grid of dG=0.02 with 1364 points.
  Transforming nonlocal projectors to a uniform radial grid of dG=0.02 with 432 points.
  Transforming density augmentations to a uniform radial grid of dG=0.02 with 1364 points.
  Transforming atomic orbitals to a uniform radial grid of dG=0.02 with 432 points.
  Core radius for overlap checks: 2.60 bohrs.

Initialized 2 species with 27 total atoms.

Folded 1 k-points by 3x4x1 to 12 k-points.

---------- Setting up k-points, bands, fillings ----------
Adding inversion symmetry to k-mesh for non-inversion-symmetric unit cell.
Reduced to 7 k-points under symmetry. 
Computing the number of bands and number of electrons
Reading initial fillings from file NbTe2.fillings.
nElectrons: 225.000000   nBands: 162   nStates: 7

----- Setting up reduced wavefunction bases (one per k-point) -----
average nbasis = 50306.750 , ideal nbasis = 50293.014

---------- Setting up coulomb interaction ----------
Fluid mode embedding: using embedded box, but periodic Coulomb kernel.
(Fluid response is responsible for (approximate) separation between periodic images.)
Setting up double-sized grid for truncated Coulomb potentials:
R = 
[    19.0519    3.17532          0  ]
[          0    17.5521          0  ]
[          0          0    70.4095  ]
unit cell volume = 23545
G =
[   0.329793 -0.0596624          0  ]
[          0   0.357974          0  ]
[          0          0  0.0892377  ]
Chosen fftbox size, S = [  90  84  320  ]
Integer grid location selected as the embedding center:
   Grid: [  0  0  80  ]
   Lattice: [  0  0  0.5  ]
   Cartesian: [  0  0  17.6024  ]
Constructing Wigner-Seitz cell: 8 faces (6 quadrilaterals, 2 hexagons)
Range-separation parameter for embedded mesh potentials due to point charges: 0.591767 bohrs.

Initializing van der Waals corrections
	NOTE: vdW corrections apply only for interactions with fluid.
	 V:  C6:  187.33 Eh-a0^6  R0: 2.952 a0
	Te:  C6:  550.54 Eh-a0^6  R0: 3.575 a0

---------- Setting up ewald sum ----------
Optimum gaussian width for ewald sums = 6.601597 bohr.
Real space sum over 605 unit cells with max indices [  5  5  2  ]
Reciprocal space sum over 6253 terms with max indices [  6  6  18  ]

---------- Allocating electronic variables ----------
Initializing wave functions:  reading from 'NbTe2.wfns'
----- createFluidSolver() ----- (Fluid-side solver setup)
   Initializing fluid molecule 'H2O'
     Initializing site 'O'
       Electron density: proportional to exp(-r/0.36935)*erfc((r-0.51523)/0.36823) with norm 6.826
       Charge density: gaussian nuclear width 0.478731 with net site charge 0.826
       Polarizability: cuspless exponential with width 0.32 and norm 3.73
       Hard sphere radius: 2.57003 bohrs
       Positions in reference frame:
         [ +0.000000 +0.000000 +0.000000 ]
     Initializing site 'H'
       Electron density: proportional to exp(-r/0.34641)*erfc((r-0)/0.390882) with norm 0.587
       Charge density: gaussian nuclear width 0.377945 with net site charge -0.413
       Polarizability: cuspless exponential with width 0.39 and norm 3.3
       Positions in reference frame:
         [ +0.000000 -1.441945 +1.122523 ]
         [ +0.000000 +1.441945 +1.122523 ]
     Net charge: 0   dipole magnitude: 0.927204
     Initializing spherical shell mfKernel with radius 2.61727 Bohr
     deltaS corrections:
       site 'O': -7.54299
       site 'H': -6.83917
   Initializing fluid molecule 'Na+'
     Initializing site 'Na'
       Electron density: proportional to exp(-r/0.19682)*erfc((r-0.71491)/0.41314) with norm 8.1383
       Charge density: gaussian nuclear width 0.365347 with net site charge -1
       Hard sphere radius: 1.86327 bohrs
       Positions in reference frame:
         [ +0.000000 +0.000000 +0.000000 ]
     Net charge: -1   dipole magnitude: 0
     Initializing gaussian mfKernel with width: 1.55004 Bohr
     deltaS corrections:
       site 'Na': -22.3555
   Initializing fluid molecule 'F-'
     Initializing site 'F'
       Electron density: proportional to exp(-r/0.38886)*erfc((r-0)/0.438782) with norm 8
       Charge density: gaussian nuclear width 0.374796 with net site charge 1
       Hard sphere radius: 2.39995 bohrs
       Positions in reference frame:
         [ +0.000000 +0.000000 +0.000000 ]
     Net charge: 1   dipole magnitude: 0
     Initializing gaussian mfKernel with width: 1.59012 Bohr
     deltaS corrections:
       site 'F': -9.04335

Correction to mu due to finite nuclear width = -0.00948164
   Cavity determined by nc: 0.00142 and sigma: 0.707107
   Nonlocal vdW cavity from gaussian model electron density with norm = 8 and sigma = 0.993594 bohr
   Charge asymmetry in cavity with sensitivity pCavity = 36.5 e-bohr/Eh
   Electrostatic cavity expanded by eta = 1.46 bohrs
   Weighted density cavitation model constrained by Nbulk: 0.0049383 bohr^-3, Pvap: 3.14029 kPa, Rvdw: 2.61727 bohr and sigmaBulk: 4.62e-05 Eh/bohr^2 at T: 298 K.
   Weighted density dispersion model using vdW pair potentials with single solvent site with sqrtC6eff: 0.77 SI.
Reading fluid state from 'NbTe2.fluidState'


---- Citations for features of the code used in this run ----

   Software package:
      R. Sundararaman, K. Letchworth-Weaver, K.A. Schwarz, D. Gunceler, Y. Ozhabes and T.A. Arias, 'JDFTx: software for joint density-functional theory', SoftwareX 6, 278 (2017)

   gga-PBE exchange-correlation functional:
      J.P. Perdew, K. Burke and M. Ernzerhof, Phys. Rev. Lett. 77, 3865 (1996)

   Pseudopotentials:
      KF Garrity, JW Bennett, KM Rabe and D Vanderbilt, Comput. Mater. Sci. 81, 446 (2014)

   Truncated Coulomb potentials:
      R. Sundararaman and T.A. Arias, Phys. Rev. B 87, 165122 (2013)

   Van der Waals correction pair-potentials:
      S. Grimme, J. Comput. Chem. 27, 1787 (2006)

   Charge-asymmetric nonlocally-determined local-electric (CANDLE) solvation model:
      R. Sundararaman and W.A. Goddard III, J. Chem. Phys. 142, 064107 (2015)

   Total energy minimization with Auxiliary Hamiltonian:
      C. Freysoldt, S. Boeck, and J. Neugebauer, Phys. Rev. B 79, 241103(R) (2009)

   Grand-canonical (fixed-potential) DFT:
      R. Sundararaman, W. A. Goddard III and T. A. Arias, J. Chem. Phys. 146, 114104 (2017)

This list may not be complete. Please suggest additional citations or
report any other bugs at https://github.com/shankar1729/jdftx/issues

Initialization completed successfully at t[s]:     14.44

Shifting auxilliary hamiltonian by -0.011816 to set nElectrons=225.000000
	Linear fluid (dielectric constant: 78.4, screening length: 5.74355 Bohr) occupying 0.734315 of unit cell:	Completed after 3 iterations at t[s]:     18.39

-------- Electronic minimization -----------
	Linear fluid (dielectric constant: 78.4, screening length: 5.74355 Bohr) occupying 0.734315 of unit cell:	Completed after 0 iterations at t[s]:     22.41
	FillingsUpdate:  mu: -0.171251800  nElectrons: 225.000000
ElecMinimize: Iter:   0  G: -756.602068411118921  |grad|_K:  2.395e-05  alpha:  1.000e+00
	Linear fluid (dielectric constant: 78.4, screening length: 5.74355 Bohr) occupying 0.735562 of unit cell:	Completed after 20 iterations at t[s]:     33.91
	Linear fluid (dielectric constant: 78.4, screening length: 5.74355 Bohr) occupying 0.734325 of unit cell:	Completed after 18 iterations at t[s]:     43.37
	FillingsUpdate:  mu: -0.171251800  nElectrons: 224.908695
	SubspaceRotationAdjust: set factor to 0.536
ElecMinimize: Iter:   1  G: -756.602713277581074  |grad|_K:  8.127e-06  alpha:  1.653e-02  linmin: -1.913e-02  t[s]:     49.15
	Linear fluid (dielectric constant: 78.4, screening length: 5.74355 Bohr) occupying 0.734342 of unit cell:	Completed after 10 iterations at t[s]:     54.74
ElecMinimize: 	Predicted alpha/alphaT>3.000000, increasing alphaT to 4.957881e-02.
	Linear fluid (dielectric constant: 78.4, screening length: 5.74355 Bohr) occupying 0.734377 of unit cell:	Completed after 11 iterations at t[s]:     61.20
	Linear fluid (dielectric constant: 78.4, screening length: 5.74355 Bohr) occupying 0.734380 of unit cell:	Completed after 7 iterations at t[s]:     66.99
	FillingsUpdate:  mu: -0.171251800  nElectrons: 224.821259
	SubspaceRotationAdjust: set factor to 0.303
ElecMinimize: Iter:   2  G: -756.602947825426668  |grad|_K:  9.226e-06  alpha:  5.236e-02  linmin:  5.842e-05  t[s]:     72.74
	Linear fluid (dielectric constant: 78.4, screening length: 5.74355 Bohr) occupying 0.734481 of unit cell:	Completed after 11 iterations at t[s]:     78.88
	Linear fluid (dielectric constant: 78.4, screening length: 5.74355 Bohr) occupying 0.734523 of unit cell:	Completed after 10 iterations at t[s]:     84.34
	FillingsUpdate:  mu: -0.171251800  nElectrons: 224.736765
	SubspaceRotationAdjust: set factor to 0.203
ElecMinimize: Iter:   3  G: -756.603307445046767  |grad|_K:  6.309e-06  alpha:  7.417e-02  linmin:  1.732e-05  t[s]:     87.43
	Linear fluid (dielectric constant: 78.4, screening length: 5.74355 Bohr) occupying 0.734619 of unit cell:	Completed after 12 iterations at t[s]:     90.80
	Linear fluid (dielectric constant: 78.4, screening length: 5.74355 Bohr) occupying 0.734595 of unit cell:	Completed after 8 iterations at t[s]:     94.16
	FillingsUpdate:  mu: -0.171251800  nElectrons: 224.740529
	SubspaceRotationAdjust: set factor to 0.27
ElecMinimize: Iter:   4  G: -756.603434022087868  |grad|_K:  3.718e-06  alpha:  5.563e-02  linmin:  2.509e-05  t[s]:     97.21
	Linear fluid (dielectric constant: 78.4, screening length: 5.74355 Bohr) occupying 0.734640 of unit cell:	Completed after 9 iterations at t[s]:    100.38
	Linear fluid (dielectric constant: 78.4, screening length: 5.74355 Bohr) occupying 0.734711 of unit cell:	Completed after 10 iterations at t[s]:    103.84
	FillingsUpdate:  mu: -0.171251800  nElectrons: 224.745752
	SubspaceRotationAdjust: set factor to 0.172
ElecMinimize: Iter:   5  G: -756.603547623390682  |grad|_K:  5.327e-06  alpha:  1.437e-01  linmin: -6.454e-05  t[s]:    107.09
	Linear fluid (dielectric constant: 78.4, screening length: 5.74355 Bohr) occupying 0.734996 of unit cell:	Completed after 12 iterations at t[s]:    110.57
	Linear fluid (dielectric constant: 78.4, screening length: 5.74355 Bohr) occupying 0.734946 of unit cell:	Completed after 4 iterations at t[s]:    113.68
	FillingsUpdate:  mu: -0.171251800  nElectrons: 224.703424
	SubspaceRotationAdjust: set factor to 0.116
	SubspaceRotationAdjust: resetting CG because factor has changed by 0.115751
	Linear fluid (dielectric constant: 78.4, screening length: 5.74355 Bohr) occupying 0.734946 of unit cell:	Completed after 0 iterations at t[s]:    118.49
ElecMinimize: 	State modified externally: resetting search direction.
ElecMinimize: Iter:   6  G: -756.603740475969744  |grad|_K:  3.625e-06  alpha:  1.186e-01
	Linear fluid (dielectric constant: 78.4, screening length: 5.74355 Bohr) occupying 0.734978 of unit cell:	Completed after 10 iterations at t[s]:    125.06
	Linear fluid (dielectric constant: 78.4, screening length: 5.74355 Bohr) occupying 0.735013 of unit cell:	Completed after 10 iterations at t[s]:    128.62
	FillingsUpdate:  mu: -0.171251800  nElectrons: 224.670151
	SubspaceRotationAdjust: set factor to 0.0548
ElecMinimize: Iter:   7  G: -756.603925635557175  |grad|_K:  2.145e-06  alpha:  2.467e-01  linmin:  3.085e-05  t[s]:    131.92
	Linear fluid (dielectric constant: 78.4, screening length: 5.74355 Bohr) occupying 0.735105 of unit cell:	Completed after 9 iterations at t[s]:    135.23
	Linear fluid (dielectric constant: 78.4, screening length: 5.74355 Bohr) occupying 0.735176 of unit cell:	Completed after 10 iterations at t[s]:    138.89
	FillingsUpdate:  mu: -0.171251800  nElectrons: 224.692328
	SubspaceRotationAdjust: set factor to 0.0416
ElecMinimize: Iter:   8  G: -756.604040178948026  |grad|_K:  1.663e-06  alpha:  4.356e-01  linmin: -3.473e-05  t[s]:    142.40
	Linear fluid (dielectric constant: 78.4, screening length: 5.74355 Bohr) occupying 0.735355 of unit cell:	Completed after 8 iterations at t[s]:    146.05
	Linear fluid (dielectric constant: 78.4, screening length: 5.74355 Bohr) occupying 0.735410 of unit cell:	Completed after 6 iterations at t[s]:    149.60
	FillingsUpdate:  mu: -0.171251800  nElectrons: 224.690444
	SubspaceRotationAdjust: set factor to 0.0607
ElecMinimize: Iter:   9  G: -756.604130059985323  |grad|_K:  1.114e-06  alpha:  5.684e-01  linmin: -1.003e-04  t[s]:    152.90
	Linear fluid (dielectric constant: 78.4, screening length: 5.74355 Bohr) occupying 0.735565 of unit cell:	Completed after 10 iterations at t[s]:    156.28
	Linear fluid (dielectric constant: 78.4, screening length: 5.74355 Bohr) occupying 0.735596 of unit cell:	Completed after 2 iterations at t[s]:    159.20
	FillingsUpdate:  mu: -0.171251800  nElectrons: 224.672451
	SubspaceRotationAdjust: set factor to 0.06
ElecMinimize: Iter:  10  G: -756.604178488666548  |grad|_K:  9.909e-07  alpha:  6.823e-01  linmin:  1.520e-04  t[s]:    162.42
	Linear fluid (dielectric constant: 78.4, screening length: 5.74355 Bohr) occupying 0.735765 of unit cell:	Completed after 4 iterations at t[s]:    165.40
	Linear fluid (dielectric constant: 78.4, screening length: 5.74355 Bohr) occupying 0.735751 of unit cell:	Completed after 2 iterations at t[s]:    168.42
	FillingsUpdate:  mu: -0.171251800  nElectrons: 224.661747
	SubspaceRotationAdjust: set factor to 0.0665
ElecMinimize: Iter:  11  G: -756.604213464541317  |grad|_K:  7.677e-07  alpha:  6.258e-01  linmin:  2.086e-05  t[s]:    171.64
	Linear fluid (dielectric constant: 78.4, screening length: 5.74355 Bohr) occupying 0.735841 of unit cell:	Completed after 7 iterations at t[s]:    174.95
	Linear fluid (dielectric constant: 78.4, screening length: 5.74355 Bohr) occupying 0.735841 of unit cell:	Completed after 0 iterations at t[s]:    177.78
	FillingsUpdate:  mu: -0.171251800  nElectrons: 224.647584
	SubspaceRotationAdjust: set factor to 0.0792
ElecMinimize: Iter:  12  G: -756.604234482238894  |grad|_K:  5.426e-07  alpha:  6.245e-01  linmin: -3.500e-05  t[s]:    181.05
	Linear fluid (dielectric constant: 78.4, screening length: 5.74355 Bohr) occupying 0.735878 of unit cell:	Completed after 6 iterations at t[s]:    195.40
	Linear fluid (dielectric constant: 78.4, screening length: 5.74355 Bohr) occupying 0.735878 of unit cell:
*************** JDFTx 1.5.0  ***************

Start date and time: Tue Jul 14 16:00:22 2020
Executable jdftx_gpu with command-line: -i Charged.in -o Charged.out
Running on hosts (process indices):  amax (0-3)
Divided in process groups (process indices):  0 (0)  1 (1)  2 (2)  3 (3)
gpuInit: Found compatible cuda device 0 'Tesla K80'
gpuInit: Found compatible cuda device 1 'Tesla K80'
gpuInit: Found compatible cuda device 2 'Tesla K80'
gpuInit: Found compatible cuda device 3 'Tesla K80'
gpuInit: Selected device 0
Resource initialization completed at t[s]:      5.25
Run totals: 4 processes, 24 threads, 4 GPUs


Input parsed successfully to the following command list (including defaults):

basis kpoint-dependent
cache-projectors no
coords-type Lattice
core-overlap-check none
coulomb-interaction Slab 001
coulomb-truncation-embed 0 0 0.5
davidson-band-ratio 1.1
dump End State
dump-name NbTe2.$VAR
elec-cutoff 20 100
elec-eigen-algo Davidson
elec-ex-corr gga-PBE
elec-smearing Gauss 0.0073499
electronic-minimize  \
	dirUpdateScheme      FletcherReeves \
	linminMethod         DirUpdateRecommended \
	nIterations          500 \
	history              15 \
	knormThreshold       0 \
	energyDiffThreshold  1e-08 \
	nEnergyDiff          2 \
	alphaTstart          1 \
	alphaTmin            1e-10 \
	updateTestStepSize   yes \
	alphaTreduceFactor   0.1 \
	alphaTincreaseFactor 3 \
	nAlphaAdjustMax      3 \
	wolfeEnergy          0.0001 \
	wolfeGradient        0.9 \
	fdTest               no
exchange-regularization WignerSeitzTruncated
fluid LinearPCM 298.000000 1.013250
fluid-anion F- 1 MeanFieldLJ \
	epsBulk 1 \
	pMol 0 \
	epsInf 1 \
	Pvap 0 \
	sigmaBulk 0 \
	Rvdw 2.24877 \
	Res 0 \
	tauNuc 343133
fluid-cation Na+ 1 MeanFieldLJ \
	epsBulk 1 \
	pMol 0 \
	epsInf 1 \
	Pvap 0 \
	sigmaBulk 0 \
	Rvdw 2.19208 \
	Res 0 \
	tauNuc 343133
fluid-ex-corr lda-TF lda-PZ
fluid-gummel-loop 10 1.000000e-05
fluid-minimize  \
	dirUpdateScheme      PolakRibiere \
	linminMethod         DirUpdateRecommended \
	nIterations          400 \
	history              15 \
	knormThreshold       1e-11 \
	energyDiffThreshold  0 \
	nEnergyDiff          2 \
	alphaTstart          1 \
	alphaTmin            1e-10 \
	updateTestStepSize   yes \
	alphaTreduceFactor   0.1 \
	alphaTincreaseFactor 3 \
	nAlphaAdjustMax      6 \
	wolfeEnergy          0.0001 \
	wolfeGradient        0.9 \
	fdTest               no
fluid-solvent H2O 55.338 ScalarEOS \
	epsBulk 78.4 \
	pMol 0.92466 \
	epsInf 1.77 \
	Pvap 1.06736e-10 \
	sigmaBulk 4.62e-05 \
	Rvdw 2.61727 \
	Res 1.42 \
	tauNuc 343133 \
	poleEl 15 7 1
forces-output-coords Positions
initial-state NbTe2.$VAR
ion V   0.000003915806342  -0.000007481621683   0.500000013816485 0
ion V   0.333337249139678  -0.000007481621683   0.500000013816485 0
ion V   0.666670582473013  -0.000007481621683   0.500000013816485 0
ion V   0.118360540884399   0.289932764171445   0.496665701501858 0
ion V   0.451693874217734   0.289932764171445   0.496665701501858 0
ion V   0.785027207551070   0.289932764171445   0.496665701501858 0
ion V   0.214966383737691   0.710069878035411   0.503333813334261 0
ion V   0.548299717071027   0.710069878035411   0.503333813334261 0
ion V   0.881633050404356   0.710069878035411   0.503333813334261 0
ion Te   0.148909228743426   0.107618409854826   0.601456291517578 0
ion Te   0.482242562076755   0.107618409854826   0.601456291517578 0
ion Te   0.815575895410091   0.107618409854826   0.601456291517578 0
ion Te   0.184423026760567   0.892384850815033   0.398541853258829 0
ion Te   0.517756360093903   0.892384850815033   0.398541853258829 0
ion Te   0.851089693427232   0.892384850815033   0.398541853258829 0
ion Te   0.258622164666425   0.448319537859820   0.581165873000853 0
ion Te   0.591955497999761   0.448319537859820   0.581165873000853 0
ion Te   0.925288831333097   0.448319537859820   0.581165873000853 0
ion Te   0.074715936147527   0.551693928623516   0.418835227360105 0
ion Te   0.408049269480863   0.551693928623516   0.418835227360105 0
ion Te   0.741382602814198   0.551693928623516   0.418835227360105 0
ion Te   0.035798582517607   0.786008819206182   0.604437843681969 0
ion Te   0.369131915850943   0.786008819206182   0.604437843681969 0
ion Te   0.702465249184278   0.786008819206182   0.604437843681969 0
ion Te   0.297533554069344   0.213979293055448   0.395563382528069 0
ion Te   0.630866887402672   0.213979293055448   0.395563382528069 0
ion Te   0.964200220736008   0.213979293055448   0.395563382528069 0
ion-species GBRV/$ID_pbe.uspp
ion-width Ecut
ionic-minimize  \
	dirUpdateScheme      L-BFGS \
	linminMethod         DirUpdateRecommended \
	nIterations          0 \
	history              15 \
	knormThreshold       0.0001 \
	energyDiffThreshold  1e-06 \
	nEnergyDiff          2 \
	alphaTstart          1 \
	alphaTmin            1e-10 \
	updateTestStepSize   yes \
	alphaTreduceFactor   0.1 \
	alphaTincreaseFactor 3 \
	nAlphaAdjustMax      3 \
	wolfeEnergy          0.0001 \
	wolfeGradient        0.9 \
	fdTest               no
kpoint   0.000000000000   0.000000000000   0.000000000000  1.00000000000000
kpoint-folding 3 4 1 
latt-move-scale 1 1 1
latt-scale 1 1 1 
lattice Triclinic 19.0519 17.837 35.2048 90 90 79.7456
lattice-minimize  \
	dirUpdateScheme      L-BFGS \
	linminMethod         DirUpdateRecommended \
	nIterations          0 \
	history              15 \
	knormThreshold       0 \
	energyDiffThreshold  1e-06 \
	nEnergyDiff          2 \
	alphaTstart          1 \
	alphaTmin            1e-10 \
	updateTestStepSize   yes \
	alphaTreduceFactor   0.1 \
	alphaTincreaseFactor 3 \
	nAlphaAdjustMax      3 \
	wolfeEnergy          0.0001 \
	wolfeGradient        0.9 \
	fdTest               no
lcao-params -1 1e-06 0.0073499
pcm-variant CANDLE
spintype no-spin
subspace-rotation-factor 1 yes
symmetries automatic
symmetry-threshold 0.0001
target-mu -0.24475 no




---------- Setting up symmetries ----------

Found 4 point-group symmetries of the bravais lattice
Found 3 space-group symmetries with basis
Applied RMS atom displacement 3.69487e-14 bohrs to make symmetries exact.

---------- Initializing the Grid ----------
R = 
[    19.0519    3.17532          0  ]
[          0    17.5521          0  ]
[          0          0    35.2048  ]
unit cell volume = 11772.5
G =
[   0.329793 -0.0596624          0  ]
[          0   0.357974          0  ]
[          0          0   0.178475  ]
Minimum fftbox size, Smin = [  88  84  160  ]
Chosen fftbox size, S = [  90  84  160  ]

---------- Initializing tighter grid for wavefunction operations ----------
R = 
[    19.0519    3.17532          0  ]
[          0    17.5521          0  ]
[          0          0    35.2048  ]
unit cell volume = 11772.5
G =
[   0.329793 -0.0596624          0  ]
[          0   0.357974          0  ]
[          0          0   0.178475  ]
Minimum fftbox size, Smin = [  80  72  144  ]
Chosen fftbox size, S = [  80  72  144  ]

---------- Exchange Correlation functional ----------
Initalized PBE GGA exchange.
Initalized PBE GGA correlation.

---------- Setting up pseudopotentials ----------
Width of ionic core gaussian charges (only for fluid interactions / plotting) set to 0.397384

Reading pseudopotential file '/home/guoxy/vasp/jdftx-1.5.0/build/pseudopotentials/GBRV/v_pbe.uspp':
  Title: V.  Created by USPP 7.3.6 on 31-3-15
  Reference state energy: -72.228583.  13 valence electrons in orbitals:
    |300>  occupation: 2  eigenvalue: -2.581040
    |310>  occupation: 6  eigenvalue: -1.618497
    |400>  occupation: 2  eigenvalue: -0.172800
    |320>  occupation: 3  eigenvalue: -0.189802
  lMax: 2  lLocal: 3  QijEcut: 6
  6 projectors sampled on a log grid with 593 points:
    l: 0  eig: -2.581041  rCut: 1.5
    l: 0  eig: -0.172801  rCut: 1.5
    l: 1  eig: -1.618497  rCut: 1.6
    l: 1  eig: 0.150000  rCut: 1.6
    l: 2  eig: -0.189802  rCut: 1.7
    l: 2  eig: 0.150000  rCut: 1.7
  Partial core density with radius 0.8
  Transforming core density to a uniform radial grid of dG=0.02 with 1364 points.
  Transforming local potential to a uniform radial grid of dG=0.02 with 1364 points.
  Transforming nonlocal projectors to a uniform radial grid of dG=0.02 with 432 points.
  Transforming density augmentations to a uniform radial grid of dG=0.02 with 1364 points.
  Transforming atomic orbitals to a uniform radial grid of dG=0.02 with 432 points.
  Core radius for overlap checks: 1.80 bohrs.

Reading pseudopotential file '/home/guoxy/vasp/jdftx-1.5.0/build/pseudopotentials/GBRV/te_pbe.uspp':
  Title: Te.  Created by USPP 7.3.6 on 14-9-2013
  Reference state energy: -13.134220.  6 valence electrons in orbitals:
    |500>  occupation: 2  eigenvalue: -0.555231
    |510>  occupation: 4  eigenvalue: -0.218781
  lMax: 2  lLocal: 2  QijEcut: 5
  5 projectors sampled on a log grid with 723 points:
    l: 0  eig: -0.555229  rCut: 2.1
    l: 0  eig: 1.000000  rCut: 2.1
    l: 1  eig: -0.218780  rCut: 2.1
    l: 1  eig: 1.000000  rCut: 2.1
    l: 2  eig: 1.000000  rCut: 2.6
  Partial core density with radius 1.8
  Transforming core density to a uniform radial grid of dG=0.02 with 1364 points.
  Transforming local potential to a uniform radial grid of dG=0.02 with 1364 points.
  Transforming nonlocal projectors to a uniform radial grid of dG=0.02 with 432 points.
  Transforming density augmentations to a uniform radial grid of dG=0.02 with 1364 points.
  Transforming atomic orbitals to a uniform radial grid of dG=0.02 with 432 points.
  Core radius for overlap checks: 2.60 bohrs.

Initialized 2 species with 27 total atoms.

Folded 1 k-points by 3x4x1 to 12 k-points.

---------- Setting up k-points, bands, fillings ----------
Adding inversion symmetry to k-mesh for non-inversion-symmetric unit cell.
Reduced to 7 k-points under symmetry. 
Computing the number of bands and number of electrons
Reading initial fillings from file NbTe2.fillings.
nElectrons: 225.000000   nBands: 162   nStates: 7

----- Setting up reduced wavefunction bases (one per k-point) -----
average nbasis = 50306.750 , ideal nbasis = 50293.014

---------- Setting up coulomb interaction ----------
Fluid mode embedding: using embedded box, but periodic Coulomb kernel.
(Fluid response is responsible for (approximate) separation between periodic images.)
Setting up double-sized grid for truncated Coulomb potentials:
R = 
[    19.0519    3.17532          0  ]
[          0    17.5521          0  ]
[          0          0    70.4095  ]
unit cell volume = 23545
G =
[   0.329793 -0.0596624          0  ]
[          0   0.357974          0  ]
[          0          0  0.0892377  ]
Chosen fftbox size, S = [  90  84  320  ]
Integer grid location selected as the embedding center:
   Grid: [  0  0  80  ]
   Lattice: [  0  0  0.5  ]
   Cartesian: [  0  0  17.6024  ]
Constructing Wigner-Seitz cell: 8 faces (6 quadrilaterals, 2 hexagons)
Range-separation parameter for embedded mesh potentials due to point charges: 0.591767 bohrs.

Initializing van der Waals corrections
	NOTE: vdW corrections apply only for interactions with fluid.
	 V:  C6:  187.33 Eh-a0^6  R0: 2.952 a0
	Te:  C6:  550.54 Eh-a0^6  R0: 3.575 a0

---------- Setting up ewald sum ----------
Optimum gaussian width for ewald sums = 6.601597 bohr.
Real space sum over 605 unit cells with max indices [  5  5  2  ]
Reciprocal space sum over 6253 terms with max indices [  6  6  18  ]

---------- Allocating electronic variables ----------
Initializing wave functions:  reading from 'NbTe2.wfns'
----- createFluidSolver() ----- (Fluid-side solver setup)
   Initializing fluid molecule 'H2O'
     Initializing site 'O'
       Electron density: proportional to exp(-r/0.36935)*erfc((r-0.51523)/0.36823) with norm 6.826
       Charge density: gaussian nuclear width 0.478731 with net site charge 0.826
       Polarizability: cuspless exponential with width 0.32 and norm 3.73
       Hard sphere radius: 2.57003 bohrs
       Positions in reference frame:
         [ +0.000000 +0.000000 +0.000000 ]
     Initializing site 'H'
       Electron density: proportional to exp(-r/0.34641)*erfc((r-0)/0.390882) with norm 0.587
       Charge density: gaussian nuclear width 0.377945 with net site charge -0.413
       Polarizability: cuspless exponential with width 0.39 and norm 3.3
       Positions in reference frame:
         [ +0.000000 -1.441945 +1.122523 ]
         [ +0.000000 +1.441945 +1.122523 ]
     Net charge: 0   dipole magnitude: 0.927204
     Initializing spherical shell mfKernel with radius 2.61727 Bohr
     deltaS corrections:
       site 'O': -7.54299
       site 'H': -6.83917
   Initializing fluid molecule 'Na+'
     Initializing site 'Na'
       Electron density: proportional to exp(-r/0.19682)*erfc((r-0.71491)/0.41314) with norm 8.1383
       Charge density: gaussian nuclear width 0.365347 with net site charge -1
       Hard sphere radius: 1.86327 bohrs
       Positions in reference frame:
         [ +0.000000 +0.000000 +0.000000 ]
     Net charge: -1   dipole magnitude: 0
     Initializing gaussian mfKernel with width: 1.55004 Bohr
     deltaS corrections:
       site 'Na': -22.3555
   Initializing fluid molecule 'F-'
     Initializing site 'F'
       Electron density: proportional to exp(-r/0.38886)*erfc((r-0)/0.438782) with norm 8
       Charge density: gaussian nuclear width 0.374796 with net site charge 1
       Hard sphere radius: 2.39995 bohrs
       Positions in reference frame:
         [ +0.000000 +0.000000 +0.000000 ]
     Net charge: 1   dipole magnitude: 0
     Initializing gaussian mfKernel with width: 1.59012 Bohr
     deltaS corrections:
       site 'F': -9.04335

Correction to mu due to finite nuclear width = -0.00948164
   Cavity determined by nc: 0.00142 and sigma: 0.707107
   Nonlocal vdW cavity from gaussian model electron density with norm = 8 and sigma = 0.993594 bohr
   Charge asymmetry in cavity with sensitivity pCavity = 36.5 e-bohr/Eh
   Electrostatic cavity expanded by eta = 1.46 bohrs
   Weighted density cavitation model constrained by Nbulk: 0.0049383 bohr^-3, Pvap: 3.14029 kPa, Rvdw: 2.61727 bohr and sigmaBulk: 4.62e-05 Eh/bohr^2 at T: 298 K.
   Weighted density dispersion model using vdW pair potentials with single solvent site with sqrtC6eff: 0.77 SI.
Reading fluid state from 'NbTe2.fluidState'


---- Citations for features of the code used in this run ----

   Software package:
      R. Sundararaman, K. Letchworth-Weaver, K.A. Schwarz, D. Gunceler, Y. Ozhabes and T.A. Arias, 'JDFTx: software for joint density-functional theory', SoftwareX 6, 278 (2017)

   gga-PBE exchange-correlation functional:
      J.P. Perdew, K. Burke and M. Ernzerhof, Phys. Rev. Lett. 77, 3865 (1996)

   Pseudopotentials:
      KF Garrity, JW Bennett, KM Rabe and D Vanderbilt, Comput. Mater. Sci. 81, 446 (2014)

   Truncated Coulomb potentials:
      R. Sundararaman and T.A. Arias, Phys. Rev. B 87, 165122 (2013)

   Van der Waals correction pair-potentials:
      S. Grimme, J. Comput. Chem. 27, 1787 (2006)

   Charge-asymmetric nonlocally-determined local-electric (CANDLE) solvation model:
      R. Sundararaman and W.A. Goddard III, J. Chem. Phys. 142, 064107 (2015)

   Total energy minimization with Auxiliary Hamiltonian:
      C. Freysoldt, S. Boeck, and J. Neugebauer, Phys. Rev. B 79, 241103(R) (2009)

   Grand-canonical (fixed-potential) DFT:
      R. Sundararaman, W. A. Goddard III and T. A. Arias, J. Chem. Phys. 146, 114104 (2017)

This list may not be complete. Please suggest additional citations or
report any other bugs at https://github.com/shankar1729/jdftx/issues

Initialization completed successfully at t[s]:     13.72

Shifting auxilliary hamiltonian by -0.085315 to set nElectrons=225.000000
	Linear fluid (dielectric constant: 78.4, screening length: 5.74355 Bohr) occupying 0.734315 of unit cell:	Completed after 3 iterations at t[s]:     21.64

-------- Electronic minimization -----------
	Linear fluid (dielectric constant: 78.4, screening length: 5.74355 Bohr) occupying 0.734315 of unit cell:	Completed after 0 iterations at t[s]:     26.91
	FillingsUpdate:  mu: -0.244750400  nElectrons: 225.000000
ElecMinimize: Iter:   0  G: -740.064883411105825  |grad|_K:  1.723e-04  alpha:  1.000e+00
	Linear fluid (dielectric constant: 78.4, screening length: 5.74355 Bohr) occupying 0.745655 of unit cell:	Completed after 24 iterations at t[s]:     42.79
	Linear fluid (dielectric constant: 78.4, screening length: 5.74355 Bohr) occupying 0.734408 of unit cell:	Completed after 22 iterations at t[s]:     51.33
	FillingsUpdate:  mu: -0.244750400  nElectrons: 224.431232
	SubspaceRotationAdjust: set factor to 0.52
ElecMinimize: Iter:   1  G: -740.096298320864435  |grad|_K:  6.648e-05  alpha:  1.416e-02  linmin: -3.517e-02  t[s]:     56.74
	Linear fluid (dielectric constant: 78.4, screening length: 5.74355 Bohr) occupying 0.734523 of unit cell:	Completed after 13 iterations at t[s]:     63.32
	Linear fluid (dielectric constant: 78.4, screening length: 5.74355 Bohr) occupying 0.734635 of unit cell:	Completed after 13 iterations at t[s]:     70.70
	FillingsUpdate:  mu: -0.244750400  nElectrons: 223.922706
	SubspaceRotationAdjust: set factor to 0.303
ElecMinimize: Iter:   2  G: -740.105319575211183  |grad|_K:  5.677e-05  alpha:  2.784e-02  linmin:  7.597e-04  t[s]:     77.52
	Linear fluid (dielectric constant: 78.4, screening length: 5.74355 Bohr) occupying 0.734919 of unit cell:	Completed after 14 iterations at t[s]:     85.09
	Linear fluid (dielectric constant: 78.4, screening length: 5.74355 Bohr) occupying 0.735490 of unit cell:	Completed after 15 iterations at t[s]:     93.07
	FillingsUpdate:  mu: -0.244750400  nElectrons: 223.151666
	SubspaceRotationAdjust: set factor to 0.175
ElecMinimize: Iter:   3  G: -740.119439008701988  |grad|_K:  6.928e-05  alpha:  8.325e-02  linmin:  1.341e-03  t[s]:     98.47
	Linear fluid (dielectric constant: 78.4, screening length: 5.74355 Bohr) occupying 0.737076 of unit cell:	Completed after 16 iterations at t[s]:    104.73
	Linear fluid (dielectric constant: 78.4, screening length: 5.74355 Bohr) occupying 0.736358 of unit cell:	Completed after 14 iterations at t[s]:    112.28
	FillingsUpdate:  mu: -0.244750400  nElectrons: 222.826382
	SubspaceRotationAdjust: set factor to 0.143
ElecMinimize: Iter:   4  G: -740.131201433995784  |grad|_K:  4.103e-05  alpha:  4.588e-02  linmin: -7.767e-05  t[s]:    118.39
	Linear fluid (dielectric constant: 78.4, screening length: 5.74355 Bohr) occupying 0.736810 of unit cell:	Completed after 12 iterations at t[s]:    125.90
	Linear fluid (dielectric constant: 78.4, screening length: 5.74355 Bohr) occupying 0.736948 of unit cell:	Completed after 12 iterations at t[s]:    134.16
	FillingsUpdate:  mu: -0.244750400  nElectrons: 222.851455
	SubspaceRotationAdjust: set factor to 0.188
ElecMinimize: Iter:   5  G: -740.136993157384040  |grad|_K:  2.932e-05  alpha:  5.992e-02  linmin:  7.708e-06  t[s]:    140.18
	Linear fluid (dielectric constant: 78.4, screening length: 5.74355 Bohr) occupying 0.737429 of unit cell:	Completed after 12 iterations at t[s]:    146.09
	Linear fluid (dielectric constant: 78.4, screening length: 5.74355 Bohr) occupying 0.737785 of unit cell:	Completed after 12 iterations at t[s]:    154.46
	FillingsUpdate:  mu: -0.244750400  nElectrons: 222.911011
	SubspaceRotationAdjust: set factor to 0.138
ElecMinimize: Iter:   6  G: -740.142124336109759  |grad|_K:  3.764e-05  alpha:  1.043e-01  linmin: -7.156e-05  t[s]:    159.77
	Linear fluid (dielectric constant: 78.4, screening length: 5.74355 Bohr) occupying 0.739440 of unit cell:	Completed after 15 iterations at t[s]:    166.56
	Linear fluid (dielectric constant: 78.4, screening length: 5.74355 Bohr) occupying 0.739666 of unit cell:	Completed after 12 iterations at t[s]:    174.37
	FillingsUpdate:  mu: -0.244750400  nElectrons: 222.757608
	SubspaceRotationAdjust: set factor to 0.0814
	SubspaceRotationAdjust: resetting CG because factor has changed by 0.081384
	Linear fluid (dielectric constant: 78.4, screening length: 5.74355 Bohr) occupying 0.739666 of unit cell:	Completed after 0 iterations at t[s]:    185.68
ElecMinimize: 	State modified externally: resetting search direction.
ElecMinimize: Iter:   7  G: -740.151782873633465  |grad|_K:  3.094e-05  alpha:  1.186e-01
	Linear fluid (dielectric constant: 78.4, screening length: 5.74355 Bohr) occupying 0.739916 of unit cell:	Completed after 13 iterations at t[s]:    197.76
	Linear fluid (dielectric constant: 78.4, screening length: 5.74355 Bohr) occupying 0.740171 of unit cell:	Completed after 14 iterations at t[s]:    204.93
	FillingsUpdate:  mu: -0.244750400  nElectrons: 222.381985
	SubspaceRotationAdjust: set factor to 0.057
ElecMinimize: Iter:   8  G: -740.164910798145115  |grad|_K:  1.614e-05  alpha:  2.402e-01  linmin:  1.236e-04  t[s]:    211.10
	Linear fluid (dielectric constant: 78.4, screening length: 5.74355 Bohr) occupying 0.740855 of unit cell:	Completed after 12 iterations at t[s]:    218.16
ElecMinimize: 	Predicted alpha/alphaT>3.000000, increasing alphaT to 7.205816e-01.
	Linear fluid (dielectric constant: 78.4, screening length: 5.74355 Bohr) occupying 0.742213 of unit cell:	Completed after 13 iterations at t[s]:    226.50
	Linear fluid (dielectric constant: 78.4, screening length: 5.74355 Bohr) occupying 0.742271 of unit cell:	Completed after 8 iterations at t[s]:    234.27
	FillingsUpdate:  mu: -0.244750400  nElectrons: 222.467254
	SubspaceRotationAdjust: set factor to 0.059
ElecMinimize: Iter:   9  G: -740.175942989125247  |grad|_K:  1.177e-05  alpha:  7.416e-01  linmin: -1.611e-04  t[s]:    240.96
	Linear fluid (dielectric constant: 78.4, screening length: 5.74355 Bohr) occupying 0.744113 of unit cell:	Completed after 14 iterations at t[s]:    247.41
	Linear fluid (dielectric constant: 78.4, screening length: 5.74355 Bohr) occupying 0.743599 of unit cell:	Completed after 12 iterations at t[s]:    255.25
	FillingsUpdate:  mu: -0.244750400  nElectrons: 222.470089
	SubspaceRotationAdjust: set factor to 0.0636
ElecMinimize: Iter:  10  G: -740.180150974091589  |grad|_K:  7.037e-06  alpha:  5.312e-01  linmin: -4.324e-05  t[s]:    261.16
	Linear fluid (dielectric constant: 78.4, screening length: 5.74355 Bohr) occupying 0.744212 of unit cell:	Completed after 11 iterations at t[s]:    268.13
	Linear fluid (dielectric constant: 78.4, screening length: 5.74355 Bohr) occupying 0.744880 of unit cell:	Completed after 12 iterations at t[s]:    275.28
	FillingsUpdate:  mu: -0.244750400  nElectrons: 222.308177
	SubspaceRotationAdjust: set factor to 0.0721
ElecMinimize: Iter:  11  G: -740.183370634823746  |grad|_K:  6.743e-06  alpha:  1.137e+00  linmin: -2.163e-05  t[s]:    282.24
	Linear fluid (dielectric constant: 78.4, screening length: 5.74355 Bohr) occupying 0.745882 of unit cell:	Completed after 11 iterations at t[s]:    288.92
	Linear fluid (dielectric constant: 78.4, screening length: 5.74355 Bohr) occupying 0.745318 of unit cell:	Completed after 12 iterations at t[s]:    295.53
	FillingsUpdate:  mu: -0.244750400  nElectrons: 222.218917
	SubspaceRotationAdjust: set factor to 0.0865
ElecMinimize: Iter:  12  G: -740.184614374699436  |grad|_K:  4.389e-06  alpha:  4.789e-01  linmin:  3.486e-05  t[s]:    302.26
	Linear fluid (dielectric constant: 78.4, screening length: 5.74355 Bohr) occupying 0.745471 of unit cell:	Completed after 10 iterations at t[s]:    309.09
	Linear fluid (dielectric constant: 78.4, screening length: 5.74355 Bohr) occupying 0.745565 of unit cell:	Completed after 10 iterations at t[s]:    316.58
	FillingsUpdate:  mu: -0.244750400  nElectrons: 222.138096
	SubspaceRotationAdjust: set factor to 0.104
ElecMinimize: Iter:  13  G: -740.185477342174181  |grad|_K:  4.423e-06  alpha:  7.848e-01  linmin:  1.420e-05  t[s]:    322.74
	Linear fluid (dielectric constant: 78.4, screening length: 5.74355 Bohr) occupying 0.745841 of unit cell:	Completed after 11 iterations at t[s]:    328.96
	Linear fluid (dielectric constant: 78.4, screening length: 5.74355 Bohr) occupying 0.745772 of unit cell:	Completed after 11 iterations at t[s]:    337.96
	FillingsUpdate:  mu: -0.244750400  nElectrons: 222.125229
	SubspaceRotationAdjust: set factor to 0.102
ElecMinimize: Iter:  14  G: -740.186124317898930  |grad|_K:  4.186e-06  alpha:  5.793e-01  linmin:  3.046e-06  t[s]:    344.33
	Linear fluid (dielectric constant: 78.4, screening length: 5.74355 Bohr) occupying 0.745996 of unit cell:	Completed after 12 iterations at t[s]:    350.78
	Linear fluid (dielectric constant: 78.4, screening length: 5.74355 Bohr) occupying 0.746018 of unit cell:	Completed after 8 iterations at t[s]:    358.35
	FillingsUpdate:  mu: -0.244750400  nElectrons: 222.017695
	SubspaceRotationAdjust: set factor to 0.087
ElecMinimize: Iter:  15  G: -740.186764422108809  |grad|_K:  4.731e-06  alpha:  6.394e-01  linmin: -6.454e-06  t[s]:    364.63
	Linear fluid (dielectric constant: 78.4, screening length: 5.74355 Bohr) occupying 0.746404 of unit cell:	Completed after 12 iterations at t[s]:    371.88
	Linear fluid (dielectric constant: 78.4, screening length: 5.74355 Bohr) occupying 0.746263 of unit cell:	Completed after 12 iterations at t[s]:    380.57
	FillingsUpdate:  mu: -0.244750400  nElectrons: 222.021722
	SubspaceRotationAdjust: set factor to 0.0763
ElecMinimize: Iter:  16  G: -740.187272680890942  |grad|_K:  3.724e-06  alpha:  3.974e-01  linmin:  2.829e-06  t[s]:    387.54
	Linear fluid (dielectric constant: 78.4, screening length: 5.74355 Bohr) occupying 0.746436 of unit cell:	Completed after 11 iterations at t[s]:    394.01
	Linear fluid (dielectric constant: 78.4, screening length: 5.74355 Bohr) occupying 0.746591 of unit cell:	Completed after 12 iterations at t[s]:    401.20
	FillingsUpdate:  mu: -0.244750400  nElectrons: 221.960438
	SubspaceRotationAdjust: set factor to 0.0668
ElecMinimize: Iter:  17  G: -740.187884550813692  |grad|_K:  2.773e-06  alpha:  7.717e-01  linmin: -3.404e-05  t[s]:    407.34
	Linear fluid (dielectric constant: 78.4, screening length: 5.74355 Bohr) occupying 0.746755 of unit cell:	Completed after 10 iterations at t[s]:    413.05
	Linear fluid (dielectric constant: 78.4, screening length: 5.74355 Bohr) occupying 0.746723 of unit cell:	Completed after 8 iterations at t[s]:    420.80
	FillingsUpdate:  mu: -0.244750400  nElectrons: 221.959174
	SubspaceRotationAdjust: set factor to 0.0699
ElecMinimize: Iter:  18  G: -740.188156103741790  |grad|_K:  2.404e-06  alpha:  6.171e-01  linmin: -2.442e-06  t[s]:    427.13
	Linear fluid (dielectric constant: 78.4, screening length: 5.74355 Bohr) occupying 0.746781 of unit cell:	Completed after 10 iterations at t[s]:    433.83
	Linear fluid (dielectric constant: 78.4, screening length: 5.74355 Bohr) occupying 0.746771 of unit cell:	Completed after 2 iterations at t[s]:    440.43
	FillingsUpdate:  mu: -0.244750400  nElectrons: 221.959585
	SubspaceRotationAdjust: set factor to 0.0706
ElecMinimize: Iter:  19  G: -740.188324745355544  |grad|_K:  1.570e-06  alpha:  5.105e-01  linmin:  1.402e-05  t[s]:    446.49
	Linear fluid (dielectric constant: 78.4, screening length: 5.74355 Bohr) occupying 0.746760 of unit cell:	Completed after 9 iterations at t[s]:    452.19
	Linear fluid (dielectric constant: 78.4, screening length: 5.74355 Bohr) occupying 0.746759 of unit cell:	Completed after 2 iterations at t[s]:    456.01
	FillingsUpdate:  mu: -0.244750400  nElectrons: 221.950559
	SubspaceRotationAdjust: set factor to 0.0647
ElecMinimize: Iter:  20  G: -740.188402227567394  |grad|_K:  1.088e-06  alpha:  5.501e-01  linmin: -1.811e-04  t[s]:    459.37
	Linear fluid (dielectric constant: 78.4, screening length: 5.74355 Bohr) occupying 0.746738 of unit cell:	Completed after 9 iterations at t[s]:    463.01
	Linear fluid (dielectric constant: 78.4, screening length: 5.74355 Bohr) occupying 0.746738 of unit cell:	Completed after 0 iterations at t[s]:    466.35
	FillingsUpdate:  mu: -0.244750400  nElectrons: 221.960217
	SubspaceRotationAdjust: set factor to 0.0531
ElecMinimize: Iter:  21  G: -740.188440038756767  |grad|_K:  7.713e-07  alpha:  5.560e-01  linmin:  5.209e-05  t[s]:    469.99
	Linear fluid (dielectric constant: 78.4, screening length: 5.74355 Bohr) occupying 0.746719 of unit cell:	Completed after 8 iterations at t[s]:    473.77
	Linear fluid (dielectric constant: 78.4, screening length: 5.74355 Bohr) occupying 0.746721 of unit cell:	Completed after 3 iterations at t[s]:    477.57
	FillingsUpdate:  mu: -0.244750400  nElectrons: 221.956113
	SubspaceRotationAdjust: set factor to 0.0467
ElecMinimize: Iter:  22  G: -740.188456089530746  |grad|_K:  5.061e-07  alpha:  4.726e-01  linmin:  1.959e-04  t[s]:    481.09
	Linear fluid (dielectric constant: 78.4, screening length: 5.74355 Bohr) occupying 0.746714 of unit cell:	Completed after 2 iterations at t[s]:    484.12
	Linear fluid (dielectric constant: 78.4, screening length: 5.74355 Bohr) occupying 0.746713 of unit cell:	Completed after 0 iterations at t[s]:    487.09
	FillingsUpdate:  mu: -0.244750400  nElectrons: 221.958463
	SubspaceRotationAdjust: set factor to 0.0534
ElecMinimize: Iter:  23  G: -740.188464230859040  |grad|_K:  3.561e-07  alpha:  5.587e-01  linmin: -2.957e-04  t[s]:    490.38
	Linear fluid (dielectric constant: 78.4, screening length: 5.74355 Bohr) occupying 0.746708 of unit cell:	Completed after 6 iterations at t[s]:    493.82
	Linear fluid (dielectric constant: 78.4, screening length: 5.74355 Bohr) occupying 0.746709 of unit cell:	Completed after 0 iterations at t[s]:    496.91
	FillingsUpdate:  mu: -0.244750400  nElectrons: 221.961573
	SubspaceRotationAdjust: set factor to 0.0515
ElecMinimize: Iter:  24  G: -740.188467674758044  |grad|_K:  2.825e-07  alpha:  4.715e-01  linmin: -3.762e-05  t[s]:    500.24
	Linear fluid (dielectric constant: 78.4, screening length: 5.74355 Bohr) occupying 0.746703 of unit cell:	Completed after 7 iterations at t[s]:    503.95
	Linear fluid (dielectric constant: 78.4, screening length: 5.74355 Bohr) occupying 0.746704 of unit cell:	Completed after 0 iterations at t[s]:    507.28
	FillingsUpdate:  mu: -0.244750400  nElectrons: 221.960074
	SubspaceRotationAdjust: set factor to 0.0461
ElecMinimize: Iter:  25  G: -740.188469601815768  |grad|_K:  2.144e-07  alpha:  4.245e-01  linmin: -5.117e-05  t[s]:    510.92
	Linear fluid (dielectric constant: 78.4, screening length: 5.74355 Bohr) occupying 0.746699 of unit cell:	Completed after 0 iterations at t[s]:    513.99
	Linear fluid (dielectric constant: 78.4, screening length: 5.74355 Bohr) occupying 0.746698 of unit cell:	Completed after 2 iterations at t[s]:    517.48
	FillingsUpdate:  mu: -0.244750400  nElectrons: 221.961174
	SubspaceRotationAdjust: set factor to 0.0596
ElecMinimize: Iter:  26  G: -740.188470986560105  |grad|_K:  1.763e-07  alpha:  5.512e-01  linmin:  1.929e-04  t[s]:    520.70
	Linear fluid (dielectric constant: 78.4, screening length: 5.74355 Bohr) occupying 0.746693 of unit cell:	Completed after 3 iterations at t[s]:    523.73
	Linear fluid (dielectric constant: 78.4, screening length: 5.74355 Bohr) occupying 0.746693 of unit cell:	Completed after 0 iterations at t[s]:    526.70
	FillingsUpdate:  mu: -0.244750400  nElectrons: 221.963157
	SubspaceRotationAdjust: set factor to 0.0675
ElecMinimize: Iter:  27  G: -740.188471952679606  |grad|_K:  1.482e-07  alpha:  5.628e-01  linmin: -9.369e-05  t[s]:    529.85
	Linear fluid (dielectric constant: 78.4, screening length: 5.74355 Bohr) occupying 0.746688 of unit cell:	Completed after 2 iterations at t[s]:    532.91
	Linear fluid (dielectric constant: 78.4, screening length: 5.74355 Bohr) occupying 0.746687 of unit cell:	Completed after 0 iterations at t[s]:    535.76
	FillingsUpdate:  mu: -0.244750400  nElectrons: 221.963728
	SubspaceRotationAdjust: set factor to 0.0841
ElecMinimize: Iter:  28  G: -740.188472875557522  |grad|_K:  1.454e-07  alpha:  7.120e-01  linmin: -1.563e-04  t[s]:    539.04
	Linear fluid (dielectric constant: 78.4, screening length: 5.74355 Bohr) occupying 0.746682 of unit cell:	Completed after 2 iterations at t[s]:    541.94
	Linear fluid (dielectric constant: 78.4, screening length: 5.74355 Bohr) occupying 0.746682 of unit cell:	Completed after 0 iterations at t[s]:    544.86
	FillingsUpdate:  mu: -0.244750400  nElectrons: 221.963888
	SubspaceRotationAdjust: set factor to 0.0927
ElecMinimize: Iter:  29  G: -740.188473668864049  |grad|_K:  1.669e-07  alpha:  6.250e-01  linmin: -1.801e-05  t[s]:    548.07
	Linear fluid (dielectric constant: 78.4, screening length: 5.74355 Bohr) occupying 0.746675 of unit cell:	Completed after 2 iterations at t[s]:    550.95
	Linear fluid (dielectric constant: 78.4, screening length: 5.74355 Bohr) occupying 0.746677 of unit cell:	Completed after 0 iterations at t[s]:    554.18
	FillingsUpdate:  mu: -0.244750400  nElectrons: 221.966082
	SubspaceRotationAdjust: set factor to 0.0906
ElecMinimize: Iter:  30  G: -740.188474455391429  |grad|_K:  1.732e-07  alpha:  4.829e-01  linmin:  1.035e-04  t[s]:    557.51
	Linear fluid (dielectric constant: 78.4, screening length: 5.74355 Bohr) occupying 0.746671 of unit cell:	Completed after 2 iterations at t[s]:    560.58
	Linear fluid (dielectric constant: 78.4, screening length: 5.74355 Bohr) occupying 0.746671 of unit cell:	Completed after 0 iterations at t[s]:    563.67
	FillingsUpdate:  mu: -0.244750400  nElectrons: 221.966922
	SubspaceRotationAdjust: set factor to 0.1
ElecMinimize: Iter:  31  G: -740.188475146654355  |grad|_K:  1.331e-07  alpha:  4.418e-01  linmin: -3.075e-05  t[s]:    567.08
	Linear fluid (dielectric constant: 78.4, screening length: 5.74355 Bohr) occupying 0.746668 of unit cell:	Completed after 1 iterations at t[s]:    570.00
	Linear fluid (dielectric constant: 78.4, screening length: 5.74355 Bohr) occupying 0.746667 of unit cell:	Completed after 0 iterations at t[s]:    573.04
	FillingsUpdate:  mu: -0.244750400  nElectrons: 221.967331
	SubspaceRotationAdjust: set factor to 0.107
ElecMinimize: Iter:  32  G: -740.188475692647216  |grad|_K:  1.112e-07  alpha:  5.324e-01  linmin: -3.470e-05  t[s]:    576.44
	Linear fluid (dielectric constant: 78.4, screening length: 5.74355 Bohr) occupying 0.746665 of unit cell:	Completed after 1 iterations at t[s]:    579.72
	Linear fluid (dielectric constant: 78.4, screening length: 5.74355 Bohr) occupying 0.746664 of unit cell:	Completed after 0 iterations at t[s]:    583.16
	FillingsUpdate:  mu: -0.244750400  nElectrons: 221.968479
	SubspaceRotationAdjust: set factor to 0.118
ElecMinimize: Iter:  33  G: -740.188476112254307  |grad|_K:  9.289e-08  alpha:  5.802e-01  linmin: -1.470e-05  t[s]:    586.83
	Linear fluid (dielectric constant: 78.4, screening length: 5.74355 Bohr) occupying 0.746662 of unit cell:	Completed after 2 iterations at t[s]:    590.14
	Linear fluid (dielectric constant: 78.4, screening length: 5.74355 Bohr) occupying 0.746663 of unit cell:	Completed after 0 iterations at t[s]:    593.20
	FillingsUpdate:  mu: -0.244750400  nElectrons: 221.968947
	SubspaceRotationAdjust: set factor to 0.116
ElecMinimize: Iter:  34  G: -740.188476282495799  |grad|_K:  1.125e-07  alpha:  3.485e-01  linmin:  1.503e-04  t[s]:    596.50
	Linear fluid (dielectric constant: 78.4, screening length: 5.74355 Bohr) occupying 0.746661 of unit cell:	Completed after 3 iterations at t[s]:    599.64
	Linear fluid (dielectric constant: 78.4, screening length: 5.74355 Bohr) occupying 0.746662 of unit cell:	Completed after 0 iterations at t[s]:    602.64
	FillingsUpdate:  mu: -0.244750400  nElectrons: 221.968400
	SubspaceRotationAdjust: set factor to 0.0787
ElecMinimize: Iter:  35  G: -740.188476398812668  |grad|_K:  8.286e-08  alpha:  1.756e-01  linmin:  3.032e-04  t[s]:    606.03
	Linear fluid (dielectric constant: 78.4, screening length: 5.74355 Bohr) occupying 0.746662 of unit cell:	Completed after 0 iterations at t[s]:    608.94
	Linear fluid (dielectric constant: 78.4, screening length: 5.74355 Bohr) occupying 0.746661 of unit cell:	Completed after 2 iterations at t[s]:    612.16
	FillingsUpdate:  mu: -0.244750400  nElectrons: 221.969466
	SubspaceRotationAdjust: set factor to 0.0579
ElecMinimize: Iter:  36  G: -740.188476438841235  |grad|_K:  7.494e-08  alpha:  4.729e-01  linmin:  4.258e-04  t[s]:    615.55
	Linear fluid (dielectric constant: 78.4, screening length: 5.74355 Bohr) occupying 0.746660 of unit cell:	Completed after 1 iterations at t[s]:    618.42
	Linear fluid (dielectric constant: 78.4, screening length: 5.74355 Bohr) occupying 0.746661 of unit cell:	Completed after 0 iterations at t[s]:    621.52
	FillingsUpdate:  mu: -0.244750400  nElectrons: 221.969360
	SubspaceRotationAdjust: set factor to 0.0751
ElecMinimize: Iter:  37  G: -740.188476499852186  |grad|_K:  5.045e-08  alpha:  2.786e-01  linmin:  8.407e-05  t[s]:    625.11
	Linear fluid (dielectric constant: 78.4, screening length: 5.74355 Bohr) occupying 0.746660 of unit cell:	Completed after 0 iterations at t[s]:    628.18
	Linear fluid (dielectric constant: 78.4, screening length: 5.74355 Bohr) occupying 0.746660 of unit cell:	Completed after 0 iterations at t[s]:    631.74
	FillingsUpdate:  mu: -0.244750400  nElectrons: 221.968974
	SubspaceRotationAdjust: set factor to 0.0868
ElecMinimize: Iter:  38  G: -740.188476560958520  |grad|_K:  4.598e-08  alpha:  4.400e-01  linmin: -1.107e-06  t[s]:    635.28
	Linear fluid (dielectric constant: 78.4, screening length: 5.74355 Bohr) occupying 0.746660 of unit cell:	Completed after 3 iterations at t[s]:    638.48
	Linear fluid (dielectric constant: 78.4, screening length: 5.74355 Bohr) occupying 0.746660 of unit cell:	Completed after 0 iterations at t[s]:    641.45
	FillingsUpdate:  mu: -0.244750400  nElectrons: 221.968718
	SubspaceRotationAdjust: set factor to 0.0677
ElecMinimize: Iter:  39  G: -740.188476569889644  |grad|_K:  7.617e-08  alpha:  1.561e-01  linmin:  8.234e-04  t[s]:    644.72
	Linear fluid (dielectric constant: 78.4, screening length: 5.74355 Bohr) occupying 0.746660 of unit cell:	Completed after 0 iterations at t[s]:    647.47
	Linear fluid (dielectric constant: 78.4, screening length: 5.74355 Bohr) occupying 0.746660 of unit cell:	Completed after 0 iterations at t[s]:    650.44
	FillingsUpdate:  mu: -0.244750400  nElectrons: 221.968671
	SubspaceRotationAdjust: set factor to 0.053
ElecMinimize: Iter:  40  G: -740.188476582514227  |grad|_K:  6.733e-08  alpha:  7.376e-02  linmin:  5.531e-08  t[s]:    654.01
	Linear fluid (dielectric constant: 78.4, screening length: 5.74355 Bohr) occupying 0.746660 of unit cell:	Completed after 0 iterations at t[s]:    656.89
	Linear fluid (dielectric constant: 78.4, screening length: 5.74355 Bohr) occupying 0.746660 of unit cell:	Completed after 1 iterations at t[s]:    660.04
ElecMinimize: 	Step increased G by 1.627302e-08, reducing alpha to 1.696918e-02.
	Linear fluid (dielectric constant: 78.4, screening length: 5.74355 Bohr) occupying 0.746660 of unit cell:	Completed after 0 iterations at t[s]:    665.70
	FillingsUpdate:  mu: -0.244750400  nElectrons: 221.968714
	SubspaceRotationAdjust: set factor to 0.0798
ElecMinimize: Iter:  41  G: -740.188476589411039  |grad|_K:  3.601e-08  alpha:  1.697e-02  linmin: -3.106e-04  t[s]:    669.14
	Linear fluid (dielectric constant: 78.4, screening length: 5.74355 Bohr) occupying 0.746660 of unit cell:	Completed after 0 iterations at t[s]:    672.27
ElecMinimize: 	Predicted alpha/alphaT>3.000000, increasing alphaT to 5.090754e-02.
	Linear fluid (dielectric constant: 78.4, screening length: 5.74355 Bohr) occupying 0.746660 of unit cell:	Completed after 0 iterations at t[s]:    675.82
ElecMinimize: 	Predicted alpha/alphaT>3.000000, increasing alphaT to 1.527226e-01.
	Linear fluid (dielectric constant: 78.4, screening length: 5.74355 Bohr) occupying 0.746660 of unit cell:	Completed after 0 iterations at t[s]:    679.24
	Linear fluid (dielectric constant: 78.4, screening length: 5.74355 Bohr) occupying 0.746660 of unit cell:	Completed after 0 iterations at t[s]:    682.66
	FillingsUpdate:  mu: -0.244750400  nElectrons: 221.969214
	SubspaceRotationAdjust: set factor to 0.0906
ElecMinimize: Iter:  42  G: -740.188476626074021  |grad|_K:  3.820e-08  alpha:  4.282e-01  linmin:  2.321e-06  t[s]:    685.91
	Linear fluid (dielectric constant: 78.4, screening length: 5.74355 Bohr) occupying 0.746660 of unit cell:	Completed after 2 iterations at t[s]:    688.69
	Linear fluid (dielectric constant: 78.4, screening length: 5.74355 Bohr) occupying 0.746660 of unit cell:	Completed after 0 iterations at t[s]:    691.71
	FillingsUpdate:  mu: -0.244750400  nElectrons: 221.969432
	SubspaceRotationAdjust: set factor to 0.0847
ElecMinimize: Iter:  43  G: -740.188476635041525  |grad|_K:  5.959e-08  alpha:  1.105e-01  linmin:  1.364e-03  t[s]:    694.95
ElecMinimize: 	Bad step direction: g.d > 0.
ElecMinimize: 	Undoing step.
	Linear fluid (dielectric constant: 78.4, screening length: 5.74355 Bohr) occupying 0.746660 of unit cell:	Completed after 0 iterations at t[s]:    697.81
ElecMinimize: 	Step failed: resetting search direction.
	FillingsUpdate:  mu: -0.244750400  nElectrons: 221.969432
	SubspaceRotationAdjust: set factor to 0.0821
ElecMinimize: Iter:  44  G: -740.188476635043116  |grad|_K:  5.854e-08  alpha:  0.000e+00
ElecMinimize: Converged (|Delta G|<1.000000e-08 for 2 iters).
Setting wave functions to eigenvectors of Hamiltonian

# Ionic positions in lattice coordinates:
ion V   0.000003915806344  -0.000007481621683   0.500000013816485 0
ion V   0.333337249139678  -0.000007481621683   0.500000013816485 0
ion V   0.666670582473011  -0.000007481621683   0.500000013816485 0
ion V   0.118360540884401   0.289932764171445   0.496665701501858 0
ion V   0.451693874217734   0.289932764171445   0.496665701501858 0
ion V   0.785027207551068   0.289932764171445   0.496665701501858 0
ion V   0.214966383737691   0.710069878035411   0.503333813334261 0
ion V   0.548299717071025   0.710069878035411   0.503333813334261 0
ion V   0.881633050404358   0.710069878035411   0.503333813334261 0
ion Te   0.148909228743424   0.107618409854826   0.601456291517578 0
ion Te   0.482242562076757   0.107618409854826   0.601456291517578 0
ion Te   0.815575895410091   0.107618409854826   0.601456291517578 0
ion Te   0.184423026760567   0.892384850815033   0.398541853258829 0
ion Te   0.517756360093901   0.892384850815033   0.398541853258829 0
ion Te   0.851089693427234   0.892384850815033   0.398541853258829 0
ion Te   0.258622164666428   0.448319537859820   0.581165873000853 0
ion Te   0.591955497999761   0.448319537859820   0.581165873000853 0
ion Te   0.925288831333094   0.448319537859820   0.581165873000853 0
ion Te   0.074715936147529   0.551693928623516   0.418835227360105 0
ion Te   0.408049269480863   0.551693928623516   0.418835227360105 0
ion Te   0.741382602814196   0.551693928623516   0.418835227360105 0
ion Te   0.035798582517609   0.786008819206182   0.604437843681969 0
ion Te   0.369131915850943   0.786008819206182   0.604437843681969 0
ion Te   0.702465249184276   0.786008819206182   0.604437843681969 0
ion Te   0.297533554069341   0.213979293055448   0.395563382528069 0
ion Te   0.630866887402675   0.213979293055448   0.395563382528069 0
ion Te   0.964200220736008   0.213979293055448   0.395563382528069 0


# Forces in Lattice coordinates:
force V  -0.000067888412803  -0.000007079054979   0.000127590835122 0
force V  -0.000067888412803  -0.000007079054979   0.000127590835122 0
force V  -0.000067888412803  -0.000007079054979   0.000127590835122 0
force V   0.003808065235384   0.065984185380954   0.126082674979193 0
force V   0.003808065235384   0.065984185380940   0.126082674979186 0
force V   0.003808065235384   0.065984185380925   0.126082674979186 0
force V  -0.003708861718861  -0.065786784513146  -0.126082106451568 0
force V  -0.003708861718861  -0.065786784513146  -0.126082106451564 0
force V  -0.003708861718861  -0.065786784513160  -0.126082106451564 0
force Te  -0.002187565825593  -0.041691489805514   0.137796314637384 0
force Te  -0.002187565825593  -0.041691489805512   0.137796314637498 0
force Te  -0.002187565825593  -0.041691489805512   0.137796314637498 0
force Te   0.002213542868702   0.041709976528023  -0.138204119157129 0
force Te   0.002213542868702   0.041709976528023  -0.138204119157129 0
force Te   0.002213542868702   0.041709976528022  -0.138204119157242 0
force Te  -0.000040892328267  -0.022699068173586  -0.091663736352325 0
force Te  -0.000040892328267  -0.022699068173588  -0.091663736352325 0
force Te  -0.000040892328267  -0.022699068173586  -0.091663736352325 0
force Te  -0.000069401167360   0.022107206915558   0.090931846009274 0
force Te  -0.000069401167360   0.022107206915555   0.090931846009274 0
force Te  -0.000069401167360   0.022107206915558   0.090931846009160 0
force Te  -0.002452600616439   0.026277017855532   0.149566660361518 0
force Te  -0.002452600616439   0.026277017855532   0.149566660361518 0
force Te  -0.002452600616439   0.026277017855528   0.149566660361518 0
force Te   0.002476980294738  -0.026020379778450  -0.148809618074224 0
force Te   0.002476980294738  -0.026020379778450  -0.148809618074338 0
force Te   0.002476980294738  -0.026020379778450  -0.148809618074338 0

# Energy components:
   A_diel =       -0.2319303056220100
   Eewald =     3777.5330773462865182
       EH =     4359.6948599294964879
     Eloc =    -8971.7913904569959413
      Enl =      -45.4626719181522034
      Exc =     -217.8645098093259378
 Exc_core =       96.4902717381700654
       KE =      207.1494985248389753
  MuShift =        0.0287347519879576
-------------------------------------
     Etot =     -794.4540601993160180
       TS =        0.0615237545463079
-------------------------------------
        F =     -794.5155839538623468
      muN =      -54.3271073188192872
-------------------------------------
        G =     -740.1884766350431164

IonicMinimize: Iter:   0  G: -740.188476635043116  |grad|_K:  0.000e+00  t[s]:    703.69
IonicMinimize: Converged (|grad|_K<1.000000e-04).

#--- Lowdin population analysis ---
# oxidation-state V +0.348 +0.348 +0.348 +0.370 +0.370 +0.370 +0.369 +0.369 +0.369
# oxidation-state Te +0.158 +0.158 +0.158 +0.158 +0.158 +0.158 +0.060 +0.060 +0.060 +0.060 +0.060 +0.060 +0.148 +0.148 +0.148 +0.148 +0.148 +0.148


Dumping 'NbTe2.fillings' ... done
Dumping 'NbTe2.wfns' ... done
Dumping 'NbTe2.fluidState' ... done
Dumping 'NbTe2.eigenvals' ... done
End date and time: Tue Jul 14 16:12:07 2020  (Duration: 0-0:11:45.40)
Done!
