
*************** JDFTx 1.5.0  ***************

Start date and time: Wed Apr 21 19:39:30 2021
Executable jdftx_gpu with command-line: -i Charged.in -o Charged.out
Running on hosts (process indices):  amax (0-6)
Divided in process groups (process indices):  0 (0)  1 (1)  2 (2)  3 (3)  4 (4)  5 (5)  6 (6)
gpuInit: Found compatible cuda device 0 'Tesla K80'
gpuInit: Found compatible cuda device 1 'Tesla K80'
gpuInit: Found compatible cuda device 2 'Tesla K80'
gpuInit: Found compatible cuda device 3 'Tesla K80'
gpuInit: Found compatible cuda device 4 'Tesla K80'
gpuInit: Found compatible cuda device 5 'Tesla K80'
gpuInit: Found compatible cuda device 6 'Tesla K80'
gpuInit: Selected device 0
Resource initialization completed at t[s]:      3.77
Run totals: 7 processes, 24 threads, 7 GPUs


Input parsed successfully to the following command list (including defaults):

basis kpoint-dependent
cache-projectors no
coords-type Lattice
core-overlap-check none
coulomb-interaction Slab 001
coulomb-truncation-embed 0.5 0.5 0.5
davidson-band-ratio 1.1
dump End State
dump-name NbTe2.$VAR
elec-cutoff 20
elec-eigen-algo Davidson
elec-ex-corr gga-PBE
elec-smearing Gauss 0.0073499
electronic-minimize  \
	dirUpdateScheme      FletcherReeves \
	linminMethod         DirUpdateRecommended \
	nIterations          200 \
	history              15 \
	knormThreshold       0 \
	energyDiffThreshold  1e-08 \
	nEnergyDiff          2 \
	alphaTstart          1 \
	alphaTmin            1e-10 \
	updateTestStepSize   yes \
	alphaTreduceFactor   0.1 \
	alphaTincreaseFactor 3 \
	nAlphaAdjustMax      3 \
	wolfeEnergy          0.0001 \
	wolfeGradient        0.9 \
	fdTest               no
exchange-regularization WignerSeitzTruncated
fluid LinearPCM 298.000000 1.013250
fluid-anion F- 1 MeanFieldLJ \
	epsBulk 1 \
	pMol 0 \
	epsInf 1 \
	Pvap 0 \
	sigmaBulk 0 \
	Rvdw 2.24877 \
	Res 0 \
	tauNuc 343133
fluid-cation Na+ 1 MeanFieldLJ \
	epsBulk 1 \
	pMol 0 \
	epsInf 1 \
	Pvap 0 \
	sigmaBulk 0 \
	Rvdw 2.19208 \
	Res 0 \
	tauNuc 343133
fluid-ex-corr lda-TF lda-PZ
fluid-gummel-loop 10 1.000000e-05
fluid-minimize  \
	dirUpdateScheme      PolakRibiere \
	linminMethod         DirUpdateRecommended \
	nIterations          400 \
	history              15 \
	knormThreshold       1e-11 \
	energyDiffThreshold  0 \
	nEnergyDiff          2 \
	alphaTstart          1 \
	alphaTmin            1e-10 \
	updateTestStepSize   yes \
	alphaTreduceFactor   0.1 \
	alphaTincreaseFactor 3 \
	nAlphaAdjustMax      6 \
	wolfeEnergy          0.0001 \
	wolfeGradient        0.9 \
	fdTest               no
fluid-solvent H2O 55.338 ScalarEOS \
	epsBulk 78.4 \
	pMol 0.92466 \
	epsInf 1.77 \
	Pvap 1.06736e-10 \
	sigmaBulk 4.62e-05 \
	Rvdw 2.61727 \
	Res 1.42 \
	tauNuc 343133 \
	poleEl 15 7 1
forces-output-coords Positions
initial-state NbTe2.$VAR
ion Mo   0.000160000625000   0.125486616144824   0.570380142538101 1
ion Mo   0.125160000625000   0.125493810345100   0.429625233768340 1
ion Mo   0.250160000625000   0.125486616144824   0.570380142538101 1
ion Mo   0.375160000625000   0.125493810345100   0.429625233768340 1
ion Mo   0.500160000625000   0.125486616144824   0.570380142538101 1
ion Mo   0.625160000625000   0.125493810345100   0.429625233768340 1
ion Mo   0.750160000625000   0.125486616144824   0.570380142538101 1
ion Mo   0.875160000625000   0.125493810345100   0.429625233768340 1
ion Mo   0.000160000625000   0.375486616144824   0.570380142538101 1
ion Mo   0.125160000625000   0.375493810345100   0.429625233768340 1
ion Mo   0.250160000625000   0.375486616144824   0.570380142538101 1
ion Mo   0.375160000625000   0.375493810345100   0.429625233768340 1
ion Mo   0.500160000625000   0.375486616144824   0.570380142538101 1
ion Mo   0.625160000625000   0.375493810345100   0.429625233768340 1
ion Mo   0.750160000625000   0.375486616144824   0.570380142538101 1
ion Mo   0.875160000625000   0.375493810345100   0.429625233768340 1
ion Mo   0.000160000625000   0.625486616144824   0.570380142538101 1
ion Mo   0.125160000625000   0.625493810345100   0.429625233768340 1
ion Mo   0.250160000625000   0.625486616144824   0.570380142538101 1
ion Mo   0.375160000625000   0.625493810345100   0.429625233768340 1
ion Mo   0.500160000625000   0.625486616144824   0.570380142538101 1
ion Mo   0.625160000625000   0.625493810345100   0.429625233768340 1
ion Mo   0.750160000625000   0.625486616144824   0.570380142538101 1
ion Mo   0.875160000625000   0.625493810345100   0.429625233768340 1
ion Mo   0.000160000625000   0.875486616144824   0.570380142538101 1
ion Mo   0.125160000625000   0.875493810345100   0.429625233768340 1
ion Mo   0.250160000625000   0.875486616144824   0.570380142538101 1
ion Mo   0.375160000625000   0.875493810345100   0.429625233768340 1
ion Mo   0.500160000625000   0.875486616144824   0.570380142538101 1
ion Mo   0.625160000625000   0.875493810345100   0.429625233768340 1
ion Mo   0.750160000625000   0.875486616144824   0.570380142538101 1
ion Mo   0.875160000625000   0.875493810345100   0.429625233768340 1
ion B   0.000160000625000   0.000510623589349   0.478502488694816 1
ion B   0.125160000625000   0.000506145876216   0.521494522801560 1
ion B   0.250160000625000   0.000510623589349   0.478502488694816 1
ion B   0.375160000625000   0.000506145876216   0.521494522801560 1
ion B   0.500160000625000   0.000510623589349   0.478502488694816 1
ion B   0.625160000625000   0.000506145876216   0.521494522801560 1
ion B   0.750160000625000   0.000510623589349   0.478502488694816 1
ion B   0.875160000625000   0.000506145876216   0.521494522801560 1
ion B   0.000160000625000   0.250510623589349   0.478502488694816 1
ion B   0.125160000625000   0.250506145876216   0.521494522801560 1
ion B   0.250160000625000   0.250510623589349   0.478502488694816 1
ion B   0.375160000625000   0.250506145876216   0.521494522801560 1
ion B   0.500160000625000   0.250510623589349   0.478502488694816 1
ion B   0.625160000625000   0.250506145876216   0.521494522801560 1
ion B   0.750160000625000   0.250510623589349   0.478502488694816 1
ion B   0.875160000625000   0.250506145876216   0.521494522801560 1
ion B   0.000160000625000   0.500510623589349   0.478502488694816 1
ion B   0.125160000625000   0.500506145876216   0.521494522801560 1
ion B   0.250160000625000   0.500510623589349   0.478502488694816 1
ion B   0.375160000625000   0.500506145876216   0.521494522801560 1
ion B   0.500160000625000   0.500510623589349   0.478502488694816 1
ion B   0.625160000625000   0.500506145876216   0.521494522801560 1
ion B   0.750160000625000   0.500510623589349   0.478502488694816 1
ion B   0.875160000625000   0.500506145876216   0.521494522801560 1
ion B   0.000160000625000   0.750510623589349   0.478502488694816 1
ion B   0.125160000625000   0.750506145876216   0.521494522801560 1
ion B   0.250160000625000   0.750510623589349   0.478502488694816 1
ion B   0.375160000625000   0.750506145876216   0.521494522801560 1
ion B   0.500160000625000   0.750510623589349   0.478502488694816 1
ion B   0.625160000625000   0.750506145876216   0.521494522801560 1
ion B   0.750160000625000   0.750510623589349   0.478502488694816 1
ion B   0.875160000625000   0.750506145876216   0.521494522801560 1
ion O   0.125160000625000   0.125418060344119   0.635955935936650 1
ion O   0.000160000625000   0.125434732700392   0.364031697260534 1
ion O   0.375160000625000   0.125418060344119   0.635955935936650 1
ion O   0.250160000625000   0.125434732700392   0.364031697260534 1
ion O   0.625160000625000   0.125418060344119   0.635955935936650 1
ion O   0.500160000625000   0.125434732700392   0.364031697260534 1
ion O   0.875160000625000   0.125418060344119   0.635955935936650 1
ion O   0.750160000625000   0.125434732700392   0.364031697260534 1
ion O   0.125160000625000   0.375418060344119   0.635955935936650 1
ion O   0.000160000625000   0.375434732700392   0.364031697260534 1
ion O   0.375160000625000   0.375418060344119   0.635955935936650 1
ion O   0.250160000625000   0.375434732700392   0.364031697260534 1
ion O   0.625160000625000   0.375418060344119   0.635955935936650 1
ion O   0.500160000625000   0.375434732700392   0.364031697260534 1
ion O   0.875160000625000   0.375418060344119   0.635955935936650 1
ion O   0.750160000625000   0.375434732700392   0.364031697260534 1
ion O   0.125160000625000   0.625418060344119   0.635955935936650 1
ion O   0.000160000625000   0.625434732700393   0.364031697260534 1
ion O   0.375160000625000   0.625418060344119   0.635955935936650 1
ion O   0.250160000625000   0.625434732700393   0.364031697260534 1
ion O   0.625160000625000   0.625418060344119   0.635955935936650 1
ion O   0.500160000625000   0.625434732700393   0.364031697260534 1
ion O   0.875160000625000   0.625418060344119   0.635955935936650 1
ion O   0.750160000625000   0.625434732700393   0.364031697260534 1
ion O   0.125160000625000   0.875418060344119   0.635955935936650 1
ion O   0.000160000625000   0.875434732700393   0.364031697260534 1
ion O   0.375160000625000   0.875418060344119   0.635955935936650 1
ion O   0.250160000625000   0.875434732700393   0.364031697260534 1
ion O   0.625160000625000   0.875418060344119   0.635955935936650 1
ion O   0.500160000625000   0.875434732700393   0.364031697260534 1
ion O   0.875160000625000   0.875418060344119   0.635955935936650 1
ion O   0.750160000625000   0.875434732700393   0.364031697260534 1
ion-species GBRV/$ID_pbe.uspp
ion-width Ecut
ionic-minimize  \
	dirUpdateScheme      L-BFGS \
	linminMethod         DirUpdateRecommended \
	nIterations          500 \
	history              15 \
	knormThreshold       0.0001 \
	energyDiffThreshold  1e-06 \
	nEnergyDiff          2 \
	alphaTstart          1 \
	alphaTmin            1e-10 \
	updateTestStepSize   yes \
	alphaTreduceFactor   0.1 \
	alphaTincreaseFactor 3 \
	nAlphaAdjustMax      3 \
	wolfeEnergy          0.0001 \
	wolfeGradient        0.9 \
	fdTest               no
kpoint   0.000000000000   0.000000000000   0.000000000000  1.00000000000000
kpoint-folding 3 3 1 
latt-move-scale 1 1 1
latt-scale 1.88973 1.88973 1.88973 
lattice Triclinic 11.4386 12.0462 20.3069 90 90 90
lattice-minimize  \
	dirUpdateScheme      L-BFGS \
	linminMethod         DirUpdateRecommended \
	nIterations          0 \
	history              15 \
	knormThreshold       0 \
	energyDiffThreshold  1e-06 \
	nEnergyDiff          2 \
	alphaTstart          1 \
	alphaTmin            1e-10 \
	updateTestStepSize   yes \
	alphaTreduceFactor   0.1 \
	alphaTincreaseFactor 3 \
	nAlphaAdjustMax      3 \
	wolfeEnergy          0.0001 \
	wolfeGradient        0.9 \
	fdTest               no
lcao-params -1 1e-06 0.0073499
pcm-variant CANDLE
spintype no-spin
subspace-rotation-factor 1 yes
symmetries automatic
symmetry-threshold 0.0001
target-mu -0.171252 no




---------- Setting up symmetries ----------

Found 8 point-group symmetries of the bravais lattice
Found 32 space-group symmetries with basis
Applied RMS atom displacement 4.46231e-15 bohrs to make symmetries exact.

---------- Initializing the Grid ----------
R = 
[    21.6158          0          0  ]
[          0     22.764          0  ]
[          0          0    38.3745  ]
unit cell volume = 18882.7
G =
[   0.290675          0          0  ]
[          0   0.276014          0  ]
[          0          0   0.163733  ]
Minimum fftbox size, Smin = [  88  92  156  ]
Chosen fftbox size, S = [  90  96  160  ]

---------- Exchange Correlation functional ----------
Initalized PBE GGA exchange.
Initalized PBE GGA correlation.

---------- Setting up pseudopotentials ----------
Width of ionic core gaussian charges (only for fluid interactions / plotting) set to 0.397384

Reading pseudopotential file '/home/guoxy/vasp/jdftx-1.5.0/build/pseudopotentials/GBRV/mo_pbe.uspp':
  Title: Mo.  Created by USPP 7.3.6 on 14-9-2013
  Reference state energy: -69.261020.  14 valence electrons in orbitals:
    |400>  occupation: 2  eigenvalue: -2.465796
    |410>  occupation: 6  eigenvalue: -1.510132
    |420>  occupation: 4  eigenvalue: -0.207728
    |500>  occupation: 2  eigenvalue: -0.179278
    |510>  occupation: 0  eigenvalue: -0.052696
  lMax: 2  lLocal: 3  QijEcut: 5
  6 projectors sampled on a log grid with 629 points:
    l: 0  eig: -2.465797  rCut: 1.8
    l: 0  eig: -0.179280  rCut: 1.8
    l: 1  eig: -1.510132  rCut: 2
    l: 1  eig: 0.150000  rCut: 2
    l: 2  eig: -0.052696  rCut: 2.2
    l: 2  eig: 0.150000  rCut: 2.2
  Partial core density with radius 1.2
  Transforming core density to a uniform radial grid of dG=0.02 with 1144 points.
  Transforming local potential to a uniform radial grid of dG=0.02 with 1144 points.
  Transforming nonlocal projectors to a uniform radial grid of dG=0.02 with 432 points.
  Transforming density augmentations to a uniform radial grid of dG=0.02 with 1144 points.
  Transforming atomic orbitals to a uniform radial grid of dG=0.02 with 432 points.
  Core radius for overlap checks: 2.20 bohrs.

Reading pseudopotential file '/home/guoxy/vasp/jdftx-1.5.0/build/pseudopotentials/GBRV/b_pbe.uspp':
  Title: B.  Created by USPP 7.3.6 on 8-4-15
  Reference state energy: -2.950027.  3 valence electrons in orbitals:
    |200>  occupation: 2  eigenvalue: -0.346865
    |210>  occupation: 1  eigenvalue: -0.132618
  lMax: 1  lLocal: 2  QijEcut: 6
  4 projectors sampled on a log grid with 559 points:
    l: 0  eig: -0.346865  rCut: 1.25
    l: 0  eig: -0.500000  rCut: 1.25
    l: 1  eig: -0.346865  rCut: 1.25
    l: 1  eig: -1.000000  rCut: 1.25
  Partial core density with radius 0.9
  Transforming core density to a uniform radial grid of dG=0.02 with 1144 points.
  Transforming local potential to a uniform radial grid of dG=0.02 with 1144 points.
  Transforming nonlocal projectors to a uniform radial grid of dG=0.02 with 432 points.
  Transforming density augmentations to a uniform radial grid of dG=0.02 with 1144 points.
  Transforming atomic orbitals to a uniform radial grid of dG=0.02 with 432 points.
  Core radius for overlap checks: 1.25 bohrs.

Reading pseudopotential file '/home/guoxy/vasp/jdftx-1.5.0/build/pseudopotentials/GBRV/o_pbe.uspp':
  Title: O.  Created by USPP 7.3.6 on 3-2-2014
  Reference state energy: -15.894388.  6 valence electrons in orbitals:
    |200>  occupation: 2  eigenvalue: -0.878823
    |210>  occupation: 4  eigenvalue: -0.332131
  lMax: 2  lLocal: 2  QijEcut: 6
  5 projectors sampled on a log grid with 511 points:
    l: 0  eig: -0.878823  rCut: 1.25
    l: 0  eig: 0.000000  rCut: 1.25
    l: 1  eig: -0.332132  rCut: 1.25
    l: 1  eig: 0.000000  rCut: 1.25
    l: 2  eig: 1.000000  rCut: 1.25
  Partial core density with radius 0.7
  Transforming core density to a uniform radial grid of dG=0.02 with 1144 points.
  Transforming local potential to a uniform radial grid of dG=0.02 with 1144 points.
  Transforming nonlocal projectors to a uniform radial grid of dG=0.02 with 432 points.
  Transforming density augmentations to a uniform radial grid of dG=0.02 with 1144 points.
  Transforming atomic orbitals to a uniform radial grid of dG=0.02 with 432 points.
  Core radius for overlap checks: 1.25 bohrs.

Initialized 3 species with 96 total atoms.

Folded 1 k-points by 3x3x1 to 9 k-points.

---------- Setting up k-points, bands, fillings ----------
Adding inversion symmetry to k-mesh for non-inversion-symmetric unit cell.
Reduced to 4 k-points under symmetry. 
Computing the number of bands and number of electrons
Calculating initial fillings.
nElectrons: 736.000000   nBands: 672   nStates: 4

----- Setting up reduced wavefunction bases (one per k-point) -----
average nbasis = 80683.000 , ideal nbasis = 80668.147

---------- Setting up coulomb interaction ----------
Fluid mode embedding: using embedded box, but periodic Coulomb kernel.
(Fluid response is responsible for (approximate) separation between periodic images.)
Setting up double-sized grid for truncated Coulomb potentials:
R = 
[    21.6158          0          0  ]
[          0     22.764          0  ]
[          0          0     76.749  ]
unit cell volume = 37765.3
G =
[   0.290675          0          0  ]
[          0   0.276014          0  ]
[          0          0  0.0818667  ]
Chosen fftbox size, S = [  90  96  320  ]
Integer grid location selected as the embedding center:
   Grid: [  45  48  80  ]
   Lattice: [  0.5  0.5  0.5  ]
   Cartesian: [  10.8079  11.382  19.1872  ]
Constructing Wigner-Seitz cell: 6 faces (6 quadrilaterals, 0 hexagons)
Range-separation parameter for embedded mesh potentials due to point charges: 0.618265 bohrs.

Initializing van der Waals corrections
	NOTE: vdW corrections apply only for interactions with fluid.
	Mo:  C6:  427.91 Eh-a0^6  R0: 3.097 a0
	 B:  C6:   54.29 Eh-a0^6  R0: 2.806 a0
	 O:  C6:   12.14 Eh-a0^6  R0: 2.536 a0

---------- Setting up ewald sum ----------
Optimum gaussian width for ewald sums = 6.255027 bohr.
Real space sum over 405 unit cells with max indices [  4  4  2  ]
Reciprocal space sum over 9225 terms with max indices [  7  7  20  ]

---------- Allocating electronic variables ----------
Initializing wave functions:  linear combination of atomic orbitals
Mo pseudo-atom occupations:   s ( 2 0 )  p ( 6 0 )  d ( 6 )
B pseudo-atom occupations:   s ( 2 )  p ( 1 )
O pseudo-atom occupations:   s ( 2 )  p ( 4 )
	FillingsUpdate:  mu: -0.171251800  nElectrons: 736.000000
LCAOMinimize: Iter:   0  G: -2612.6462353309011633  |grad|_K:  1.266e-02  alpha:  1.000e+00
	FillingsUpdate:  mu: -0.171251800  nElectrons: 736.000000
LCAOMinimize: Iter:   1  G: -2660.3930007288372508  |grad|_K:  5.859e-03  alpha:  2.146e-01  linmin: -3.942e-01  cgtest:  7.551e-01  t[s]:    154.08
LCAOMinimize: Encountered beta<0, resetting CG.
	FillingsUpdate:  mu: -0.171251800  nElectrons: 736.000000
LCAOMinimize: Iter:   2  G: -2666.9455732962032926  |grad|_K:  3.420e-03  alpha:  1.893e-01  linmin:  1.426e-01  cgtest: -7.970e-02  t[s]:    210.77
	FillingsUpdate:  mu: -0.171251800  nElectrons: 736.000000
LCAOMinimize: Iter:   3  G: -2668.0378819039970040  |grad|_K:  1.857e-03  alpha:  1.483e-01  linmin: -3.978e-03  cgtest:  7.315e-01  t[s]:    267.19
LCAOMinimize: Encountered beta<0, resetting CG.
	FillingsUpdate:  mu: -0.171251800  nElectrons: 736.000000
LCAOMinimize: Iter:   4  G: -2668.2852396884200061  |grad|_K:  1.199e-03  alpha:  8.341e-02  linmin:  9.187e-03  cgtest: -4.134e-02  t[s]:    323.44
	FillingsUpdate:  mu: -0.171251800  nElectrons: 736.000000
LCAOMinimize: Iter:   5  G: -2668.3267057793405002  |grad|_K:  3.414e-04  alpha:  3.330e-02  linmin:  3.053e-02  cgtest: -2.506e-02  t[s]:    380.03
LCAOMinimize: 	Predicted alpha/alphaT>3.000000, increasing alphaT to 9.989023e-02.
LCAOMinimize: 	Predicted alpha/alphaT>3.000000, increasing alphaT to 2.996707e-01.
	FillingsUpdate:  mu: -0.171251800  nElectrons: 736.000000
LCAOMinimize: Iter:   6  G: -2668.3602826695432668  |grad|_K:  1.742e-04  alpha:  3.285e-01  linmin:  2.648e-02  cgtest: -5.793e-02  t[s]:    468.09
	FillingsUpdate:  mu: -0.171251800  nElectrons: 736.000000
LCAOMinimize: Iter:   7  G: -2668.3622470626551149  |grad|_K:  2.275e-04  alpha:  8.723e-02  linmin: -7.342e-03  cgtest:  9.016e-02  t[s]:    524.35
	FillingsUpdate:  mu: -0.171251800  nElectrons: 736.000000
LCAOMinimize: Iter:   8  G: -2668.3659190143557680  |grad|_K:  8.135e-05  alpha:  7.681e-02  linmin: -1.168e-01  cgtest:  2.043e-01  t[s]:    580.69
	FillingsUpdate:  mu: -0.171251800  nElectrons: 736.000000
LCAOMinimize: Iter:   9  G: -2668.3663148042210196  |grad|_K:  5.302e-05  alpha:  6.573e-02  linmin: -2.768e-01  cgtest:  8.744e-01  t[s]:    637.03
LCAOMinimize: Encountered beta<0, resetting CG.
	FillingsUpdate:  mu: -0.171251800  nElectrons: 736.000000
LCAOMinimize: Iter:  10  G: -2668.3663769779964241  |grad|_K:  4.475e-05  alpha:  4.218e-02  linmin: -2.877e-01  cgtest:  9.057e-01  t[s]:    693.33
LCAOMinimize: Encountered beta<0, resetting CG.
	FillingsUpdate:  mu: -0.171251800  nElectrons: 736.000000
LCAOMinimize: Iter:  11  G: -2668.3663960480612332  |grad|_K:  4.077e-05  alpha:  2.539e-02  linmin: -3.279e-01  cgtest:  9.808e-01  t[s]:    749.62
LCAOMinimize: Encountered beta<0, resetting CG.
	FillingsUpdate:  mu: -0.171251800  nElectrons: 736.000000
LCAOMinimize: Iter:  12  G: -2668.3664023619439831  |grad|_K:  3.918e-05  alpha:  1.455e-02  linmin: -3.324e-01  cgtest:  9.995e-01  t[s]:    806.05
LCAOMinimize: Encountered beta<0, resetting CG.
	FillingsUpdate:  mu: -0.171251800  nElectrons: 736.000000
LCAOMinimize: Iter:  13  G: -2668.3664049726867233  |grad|_K:  3.836e-05  alpha:  8.138e-03  linmin: -3.335e-01  cgtest:  9.999e-01  t[s]:    862.07
LCAOMinimize: Encountered beta<0, resetting CG.
	FillingsUpdate:  mu: -0.171251800  nElectrons: 736.000000
LCAOMinimize: Iter:  14  G: -2668.3664061663071152  |grad|_K:  3.793e-05  alpha:  4.493e-03  linmin: -3.342e-01  cgtest:  1.000e+00  t[s]:    918.45
LCAOMinimize: Encountered beta<0, resetting CG.
	FillingsUpdate:  mu: -0.171251800  nElectrons: 736.000000
LCAOMinimize: Iter:  15  G: -2668.3664067510153473  |grad|_K:  3.770e-05  alpha:  2.464e-03  linmin: -3.345e-01  cgtest:  1.000e+00  t[s]:    974.80
LCAOMinimize: Encountered beta<0, resetting CG.
	FillingsUpdate:  mu: -0.171251800  nElectrons: 736.000000
LCAOMinimize: Iter:  16  G: -2668.3664070503741641  |grad|_K:  3.757e-05  alpha:  1.346e-03  linmin: -3.347e-01  cgtest:  1.000e+00  t[s]:   1031.30
LCAOMinimize: Encountered beta<0, resetting CG.
LCAOMinimize: Converged (|Delta G|<1.000000e-06 for 2 iters).
----- createFluidSolver() ----- (Fluid-side solver setup)
   Initializing fluid molecule 'H2O'
     Initializing site 'O'
       Electron density: proportional to exp(-r/0.36935)*erfc((r-0.51523)/0.36823) with norm 6.826
       Charge density: gaussian nuclear width 0.478731 with net site charge 0.826
       Polarizability: cuspless exponential with width 0.32 and norm 3.73
       Hard sphere radius: 2.57003 bohrs
       Positions in reference frame:
         [ +0.000000 +0.000000 +0.000000 ]
     Initializing site 'H'
       Electron density: proportional to exp(-r/0.34641)*erfc((r-0)/0.390882) with norm 0.587
       Charge density: gaussian nuclear width 0.377945 with net site charge -0.413
       Polarizability: cuspless exponential with width 0.39 and norm 3.3
       Positions in reference frame:
         [ +0.000000 -1.441945 +1.122523 ]
         [ +0.000000 +1.441945 +1.122523 ]
     Net charge: 0   dipole magnitude: 0.927204
     Initializing spherical shell mfKernel with radius 2.61727 Bohr
     deltaS corrections:
       site 'O': -7.54299
       site 'H': -6.83917
   Initializing fluid molecule 'Na+'
     Initializing site 'Na'
       Electron density: proportional to exp(-r/0.19682)*erfc((r-0.71491)/0.41314) with norm 8.1383
       Charge density: gaussian nuclear width 0.365347 with net site charge -1
       Hard sphere radius: 1.86327 bohrs
       Positions in reference frame:
         [ +0.000000 +0.000000 +0.000000 ]
     Net charge: -1   dipole magnitude: 0
     Initializing gaussian mfKernel with width: 1.55004 Bohr
     deltaS corrections:
       site 'Na': -22.3555
   Initializing fluid molecule 'F-'
     Initializing site 'F'
       Electron density: proportional to exp(-r/0.38886)*erfc((r-0)/0.438782) with norm 8
       Charge density: gaussian nuclear width 0.374796 with net site charge 1
       Hard sphere radius: 2.39995 bohrs
       Positions in reference frame:
         [ +0.000000 +0.000000 +0.000000 ]
     Net charge: 1   dipole magnitude: 0
     Initializing gaussian mfKernel with width: 1.59012 Bohr
     deltaS corrections:
       site 'F': -9.04335

Correction to mu due to finite nuclear width = -0.0193368
   Cavity determined by nc: 0.00142 and sigma: 0.707107
   Nonlocal vdW cavity from gaussian model electron density with norm = 8 and sigma = 0.993594 bohr
   Charge asymmetry in cavity with sensitivity pCavity = 36.5 e-bohr/Eh
   Electrostatic cavity expanded by eta = 1.46 bohrs
   Weighted density cavitation model constrained by Nbulk: 0.0049383 bohr^-3, Pvap: 3.14029 kPa, Rvdw: 2.61727 bohr and sigmaBulk: 4.62e-05 Eh/bohr^2 at T: 298 K.
   Weighted density dispersion model using vdW pair potentials with single solvent site with sqrtC6eff: 0.77 SI.


---- Citations for features of the code used in this run ----

   Software package:
      R. Sundararaman, K. Letchworth-Weaver, K.A. Schwarz, D. Gunceler, Y. Ozhabes and T.A. Arias, 'JDFTx: software for joint density-functional theory', SoftwareX 6, 278 (2017)

   gga-PBE exchange-correlation functional:
      J.P. Perdew, K. Burke and M. Ernzerhof, Phys. Rev. Lett. 77, 3865 (1996)

   Pseudopotentials:
      KF Garrity, JW Bennett, KM Rabe and D Vanderbilt, Comput. Mater. Sci. 81, 446 (2014)

   Truncated Coulomb potentials:
      R. Sundararaman and T.A. Arias, Phys. Rev. B 87, 165122 (2013)

   Van der Waals correction pair-potentials:
      S. Grimme, J. Comput. Chem. 27, 1787 (2006)

   Charge-asymmetric nonlocally-determined local-electric (CANDLE) solvation model:
      R. Sundararaman and W.A. Goddard III, J. Chem. Phys. 142, 064107 (2015)

   Total energy minimization with Auxiliary Hamiltonian:
      C. Freysoldt, S. Boeck, and J. Neugebauer, Phys. Rev. B 79, 241103(R) (2009)

   Grand-canonical (fixed-potential) DFT:
      R. Sundararaman, W. A. Goddard III and T. A. Arias, J. Chem. Phys. 146, 114104 (2017)

This list may not be complete. Please suggest additional citations or
report any other bugs at https://github.com/shankar1729/jdftx/issues

Initialization completed successfully at t[s]:   1044.79

Fluid solver invoked on fresh (partially random / LCAO) wavefunctions
Running a vacuum solve first:

-------- Initial electronic minimization -----------
	FillingsUpdate:  mu: -0.160129653  nElectrons: 736.000000
ElecMinimize: Iter:   0  G: -2668.406190979401799  |grad|_K:  1.153e-04  alpha:  1.000e+00
	FillingsUpdate:  mu: -0.080837714  nElectrons: 736.000000
	SubspaceRotationAdjust: set factor to 0.682
ElecMinimize: Iter:   1  G: -2670.244123618333560  |grad|_K:  8.499e-05  alpha:  6.340e-01  linmin:  2.641e-06  t[s]:   1190.44
	FillingsUpdate:  mu: -0.150496485  nElectrons: 736.000000
	SubspaceRotationAdjust: set factor to 0.353
ElecMinimize: Iter:   2  G: -2670.461217455057977  |grad|_K:  5.721e-05  alpha:  1.947e-01  linmin:  5.546e-04  t[s]:   1281.54
	FillingsUpdate:  mu: -0.130937646  nElectrons: 736.000000
	SubspaceRotationAdjust: set factor to 0.62
ElecMinimize: Iter:   3  G: -2670.676078995822991  |grad|_K:  2.609e-05  alpha:  3.867e-01  linmin:  3.214e-05  t[s]:   1372.54
	FillingsUpdate:  mu: -0.120773154  nElectrons: 736.000000
	SubspaceRotationAdjust: set factor to 0.579
ElecMinimize: Iter:   4  G: -2670.731802317523034  |grad|_K:  1.634e-05  alpha:  3.809e-01  linmin:  1.881e-05  t[s]:   1463.57
	FillingsUpdate:  mu: -0.125591072  nElectrons: 736.000000
	SubspaceRotationAdjust: set factor to 0.344
ElecMinimize: Iter:   5  G: -2670.744349702823001  |grad|_K:  2.179e-05  alpha:  2.173e-01  linmin:  2.860e-06  t[s]:   1554.51
	FillingsUpdate:  mu: -0.130675205  nElectrons: 736.000000
	SubspaceRotationAdjust: set factor to 0.252
ElecMinimize: Iter:   6  G: -2670.754787449267042  |grad|_K:  8.720e-06  alpha:  1.012e-01  linmin:  2.505e-06  t[s]:   1645.42
ElecMinimize: 	Predicted alpha/alphaT>3.000000, increasing alphaT to 3.034542e-01.
	FillingsUpdate:  mu: -0.126856280  nElectrons: 736.000000
	SubspaceRotationAdjust: set factor to 0.323
ElecMinimize: Iter:   7  G: -2670.761418904678976  |grad|_K:  5.928e-06  alpha:  4.013e-01  linmin:  8.607e-06  t[s]:   1760.88
	FillingsUpdate:  mu: -0.125631571  nElectrons: 736.000000
	SubspaceRotationAdjust: set factor to 0.243
ElecMinimize: Iter:   8  G: -2670.763263124519199  |grad|_K:  5.571e-06  alpha:  2.412e-01  linmin: -1.219e-06  t[s]:   1851.79
	FillingsUpdate:  mu: -0.125193652  nElectrons: 736.000000
	SubspaceRotationAdjust: set factor to 0.188
ElecMinimize: Iter:   9  G: -2670.764878272515944  |grad|_K:  3.096e-06  alpha:  2.388e-01  linmin:  2.288e-06  t[s]:   1942.67
	FillingsUpdate:  mu: -0.125851382  nElectrons: 736.000000
	SubspaceRotationAdjust: set factor to 0.202
ElecMinimize: Iter:  10  G: -2670.765794298015408  |grad|_K:  1.941e-06  alpha:  4.394e-01  linmin:  4.677e-09  t[s]:   2033.55
	FillingsUpdate:  mu: -0.125858907  nElectrons: 736.000000
	SubspaceRotationAdjust: set factor to 0.227
ElecMinimize: Iter:  11  G: -2670.766180369799713  |grad|_K:  1.208e-06  alpha:  4.708e-01  linmin: -7.797e-07  t[s]:   2124.38
	FillingsUpdate:  mu: -0.125908931  nElectrons: 736.000000
	SubspaceRotationAdjust: set factor to 0.257
ElecMinimize: Iter:  12  G: -2670.766337936040145  |grad|_K:  8.692e-07  alpha:  4.958e-01  linmin: -1.429e-07  t[s]:   2215.16
	FillingsUpdate:  mu: -0.125956631  nElectrons: 736.000000
	SubspaceRotationAdjust: set factor to 0.286
ElecMinimize: Iter:  13  G: -2670.766409506168657  |grad|_K:  6.060e-07  alpha:  4.349e-01  linmin: -3.961e-08  t[s]:   2306.31
	FillingsUpdate:  mu: -0.125886381  nElectrons: 736.000000
	SubspaceRotationAdjust: set factor to 0.205
ElecMinimize: Iter:  14  G: -2670.766442388862743  |grad|_K:  6.359e-07  alpha:  4.112e-01  linmin: -8.683e-09  t[s]:   2397.28
	FillingsUpdate:  mu: -0.125839779  nElectrons: 736.000000
	SubspaceRotationAdjust: set factor to 0.134
	SubspaceRotationAdjust: resetting CG because factor has changed by 0.133973
ElecMinimize: 	State modified externally: resetting search direction.
ElecMinimize: Iter:  15  G: -2670.766459052168557  |grad|_K:  3.399e-07  alpha:  1.891e-01
	FillingsUpdate:  mu: -0.125863289  nElectrons: 736.000000
	SubspaceRotationAdjust: set factor to 0.163
ElecMinimize: Iter:  16  G: -2670.766468331313263  |grad|_K:  2.036e-07  alpha:  3.687e-01  linmin:  3.349e-08  t[s]:   2627.88
	FillingsUpdate:  mu: -0.125863209  nElectrons: 736.000000
	SubspaceRotationAdjust: set factor to 0.153
ElecMinimize: Iter:  17  G: -2670.766473008605317  |grad|_K:  1.534e-07  alpha:  5.184e-01  linmin:  5.743e-08  t[s]:   2718.84
	FillingsUpdate:  mu: -0.125855104  nElectrons: 736.000000
	SubspaceRotationAdjust: set factor to 0.159
ElecMinimize: Iter:  18  G: -2670.766475606478252  |grad|_K:  1.349e-07  alpha:  5.068e-01  linmin:  1.213e-08  t[s]:   2810.10
	FillingsUpdate:  mu: -0.125851232  nElectrons: 736.000000
	SubspaceRotationAdjust: set factor to 0.153
ElecMinimize: Iter:  19  G: -2670.766478609848491  |grad|_K:  1.375e-07  alpha:  7.587e-01  linmin:  1.448e-07  t[s]:   2900.87
	FillingsUpdate:  mu: -0.125845759  nElectrons: 736.000000
	SubspaceRotationAdjust: set factor to 0.123
ElecMinimize: Iter:  20  G: -2670.766481130548527  |grad|_K:  1.200e-07  alpha:  6.129e-01  linmin:  8.853e-08  t[s]:   2991.69
	FillingsUpdate:  mu: -0.125852904  nElectrons: 736.000000
	SubspaceRotationAdjust: set factor to 0.0862
ElecMinimize: Iter:  21  G: -2670.766482593209275  |grad|_K:  8.515e-08  alpha:  4.663e-01  linmin:  5.172e-08  t[s]:   3082.58
	FillingsUpdate:  mu: -0.125867979  nElectrons: 736.000000
	SubspaceRotationAdjust: set factor to 0.0863
ElecMinimize: Iter:  22  G: -2670.766483348245401  |grad|_K:  4.410e-08  alpha:  4.788e-01  linmin:  8.739e-08  t[s]:   3173.37
	FillingsUpdate:  mu: -0.125868718  nElectrons: 736.000000
	SubspaceRotationAdjust: set factor to 0.0907
ElecMinimize: Iter:  23  G: -2670.766483559117660  |grad|_K:  2.520e-08  alpha:  4.986e-01  linmin:  8.599e-09  t[s]:   3264.15
	FillingsUpdate:  mu: -0.125864628  nElectrons: 736.000000
	SubspaceRotationAdjust: set factor to 0.0986
ElecMinimize: Iter:  24  G: -2670.766483614432218  |grad|_K:  1.505e-08  alpha:  3.998e-01  linmin:  1.351e-08  t[s]:   3355.05
	FillingsUpdate:  mu: -0.125863137  nElectrons: 736.000000
	SubspaceRotationAdjust: set factor to 0.12
ElecMinimize: Iter:  25  G: -2670.766483637062265  |grad|_K:  1.061e-08  alpha:  4.564e-01  linmin: -9.488e-08  t[s]:   3446.01
	FillingsUpdate:  mu: -0.125863381  nElectrons: 736.000000
	SubspaceRotationAdjust: set factor to 0.145
ElecMinimize: Iter:  26  G: -2670.766483649466863  |grad|_K:  6.979e-09  alpha:  5.072e-01  linmin: -7.172e-08  t[s]:   3536.99
	FillingsUpdate:  mu: -0.125861190  nElectrons: 736.000000
	SubspaceRotationAdjust: set factor to 0.177
ElecMinimize: Iter:  27  G: -2670.766483655572756  |grad|_K:  5.843e-09  alpha:  5.746e-01  linmin:  7.556e-08  t[s]:   3628.13
	FillingsUpdate:  mu: -0.125858160  nElectrons: 736.000000
	SubspaceRotationAdjust: set factor to 0.208
ElecMinimize: Iter:  28  G: -2670.766483660174799  |grad|_K:  5.512e-09  alpha:  6.269e-01  linmin: -1.496e-08  t[s]:   3719.24
ElecMinimize: Converged (|Delta G|<1.000000e-08 for 2 iters).
Setting wave functions to eigenvectors of Hamiltonian
Vacuum energy after initial minimize, F = -2670.766483660174799

Shifting auxilliary hamiltonian by -0.045394 to set nElectrons=736.000000
	Linear fluid (dielectric constant: 78.4, screening length: 5.74355 Bohr) occupying 0.744561 of unit cell:	Completed after 19 iterations at t[s]:   3739.40

-------- Electronic minimization -----------
	Linear fluid (dielectric constant: 78.4, screening length: 5.74355 Bohr) occupying 0.744561 of unit cell:	Completed after 0 iterations at t[s]:   3758.99
	FillingsUpdate:  mu: -0.171251800  nElectrons: 736.000000
ElecMinimize: Iter:   0  G: -2670.763084212570902  |grad|_K:  6.354e-05  alpha:  1.000e+00
	Linear fluid (dielectric constant: 78.4, screening length: 5.74355 Bohr) occupying 0.786871 of unit cell:	Completed after 18 iterations at t[s]:   3835.91
	Linear fluid (dielectric constant: 78.4, screening length: 5.74355 Bohr) occupying 0.762340 of unit cell:	Completed after 28 iterations at t[s]:   3871.44
	FillingsUpdate:  mu: -0.171251800  nElectrons: 738.505532
	SubspaceRotationAdjust: set factor to 0.121
ElecMinimize: Iter:   1  G: -2670.854891650654736  |grad|_K:  2.613e-05  alpha:  1.284e-01  linmin:  4.785e-03  t[s]:   3913.44
	Linear fluid (dielectric constant: 78.4, screening length: 5.74355 Bohr) occupying 0.763658 of unit cell:	Completed after 16 iterations at t[s]:   3946.95
ElecMinimize: 	Predicted alpha/alphaT>3.000000, increasing alphaT to 3.851965e-01.
	Linear fluid (dielectric constant: 78.4, screening length: 5.74355 Bohr) occupying 0.766008 of unit cell:	Completed after 17 iterations at t[s]:   3979.45
	Linear fluid (dielectric constant: 78.4, screening length: 5.74355 Bohr) occupying 0.767662 of unit cell:	Completed after 17 iterations at t[s]:   4012.63
	FillingsUpdate:  mu: -0.171251800  nElectrons: 739.130216
	SubspaceRotationAdjust: set factor to 0.0829
ElecMinimize: Iter:   2  G: -2670.933925333229581  |grad|_K:  2.013e-05  alpha:  5.959e-01  linmin: -7.231e-05  t[s]:   4053.12
	Linear fluid (dielectric constant: 78.4, screening length: 5.74355 Bohr) occupying 0.780701 of unit cell:	Completed after 26 iterations at t[s]:   4088.13
	Linear fluid (dielectric constant: 78.4, screening length: 5.74355 Bohr) occupying 0.777709 of unit cell:	Completed after 26 iterations at t[s]:   4124.40
	FillingsUpdate:  mu: -0.171251800  nElectrons: 740.750184
	SubspaceRotationAdjust: set factor to 0.0396
ElecMinimize: Iter:   3  G: -2670.968003656497785  |grad|_K:  1.042e-05  alpha:  3.854e-01  linmin:  7.158e-04  t[s]:   4166.43
	Linear fluid (dielectric constant: 78.4, screening length: 5.74355 Bohr) occupying 0.777057 of unit cell:	Completed after 18 iterations at t[s]:   4200.53
	Linear fluid (dielectric constant: 78.4, screening length: 5.74355 Bohr) occupying 0.776558 of unit cell:	Completed after 18 iterations at t[s]:   4233.95
	FillingsUpdate:  mu: -0.171251800  nElectrons: 740.625838
	SubspaceRotationAdjust: set factor to 0.0282
	SubspaceRotationAdjust: resetting CG because factor has changed by 0.135133
	Linear fluid (dielectric constant: 78.4, screening length: 5.74355 Bohr) occupying 0.776558 of unit cell:	Completed after 0 iterations at t[s]:   4287.97
ElecMinimize: 	State modified externally: resetting search direction.
ElecMinimize: Iter:   4  G: -2670.983313879174148  |grad|_K:  5.848e-06  alpha:  6.696e-01
	Linear fluid (dielectric constant: 78.4, screening length: 5.74355 Bohr) occupying 0.777301 of unit cell:	Completed after 18 iterations at t[s]:   4359.56
	Linear fluid (dielectric constant: 78.4, screening length: 5.74355 Bohr) occupying 0.777099 of unit cell:	Completed after 14 iterations at t[s]:   4392.54
	FillingsUpdate:  mu: -0.171251800  nElectrons: 740.741871
	SubspaceRotationAdjust: set factor to 0.0395
ElecMinimize: Iter:   5  G: -2670.986909400350214  |grad|_K:  3.112e-06  alpha:  4.834e-01  linmin: -1.336e-05  t[s]:   4432.43
	Linear fluid (dielectric constant: 78.4, screening length: 5.74355 Bohr) occupying 0.777151 of unit cell:	Completed after 12 iterations at t[s]:   4465.31
	Linear fluid (dielectric constant: 78.4, screening length: 5.74355 Bohr) occupying 0.777163 of unit cell:	Completed after 9 iterations at t[s]:   4496.26
	FillingsUpdate:  mu: -0.171251800  nElectrons: 740.766161
	SubspaceRotationAdjust: set factor to 0.0495
ElecMinimize: Iter:   6  G: -2670.988176693520018  |grad|_K:  3.714e-06  alpha:  6.008e-01  linmin: -6.107e-06  t[s]:   4535.83
	Linear fluid (dielectric constant: 78.4, screening length: 5.74355 Bohr) occupying 0.776926 of unit cell:	Completed after 12 iterations at t[s]:   4568.03
	Linear fluid (dielectric constant: 78.4, screening length: 5.74355 Bohr) occupying 0.776800 of unit cell:	Completed after 12 iterations at t[s]:   4599.97
	FillingsUpdate:  mu: -0.171251800  nElectrons: 740.729455
	SubspaceRotationAdjust: set factor to 0.0596
ElecMinimize: Iter:   7  G: -2670.990906492679187  |grad|_K:  4.613e-06  alpha:  9.101e-01  linmin:  2.097e-05  t[s]:   4639.79
	Linear fluid (dielectric constant: 78.4, screening length: 5.74355 Bohr) occupying 0.776457 of unit cell:	Completed after 16 iterations at t[s]:   4672.86
	Linear fluid (dielectric constant: 78.4, screening length: 5.74355 Bohr) occupying 0.776475 of unit cell:	Completed after 10 iterations at t[s]:   4704.80
	FillingsUpdate:  mu: -0.171251800  nElectrons: 740.732783
	SubspaceRotationAdjust: set factor to 0.0669
ElecMinimize: Iter:   8  G: -2670.994898460051445  |grad|_K:  5.966e-06  alpha:  8.666e-01  linmin:  1.339e-05  t[s]:   4744.58
	Linear fluid (dielectric constant: 78.4, screening length: 5.74355 Bohr) occupying 0.777551 of unit cell:	Completed after 16 iterations at t[s]:   4778.08
	Linear fluid (dielectric constant: 78.4, screening length: 5.74355 Bohr) occupying 0.777423 of unit cell:	Completed after 6 iterations at t[s]:   4808.79
	FillingsUpdate:  mu: -0.171251800  nElectrons: 741.060477
	SubspaceRotationAdjust: set factor to 0.0775
ElecMinimize: Iter:   9  G: -2671.000664632701955  |grad|_K:  6.892e-06  alpha:  7.492e-01  linmin:  5.705e-06  t[s]:   4847.97
	Linear fluid (dielectric constant: 78.4, screening length: 5.74355 Bohr) occupying 0.779234 of unit cell:	Completed after 24 iterations at t[s]:   4882.30
	Linear fluid (dielectric constant: 78.4, screening length: 5.74355 Bohr) occupying 0.778945 of unit cell:	Completed after 13 iterations at t[s]:   4915.90
	FillingsUpdate:  mu: -0.171251800  nElectrons: 741.621055
	SubspaceRotationAdjust: set factor to 0.0785
ElecMinimize: Iter:  10  G: -2671.006947612046133  |grad|_K:  6.114e-06  alpha:  6.039e-01  linmin:  1.685e-05  t[s]:   4956.12
	Linear fluid (dielectric constant: 78.4, screening length: 5.74355 Bohr) occupying 0.779707 of unit cell:	Completed after 19 iterations at t[s]:   4990.41
	Linear fluid (dielectric constant: 78.4, screening length: 5.74355 Bohr) occupying 0.779475 of unit cell:	Completed after 15 iterations at t[s]:   5023.61
	FillingsUpdate:  mu: -0.171251800  nElectrons: 741.885770
	SubspaceRotationAdjust: set factor to 0.085
ElecMinimize: Iter:  11  G: -2671.010171070129672  |grad|_K:  3.483e-06  alpha:  3.986e-01  linmin:  6.366e-08  t[s]:   5063.91
	Linear fluid (dielectric constant: 78.4, screening length: 5.74355 Bohr) occupying 0.779435 of unit cell:	Completed after 14 iterations at t[s]:   5096.50
	Linear fluid (dielectric constant: 78.4, screening length: 5.74355 Bohr) occupying 0.779433 of unit cell:	Completed after 3 iterations at t[s]:   5127.05
	FillingsUpdate:  mu: -0.171251800  nElectrons: 741.900167
	SubspaceRotationAdjust: set factor to 0.0918
ElecMinimize: Iter:  12  G: -2671.011267945351392  |grad|_K:  2.675e-06  alpha:  4.153e-01  linmin: -3.977e-06  t[s]:   5165.63
	Linear fluid (dielectric constant: 78.4, screening length: 5.74355 Bohr) occupying 0.779474 of unit cell:	Completed after 6 iterations at t[s]:   5196.99
	Linear fluid (dielectric constant: 78.4, screening length: 5.74355 Bohr) occupying 0.779485 of unit cell:	Completed after 5 iterations at t[s]:   5226.46
	FillingsUpdate:  mu: -0.171251800  nElectrons: 741.934501
	SubspaceRotationAdjust: set factor to 0.123
ElecMinimize: Iter:  13  G: -2671.012093032454231  |grad|_K:  2.206e-06  alpha:  5.290e-01  linmin:  2.660e-06  t[s]:   5265.22
	Linear fluid (dielectric constant: 78.4, screening length: 5.74355 Bohr) occupying 0.779556 of unit cell:	Completed after 14 iterations at t[s]:   5298.24
	Linear fluid (dielectric constant: 78.4, screening length: 5.74355 Bohr) occupying 0.779540 of unit cell:	Completed after 11 iterations at t[s]:   5330.00
	FillingsUpdate:  mu: -0.171251800  nElectrons: 741.959642
	SubspaceRotationAdjust: set factor to 0.107
ElecMinimize: Iter:  14  G: -2671.012528156712960  |grad|_K:  1.845e-06  alpha:  4.114e-01  linmin: -2.317e-06  t[s]:   5369.91
	Linear fluid (dielectric constant: 78.4, screening length: 5.74355 Bohr) occupying 0.779320 of unit cell:	Completed after 14 iterations at t[s]:   5402.96
	Linear fluid (dielectric constant: 78.4, screening length: 5.74355 Bohr) occupying 0.779288 of unit cell:	Completed after 9 iterations at t[s]:   5434.33
	FillingsUpdate:  mu: -0.171251800  nElectrons: 741.871028
	SubspaceRotationAdjust: set factor to 0.142
ElecMinimize: Iter:  15  G: -2671.012877754303645  |grad|_K:  1.542e-06  alpha:  4.709e-01  linmin: -4.188e-07  t[s]:   5473.74
	Linear fluid (dielectric constant: 78.4, screening length: 5.74355 Bohr) occupying 0.779127 of unit cell:	Completed after 13 iterations at t[s]:   5506.62
	Linear fluid (dielectric constant: 78.4, screening length: 5.74355 Bohr) occupying 0.779135 of unit cell:	Completed after 2 iterations at t[s]:   5536.41
	FillingsUpdate:  mu: -0.171251800  nElectrons: 741.813678
	SubspaceRotationAdjust: set factor to 0.17
ElecMinimize: Iter:  16  G: -2671.013110425915329  |grad|_K:  1.478e-06  alpha:  4.494e-01  linmin:  1.944e-06  t[s]:   5574.80
	Linear fluid (dielectric constant: 78.4, screening length: 5.74355 Bohr) occupying 0.779110 of unit cell:	Completed after 13 iterations at t[s]:   5607.75
	Linear fluid (dielectric constant: 78.4, screening length: 5.74355 Bohr) occupying 0.779108 of unit cell:	Completed after 2 iterations at t[s]:   5637.46
	FillingsUpdate:  mu: -0.171251800  nElectrons: 741.792162
	SubspaceRotationAdjust: set factor to 0.179
ElecMinimize: Iter:  17  G: -2671.013339533622911  |grad|_K:  1.392e-06  alpha:  4.829e-01  linmin: -1.231e-06  t[s]:   5675.87
	Linear fluid (dielectric constant: 78.4, screening length: 5.74355 Bohr) occupying 0.778854 of unit cell:	Completed after 13 iterations at t[s]:   5708.64
	Linear fluid (dielectric constant: 78.4, screening length: 5.74355 Bohr) occupying 0.778951 of unit cell:	Completed after 11 iterations at t[s]:   5740.09
	FillingsUpdate:  mu: -0.171251800  nElectrons: 741.731390
	SubspaceRotationAdjust: set factor to 0.199
ElecMinimize: Iter:  18  G: -2671.013467082781972  |grad|_K:  1.074e-06  alpha:  3.013e-01  linmin:  1.310e-06  t[s]:   5779.94
	Linear fluid (dielectric constant: 78.4, screening length: 5.74355 Bohr) occupying 0.778946 of unit cell:	Completed after 9 iterations at t[s]:   5812.13
	Linear fluid (dielectric constant: 78.4, screening length: 5.74355 Bohr) occupying 0.778942 of unit cell:	Completed after 9 iterations at t[s]:   5842.57
	FillingsUpdate:  mu: -0.171251800  nElectrons: 741.714435
	SubspaceRotationAdjust: set factor to 0.247
	SubspaceRotationAdjust: resetting CG because factor has changed by 8.76533
	Linear fluid (dielectric constant: 78.4, screening length: 5.74355 Bohr) occupying 0.778942 of unit cell:	Completed after 0 iterations at t[s]:   5895.59
ElecMinimize: 	State modified externally: resetting search direction.
ElecMinimize: Iter:  19  G: -2671.013597126976038  |grad|_K:  1.117e-06  alpha:  5.198e-01
	Linear fluid (dielectric constant: 78.4, screening length: 5.74355 Bohr) occupying 0.778946 of unit cell:	Completed after 9 iterations at t[s]:   5964.59
	Linear fluid (dielectric constant: 78.4, screening length: 5.74355 Bohr) occupying 0.778946 of unit cell:	Completed after 2 iterations at t[s]:   5994.40
	FillingsUpdate:  mu: -0.171251800  nElectrons: 741.713278
	SubspaceRotationAdjust: set factor to 0.329
ElecMinimize: Iter:  20  G: -2671.013722559104281  |grad|_K:  9.393e-07  alpha:  4.622e-01  linmin:  5.534e-07  t[s]:   6032.62
	Linear fluid (dielectric constant: 78.4, screening length: 5.74355 Bohr) occupying 0.779025 of unit cell:	Completed after 11 iterations at t[s]:   6065.12
	Linear fluid (dielectric constant: 78.4, screening length: 5.74355 Bohr) occupying 0.779070 of unit cell:	Completed after 10 iterations at t[s]:   6096.47
	FillingsUpdate:  mu: -0.171251800  nElectrons: 741.746184
	SubspaceRotationAdjust: set factor to 0.342
ElecMinimize: Iter:  21  G: -2671.013861656859717  |grad|_K:  1.018e-06  alpha:  7.257e-01  linmin:  2.300e-06  t[s]:   6136.20
	Linear fluid (dielectric constant: 78.4, screening length: 5.74355 Bohr) occupying 0.778697 of unit cell:	Completed after 16 iterations at t[s]:   6169.61
	Linear fluid (dielectric constant: 78.4, screening length: 5.74355 Bohr) occupying 0.778992 of unit cell:	Completed after 14 iterations at t[s]:   6201.93
	FillingsUpdate:  mu: -0.171251800  nElectrons: 741.718059
	SubspaceRotationAdjust: set factor to 0.236
ElecMinimize: Iter:  22  G: -2671.013896670080612  |grad|_K:  8.660e-07  alpha:  1.554e-01  linmin:  1.403e-06  t[s]:   6242.09
	Linear fluid (dielectric constant: 78.4, screening length: 5.74355 Bohr) occupying 0.779048 of unit cell:	Completed after 11 iterations at t[s]:   6274.60
	Linear fluid (dielectric constant: 78.4, screening length: 5.74355 Bohr) occupying 0.779067 of unit cell:	Completed after 7 iterations at t[s]:   6304.92
	FillingsUpdate:  mu: -0.171251800  nElectrons: 741.737360
	SubspaceRotationAdjust: set factor to 0.22
ElecMinimize: Iter:  23  G: -2671.013930745808466  |grad|_K:  4.596e-07  alpha:  2.092e-01  linmin: -3.862e-07  t[s]:   6343.96
	Linear fluid (dielectric constant: 78.4, screening length: 5.74355 Bohr) occupying 0.779062 of unit cell:	Completed after 2 iterations at t[s]:   6374.71
	Linear fluid (dielectric constant: 78.4, screening length: 5.74355 Bohr) occupying 0.779054 of unit cell:	Completed after 3 iterations at t[s]:   6403.74
	FillingsUpdate:  mu: -0.171251800  nElectrons: 741.726990
	SubspaceRotationAdjust: set factor to 0.292
ElecMinimize: Iter:  24  G: -2671.013956657522158  |grad|_K:  3.268e-07  alpha:  5.595e-01  linmin: -2.943e-06  t[s]:   6442.11
	Linear fluid (dielectric constant: 78.4, screening length: 5.74355 Bohr) occupying 0.779022 of unit cell:	Completed after 8 iterations at t[s]:   6473.91
	Linear fluid (dielectric constant: 78.4, screening length: 5.74355 Bohr) occupying 0.779022 of unit cell:	Completed after 0 iterations at t[s]:   6502.71
	FillingsUpdate:  mu: -0.171251800  nElectrons: 741.711620
	SubspaceRotationAdjust: set factor to 0.337
ElecMinimize: Iter:  25  G: -2671.013969938998343  |grad|_K:  2.678e-07  alpha:  5.669e-01  linmin: -1.965e-06  t[s]:   6540.64
	Linear fluid (dielectric constant: 78.4, screening length: 5.74355 Bohr) occupying 0.779061 of unit cell:	Completed after 12 iterations at t[s]:   6573.20
	Linear fluid (dielectric constant: 78.4, screening length: 5.74355 Bohr) occupying 0.779038 of unit cell:	Completed after 11 iterations at t[s]:   6604.72
	FillingsUpdate:  mu: -0.171251800  nElectrons: 741.714889
	SubspaceRotationAdjust: set factor to 0.219
ElecMinimize: Iter:  26  G: -2671.013973788405110  |grad|_K:  2.800e-07  alpha:  2.376e-01  linmin: -1.779e-07  t[s]:   6644.17
	Linear fluid (dielectric constant: 78.4, screening length: 5.74355 Bohr) occupying 0.778988 of unit cell:	Completed after 10 iterations at t[s]:   6676.23
	Linear fluid (dielectric constant: 78.4, screening length: 5.74355 Bohr) occupying 0.779006 of unit cell:	Completed after 3 iterations at t[s]:   6706.13
	FillingsUpdate:  mu: -0.171251800  nElectrons: 741.702741
	SubspaceRotationAdjust: set factor to 0.112
ElecMinimize: Iter:  27  G: -2671.013976475361233  |grad|_K:  1.470e-07  alpha:  1.551e-01  linmin:  1.644e-05  t[s]:   6744.69
	Linear fluid (dielectric constant: 78.4, screening length: 5.74355 Bohr) occupying 0.779007 of unit cell:	Completed after 5 iterations at t[s]:   6776.05
	Linear fluid (dielectric constant: 78.4, screening length: 5.74355 Bohr) occupying 0.779008 of unit cell:	Completed after 0 iterations at t[s]:   6804.30
	FillingsUpdate:  mu: -0.171251800  nElectrons: 741.702505
	SubspaceRotationAdjust: set factor to 0.105
ElecMinimize: Iter:  28  G: -2671.013977686231556  |grad|_K:  8.086e-08  alpha:  2.355e-01  linmin: -7.970e-05  t[s]:   6842.20
	Linear fluid (dielectric constant: 78.4, screening length: 5.74355 Bohr) occupying 0.779008 of unit cell:	Completed after 0 iterations at t[s]:   6872.48
	Linear fluid (dielectric constant: 78.4, screening length: 5.74355 Bohr) occupying 0.779008 of unit cell:	Completed after 2 iterations at t[s]:   6900.40
	FillingsUpdate:  mu: -0.171251800  nElectrons: 741.701209
	SubspaceRotationAdjust: set factor to 0.109
ElecMinimize: Iter:  29  G: -2671.013978530054828  |grad|_K:  9.297e-08  alpha:  5.187e-01  linmin:  1.421e-05  t[s]:   6939.08
	Linear fluid (dielectric constant: 78.4, screening length: 5.74355 Bohr) occupying 0.778999 of unit cell:	Completed after 3 iterations at t[s]:   6970.17
	Linear fluid (dielectric constant: 78.4, screening length: 5.74355 Bohr) occupying 0.779003 of unit cell:	Completed after 0 iterations at t[s]:   6998.13
	FillingsUpdate:  mu: -0.171251800  nElectrons: 741.698937
	SubspaceRotationAdjust: set factor to 0.104
ElecMinimize: Iter:  30  G: -2671.013979025352910  |grad|_K:  6.845e-08  alpha:  2.892e-01  linmin:  7.221e-06  t[s]:   7035.98
	Linear fluid (dielectric constant: 78.4, screening length: 5.74355 Bohr) occupying 0.779003 of unit cell:	Completed after 0 iterations at t[s]:   7066.22
	Linear fluid (dielectric constant: 78.4, screening length: 5.74355 Bohr) occupying 0.779003 of unit cell:	Completed after 0 iterations at t[s]:   7093.77
	FillingsUpdate:  mu: -0.171251800  nElectrons: 741.698607
	SubspaceRotationAdjust: set factor to 0.121
ElecMinimize: Iter:  31  G: -2671.013979241680772  |grad|_K:  5.198e-08  alpha:  2.270e-01  linmin:  6.535e-09  t[s]:   7131.73
	Linear fluid (dielectric constant: 78.4, screening length: 5.74355 Bohr) occupying 0.779005 of unit cell:	Completed after 1 iterations at t[s]:   7162.45
	Linear fluid (dielectric constant: 78.4, screening length: 5.74355 Bohr) occupying 0.779004 of unit cell:	Completed after 0 iterations at t[s]:   7190.05
	FillingsUpdate:  mu: -0.171251800  nElectrons: 741.698833
	SubspaceRotationAdjust: set factor to 0.111
ElecMinimize: Iter:  32  G: -2671.013979256559651  |grad|_K:  3.843e-08  alpha:  1.173e-01  linmin: -1.075e-05  t[s]:   7228.03
	Linear fluid (dielectric constant: 78.4, screening length: 5.74355 Bohr) occupying 0.779004 of unit cell:	Completed after 0 iterations at t[s]:   7258.37
	Linear fluid (dielectric constant: 78.4, screening length: 5.74355 Bohr) occupying 0.779003 of unit cell:	Completed after 0 iterations at t[s]:   7285.77
	FillingsUpdate:  mu: -0.171251800  nElectrons: 741.698525
	SubspaceRotationAdjust: set factor to 0.133
ElecMinimize: Iter:  33  G: -2671.013979337765250  |grad|_K:  2.691e-08  alpha:  2.258e-01  linmin: -8.045e-08  t[s]:   7323.68
	Linear fluid (dielectric constant: 78.4, screening length: 5.74355 Bohr) occupying 0.779001 of unit cell:	Completed after 0 iterations at t[s]:   7354.09
	Linear fluid (dielectric constant: 78.4, screening length: 5.74355 Bohr) occupying 0.778999 of unit cell:	Completed after 1 iterations at t[s]:   7382.00
	FillingsUpdate:  mu: -0.171251800  nElectrons: 741.697310
	SubspaceRotationAdjust: set factor to 0.139
ElecMinimize: Iter:  34  G: -2671.013979354651383  |grad|_K:  2.747e-08  alpha:  4.075e-01  linmin:  9.048e-06  t[s]:   7420.10
	Linear fluid (dielectric constant: 78.4, screening length: 5.74355 Bohr) occupying 0.778995 of unit cell:	Completed after 0 iterations at t[s]:   7450.35
	Linear fluid (dielectric constant: 78.4, screening length: 5.74355 Bohr) occupying 0.778997 of unit cell:	Completed after 0 iterations at t[s]:   7477.89
	FillingsUpdate:  mu: -0.171251800  nElectrons: 741.696604
	SubspaceRotationAdjust: set factor to 0.146
ElecMinimize: Iter:  35  G: -2671.013979378785734  |grad|_K:  1.895e-08  alpha:  2.009e-01  linmin: -3.560e-09  t[s]:   7515.91
	Linear fluid (dielectric constant: 78.4, screening length: 5.74355 Bohr) occupying 0.778996 of unit cell:	Completed after 0 iterations at t[s]:   7546.10
	Linear fluid (dielectric constant: 78.4, screening length: 5.74355 Bohr) occupying 0.778996 of unit cell:	Completed after 0 iterations at t[s]:   7573.62
	FillingsUpdate:  mu: -0.171251800  nElectrons: 741.696057
	SubspaceRotationAdjust: set factor to 0.159
ElecMinimize: Iter:  36  G: -2671.013979396668674  |grad|_K:  1.655e-08  alpha:  2.287e-01  linmin: -5.207e-08  t[s]:   7611.26
	Linear fluid (dielectric constant: 78.4, screening length: 5.74355 Bohr) occupying 0.778994 of unit cell:	Completed after 2 iterations at t[s]:   7641.90
	Linear fluid (dielectric constant: 78.4, screening length: 5.74355 Bohr) occupying 0.778995 of unit cell:	Completed after 0 iterations at t[s]:   7669.83
ElecMinimize: 	Step increased G by 5.240099e-08, reducing alpha to 3.365742e-03.
	Linear fluid (dielectric constant: 78.4, screening length: 5.74355 Bohr) occupying 0.778996 of unit cell:	Completed after 0 iterations at t[s]:   7730.75
ElecMinimize: 	Step increased G by 5.165475e-08, reducing alpha to 3.365742e-04.
	Linear fluid (dielectric constant: 78.4, screening length: 5.74355 Bohr) occupying 0.778996 of unit cell:	Completed after 0 iterations at t[s]:   7791.64
ElecMinimize: 	Step increased G by 5.156562e-08, reducing alpha to 3.365742e-05.
ElecMinimize: 	Step failed to reduce G after 3 attempts. Quitting step.
ElecMinimize: 	Undoing step.
	Linear fluid (dielectric constant: 78.4, screening length: 5.74355 Bohr) occupying 0.778996 of unit cell:	Completed after 0 iterations at t[s]:   7852.53
ElecMinimize: 	Step failed: resetting search direction.
	FillingsUpdate:  mu: -0.171251800  nElectrons: 741.696056
	SubspaceRotationAdjust: set factor to 0.114
ElecMinimize: Iter:  37  G: -2671.013979345078496  |grad|_K:  3.597e-08  alpha:  3.366e-05
	Linear fluid (dielectric constant: 78.4, screening length: 5.74355 Bohr) occupying 0.779001 of unit cell:	Completed after 2 iterations at t[s]:   7920.98
	Linear fluid (dielectric constant: 78.4, screening length: 5.74355 Bohr) occupying 0.779001 of unit cell:	Completed after 0 iterations at t[s]:   7948.86
	FillingsUpdate:  mu: -0.171251800  nElectrons: 741.697724
	SubspaceRotationAdjust: set factor to 0.201
ElecMinimize: Iter:  38  G: -2671.013979402812765  |grad|_K:  1.267e-08  alpha:  2.140e-01  linmin: -7.407e-05  t[s]:   7986.70
	Linear fluid (dielectric constant: 78.4, screening length: 5.74355 Bohr) occupying 0.779002 of unit cell:	Completed after 0 iterations at t[s]:   8017.00
ElecMinimize: 	Predicted alpha/alphaT>3.000000, increasing alphaT to 6.420169e-01.
	Linear fluid (dielectric constant: 78.4, screening length: 5.74355 Bohr) occupying 0.779006 of unit cell:	Completed after 0 iterations at t[s]:   8044.13
	Linear fluid (dielectric constant: 78.4, screening length: 5.74355 Bohr) occupying 0.779010 of unit cell:	Completed after 3 iterations at t[s]:   8072.26
ElecMinimize: 	Step increased G by 1.492590e-07, reducing alpha to 1.232488e-01.
	Linear fluid (dielectric constant: 78.4, screening length: 5.74355 Bohr) occupying 0.779002 of unit cell:	Completed after 1 iterations at t[s]:   8133.92
	FillingsUpdate:  mu: -0.171251800  nElectrons: 741.697994
	SubspaceRotationAdjust: set factor to 0.116
ElecMinimize: Iter:  39  G: -2671.013979403177473  |grad|_K:  2.743e-08  alpha:  1.232e-01  linmin:  2.126e-05  t[s]:   8172.02
	Linear fluid (dielectric constant: 78.4, screening length: 5.74355 Bohr) occupying 0.779003 of unit cell:	Completed after 0 iterations at t[s]:   8202.46
	Linear fluid (dielectric constant: 78.4, screening length: 5.74355 Bohr) occupying 0.779003 of unit cell:	Completed after 0 iterations at t[s]:   8230.01
	FillingsUpdate:  mu: -0.171251800  nElectrons: 741.698246
	SubspaceRotationAdjust: set factor to 0.0684
ElecMinimize: Iter:  40  G: -2671.013979409171952  |grad|_K:  2.045e-08  alpha:  7.046e-02  linmin:  1.332e-07  t[s]:   8267.94
ElecMinimize: Converged (|Delta G|<1.000000e-08 for 2 iters).
Setting wave functions to eigenvectors of Hamiltonian
Single-point solvation energy estimate, DeltaG = -0.247495748997153

# Ionic positions in lattice coordinates:
ion Mo   0.000160000625000   0.125486616144824   0.570380142538101 1
ion Mo   0.125160000625000   0.125493810345100   0.429625233768340 1
ion Mo   0.250160000625000   0.125486616144824   0.570380142538101 1
ion Mo   0.375160000625000   0.125493810345100   0.429625233768340 1
ion Mo   0.500160000625000   0.125486616144824   0.570380142538101 1
ion Mo   0.625160000625000   0.125493810345100   0.429625233768340 1
ion Mo   0.750160000625000   0.125486616144824   0.570380142538101 1
ion Mo   0.875160000625000   0.125493810345100   0.429625233768340 1
ion Mo   0.000160000625000   0.375486616144824   0.570380142538101 1
ion Mo   0.125160000625000   0.375493810345100   0.429625233768340 1
ion Mo   0.250160000625000   0.375486616144824   0.570380142538101 1
ion Mo   0.375160000625000   0.375493810345100   0.429625233768340 1
ion Mo   0.500160000625000   0.375486616144824   0.570380142538101 1
ion Mo   0.625160000625000   0.375493810345100   0.429625233768340 1
ion Mo   0.750160000625000   0.375486616144824   0.570380142538101 1
ion Mo   0.875160000625000   0.375493810345100   0.429625233768340 1
ion Mo   0.000160000625000   0.625486616144824   0.570380142538101 1
ion Mo   0.125160000625000   0.625493810345100   0.429625233768340 1
ion Mo   0.250160000625000   0.625486616144824   0.570380142538101 1
ion Mo   0.375160000625000   0.625493810345100   0.429625233768340 1
ion Mo   0.500160000625000   0.625486616144824   0.570380142538101 1
ion Mo   0.625160000625000   0.625493810345100   0.429625233768340 1
ion Mo   0.750160000625000   0.625486616144824   0.570380142538101 1
ion Mo   0.875160000625000   0.625493810345100   0.429625233768340 1
ion Mo   0.000160000625000   0.875486616144824   0.570380142538101 1
ion Mo   0.125160000625000   0.875493810345100   0.429625233768340 1
ion Mo   0.250160000625000   0.875486616144824   0.570380142538101 1
ion Mo   0.375160000625000   0.875493810345100   0.429625233768340 1
ion Mo   0.500160000625000   0.875486616144824   0.570380142538101 1
ion Mo   0.625160000625000   0.875493810345100   0.429625233768340 1
ion Mo   0.750160000625000   0.875486616144824   0.570380142538101 1
ion Mo   0.875160000625000   0.875493810345100   0.429625233768340 1
ion B   0.000160000625000   0.000510623589349   0.478502488694816 1
ion B   0.125160000625000   0.000506145876216   0.521494522801560 1
ion B   0.250160000625000   0.000510623589349   0.478502488694816 1
ion B   0.375160000625000   0.000506145876216   0.521494522801560 1
ion B   0.500160000625000   0.000510623589349   0.478502488694816 1
ion B   0.625160000625000   0.000506145876216   0.521494522801560 1
ion B   0.750160000625000   0.000510623589349   0.478502488694816 1
ion B   0.875160000625000   0.000506145876216   0.521494522801560 1
ion B   0.000160000625000   0.250510623589349   0.478502488694816 1
ion B   0.125160000625000   0.250506145876216   0.521494522801560 1
ion B   0.250160000625000   0.250510623589349   0.478502488694816 1
ion B   0.375160000625000   0.250506145876216   0.521494522801560 1
ion B   0.500160000625000   0.250510623589349   0.478502488694816 1
ion B   0.625160000625000   0.250506145876216   0.521494522801560 1
ion B   0.750160000625000   0.250510623589349   0.478502488694816 1
ion B   0.875160000625000   0.250506145876216   0.521494522801560 1
ion B   0.000160000625000   0.500510623589349   0.478502488694816 1
ion B   0.125160000625000   0.500506145876216   0.521494522801560 1
ion B   0.250160000625000   0.500510623589349   0.478502488694816 1
ion B   0.375160000625000   0.500506145876216   0.521494522801560 1
ion B   0.500160000625000   0.500510623589349   0.478502488694816 1
ion B   0.625160000625000   0.500506145876216   0.521494522801560 1
ion B   0.750160000625000   0.500510623589349   0.478502488694816 1
ion B   0.875160000625000   0.500506145876216   0.521494522801560 1
ion B   0.000160000625000   0.750510623589349   0.478502488694816 1
ion B   0.125160000625000   0.750506145876216   0.521494522801560 1
ion B   0.250160000625000   0.750510623589349   0.478502488694816 1
ion B   0.375160000625000   0.750506145876216   0.521494522801560 1
ion B   0.500160000625000   0.750510623589349   0.478502488694816 1
ion B   0.625160000625000   0.750506145876216   0.521494522801560 1
ion B   0.750160000625000   0.750510623589349   0.478502488694816 1
ion B   0.875160000625000   0.750506145876216   0.521494522801560 1
ion O   0.125160000625000   0.125418060344119   0.635955935936650 1
ion O   0.000160000625000   0.125434732700393   0.364031697260534 1
ion O   0.375160000625000   0.125418060344119   0.635955935936650 1
ion O   0.250160000625000   0.125434732700393   0.364031697260534 1
ion O   0.625160000625000   0.125418060344119   0.635955935936650 1
ion O   0.500160000625000   0.125434732700393   0.364031697260534 1
ion O   0.875160000625000   0.125418060344119   0.635955935936650 1
ion O   0.750160000625000   0.125434732700393   0.364031697260534 1
ion O   0.125160000625000   0.375418060344119   0.635955935936650 1
ion O   0.000160000625000   0.375434732700392   0.364031697260534 1
ion O   0.375160000625000   0.375418060344119   0.635955935936650 1
ion O   0.250160000625000   0.375434732700392   0.364031697260534 1
ion O   0.625160000625000   0.375418060344119   0.635955935936650 1
ion O   0.500160000625000   0.375434732700392   0.364031697260534 1
ion O   0.875160000625000   0.375418060344119   0.635955935936650 1
ion O   0.750160000625000   0.375434732700392   0.364031697260534 1
ion O   0.125160000625000   0.625418060344119   0.635955935936650 1
ion O   0.000160000625000   0.625434732700393   0.364031697260534 1
ion O   0.375160000625000   0.625418060344119   0.635955935936650 1
ion O   0.250160000625000   0.625434732700393   0.364031697260534 1
ion O   0.625160000625000   0.625418060344119   0.635955935936650 1
ion O   0.500160000625000   0.625434732700393   0.364031697260534 1
ion O   0.875160000625000   0.625418060344119   0.635955935936650 1
ion O   0.750160000625000   0.625434732700393   0.364031697260534 1
ion O   0.125160000625000   0.875418060344119   0.635955935936650 1
ion O   0.000160000625000   0.875434732700393   0.364031697260534 1
ion O   0.375160000625000   0.875418060344119   0.635955935936650 1
ion O   0.250160000625000   0.875434732700393   0.364031697260534 1
ion O   0.625160000625000   0.875418060344119   0.635955935936650 1
ion O   0.500160000625000   0.875434732700393   0.364031697260534 1
ion O   0.875160000625000   0.875418060344119   0.635955935936650 1
ion O   0.750160000625000   0.875434732700393   0.364031697260534 1


# Forces in Lattice coordinates:
force Mo   0.000000000000000  -0.000087418557985  -0.882331060019515 1
force Mo   0.000000000000000  -0.000493395418958   0.876257132508684 1
force Mo   0.000000000000000  -0.000087418557985  -0.882331060019515 1
force Mo  -0.000000000000000  -0.000493395418958   0.876257132508684 1
force Mo   0.000000000000000  -0.000087418557985  -0.882331060019515 1
force Mo   0.000000000000000  -0.000493395418958   0.876257132508912 1
force Mo   0.000000000000000  -0.000087418557985  -0.882331060019742 1
force Mo   0.000000000000000  -0.000493395418958   0.876257132508684 1
force Mo   0.000000000000000  -0.000087418557985  -0.882331060019742 1
force Mo  -0.000000000000000  -0.000493395418958   0.876257132508685 1
force Mo   0.000000000000000  -0.000087418557985  -0.882331060019514 1
force Mo   0.000000000000000  -0.000493395418958   0.876257132508457 1
force Mo   0.000000000000000  -0.000087418557985  -0.882331060019969 1
force Mo   0.000000000000000  -0.000493395418958   0.876257132508457 1
force Mo   0.000000000000000  -0.000087418557985  -0.882331060019742 1
force Mo   0.000000000000000  -0.000493395418958   0.876257132508457 1
force Mo   0.000000000000000  -0.000087418557985  -0.882331060019515 1
force Mo  -0.000000000000000  -0.000493395418958   0.876257132508684 1
force Mo   0.000000000000000  -0.000087418557985  -0.882331060019742 1
force Mo   0.000000000000000  -0.000493395418958   0.876257132508456 1
force Mo   0.000000000000000  -0.000087418557985  -0.882331060019743 1
force Mo   0.000000000000000  -0.000493395418958   0.876257132508456 1
force Mo   0.000000000000000  -0.000087418557985  -0.882331060019742 1
force Mo   0.000000000000000  -0.000493395418958   0.876257132508456 1
force Mo  -0.000000000000000  -0.000087418557985  -0.882331060019742 1
force Mo   0.000000000000000  -0.000493395418958   0.876257132508229 1
force Mo   0.000000000000000  -0.000087418557985  -0.882331060019514 1
force Mo   0.000000000000000  -0.000493395418958   0.876257132508229 1
force Mo   0.000000000000000  -0.000087418557985  -0.882331060019514 1
force Mo  -0.000000000000000  -0.000493395418958   0.876257132508456 1
force Mo   0.000000000000000  -0.000087418557985  -0.882331060019742 1
force Mo  -0.000000000000000  -0.000493395418958   0.876257132508457 1
force B  -0.000000000000000  -0.000135900030119   0.003818431855844 1
force B   0.000000000000000  -0.000099950610367  -0.003262370924681 1
force B  -0.000000000000000  -0.000135900030119   0.003818431855830 1
force B  -0.000000000000000  -0.000099950610367  -0.003262370924681 1
force B   0.000000000000000  -0.000135900030119   0.003818431855844 1
force B  -0.000000000000000  -0.000099950610367  -0.003262370924681 1
force B  -0.000000000000000  -0.000135900030119   0.003818431855858 1
force B   0.000000000000000  -0.000099950610367  -0.003262370924681 1
force B  -0.000000000000000  -0.000135900030119   0.003818431855843 1
force B   0.000000000000000  -0.000099950610367  -0.003262370924681 1
force B  -0.000000000000000  -0.000135900030119   0.003818431855858 1
force B  -0.000000000000000  -0.000099950610367  -0.003262370924696 1
force B   0.000000000000000  -0.000135900030119   0.003818431855844 1
force B   0.000000000000000  -0.000099950610367  -0.003262370924696 1
force B  -0.000000000000000  -0.000135900030119   0.003818431855858 1
force B   0.000000000000000  -0.000099950610367  -0.003262370924709 1
force B  -0.000000000000000  -0.000135900030119   0.003818431855844 1
force B  -0.000000000000000  -0.000099950610367  -0.003262370924709 1
force B   0.000000000000000  -0.000135900030119   0.003818431855872 1
force B  -0.000000000000000  -0.000099950610367  -0.003262370924709 1
force B   0.000000000000000  -0.000135900030119   0.003818431855829 1
force B   0.000000000000000  -0.000099950610367  -0.003262370924695 1
force B  -0.000000000000000  -0.000135900030119   0.003818431855858 1
force B  -0.000000000000000  -0.000099950610367  -0.003262370924695 1
force B  -0.000000000000000  -0.000135900030119   0.003818431855858 1
force B  -0.000000000000000  -0.000099950610367  -0.003262370924709 1
force B  -0.000000000000000  -0.000135900030119   0.003818431855844 1
force B   0.000000000000000  -0.000099950610367  -0.003262370924696 1
force B  -0.000000000000000  -0.000135900030119   0.003818431855829 1
force B   0.000000000000000  -0.000099950610367  -0.003262370924709 1
force B  -0.000000000000000  -0.000135900030119   0.003818431855815 1
force B  -0.000000000000000  -0.000099950610367  -0.003262370924710 1
force O  -0.000000000000000  -0.000057529677461   0.847255817478146 1
force O  -0.000000000000000  -0.000302116829856  -0.841803105538133 1
force O  -0.000000000000000  -0.000057529677461   0.847255817478146 1
force O  -0.000000000000000  -0.000302116829856  -0.841803105538361 1
force O   0.000000000000000  -0.000057529677461   0.847255817478143 1
force O   0.000000000000000  -0.000302116829856  -0.841803105538137 1
force O  -0.000000000000000  -0.000057529677461   0.847255817478143 1
force O  -0.000000000000000  -0.000302116829856  -0.841803105537906 1
force O   0.000000000000000  -0.000057529677461   0.847255817478143 1
force O  -0.000000000000000  -0.000302116829856  -0.841803105538588 1
force O   0.000000000000000  -0.000057529677461   0.847255817478370 1
force O   0.000000000000000  -0.000302116829856  -0.841803105538812 1
force O   0.000000000000000  -0.000057529677461   0.847255817478374 1
force O   0.000000000000000  -0.000302116829856  -0.841803105538588 1
force O   0.000000000000000  -0.000057529677461   0.847255817477695 1
force O   0.000000000000000  -0.000302116829856  -0.841803105538361 1
force O   0.000000000000000  -0.000057529677461   0.847255817477691 1
force O  -0.000000000000000  -0.000302116829856  -0.841803105538357 1
force O   0.000000000000000  -0.000057529677461   0.847255817477922 1
force O  -0.000000000000000  -0.000302116829856  -0.841803105537906 1
force O   0.000000000000000  -0.000057529677461   0.847255817477926 1
force O   0.000000000000000  -0.000302116829856  -0.841803105538133 1
force O   0.000000000000000  -0.000057529677461   0.847255817477926 1
force O  -0.000000000000000  -0.000302116829856  -0.841803105537902 1
force O  -0.000000000000000  -0.000057529677461   0.847255817478374 1
force O  -0.000000000000000  -0.000302116829856  -0.841803105537906 1
force O   0.000000000000000  -0.000057529677461   0.847255817478146 1
force O  -0.000000000000000  -0.000302116829856  -0.841803105537682 1
force O  -0.000000000000000  -0.000057529677461   0.847255817478374 1
force O   0.000000000000000  -0.000302116829856  -0.841803105537906 1
force O  -0.000000000000000  -0.000057529677461   0.847255817478374 1
force O  -0.000000000000000  -0.000302116829856  -0.841803105538133 1

# Energy components:
   A_diel =       -1.9776398089972127
   Eewald =    29298.0112316329505120
       EH =    32001.5754387050510559
     Eloc =   -64929.7668993878687616
      Enl =      491.5542972105260446
      Exc =     -475.8518570350555592
 Exc_core =       52.0916203185759557
       KE =      766.5511881810289196
  MuShift =       -0.1101857809727873
-------------------------------------
     Etot =    -2797.9228059647607552
       TS =        0.1083332025015128
-------------------------------------
        F =    -2798.0311391672621539
      muN =     -127.0171597580903295
-------------------------------------
        G =    -2671.0139794091719523

IonicMinimize: Iter:   0  G: -2671.013979409171952  |grad|_K:  1.059e-02  t[s]:   8290.75

#--- Lowdin population analysis ---
# oxidation-state Mo +0.363 +0.363 +0.363 +0.363 +0.363 +0.363 +0.363 +0.363 +0.363 +0.363 +0.363 +0.363 +0.363 +0.363 +0.363 +0.363 +0.363 +0.363 +0.363 +0.363 +0.363 +0.363 +0.363 +0.363 +0.363 +0.363 +0.363 +0.363 +0.363 +0.363 +0.363 +0.363
# oxidation-state B -0.112 -0.112 -0.112 -0.112 -0.112 -0.112 -0.112 -0.112 -0.112 -0.112 -0.112 -0.112 -0.112 -0.112 -0.112 -0.112 -0.112 -0.112 -0.112 -0.112 -0.112 -0.112 -0.112 -0.112 -0.112 -0.112 -0.112 -0.112 -0.112 -0.112 -0.112 -0.112
# oxidation-state O -0.373 -0.373 -0.373 -0.373 -0.373 -0.373 -0.373 -0.373 -0.373 -0.373 -0.373 -0.373 -0.373 -0.373 -0.373 -0.373 -0.373 -0.373 -0.373 -0.373 -0.373 -0.373 -0.373 -0.373 -0.373 -0.373 -0.373 -0.373 -0.373 -0.373 -0.373 -0.373

Shifting auxilliary hamiltonian by -0.000032 to set nElectrons=741.698246
	Linear fluid (dielectric constant: 78.4, screening length: 5.74355 Bohr) occupying 0.779072 of unit cell:	Completed after 21 iterations at t[s]:   8325.49

-------- Electronic minimization -----------
	Linear fluid (dielectric constant: 78.4, screening length: 5.74355 Bohr) occupying 0.779072 of unit cell:	Completed after 0 iterations at t[s]:   8346.30
	FillingsUpdate:  mu: -0.171251800  nElectrons: 741.698246
ElecMinimize: Iter:   0  G: -2670.596286685381529  |grad|_K:  5.638e-05  alpha:  1.000e+00
	Linear fluid (dielectric constant: 78.4, screening length: 5.74355 Bohr) occupying 0.781676 of unit cell:	Completed after 24 iterations at t[s]:   8424.22
	Linear fluid (dielectric constant: 78.4, screening length: 5.74355 Bohr) occupying 0.780421 of unit cell:	Completed after 26 iterations at t[s]:   8460.03
	FillingsUpdate:  mu: -0.171251800  nElectrons: 742.261416
	SubspaceRotationAdjust: set factor to 0.0729
ElecMinimize: Iter:   1  G: -2670.874630931216871  |grad|_K:  2.927e-05  alpha:  4.030e-01  linmin:  1.320e-04  t[s]:   8501.89
	Linear fluid (dielectric constant: 78.4, screening length: 5.74355 Bohr) occupying 0.779907 of unit cell:	Completed after 18 iterations at t[s]:   8535.65
	Linear fluid (dielectric constant: 78.4, screening length: 5.74355 Bohr) occupying 0.779986 of unit cell:	Completed after 14 iterations at t[s]:   8568.23
	FillingsUpdate:  mu: -0.171251800  nElectrons: 742.138073
	SubspaceRotationAdjust: set factor to 0.098
ElecMinimize: Iter:   2  G: -2670.938344334545491  |grad|_K:  1.086e-05  alpha:  3.422e-01  linmin:  5.830e-06  t[s]:   8608.66
	Linear fluid (dielectric constant: 78.4, screening length: 5.74355 Bohr) occupying 0.779625 of unit cell:	Completed after 15 iterations at t[s]:   8641.90
	Linear fluid (dielectric constant: 78.4, screening length: 5.74355 Bohr) occupying 0.779147 of unit cell:	Completed after 16 iterations at t[s]:   8674.41
	FillingsUpdate:  mu: -0.171251800  nElectrons: 741.870726
	SubspaceRotationAdjust: set factor to 0.084
ElecMinimize: Iter:   3  G: -2670.957998089426383  |grad|_K:  1.053e-05  alpha:  7.665e-01  linmin:  3.705e-05  t[s]:   8714.64
	Linear fluid (dielectric constant: 78.4, screening length: 5.74355 Bohr) occupying 0.780057 of unit cell:	Completed after 19 iterations at t[s]:   8748.72
	Linear fluid (dielectric constant: 78.4, screening length: 5.74355 Bohr) occupying 0.780100 of unit cell:	Completed after 13 iterations at t[s]:   8781.35
	FillingsUpdate:  mu: -0.171251800  nElectrons: 742.284912
	SubspaceRotationAdjust: set factor to 0.0847
ElecMinimize: Iter:   4  G: -2670.977497011883770  |grad|_K:  1.252e-05  alpha:  8.085e-01  linmin: -5.899e-05  t[s]:   8821.38
	Linear fluid (dielectric constant: 78.4, screening length: 5.74355 Bohr) occupying 0.778888 of unit cell:	Completed after 23 iterations at t[s]:   8855.76
	Linear fluid (dielectric constant: 78.4, screening length: 5.74355 Bohr) occupying 0.778903 of unit cell:	Completed after 3 iterations at t[s]:   8887.42
	FillingsUpdate:  mu: -0.171251800  nElectrons: 741.878972
	SubspaceRotationAdjust: set factor to 0.0855
ElecMinimize: Iter:   5  G: -2671.005063182079539  |grad|_K:  1.227e-05  alpha:  8.001e-01  linmin:  4.086e-05  t[s]:   8926.01
	Linear fluid (dielectric constant: 78.4, screening length: 5.74355 Bohr) occupying 0.778375 of unit cell:	Completed after 16 iterations at t[s]:   8959.25
	Linear fluid (dielectric constant: 78.4, screening length: 5.74355 Bohr) occupying 0.778556 of unit cell:	Completed after 13 iterations at t[s]:   8991.22
	FillingsUpdate:  mu: -0.171251800  nElectrons: 741.766832
	SubspaceRotationAdjust: set factor to 0.0946
ElecMinimize: Iter:   6  G: -2671.023057153300215  |grad|_K:  9.122e-06  alpha:  5.538e-01  linmin:  7.499e-07  t[s]:   9031.33
	Linear fluid (dielectric constant: 78.4, screening length: 5.74355 Bohr) occupying 0.779224 of unit cell:	Completed after 18 iterations at t[s]:   9065.02
	Linear fluid (dielectric constant: 78.4, screening length: 5.74355 Bohr) occupying 0.779103 of unit cell:	Completed after 12 iterations at t[s]:   9097.21
	FillingsUpdate:  mu: -0.171251800  nElectrons: 741.935647
	SubspaceRotationAdjust: set factor to 0.0908
ElecMinimize: Iter:   7  G: -2671.031171554142475  |grad|_K:  5.939e-06  alpha:  4.482e-01  linmin: -6.036e-06  t[s]:   9137.15
	Linear fluid (dielectric constant: 78.4, screening length: 5.74355 Bohr) occupying 0.778886 of unit cell:	Completed after 16 iterations at t[s]:   9170.14
	Linear fluid (dielectric constant: 78.4, screening length: 5.74355 Bohr) occupying 0.778888 of unit cell:	Completed after 0 iterations at t[s]:   9200.49
	FillingsUpdate:  mu: -0.171251800  nElectrons: 741.849598
	SubspaceRotationAdjust: set factor to 0.11
ElecMinimize: Iter:   8  G: -2671.034593180635056  |grad|_K:  3.368e-06  alpha:  4.452e-01  linmin:  2.095e-05  t[s]:   9238.52
	Linear fluid (dielectric constant: 78.4, screening length: 5.74355 Bohr) occupying 0.778965 of unit cell:	Completed after 8 iterations at t[s]:   9270.30
	Linear fluid (dielectric constant: 78.4, screening length: 5.74355 Bohr) occupying 0.778980 of unit cell:	Completed after 3 iterations at t[s]:   9299.92
	FillingsUpdate:  mu: -0.171251800  nElectrons: 741.877589
	SubspaceRotationAdjust: set factor to 0.14
ElecMinimize: Iter:   9  G: -2671.035900857266824  |grad|_K:  2.874e-06  alpha:  5.303e-01  linmin: -3.843e-06  t[s]:   9338.28
	Linear fluid (dielectric constant: 78.4, screening length: 5.74355 Bohr) occupying 0.779185 of unit cell:	Completed after 13 iterations at t[s]:   9370.85
	Linear fluid (dielectric constant: 78.4, screening length: 5.74355 Bohr) occupying 0.779213 of unit cell:	Completed after 9 iterations at t[s]:   9402.31
	FillingsUpdate:  mu: -0.171251800  nElectrons: 741.960623
	SubspaceRotationAdjust: set factor to 0.17
ElecMinimize: Iter:  10  G: -2671.036987944600241  |grad|_K:  2.427e-06  alpha:  6.041e-01  linmin: -1.064e-05  t[s]:   9441.74
	Linear fluid (dielectric constant: 78.4, screening length: 5.74355 Bohr) occupying 0.779116 of unit cell:	Completed after 14 iterations at t[s]:   9474.69
	Linear fluid (dielectric constant: 78.4, screening length: 5.74355 Bohr) occupying 0.779133 of unit cell:	Completed after 12 iterations at t[s]:   9506.43
	FillingsUpdate:  mu: -0.171251800  nElectrons: 741.938791
	SubspaceRotationAdjust: set factor to 0.162
ElecMinimize: Iter:  11  G: -2671.037629506739904  |grad|_K:  2.233e-06  alpha:  4.994e-01  linmin:  7.441e-06  t[s]:   9546.35
	Linear fluid (dielectric constant: 78.4, screening length: 5.74355 Bohr) occupying 0.779524 of unit cell:	Completed after 16 iterations at t[s]:   9579.71
	Linear fluid (dielectric constant: 78.4, screening length: 5.74355 Bohr) occupying 0.779390 of unit cell:	Completed after 12 iterations at t[s]:   9612.18
	FillingsUpdate:  mu: -0.171251800  nElectrons: 742.040158
	SubspaceRotationAdjust: set factor to 0.121
ElecMinimize: Iter:  12  G: -2671.037980035765031  |grad|_K:  1.709e-06  alpha:  3.231e-01  linmin:  2.929e-06  t[s]:   9652.12
	Linear fluid (dielectric constant: 78.4, screening length: 5.74355 Bohr) occupying 0.779327 of unit cell:	Completed after 13 iterations at t[s]:   9684.68
	Linear fluid (dielectric constant: 78.4, screening length: 5.74355 Bohr) occupying 0.779307 of unit cell:	Completed after 10 iterations at t[s]:   9716.52
	FillingsUpdate:  mu: -0.171251800  nElectrons: 742.019788
	SubspaceRotationAdjust: set factor to 0.104
ElecMinimize: Iter:  13  G: -2671.038246936494488  |grad|_K:  1.116e-06  alpha:  4.203e-01  linmin:  6.186e-06  t[s]:   9755.84
	Linear fluid (dielectric constant: 78.4, screening length: 5.74355 Bohr) occupying 0.779332 of unit cell:	Completed after 7 iterations at t[s]:   9787.51
[...]
	Linear fluid (dielectric constant: 78.4, screening length: 5.74355 Bohr) occupying 0.778453 of unit cell:	Completed after 0 iterations at t[s]:  27900.32
	FillingsUpdate:  mu: -0.171251800  nElectrons: 742.531061
	SubspaceRotationAdjust: set factor to 0.22
ElecMinimize: Iter:  14  G: -2671.052282717228081  |grad|_K:  3.328e-08  alpha:  4.556e-01  linmin: -6.004e-07  t[s]:  27938.16
	Linear fluid (dielectric constant: 78.4, screening length: 5.74355 Bohr) occupying 0.778448 of unit cell:	Completed after 2 iterations at t[s]:  27969.10
	Linear fluid (dielectric constant: 78.4, screening length: 5.74355 Bohr) occupying 0.778451 of unit cell:	Completed after 0 iterations at t[s]:  27997.22
ElecMinimize: 	Step increased G by 5.430138e-09, reducing alpha to 1.627537e-02.
	Linear fluid (dielectric constant: 78.4, screening length: 5.74355 Bohr) occupying 0.778453 of unit cell:	Completed after 1 iterations at t[s]:  28058.46
ElecMinimize: 	Step increased G by 3.575860e-08, reducing alpha to 1.627537e-03.
	Linear fluid (dielectric constant: 78.4, screening length: 5.74355 Bohr) occupying 0.778453 of unit cell:	Completed after 0 iterations at t[s]:  28119.79
ElecMinimize: 	Step increased G by 3.757577e-08, reducing alpha to 1.627537e-04.
ElecMinimize: 	Step failed to reduce G after 3 attempts. Quitting step.
ElecMinimize: 	Undoing step.
	Linear fluid (dielectric constant: 78.4, screening length: 5.74355 Bohr) occupying 0.778453 of unit cell:	Completed after 0 iterations at t[s]:  28181.24
ElecMinimize: 	Step failed: resetting search direction.
	FillingsUpdate:  mu: -0.171251800  nElectrons: 742.531053
	SubspaceRotationAdjust: set factor to 0.196
ElecMinimize: Iter:  15  G: -2671.052282679659584  |grad|_K:  4.231e-08  alpha:  1.628e-04
	Linear fluid (dielectric constant: 78.4, screening length: 5.74355 Bohr) occupying 0.778459 of unit cell:	Completed after 2 iterations at t[s]:  28249.83
	Linear fluid (dielectric constant: 78.4, screening length: 5.74355 Bohr) occupying 0.778455 of unit cell:	Completed after 2 iterations at t[s]:  28278.93
	FillingsUpdate:  mu: -0.171251800  nElectrons: 742.532368
	SubspaceRotationAdjust: set factor to 0.127
ElecMinimize: Iter:  16  G: -2671.052282720036601  |grad|_K:  3.882e-08  alpha:  1.876e-01  linmin:  8.763e-04  t[s]:  28317.93
	Linear fluid (dielectric constant: 78.4, screening length: 5.74355 Bohr) occupying 0.778454 of unit cell:	Completed after 0 iterations at t[s]:  28348.71
	Linear fluid (dielectric constant: 78.4, screening length: 5.74355 Bohr) occupying 0.778453 of unit cell:	Completed after 0 iterations at t[s]:  28376.22
	FillingsUpdate:  mu: -0.171251800  nElectrons: 742.531433
	SubspaceRotationAdjust: set factor to 0.139
ElecMinimize: Iter:  17  G: -2671.052282807689608  |grad|_K:  4.103e-08  alpha:  3.542e-01  linmin: -2.228e-07  t[s]:  28414.63
	Linear fluid (dielectric constant: 78.4, screening length: 5.74355 Bohr) occupying 0.778447 of unit cell:	Completed after 3 iterations at t[s]:  28446.23
	Linear fluid (dielectric constant: 78.4, screening length: 5.74355 Bohr) occupying 0.778452 of unit cell:	Completed after 1 iterations at t[s]:  28474.72
ElecMinimize: 	Step increased G by 4.191861e-08, reducing alpha to 9.094682e-03.
	Linear fluid (dielectric constant: 78.4, screening length: 5.74355 Bohr) occupying 0.778453 of unit cell:	Completed after 0 iterations at t[s]:  28536.43
ElecMinimize: 	Step increased G by 2.775323e-09, reducing alpha to 9.094682e-04.
	Linear fluid (dielectric constant: 78.4, screening length: 5.74355 Bohr) occupying 0.778453 of unit cell:	Completed after 0 iterations at t[s]:  28598.51
	FillingsUpdate:  mu: -0.171251800  nElectrons: 742.531425
	SubspaceRotationAdjust: set factor to 0.099
ElecMinimize: Iter:  18  G: -2671.052282808574546  |grad|_K:  4.610e-08  alpha:  9.095e-04  linmin:  4.249e-04  t[s]:  28636.34
	Linear fluid (dielectric constant: 78.4, screening length: 5.74355 Bohr) occupying 0.778453 of unit cell:	Completed after 0 iterations at t[s]:  28666.68
ElecMinimize: 	Wrong curvature in test step, increasing alphaT to 2.728405e-03.
	Linear fluid (dielectric constant: 78.4, screening length: 5.74355 Bohr) occupying 0.778453 of unit cell:	Completed after 0 iterations at t[s]:  28685.00
	FillingsUpdate:  mu: -0.171251800  nElectrons: 742.531422
	SubspaceRotationAdjust: set factor to 0.115
ElecMinimize: Iter:  19  G: -2671.052282808919699  |grad|_K:  4.245e-08  alpha: -1.984e-02  linmin: -2.378e-04  t[s]:  28723.55
ElecMinimize: Converged (|Delta G|<1.000000e-08 for 2 iters).
Setting wave functions to eigenvectors of Hamiltonian

# Ionic positions in lattice coordinates:
ion Mo   0.000160000625000   0.125488262186563   0.569996143350832 1
ion Mo   0.125160000625000   0.125485629961911   0.429985349557950 1
ion Mo   0.250160000625000   0.125488262186563   0.569996143350832 1
ion Mo   0.375160000625000   0.125485629961911   0.429985349557950 1
ion Mo   0.500160000625000   0.125488262186563   0.569996143350832 1
ion Mo   0.625160000625000   0.125485629961911   0.429985349557950 1
ion Mo   0.750160000625000   0.125488262186563   0.569996143350832 1
ion Mo   0.875160000625000   0.125485629961911   0.429985349557950 1
ion Mo   0.000160000625000   0.375488262186563   0.569996143350832 1
ion Mo   0.125160000625000   0.375485629961911   0.429985349557950 1
ion Mo   0.250160000625000   0.375488262186563   0.569996143350832 1
ion Mo   0.375160000625000   0.375485629961911   0.429985349557950 1
ion Mo   0.500160000625000   0.375488262186563   0.569996143350832 1
ion Mo   0.625160000625000   0.375485629961911   0.429985349557950 1
ion Mo   0.750160000625000   0.375488262186563   0.569996143350832 1
ion Mo   0.875160000625000   0.375485629961911   0.429985349557950 1
ion Mo   0.000160000625000   0.625488262186563   0.569996143350832 1
ion Mo   0.125160000625000   0.625485629961912   0.429985349557950 1
ion Mo   0.250160000625000   0.625488262186563   0.569996143350832 1
ion Mo   0.375160000625000   0.625485629961912   0.429985349557950 1
ion Mo   0.500160000625000   0.625488262186563   0.569996143350832 1
ion Mo   0.625160000625000   0.625485629961912   0.429985349557950 1
ion Mo   0.750160000625000   0.625488262186563   0.569996143350832 1
ion Mo   0.875160000625000   0.625485629961912   0.429985349557950 1
ion Mo   0.000160000625000   0.875488262186563   0.569996143350832 1
ion Mo   0.125160000625000   0.875485629961912   0.429985349557950 1
ion Mo   0.250160000625000   0.875488262186563   0.569996143350832 1
ion Mo   0.375160000625000   0.875485629961912   0.429985349557950 1
ion Mo   0.500160000625000   0.875488262186563   0.569996143350832 1
ion Mo   0.625160000625000   0.875485629961912   0.429985349557950 1
ion Mo   0.750160000625000   0.875488262186563   0.569996143350832 1
ion Mo   0.875160000625000   0.875485629961912   0.429985349557950 1
ion B   0.000160000625000   0.000505495297622   0.478378220504584 1
ion B   0.125160000625000   0.000506991987049   0.521621391747825 1
ion B   0.250160000625000   0.000505495297622   0.478378220504584 1
ion B   0.375160000625000   0.000506991987049   0.521621391747825 1
ion B   0.500160000625000   0.000505495297622   0.478378220504584 1
ion B   0.625160000625000   0.000506991987049   0.521621391747825 1
ion B   0.750160000625000   0.000505495297622   0.478378220504584 1
ion B   0.875160000625000   0.000506991987049   0.521621391747825 1
ion B   0.000160000625000   0.250505495297622   0.478378220504584 1
ion B   0.125160000625000   0.250506991987049   0.521621391747825 1
ion B   0.250160000625000   0.250505495297622   0.478378220504584 1
ion B   0.375160000625000   0.250506991987049   0.521621391747825 1
ion B   0.500160000625000   0.250505495297622   0.478378220504584 1
ion B   0.625160000625000   0.250506991987049   0.521621391747825 1
ion B   0.750160000625000   0.250505495297622   0.478378220504584 1
ion B   0.875160000625000   0.250506991987049   0.521621391747825 1
ion B   0.000160000625000   0.500505495297622   0.478378220504584 1
ion B   0.125160000625000   0.500506991987049   0.521621391747825 1
ion B   0.250160000625000   0.500505495297622   0.478378220504584 1
ion B   0.375160000625000   0.500506991987049   0.521621391747825 1
ion B   0.500160000625000   0.500505495297622   0.478378220504584 1
ion B   0.625160000625000   0.500506991987049   0.521621391747825 1
ion B   0.750160000625000   0.500505495297622   0.478378220504584 1
ion B   0.875160000625000   0.500506991987049   0.521621391747825 1
ion B   0.000160000625000   0.750505495297622   0.478378220504584 1
ion B   0.125160000625000   0.750506991987049   0.521621391747825 1
ion B   0.250160000625000   0.750505495297622   0.478378220504584 1
ion B   0.375160000625000   0.750506991987049   0.521621391747825 1
ion B   0.500160000625000   0.750505495297622   0.478378220504584 1
ion B   0.625160000625000   0.750506991987049   0.521621391747825 1
ion B   0.750160000625000   0.750505495297622   0.478378220504584 1
ion B   0.875160000625000   0.750506991987049   0.521621391747825 1
ion O   0.125160000625000   0.125428518211512   0.638421141839300 1
ion O   0.000160000625000   0.125435091355343   0.361587773999509 1
ion O   0.375160000625000   0.125428518211512   0.638421141839300 1
ion O   0.250160000625000   0.125435091355343   0.361587773999509 1
ion O   0.625160000625000   0.125428518211512   0.638421141839300 1
ion O   0.500160000625000   0.125435091355343   0.361587773999509 1
ion O   0.875160000625000   0.125428518211512   0.638421141839300 1
ion O   0.750160000625000   0.125435091355343   0.361587773999509 1
ion O   0.125160000625000   0.375428518211512   0.638421141839300 1
ion O   0.000160000625000   0.375435091355343   0.361587773999509 1
ion O   0.375160000625000   0.375428518211512   0.638421141839300 1
ion O   0.250160000625000   0.375435091355343   0.361587773999509 1
ion O   0.625160000625000   0.375428518211512   0.638421141839300 1
ion O   0.500160000625000   0.375435091355343   0.361587773999509 1
ion O   0.875160000625000   0.375428518211512   0.638421141839300 1
ion O   0.750160000625000   0.375435091355343   0.361587773999509 1
ion O   0.125160000625000   0.625428518211512   0.638421141839300 1
ion O   0.000160000625000   0.625435091355343   0.361587773999509 1
ion O   0.375160000625000   0.625428518211512   0.638421141839300 1
ion O   0.250160000625000   0.625435091355343   0.361587773999509 1
ion O   0.625160000625000   0.625428518211512   0.638421141839300 1
ion O   0.500160000625000   0.625435091355343   0.361587773999509 1
ion O   0.875160000625000   0.625428518211512   0.638421141839300 1
ion O   0.750160000625000   0.625435091355343   0.361587773999509 1
ion O   0.125160000625000   0.875428518211512   0.638421141839300 1
ion O   0.000160000625000   0.875435091355343   0.361587773999509 1
ion O   0.375160000625000   0.875428518211512   0.638421141839300 1
ion O   0.250160000625000   0.875435091355343   0.361587773999509 1
ion O   0.625160000625000   0.875428518211512   0.638421141839300 1
ion O   0.500160000625000   0.875435091355343   0.361587773999509 1
ion O   0.875160000625000   0.875428518211512   0.638421141839300 1
ion O   0.750160000625000   0.875435091355343   0.361587773999509 1


# Forces in Lattice coordinates:
force Mo   0.000000000000000  -0.000168091573049   0.007509729439203 1
force Mo   0.000000000000000  -0.000296080518810   0.001950613476940 1
force Mo  -0.000000000000000  -0.000168091573049   0.007509729438976 1
force Mo   0.000000000000000  -0.000296080518810   0.001950613476940 1
force Mo  -0.000000000000000  -0.000168091573049   0.007509729439203 1
force Mo  -0.000000000000000  -0.000296080518810   0.001950613476939 1
force Mo  -0.000000000000000  -0.000168091573049   0.007509729438977 1
force Mo   0.000000000000000  -0.000296080518810   0.001950613476939 1
force Mo   0.000000000000000  -0.000168091573049   0.007509729439203 1
force Mo   0.000000000000000  -0.000296080518810   0.001950613476712 1
force Mo  -0.000000000000000  -0.000168091573049   0.007509729438976 1
force Mo  -0.000000000000000  -0.000296080518810   0.001950613476939 1
force Mo  -0.000000000000000  -0.000168091573049   0.007509729439203 1
force Mo   0.000000000000000  -0.000296080518810   0.001950613476712 1
force Mo  -0.000000000000000  -0.000168091573049   0.007509729439203 1
force Mo  -0.000000000000000  -0.000296080518810   0.001950613476712 1
force Mo   0.000000000000000  -0.000168091573049   0.007509729439203 1
force Mo  -0.000000000000000  -0.000296080518810   0.001950613477167 1
force Mo  -0.000000000000000  -0.000168091573049   0.007509729439203 1
force Mo   0.000000000000000  -0.000296080518810   0.001950613477167 1
force Mo   0.000000000000000  -0.000168091573049   0.007509729439203 1
force Mo   0.000000000000000  -0.000296080518810   0.001950613476939 1
force Mo   0.000000000000000  -0.000168091573049   0.007509729438976 1
force Mo  -0.000000000000000  -0.000296080518810   0.001950613477167 1
force Mo  -0.000000000000000  -0.000168091573049   0.007509729438976 1
force Mo   0.000000000000000  -0.000296080518810   0.001950613476712 1
force Mo  -0.000000000000000  -0.000168091573049   0.007509729438976 1
force Mo   0.000000000000000  -0.000296080518810   0.001950613477166 1
force Mo  -0.000000000000000  -0.000168091573049   0.007509729439203 1
force Mo   0.000000000000000  -0.000296080518810   0.001950613476939 1
force Mo  -0.000000000000000  -0.000168091573049   0.007509729438976 1
force Mo   0.000000000000000  -0.000296080518810   0.001950613476712 1
force B  -0.000000000000000  -0.000181163735263  -0.000339179402382 1
force B   0.000000000000000  -0.000199811291842  -0.001463134307618 1
force B   0.000000000000000  -0.000181163735263  -0.000339179402367 1
force B  -0.000000000000000  -0.000199811291842  -0.001463134307604 1
force B   0.000000000000000  -0.000181163735263  -0.000339179402353 1
force B  -0.000000000000000  -0.000199811291842  -0.001463134307590 1
force B  -0.000000000000000  -0.000181163735263  -0.000339179402353 1
force B   0.000000000000000  -0.000199811291842  -0.001463134307604 1
force B   0.000000000000000  -0.000181163735263  -0.000339179402367 1
force B  -0.000000000000000  -0.000199811291842  -0.001463134307605 1
force B  -0.000000000000000  -0.000181163735263  -0.000339179402367 1
force B   0.000000000000000  -0.000199811291842  -0.001463134307590 1
force B  -0.000000000000000  -0.000181163735263  -0.000339179402353 1
force B  -0.000000000000000  -0.000199811291842  -0.001463134307605 1
force B   0.000000000000000  -0.000181163735263  -0.000339179402382 1
force B  -0.000000000000000  -0.000199811291842  -0.001463134307605 1
force B  -0.000000000000000  -0.000181163735263  -0.000339179402367 1
force B  -0.000000000000000  -0.000199811291842  -0.001463134307590 1
force B  -0.000000000000000  -0.000181163735263  -0.000339179402367 1
force B  -0.000000000000000  -0.000199811291842  -0.001463134307618 1
force B  -0.000000000000000  -0.000181163735263  -0.000339179402353 1
force B   0.000000000000000  -0.000199811291842  -0.001463134307619 1
force B  -0.000000000000000  -0.000181163735263  -0.000339179402353 1
force B  -0.000000000000000  -0.000199811291842  -0.001463134307604 1
force B  -0.000000000000000  -0.000181163735263  -0.000339179402367 1
force B   0.000000000000000  -0.000199811291842  -0.001463134307619 1
force B   0.000000000000000  -0.000181163735263  -0.000339179402367 1
force B  -0.000000000000000  -0.000199811291842  -0.001463134307619 1
force B   0.000000000000000  -0.000181163735263  -0.000339179402353 1
force B   0.000000000000000  -0.000199811291842  -0.001463134307590 1
force B   0.000000000000000  -0.000181163735263  -0.000339179402367 1
force B   0.000000000000000  -0.000199811291842  -0.001463134307604 1
force O   0.000000000000000  -0.000056308693529  -0.001328123193009 1
force O  -0.000000000000000  -0.000169664380463  -0.006251109759383 1
force O   0.000000000000000  -0.000056308693529  -0.001328123193240 1
force O  -0.000000000000000  -0.000169664380463  -0.006251109759841 1
force O  -0.000000000000000  -0.000056308693529  -0.001328123193463 1
force O   0.000000000000000  -0.000169664380463  -0.006251109759617 1
force O   0.000000000000000  -0.000056308693529  -0.001328123193467 1
force O   0.000000000000000  -0.000169664380463  -0.006251109759383 1
force O  -0.000000000000000  -0.000056308693529  -0.001328123193236 1
force O   0.000000000000000  -0.000169664380463  -0.006251109759841 1
force O   0.000000000000000  -0.000056308693529  -0.001328123193460 1
force O  -0.000000000000000  -0.000169664380463  -0.006251109759845 1
force O  -0.000000000000000  -0.000056308693529  -0.001328123193236 1
force O   0.000000000000000  -0.000169664380463  -0.006251109759617 1
force O   0.000000000000000  -0.000056308693529  -0.001328123193236 1
force O  -0.000000000000000  -0.000169664380463  -0.006251109759845 1
force O  -0.000000000000000  -0.000056308693529  -0.001328123193460 1
force O   0.000000000000000  -0.000169664380463  -0.006251109759610 1
force O  -0.000000000000000  -0.000056308693529  -0.001328123193232 1
force O   0.000000000000000  -0.000169664380463  -0.006251109759379 1
force O  -0.000000000000000  -0.000056308693529  -0.001328123193463 1
force O   0.000000000000000  -0.000169664380463  -0.006251109759834 1
force O   0.000000000000000  -0.000056308693529  -0.001328123193460 1
force O   0.000000000000000  -0.000169664380463  -0.006251109759610 1
force O   0.000000000000000  -0.000056308693529  -0.001328123193463 1
force O   0.000000000000000  -0.000169664380463  -0.006251109759610 1
force O  -0.000000000000000  -0.000056308693529  -0.001328123193236 1
force O  -0.000000000000000  -0.000169664380463  -0.006251109759379 1
force O  -0.000000000000000  -0.000056308693529  -0.001328123193236 1
force O   0.000000000000000  -0.000169664380463  -0.006251109759383 1
force O   0.000000000000000  -0.000056308693529  -0.001328123193232 1
force O  -0.000000000000000  -0.000169664380463  -0.006251109759614 1

# Energy components:
   A_diel =       -2.4809231021620826
   Eewald =    29196.0885235833702609
       EH =    31949.9615948241153092
     Eloc =   -64774.3291737732724869
      Enl =      491.1984138347444286
      Exc =     -475.4800640094204596
 Exc_core =       52.0914494593763635
       KE =      764.9687101179804358
  MuShift =       -0.1262967144959477
-------------------------------------
     Etot =    -2798.1077657797632128
       TS =        0.1043595544836313
-------------------------------------
        F =    -2798.2121253342470482
      muN =     -127.1598425253273490
-------------------------------------
        G =    -2671.0522828089196992

IonicMinimize: Iter:   5  G: -2671.052282808919699  |grad|_K:  6.245e-05  alpha:  1.000e+00  linmin: -4.422e-01  t[s]:  28746.26
IonicMinimize: Converged (|grad|_K<1.000000e-04).

#--- Lowdin population analysis ---
# oxidation-state Mo +0.355 +0.355 +0.355 +0.355 +0.355 +0.355 +0.355 +0.355 +0.355 +0.355 +0.355 +0.355 +0.355 +0.355 +0.355 +0.355 +0.355 +0.355 +0.355 +0.355 +0.355 +0.355 +0.355 +0.355 +0.355 +0.355 +0.355 +0.355 +0.355 +0.355 +0.355 +0.355
# oxidation-state B -0.109 -0.109 -0.109 -0.109 -0.109 -0.109 -0.109 -0.109 -0.109 -0.109 -0.109 -0.109 -0.109 -0.109 -0.109 -0.109 -0.109 -0.109 -0.109 -0.109 -0.109 -0.109 -0.109 -0.109 -0.109 -0.109 -0.109 -0.109 -0.109 -0.109 -0.109 -0.109
# oxidation-state O -0.395 -0.394 -0.395 -0.394 -0.395 -0.394 -0.395 -0.394 -0.395 -0.394 -0.395 -0.394 -0.395 -0.394 -0.395 -0.394 -0.395 -0.394 -0.395 -0.394 -0.395 -0.394 -0.395 -0.394 -0.395 -0.394 -0.395 -0.394 -0.395 -0.394 -0.395 -0.394


Dumping 'NbTe2.fillings' ... done
Dumping 'NbTe2.wfns' ... done
Dumping 'NbTe2.fluidState' ... done
Dumping 'NbTe2.ionpos' ... done
Dumping 'NbTe2.eigenvals' ... done
End date and time: Thu Apr 22 03:38:49 2021  (Duration: 0-7:59:19.24)
Done!
