  COHP#  atomMU  atomNU     distance     translation      ICOHP (at) eF   for spin  1
      1    Ta16    Te60      2.93899       0   0   0           -0.99501 
      2    Ta17    Te60      2.83987       0   0   0           -1.18773 
      3    Ta20    Te60      2.83493       0   0   0           -1.19771 
      4    Te54    Te60      3.52712       0   0   0           -0.13614 
      5    Te56    Te60      3.74781       0   0   0           -0.05306 
      6    Te57    Te60      3.70125       0   0   0           -0.05423 
      7    Te58    Te60      3.72721       0   0   0           -0.06447 
      8    Te60    Te62      3.74620       0   0   0           -0.05332 
      9    Te60    Te63      3.69142       0   0   0           -0.05546 
     10    Te60    Te64      3.71695       0   0   0           -0.06692 
     11    Te60    Te66      3.52712       0   0   0           -0.13618 
  COHP#  atomMU  atomNU     distance     translation      ICOHP (at) eF   for spin  2
      1    Ta16    Te60      2.93899       0   0   0           -0.99159 
      2    Ta17    Te60      2.83987       0   0   0           -1.18916 
      3    Ta20    Te60      2.83493       0   0   0           -1.19930 
      4    Te54    Te60      3.52712       0   0   0           -0.13593 
      5    Te56    Te60      3.74781       0   0   0           -0.05324 
      6    Te57    Te60      3.70125       0   0   0           -0.05389 
      7    Te58    Te60      3.72721       0   0   0           -0.06464 
      8    Te60    Te62      3.74620       0   0   0           -0.05304 
      9    Te60    Te63      3.69142       0   0   0           -0.05621 
     10    Te60    Te64      3.71695       0   0   0           -0.06756 
     11    Te60    Te66      3.52712       0   0   0           -0.13594 
