
*************** JDFTx 1.5.0  ***************

Start date and time: Mon Jul 13 14:06:18 2020
Executable jdftx_gpu with command-line: -i Charged.in -o Charged.out
Running on hosts (process indices):  amax (0-3)
Divided in process groups (process indices):  0 (0)  1 (1)  2 (2)  3 (3)
gpuInit: Found compatible cuda device 0 'Tesla K80'
gpuInit: Found compatible cuda device 1 'Tesla K80'
gpuInit: Found compatible cuda device 2 'Tesla K80'
gpuInit: Found compatible cuda device 3 'Tesla K80'
gpuInit: Selected device 0
Resource initialization completed at t[s]:     15.18
Run totals: 4 processes, 24 threads, 4 GPUs


Input parsed successfully to the following command list (including defaults):

basis kpoint-dependent
cache-projectors no
coords-type Lattice
core-overlap-check none
coulomb-interaction Slab 001
coulomb-truncation-embed 0 0 0.5
davidson-band-ratio 1.1
dump End State
dump-name NbTe2.$VAR
elec-cutoff 20 100
elec-eigen-algo Davidson
elec-ex-corr gga-PBE
elec-smearing Gauss 0.0073499
electronic-minimize  \
	dirUpdateScheme      FletcherReeves \
	linminMethod         DirUpdateRecommended \
	nIterations          500 \
	history              15 \
	knormThreshold       0 \
	energyDiffThreshold  1e-08 \
	nEnergyDiff          2 \
	alphaTstart          1 \
	alphaTmin            1e-10 \
	updateTestStepSize   yes \
	alphaTreduceFactor   0.1 \
	alphaTincreaseFactor 3 \
	nAlphaAdjustMax      3 \
	wolfeEnergy          0.0001 \
	wolfeGradient        0.9 \
	fdTest               no
exchange-regularization WignerSeitzTruncated
fluid LinearPCM 298.000000 1.013250
fluid-anion F- 1 MeanFieldLJ \
	epsBulk 1 \
	pMol 0 \
	epsInf 1 \
	Pvap 0 \
	sigmaBulk 0 \
	Rvdw 2.24877 \
	Res 0 \
	tauNuc 343133
fluid-cation Na+ 1 MeanFieldLJ \
	epsBulk 1 \
	pMol 0 \
	epsInf 1 \
	Pvap 0 \
	sigmaBulk 0 \
	Rvdw 2.19208 \
	Res 0 \
	tauNuc 343133
fluid-ex-corr lda-TF lda-PZ
fluid-gummel-loop 10 1.000000e-05
fluid-minimize  \
	dirUpdateScheme      PolakRibiere \
	linminMethod         DirUpdateRecommended \
	nIterations          400 \
	history              15 \
	knormThreshold       1e-11 \
	energyDiffThreshold  0 \
	nEnergyDiff          2 \
	alphaTstart          1 \
	alphaTmin            1e-10 \
	updateTestStepSize   yes \
	alphaTreduceFactor   0.1 \
	alphaTincreaseFactor 3 \
	nAlphaAdjustMax      6 \
	wolfeEnergy          0.0001 \
	wolfeGradient        0.9 \
	fdTest               no
fluid-solvent H2O 55.338 ScalarEOS \
	epsBulk 78.4 \
	pMol 0.92466 \
	epsInf 1.77 \
	Pvap 1.06736e-10 \
	sigmaBulk 4.62e-05 \
	Rvdw 2.61727 \
	Res 1.42 \
	tauNuc 343133 \
	poleEl 15 7 1
forces-output-coords Positions
initial-state NbTe2.$VAR
ion Mn   0.332719383074933   0.014758833810313   0.497656496674574 0
ion Mn   0.000169489485474   0.497355597067535   0.504242794587833 0
ion Mn   0.666985785660374   0.014786726952186   0.497676781305227 0
ion Mn   0.339709708183506   0.487356980155019   0.503796349326404 0
ion Mn   0.999911013093304   0.003992418986131   0.497312445835629 0
ion Mn   0.660421129806748   0.487404673207444   0.503824451040967 0
ion Sb   0.174998426196222   0.283539300292329   0.612391842692528 0
ion Sb   0.168211369829137   0.704855221758110   0.386376941324248 0
ion Sb   0.499966504413451   0.719426693467854   0.389122484686495 0
ion Sb   0.825201734217321   0.283740229816772   0.612395691384743 0
ion Sb   0.831748612685353   0.704875054724857   0.386396594778813 0
ion Se   0.000082571508475   0.249163649129313   0.527982397642772 0
ion Se   0.177733291575091   0.466837397157085   0.416647011956179 0
ion Se   0.000012592487562   0.750343243544393   0.472565702774772 0
ion Se   0.179443266972577   0.528035251827521   0.587477178552525 0
ion Se   0.342218708722147   0.247350242050042   0.535334744926254 0
ion Se   0.500083035322448   0.474309095287500   0.418151043057453 0
ion Se   0.331273296378467   0.761412488388751   0.472443393666124 0
ion Se   0.500021974101789   0.531409866574501   0.575073783672431 0
ion Se   0.657895516819840   0.247435778291702   0.535364752463029 0
ion Se   0.822322959963131   0.466817461302753   0.416656186615866 0
ion Se   0.668628076329763   0.761441305158222   0.472455374350418 0
ion Se   0.820728858686297   0.528125338619089   0.587427039978151 0
ion I   0.166756245716404   0.945005914184579   0.593987937783229 0
ion I   0.165511887540930   0.051979757835548   0.400307341324923 0
ion I   0.499954024204768   0.932203669876089   0.586880969394476 0
ion I   0.499845188698261   0.061375537140662   0.399442043786387 0
ion I   0.833246249252302   0.945092896158271   0.593927989221466 0
ion I   0.834091925073924   0.051870412235441   0.400308986196064 0
ion-species GBRV/$ID_pbe.uspp
ion-width Ecut
ionic-minimize  \
	dirUpdateScheme      L-BFGS \
	linminMethod         DirUpdateRecommended \
	nIterations          0 \
	history              15 \
	knormThreshold       0.0001 \
	energyDiffThreshold  1e-06 \
	nEnergyDiff          2 \
	alphaTstart          1 \
	alphaTmin            1e-10 \
	updateTestStepSize   yes \
	alphaTreduceFactor   0.1 \
	alphaTincreaseFactor 3 \
	nAlphaAdjustMax      3 \
	wolfeEnergy          0.0001 \
	wolfeGradient        0.9 \
	fdTest               no
kpoint   0.000000000000   0.000000000000   0.000000000000  1.00000000000000
kpoint-folding 3 3 1 
latt-move-scale 1 1 1
latt-scale 1 1 1 
lattice Triclinic 22.1353 19.893 38.8989 90 90 90
lattice-minimize  \
	dirUpdateScheme      L-BFGS \
	linminMethod         DirUpdateRecommended \
	nIterations          0 \
	history              15 \
	knormThreshold       0 \
	energyDiffThreshold  1e-06 \
	nEnergyDiff          2 \
	alphaTstart          1 \
	alphaTmin            1e-10 \
	updateTestStepSize   yes \
	alphaTreduceFactor   0.1 \
	alphaTincreaseFactor 3 \
	nAlphaAdjustMax      3 \
	wolfeEnergy          0.0001 \
	wolfeGradient        0.9 \
	fdTest               no
lcao-params -1 1e-06 0.0073499
pcm-variant CANDLE
spintype no-spin
subspace-rotation-factor 1 yes
symmetries automatic
symmetry-threshold 0.0001
target-mu -0.171252 no




---------- Setting up symmetries ----------

Found 8 point-group symmetries of the bravais lattice
Found 1 space-group symmetries with basis
Applied RMS atom displacement 0 bohrs to make symmetries exact.

---------- Initializing the Grid ----------
R = 
[    22.1353          0          0  ]
[          0     19.893          0  ]
[          0          0    38.8989  ]
unit cell volume = 17128.6
G =
[   0.283854          0          0  ]
[          0    0.31585          0  ]
[          0          0   0.161526  ]
Minimum fftbox size, Smin = [  100  92  176  ]
Chosen fftbox size, S = [  100  96  180  ]

---------- Initializing tighter grid for wavefunction operations ----------
R = 
[    22.1353          0          0  ]
[          0     19.893          0  ]
[          0          0    38.8989  ]
unit cell volume = 17128.6
G =
[   0.283854          0          0  ]
[          0    0.31585          0  ]
[          0          0   0.161526  ]
Minimum fftbox size, Smin = [  92  84  160  ]
Chosen fftbox size, S = [  96  84  160  ]

---------- Exchange Correlation functional ----------
Initalized PBE GGA exchange.
Initalized PBE GGA correlation.

---------- Setting up pseudopotentials ----------
Width of ionic core gaussian charges (only for fluid interactions / plotting) set to 0.397384

Reading pseudopotential file '/home/guoxy/vasp/jdftx-1.5.0/build/pseudopotentials/GBRV/mn_pbe.uspp':
  Title: Mn.  Created by USPP 7.3.6 on 16-6-15
  Reference state energy: -105.136484.  15 valence electrons in orbitals:
    |300>  occupation: 2  eigenvalue: -3.300080
    |310>  occupation: 6  eigenvalue: -2.150696
    |400>  occupation: 1.5  eigenvalue: -0.307943
    |320>  occupation: 5  eigenvalue: -0.391818
    |410>  occupation: 0  eigenvalue: -0.152105
  lMax: 2  lLocal: 3  QijEcut: 6
  6 projectors sampled on a log grid with 585 points:
    l: 0  eig: -3.300083  rCut: 1.45
    l: 0  eig: -0.307946  rCut: 1.45
    l: 1  eig: -2.150696  rCut: 1.45
    l: 1  eig: -0.152108  rCut: 1.45
    l: 2  eig: -0.391817  rCut: 1.7
    l: 2  eig: 0.500000  rCut: 1.7
  Partial core density with radius 0.65
  Transforming core density to a uniform radial grid of dG=0.02 with 1273 points.
  Transforming local potential to a uniform radial grid of dG=0.02 with 1273 points.
  Transforming nonlocal projectors to a uniform radial grid of dG=0.02 with 432 points.
  Transforming density augmentations to a uniform radial grid of dG=0.02 with 1273 points.
  Transforming atomic orbitals to a uniform radial grid of dG=0.02 with 432 points.
  Core radius for overlap checks: 1.70 bohrs.

Reading pseudopotential file '/home/guoxy/vasp/jdftx-1.5.0/build/pseudopotentials/GBRV/sb_pbe.uspp':
  Title: Sb.  Created by USPP 7.3.6 on 1-4-15
  Reference state energy: -92.019396.  15 valence electrons in orbitals:
    |420>  occupation: 10  eigenvalue: -1.543740
    |500>  occupation: 2  eigenvalue: -0.758471
    |510>  occupation: 2  eigenvalue: -0.440746
  lMax: 2  lLocal: 3  QijEcut: 6
  6 projectors sampled on a log grid with 721 points:
    l: 0  eig: -0.758469  rCut: 1.7
    l: 0  eig: 0.000000  rCut: 1.7
    l: 1  eig: -0.440746  rCut: 1.8
    l: 1  eig: 1.000000  rCut: 1.8
    l: 2  eig: -1.543739  rCut: 1.7
    l: 2  eig: 0.250000  rCut: 1.7
  Partial core density with radius 1.1
  Transforming core density to a uniform radial grid of dG=0.02 with 1273 points.
  Transforming local potential to a uniform radial grid of dG=0.02 with 1273 points.
  Transforming nonlocal projectors to a uniform radial grid of dG=0.02 with 432 points.
  Transforming density augmentations to a uniform radial grid of dG=0.02 with 1273 points.
  Transforming atomic orbitals to a uniform radial grid of dG=0.02 with 432 points.
  Core radius for overlap checks: 2.10 bohrs.

Reading pseudopotential file '/home/guoxy/vasp/jdftx-1.5.0/build/pseudopotentials/GBRV/se_pbe.uspp':
  Title: Se.  Created by USPP 7.3.6 on 14-9-2013
  Reference state energy: -21.672887.  6 valence electrons in orbitals:
    |400>  occupation: 2  eigenvalue: -0.635284
    |410>  occupation: 4  eigenvalue: -0.239295
  lMax: 2  lLocal: 3  QijEcut: 5
  6 projectors sampled on a log grid with 625 points:
    l: 0  eig: -0.635278  rCut: 1.5
    l: 0  eig: 0.500000  rCut: 1.5
    l: 1  eig: -0.239295  rCut: 1.5
    l: 1  eig: 0.500000  rCut: 1.5
    l: 2  eig: 0.000000  rCut: 1.8
    l: 2  eig: 1.000000  rCut: 1.8
  Partial core density with radius 1.2
  Transforming core density to a uniform radial grid of dG=0.02 with 1273 points.
  Transforming local potential to a uniform radial grid of dG=0.02 with 1273 points.
  Transforming nonlocal projectors to a uniform radial grid of dG=0.02 with 432 points.
  Transforming density augmentations to a uniform radial grid of dG=0.02 with 1273 points.
  Transforming atomic orbitals to a uniform radial grid of dG=0.02 with 432 points.
  Core radius for overlap checks: 1.80 bohrs.

Reading pseudopotential file '/home/guoxy/vasp/jdftx-1.5.0/build/pseudopotentials/GBRV/i_pbe.uspp':
  Title: I.  Created by USPP 7.3.6 on 14-9-2013
  Reference state energy: -32.770235.  7 valence electrons in orbitals:
    |500>  occupation: 2  eigenvalue: -0.639712
    |510>  occupation: 5  eigenvalue: -0.260406
  lMax: 2  lLocal: 3  QijEcut: 5
  6 projectors sampled on a log grid with 725 points:
    l: 0  eig: -0.639710  rCut: 1.9
    l: 0  eig: 0.000000  rCut: 1.9
    l: 1  eig: -0.260404  rCut: 2
    l: 1  eig: 0.000000  rCut: 2
    l: 2  eig: -0.500000  rCut: 2.45
    l: 2  eig: 0.500000  rCut: 2.45
  Partial core density with radius 1.3
  Transforming core density to a uniform radial grid of dG=0.02 with 1273 points.
  Transforming local potential to a uniform radial grid of dG=0.02 with 1273 points.
  Transforming nonlocal projectors to a uniform radial grid of dG=0.02 with 432 points.
  Transforming density augmentations to a uniform radial grid of dG=0.02 with 1273 points.
  Transforming atomic orbitals to a uniform radial grid of dG=0.02 with 432 points.
  Core radius for overlap checks: 2.45 bohrs.

Initialized 4 species with 29 total atoms.

Folded 1 k-points by 3x3x1 to 9 k-points.

---------- Setting up k-points, bands, fillings ----------
Adding inversion symmetry to k-mesh for non-inversion-symmetric unit cell.
Reduced to 5 k-points under symmetry. 
Computing the number of bands and number of electrons
Reading initial fillings from file NbTe2.fillings.
nElectrons: 279.000000   nBands: 195   nStates: 5

----- Setting up reduced wavefunction bases (one per k-point) -----
average nbasis = 73169.222 , ideal nbasis = 73174.690

---------- Setting up coulomb interaction ----------
Fluid mode embedding: using embedded box, but periodic Coulomb kernel.
(Fluid response is responsible for (approximate) separation between periodic images.)
Setting up double-sized grid for truncated Coulomb potentials:
R = 
[    22.1353          0          0  ]
[          0     19.893          0  ]
[          0          0    77.7978  ]
unit cell volume = 34257.2
G =
[   0.283854          0          0  ]
[          0    0.31585          0  ]
[          0          0  0.0807631  ]
Chosen fftbox size, S = [  100  96  360  ]
Integer grid location selected as the embedding center:
   Grid: [  0  0  90  ]
   Lattice: [  0  0  0.5  ]
   Cartesian: [  0  0  19.4494  ]
Constructing Wigner-Seitz cell: 6 faces (6 quadrilaterals, 0 hexagons)
Range-separation parameter for embedded mesh potentials due to point charges: 0.593544 bohrs.

Initializing van der Waals corrections
	NOTE: vdW corrections apply only for interactions with fluid.
	Mn:  C6:  187.33 Eh-a0^6  R0: 2.952 a0
	Sb:  C6:  666.75 Eh-a0^6  R0: 3.555 a0
	Se:  C6:  219.24 Eh-a0^6  R0: 3.347 a0
	 I:  C6:  546.38 Eh-a0^6  R0: 3.575 a0

---------- Setting up ewald sum ----------
Optimum gaussian width for ewald sums = 7.391984 bohr.
Real space sum over 605 unit cells with max indices [  5  5  2  ]
Reciprocal space sum over 5915 terms with max indices [  6  6  17  ]

---------- Allocating electronic variables ----------
Initializing wave functions:  reading from 'NbTe2.wfns'
----- createFluidSolver() ----- (Fluid-side solver setup)
   Initializing fluid molecule 'H2O'
     Initializing site 'O'
       Electron density: proportional to exp(-r/0.36935)*erfc((r-0.51523)/0.36823) with norm 6.826
       Charge density: gaussian nuclear width 0.478731 with net site charge 0.826
       Polarizability: cuspless exponential with width 0.32 and norm 3.73
       Hard sphere radius: 2.57003 bohrs
       Positions in reference frame:
         [ +0.000000 +0.000000 +0.000000 ]
     Initializing site 'H'
       Electron density: proportional to exp(-r/0.34641)*erfc((r-0)/0.390882) with norm 0.587
       Charge density: gaussian nuclear width 0.377945 with net site charge -0.413
       Polarizability: cuspless exponential with width 0.39 and norm 3.3
       Positions in reference frame:
         [ +0.000000 -1.441945 +1.122523 ]
         [ +0.000000 +1.441945 +1.122523 ]
     Net charge: 0   dipole magnitude: 0.927204
     Initializing spherical shell mfKernel with radius 2.61727 Bohr
     deltaS corrections:
       site 'O': -7.54299
       site 'H': -6.83917
   Initializing fluid molecule 'Na+'
     Initializing site 'Na'
       Electron density: proportional to exp(-r/0.19682)*erfc((r-0.71491)/0.41314) with norm 8.1383
       Charge density: gaussian nuclear width 0.365347 with net site charge -1
       Hard sphere radius: 1.86327 bohrs
       Positions in reference frame:
         [ +0.000000 +0.000000 +0.000000 ]
     Net charge: -1   dipole magnitude: 0
     Initializing gaussian mfKernel with width: 1.55004 Bohr
     deltaS corrections:
       site 'Na': -22.3555
   Initializing fluid molecule 'F-'
     Initializing site 'F'
       Electron density: proportional to exp(-r/0.38886)*erfc((r-0)/0.438782) with norm 8
       Charge density: gaussian nuclear width 0.374796 with net site charge 1
       Hard sphere radius: 2.39995 bohrs
       Positions in reference frame:
         [ +0.000000 +0.000000 +0.000000 ]
     Net charge: 1   dipole magnitude: 0
     Initializing gaussian mfKernel with width: 1.59012 Bohr
     deltaS corrections:
       site 'F': -9.04335

Correction to mu due to finite nuclear width = -0.00808075
   Cavity determined by nc: 0.00142 and sigma: 0.707107
   Nonlocal vdW cavity from gaussian model electron density with norm = 8 and sigma = 0.993594 bohr
   Charge asymmetry in cavity with sensitivity pCavity = 36.5 e-bohr/Eh
   Electrostatic cavity expanded by eta = 1.46 bohrs
   Weighted density cavitation model constrained by Nbulk: 0.0049383 bohr^-3, Pvap: 3.14029 kPa, Rvdw: 2.61727 bohr and sigmaBulk: 4.62e-05 Eh/bohr^2 at T: 298 K.
   Weighted density dispersion model using vdW pair potentials with single solvent site with sqrtC6eff: 0.77 SI.
Reading fluid state from 'NbTe2.fluidState'


---- Citations for features of the code used in this run ----

   Software package:
      R. Sundararaman, K. Letchworth-Weaver, K.A. Schwarz, D. Gunceler, Y. Ozhabes and T.A. Arias, 'JDFTx: software for joint density-functional theory', SoftwareX 6, 278 (2017)

   gga-PBE exchange-correlation functional:
      J.P. Perdew, K. Burke and M. Ernzerhof, Phys. Rev. Lett. 77, 3865 (1996)

   Pseudopotentials:
      KF Garrity, JW Bennett, KM Rabe and D Vanderbilt, Comput. Mater. Sci. 81, 446 (2014)

   Truncated Coulomb potentials:
      R. Sundararaman and T.A. Arias, Phys. Rev. B 87, 165122 (2013)

   Van der Waals correction pair-potentials:
      S. Grimme, J. Comput. Chem. 27, 1787 (2006)

   Charge-asymmetric nonlocally-determined local-electric (CANDLE) solvation model:
      R. Sundararaman and W.A. Goddard III, J. Chem. Phys. 142, 064107 (2015)

   Total energy minimization with Auxiliary Hamiltonian:
      C. Freysoldt, S. Boeck, and J. Neugebauer, Phys. Rev. B 79, 241103(R) (2009)

   Grand-canonical (fixed-potential) DFT:
      R. Sundararaman, W. A. Goddard III and T. A. Arias, J. Chem. Phys. 146, 114104 (2017)

This list may not be complete. Please suggest additional citations or
report any other bugs at https://github.com/shankar1729/jdftx/issues

Initialization completed successfully at t[s]:     21.26

Shifting auxilliary hamiltonian by -0.016259 to set nElectrons=279.000000
	Linear fluid (dielectric constant: 78.4, screening length: 5.74355 Bohr) occupying 0.763974 of unit cell:	Completed after 5 iterations at t[s]:     24.22

-------- Electronic minimization -----------
	Linear fluid (dielectric constant: 78.4, screening length: 5.74355 Bohr) occupying 0.763974 of unit cell:	Completed after 0 iterations at t[s]:     27.22
	FillingsUpdate:  mu: -0.171251800  nElectrons: 279.000000
ElecMinimize: Iter:   0  G: -1180.702239488332452  |grad|_K:  4.541e-05  alpha:  1.000e+00
	Linear fluid (dielectric constant: 78.4, screening length: 5.74355 Bohr) occupying 0.765070 of unit cell:	Completed after 28 iterations at t[s]:     39.44
	Linear fluid (dielectric constant: 78.4, screening length: 5.74355 Bohr) occupying 0.763832 of unit cell:	Completed after 27 iterations at t[s]:     46.17
	FillingsUpdate:  mu: -0.171251800  nElectrons: 278.868402
	SubspaceRotationAdjust: set factor to 0.564
ElecMinimize: Iter:   1  G: -1180.703399742134707  |grad|_K:  1.224e-05  alpha:  7.319e-03  linmin: -6.285e-03  t[s]:     50.95
	Linear fluid (dielectric constant: 78.4, screening length: 5.74355 Bohr) occupying 0.763828 of unit cell:	Completed after 9 iterations at t[s]:     55.76
ElecMinimize: 	Predicted alpha/alphaT>3.000000, increasing alphaT to 2.195784e-02.
	Linear fluid (dielectric constant: 78.4, screening length: 5.74355 Bohr) occupying 0.763825 of unit cell:	Completed after 10 iterations at t[s]:     60.98
	Linear fluid (dielectric constant: 78.4, screening length: 5.74355 Bohr) occupying 0.763839 of unit cell:	Completed after 14 iterations at t[s]:     66.44
	FillingsUpdate:  mu: -0.171251800  nElectrons: 278.722100
	SubspaceRotationAdjust: set factor to 0.3
ElecMinimize: Iter:   2  G: -1180.704069342370303  |grad|_K:  2.193e-05  alpha:  5.864e-02  linmin:  8.563e-05  t[s]:     71.24
	Linear fluid (dielectric constant: 78.4, screening length: 5.74355 Bohr) occupying 0.764114 of unit cell:	Completed after 14 iterations at t[s]:     76.81
	Linear fluid (dielectric constant: 78.4, screening length: 5.74355 Bohr) occupying 0.764013 of unit cell:	Completed after 14 iterations at t[s]:     82.35
	FillingsUpdate:  mu: -0.171251800  nElectrons: 278.593451
	SubspaceRotationAdjust: set factor to 0.176
ElecMinimize: Iter:   3  G: -1180.705368544169005  |grad|_K:  1.280e-05  alpha:  3.806e-02  linmin: -1.990e-06  t[s]:     86.97
	Linear fluid (dielectric constant: 78.4, screening length: 5.74355 Bohr) occupying 0.764094 of unit cell:	Completed after 12 iterations at t[s]:     92.10
	Linear fluid (dielectric constant: 78.4, screening length: 5.74355 Bohr) occupying 0.764088 of unit cell:	Completed after 3 iterations at t[s]:     96.59
	FillingsUpdate:  mu: -0.171251800  nElectrons: 278.557959
	SubspaceRotationAdjust: set factor to 0.235
ElecMinimize: Iter:   4  G: -1180.705783154495975  |grad|_K:  6.462e-06  alpha:  3.542e-02  linmin:  6.563e-07  t[s]:    101.34
	Linear fluid (dielectric constant: 78.4, screening length: 5.74355 Bohr) occupying 0.764121 of unit cell:	Completed after 8 iterations at t[s]:    106.21
	Linear fluid (dielectric constant: 78.4, screening length: 5.74355 Bohr) occupying 0.764166 of unit cell:	Completed after 11 iterations at t[s]:    111.66
	FillingsUpdate:  mu: -0.171251800  nElectrons: 278.501706
	SubspaceRotationAdjust: set factor to 0.164
ElecMinimize: Iter:   5  G: -1180.706034602561203  |grad|_K:  8.312e-06  alpha:  8.476e-02  linmin:  6.406e-05  t[s]:    116.71
	Linear fluid (dielectric constant: 78.4, screening length: 5.74355 Bohr) occupying 0.764331 of unit cell:	Completed after 8 iterations at t[s]:    121.67
	Linear fluid (dielectric constant: 78.4, screening length: 5.74355 Bohr) occupying 0.764406 of unit cell:	Completed after 7 iterations at t[s]:    126.70
	FillingsUpdate:  mu: -0.171251800  nElectrons: 278.427270
	SubspaceRotationAdjust: set factor to 0.133
	SubspaceRotationAdjust: resetting CG because factor has changed by 0.132807
	Linear fluid (dielectric constant: 78.4, screening length: 5.74355 Bohr) occupying 0.764406 of unit cell:	Completed after 0 iterations at t[s]:    133.79
ElecMinimize: 	State modified externally: resetting search direction.
ElecMinimize: Iter:   6  G: -1180.706640908198779  |grad|_K:  6.705e-06  alpha:  1.237e-01
	Linear fluid (dielectric constant: 78.4, screening length: 5.74355 Bohr) occupying 0.764447 of unit cell:	Completed after 14 iterations at t[s]:    143.88
	Linear fluid (dielectric constant: 78.4, screening length: 5.74355 Bohr) occupying 0.764430 of unit cell:	Completed after 12 iterations at t[s]:    149.33
	FillingsUpdate:  mu: -0.171251800  nElectrons: 278.468840
	SubspaceRotationAdjust: set factor to 0.0998
ElecMinimize: Iter:   7  G: -1180.706871931312435  |grad|_K:  3.812e-06  alpha:  7.166e-02  linmin:  1.233e-04  t[s]:    153.96
	Linear fluid (dielectric constant: 78.4, screening length: 5.74355 Bohr) occupying 0.764460 of unit cell:	Completed after 8 iterations at t[s]:    158.79
ElecMinimize: 	Predicted alpha/alphaT>3.000000, increasing alphaT to 2.149724e-01.
	Linear fluid (dielectric constant: 78.4, screening length: 5.74355 Bohr) occupying 0.764522 of unit cell:	Completed after 11 iterations at t[s]:    164.30
	Linear fluid (dielectric constant: 78.4, screening length: 5.74355 Bohr) occupying 0.764554 of unit cell:	Completed after 8 iterations at t[s]:    169.47
	FillingsUpdate:  mu: -0.171251800  nElectrons: 278.423435
	SubspaceRotationAdjust: set factor to 0.081
ElecMinimize: Iter:   8  G: -1180.707173796834013  |grad|_K:  3.736e-06  alpha:  2.914e-01  linmin:  4.331e-05  t[s]:    174.34
	Linear fluid (dielectric constant: 78.4, screening length: 5.74355 Bohr) occupying 0.764754 of unit cell:	Completed after 14 iterations at t[s]:    179.74
	Linear fluid (dielectric constant: 78.4, screening length: 5.74355 Bohr) occupying 0.764702 of unit cell:	Completed after 8 iterations at t[s]:    184.72
	FillingsUpdate:  mu: -0.171251800  nElectrons: 278.428603
	SubspaceRotationAdjust: set factor to 0.0653
ElecMinimize: Iter:   9  G: -1180.707388918870492  |grad|_K:  3.311e-06  alpha:  2.160e-01  linmin:  7.637e-06  t[s]:    189.39
	Linear fluid (dielectric constant: 78.4, screening length: 5.74355 Bohr) occupying 0.764866 of unit cell:	Completed after 11 iterations at t[s]:    194.47
	Linear fluid (dielectric constant: 78.4, screening length: 5.74355 Bohr) occupying 0.764950 of unit cell:	Completed after 9 iterations at t[s]:    199.53
	FillingsUpdate:  mu: -0.171251800  nElectrons: 278.435846
	SubspaceRotationAdjust: set factor to 0.0899
ElecMinimize: Iter:  10  G: -1180.707644970913407  |grad|_K:  1.631e-06  alpha:  3.277e-01  linmin:  8.106e-05  t[s]:    204.32
	Linear fluid (dielectric constant: 78.4, screening length: 5.74355 Bohr) occupying 0.765051 of unit cell:	Completed after 7 iterations at t[s]:    209.06
	Linear fluid (dielectric constant: 78.4, screening length: 5.74355 Bohr) occupying 0.765064 of unit cell:	Completed after 2 iterations at t[s]:    213.63
	FillingsUpdate:  mu: -0.171251800  nElectrons: 278.422817
	SubspaceRotationAdjust: set factor to 0.0855
ElecMinimize: Iter:  11  G: -1180.707715278344494  |grad|_K:  2.301e-06  alpha:  3.710e-01  linmin: -4.553e-05  t[s]:    218.36
	Linear fluid (dielectric constant: 78.4, screening length: 5.74355 Bohr) occupying 0.765326 of unit cell:	Completed after 10 iterations at t[s]:    223.37
	Linear fluid (dielectric constant: 78.4, screening length: 5.74355 Bohr) occupying 0.765310 of unit cell:	Completed after 3 iterations at t[s]:    227.84
	FillingsUpdate:  mu: -0.171251800  nElectrons: 278.373452
	SubspaceRotationAdjust: set factor to 0.0765
ElecMinimize: Iter:  12  G: -1180.707847438371573  |grad|_K:  1.609e-06  alpha:  3.485e-01  linmin:  6.396e-05  t[s]:    232.70
	Linear fluid (dielectric constant: 78.4, screening length: 5.74355 Bohr) occupying 0.765441 of unit cell:	Completed after 11 iterations at t[s]:    238.04
	Linear fluid (dielectric constant: 78.4, screening length: 5.74355 Bohr) occupying 0.765382 of unit cell:	Completed after 9 iterations at t[s]:    242.98
	FillingsUpdate:  mu: -0.171251800  nElectrons: 278.379187
	SubspaceRotationAdjust: set factor to 0.0601
ElecMinimize: Iter:  13  G: -1180.707882411043556  |grad|_K:  1.490e-06  alpha:  1.912e-01  linmin:  1.690e-05  t[s]:    247.77
	Linear fluid (dielectric constant: 78.4, screening length: 5.74355 Bohr) occupying 0.765445 of unit cell:	Completed after 7 iterations at t[s]:    252.65
	Linear fluid (dielectric constant: 78.4, screening length: 5.74355 Bohr) occupying 0.765468 of unit cell:	Completed after 3 iterations at t[s]:    257.27
	FillingsUpdate:  mu: -0.171251800  nElectrons: 278.362943
	SubspaceRotationAdjust: set factor to 0.0682
ElecMinimize: Iter:  14  G: -1180.707924112643468  |grad|_K:  1.252e-06  alpha:  2.619e-01  linmin: -1.281e-04  t[s]:    262.25
	Linear fluid (dielectric constant: 78.4, screening length: 5.74355 Bohr) occupying 0.765524 of unit cell:	Completed after 7 iterations at t[s]:    267.02
	Linear fluid (dielectric constant: 78.4, screening length: 5.74355 Bohr) occupying 0.765549 of unit cell:	Completed after 2 iterations at t[s]:    271.56
	FillingsUpdate:  mu: -0.171251800  nElectrons: 278.346898
	SubspaceRotationAdjust: set factor to 0.07
ElecMinimize: Iter:  15  G: -1180.707967340423693  |grad|_K:  1.312e-06  alpha:  3.785e-01  linmin: -9.490e-05  t[s]:    276.58
	Linear fluid (dielectric constant: 78.4, screening length: 5.74355 Bohr) occupying 0.765630 of unit cell:	Completed after 5 iterations at t[s]:    281.21
	Linear fluid (dielectric constant: 78.4, screening length: 5.74355 Bohr) occupying 0.765604 of unit cell:	Completed after 2 iterations at t[s]:    285.88
	FillingsUpdate:  mu: -0.171251800  nElectrons: 278.338394
	SubspaceRotationAdjust: set factor to 0.0664
ElecMinimize: Iter:  16  G: -1180.707999604576116  |grad|_K:  1.118e-06  alpha:  2.595e-01  linmin:  1.131e-05  t[s]:    290.94
	Linear fluid (dielectric constant: 78.4, screening length: 5.74355 Bohr) occupying 0.765642 of unit cell:	Completed after 9 iterations at t[s]:    296.01
	Linear fluid (dielectric constant: 78.4, screening length: 5.74355 Bohr) occupying 0.765639 of unit cell:	Completed after 0 iterations at t[s]:    300.17
	FillingsUpdate:  mu: -0.171251800  nElectrons: 278.320613
	SubspaceRotationAdjust: set factor to 0.0558
ElecMinimize: Iter:  17  G: -1180.708020868157291  |grad|_K:  1.125e-06  alpha:  2.382e-01  linmin:  3.069e-04  t[s]:    305.21
	Linear fluid (dielectric constant: 78.4, screening length: 5.74355 Bohr) occupying 0.765673 of unit cell:	Completed after 7 iterations at t[s]:    310.27
	Linear fluid (dielectric constant: 78.4, screening length: 5.74355 Bohr) occupying 0.765685 of unit cell:	Completed after 2 iterations at t[s]:    314.88
	FillingsUpdate:  mu: -0.171251800  nElectrons: 278.318696
	SubspaceRotationAdjust: set factor to 0.0536
ElecMinimize: Iter:  18  G: -1180.708050127331944  |grad|_K:  1.073e-06  alpha:  3.286e-01  linmin: -2.643e-04  t[s]:    319.95
	Linear fluid (dielectric constant: 78.4, screening length: 5.74355 Bohr) occupying 0.765728 of unit cell:	Completed after 7 iterations at t[s]:    325.82
	Linear fluid (dielectric constant: 78.4, screening length: 5.74355 Bohr) occupying 0.765722 of unit cell:	Completed after 1 iterations at t[s]:    330.25
	FillingsUpdate:  mu: -0.171251800  nElectrons: 278.317328
	SubspaceRotationAdjust: set factor to 0.0564
ElecMinimize: Iter:  19  G: -1180.708074278251161  |grad|_K:  8.329e-07  alpha:  2.804e-01  linmin:  2.414e-05  t[s]:    335.56
	Linear fluid (dielectric constant: 78.4, screening length: 5.74355 Bohr) occupying 0.765745 of unit cell:	Completed after 8 iterations at t[s]:    341.32
	Linear fluid (dielectric constant: 78.4, screening length: 5.74355 Bohr) occupying 0.765751 of unit cell:	Completed after 3 iterations at t[s]:    346.58
	FillingsUpdate:  mu: -0.171251800  nElectrons: 278.303977
	SubspaceRotationAdjust: set factor to 0.0465
ElecMinimize: Iter:  20  G: -1180.708091418089225  |grad|_K:  9.019e-07  alpha:  3.459e-01  linmin: -1.179e-04  t[s]:    351.70
	Linear fluid (dielectric constant: 78.4, screening length: 5.74355 Bohr) occupying 0.765788 of unit cell:	Completed after 2 iterations at t[s]:    356.89
	Linear fluid (dielectric constant: 78.4, screening length: 5.74355 Bohr) occupying 0.765777 of unit cell:	Completed after 2 iterations at t[s]:    361.70
	FillingsUpdate:  mu: -0.171251800  nElectrons: 278.302831
	SubspaceRotationAdjust: set factor to 0.0517
ElecMinimize: Iter:  21  G: -1180.708106108379752  |grad|_K:  6.087e-07  alpha:  2.485e-01  linmin:  5.679e-05  t[s]:    367.16
	Linear fluid (dielectric constant: 78.4, screening length: 5.74355 Bohr) occupying 0.765792 of unit cell:	Completed after 3 iterations at t[s]:    372.51
	Linear fluid (dielectric constant: 78.4, screening length: 5.74355 Bohr) occupying 0.765802 of unit cell:	Completed after 3 iterations at t[s]:    377.32
	FillingsUpdate:  mu: -0.171251800  nElectrons: 278.304088
	SubspaceRotationAdjust: set factor to 0.0509
ElecMinimize: Iter:  22  G: -1180.708117014961772  |grad|_K:  5.802e-07  alpha:  4.179e-01  linmin:  4.725e-05  t[s]:    382.81
	Linear fluid (dielectric constant: 78.4, screening length: 5.74355 Bohr) occupying 0.765826 of unit cell:	Completed after 3 iterations at t[s]:    388.20
	Linear fluid (dielectric constant: 78.4, screening length: 5.74355 Bohr) occupying 0.765817 of unit cell:	Completed after 3 iterations at t[s]:    392.81
	FillingsUpdate:  mu: -0.171251800  nElectrons: 278.301157
	SubspaceRotationAdjust: set factor to 0.0453
ElecMinimize: Iter:  23  G: -1180.708122919307471  |grad|_K:  4.261e-07  alpha:  2.508e-01  linmin: -2.047e-05  t[s]:    398.26
	Linear fluid (dielectric constant: 78.4, screening length: 5.74355 Bohr) occupying 0.765825 of unit cell:	Completed after 2 iterations at t[s]:    403.52
	Linear fluid (dielectric constant: 78.4, screening length: 5.74355 Bohr) occupying 0.765829 of unit cell:	Completed after 0 iterations at t[s]:    408.16
	FillingsUpdate:  mu: -0.171251800  nElectrons: 278.300554
	SubspaceRotationAdjust: set factor to 0.0488
ElecMinimize: Iter:  24  G: -1180.708127534735013  |grad|_K:  3.624e-07  alpha:  3.510e-01  linmin: -3.114e-04  t[s]:    413.68
	Linear fluid (dielectric constant: 78.4, screening length: 5.74355 Bohr) occupying 0.765837 of unit cell:	Completed after 2 iterations at t[s]:    419.10
	Linear fluid (dielectric constant: 78.4, screening length: 5.74355 Bohr) occupying 0.765836 of unit cell:	Completed after 0 iterations at t[s]:    423.72
	FillingsUpdate:  mu: -0.171251800  nElectrons: 278.299400
	SubspaceRotationAdjust: set factor to 0.0493
ElecMinimize: Iter:  25  G: -1180.708130263097701  |grad|_K:  3.673e-07  alpha:  2.814e-01  linmin:  3.041e-04  t[s]:    429.26
	Linear fluid (dielectric constant: 78.4, screening length: 5.74355 Bohr) occupying 0.765843 of unit cell:	Completed after 3 iterations at t[s]:    434.74
	Linear fluid (dielectric constant: 78.4, screening length: 5.74355 Bohr) occupying 0.765840 of unit cell:	Completed after 3 iterations at t[s]:    439.67
	FillingsUpdate:  mu: -0.171251800  nElectrons: 278.296580
	SubspaceRotationAdjust: set factor to 0.0467
ElecMinimize: Iter:  26  G: -1180.708131808570897  |grad|_K:  2.449e-07  alpha:  1.791e-01  linmin: -9.553e-05  t[s]:    445.32
	Linear fluid (dielectric constant: 78.4, screening length: 5.74355 Bohr) occupying 0.765843 of unit cell:	Completed after 0 iterations at t[s]:    450.42
	Linear fluid (dielectric constant: 78.4, screening length: 5.74355 Bohr) occupying 0.765846 of unit cell:	Completed after 1 iterations at t[s]:    455.42
	FillingsUpdate:  mu: -0.171251800  nElectrons: 278.296372
	SubspaceRotationAdjust: set factor to 0.0497
ElecMinimize: Iter:  27  G: -1180.708132963317212  |grad|_K:  3.296e-07  alpha:  4.242e-01  linmin:  2.212e-03  t[s]:    460.96
	Linear fluid (dielectric constant: 78.4, screening length: 5.74355 Bohr) occupying 0.765856 of unit cell:	Completed after 4 iterations at t[s]:    466.43
	Linear fluid (dielectric constant: 78.4, screening length: 5.74355 Bohr) occupying 0.765851 of unit cell:	Completed after 2 iterations at t[s]:    471.42
	FillingsUpdate:  mu: -0.171251800  nElectrons: 278.297570
	SubspaceRotationAdjust: set factor to 0.053
ElecMinimize: Iter:  28  G: -1180.708133894787125  |grad|_K:  2.899e-07  alpha:  1.958e-01  linmin:  1.695e-04  t[s]:    476.86
	Linear fluid (dielectric constant: 78.4, screening length: 5.74355 Bohr) occupying 0.765855 of unit cell:	Completed after 2 iterations at t[s]:    482.16
	Linear fluid (dielectric constant: 78.4, screening length: 5.74355 Bohr) occupying 0.765854 of unit cell:	Completed after 0 iterations at t[s]:    486.91
	FillingsUpdate:  mu: -0.171251800  nElectrons: 278.297193
	SubspaceRotationAdjust: set factor to 0.0601
ElecMinimize: Iter:  29  G: -1180.708134756167965  |grad|_K:  2.096e-07  alpha:  1.463e-01  linmin:  8.724e-04  t[s]:    492.32
	Linear fluid (dielectric constant: 78.4, screening length: 5.74355 Bohr) occupying 0.765856 of unit cell:	Completed after 2 iterations at t[s]:    497.68
	Linear fluid (dielectric constant: 78.4, screening length: 5.74355 Bohr) occupying 0.765856 of unit cell:	Completed after 0 iterations at t[s]:    502.36
	FillingsUpdate:  mu: -0.171251800  nElectrons: 278.295378
	SubspaceRotationAdjust: set factor to 0.0719
ElecMinimize: Iter:  30  G: -1180.708135326971615  |grad|_K:  1.832e-07  alpha:  1.888e-01  linmin: -1.091e-03  t[s]:    507.99
	Linear fluid (dielectric constant: 78.4, screening length: 5.74355 Bohr) occupying 0.765859 of unit cell:	Completed after 3 iterations at t[s]:    513.36
	Linear fluid (dielectric constant: 78.4, screening length: 5.74355 Bohr) occupying 0.765858 of unit cell:	Completed after 0 iterations at t[s]:    518.24
	FillingsUpdate:  mu: -0.171251800  nElectrons: 278.293970
	SubspaceRotationAdjust: set factor to 0.0592
ElecMinimize: Iter:  31  G: -1180.708135747813230  |grad|_K:  2.165e-07  alpha:  1.595e-01  linmin: -7.176e-04  t[s]:    523.80
	Linear fluid (dielectric constant: 78.4, screening length: 5.74355 Bohr) occupying 0.765862 of unit cell:	Completed after 2 iterations at t[s]:    529.14
	Linear fluid (dielectric constant: 78.4, screening length: 5.74355 Bohr) occupying 0.765861 of unit cell:	Completed after 0 iterations at t[s]:    533.84
	FillingsUpdate:  mu: -0.171251800  nElectrons: 278.294422
	SubspaceRotationAdjust: set factor to 0.0946
ElecMinimize: Iter:  32  G: -1180.708136233482264  |grad|_K:  1.571e-07  alpha:  1.346e-01  linmin: -1.413e-04  t[s]:    539.36
	Linear fluid (dielectric constant: 78.4, screening length: 5.74355 Bohr) occupying 0.765863 of unit cell:	Completed after 0 iterations at t[s]:    544.40
ElecMinimize: 	Predicted alpha/alphaT>3.000000, increasing alphaT to 4.038918e-01.
	Linear fluid (dielectric constant: 78.4, screening length: 5.74355 Bohr) occupying 0.765867 of unit cell:	Completed after 3 iterations at t[s]:    549.41
	Linear fluid (dielectric constant: 78.4, screening length: 5.74355 Bohr) occupying 0.765864 of unit cell:	Completed after 1 iterations at t[s]:    554.33
	FillingsUpdate:  mu: -0.171251800  nElectrons: 278.296031
	SubspaceRotationAdjust: set factor to 0.0855
ElecMinimize: Iter:  33  G: -1180.708136672496494  |grad|_K:  1.994e-07  alpha:  2.383e-01  linmin:  3.579e-04  t[s]:    559.87
	Linear fluid (dielectric constant: 78.4, screening length: 5.74355 Bohr) occupying 0.765870 of unit cell:	Completed after 2 iterations at t[s]:    565.13
	Linear fluid (dielectric constant: 78.4, screening length: 5.74355 Bohr) occupying 0.765869 of unit cell:	Completed after 0 iterations at t[s]:    569.54
	FillingsUpdate:  mu: -0.171251800  nElectrons: 278.295978
	SubspaceRotationAdjust: set factor to 0.107
ElecMinimize: Iter:  34  G: -1180.708137119585672  |grad|_K:  1.476e-07  alpha:  1.716e-01  linmin:  2.626e-04  t[s]:    574.77
	Linear fluid (dielectric constant: 78.4, screening length: 5.74355 Bohr) occupying 0.765871 of unit cell:	Completed after 1 iterations at t[s]:    579.93
	Linear fluid (dielectric constant: 78.4, screening length: 5.74355 Bohr) occupying 0.765872 of unit cell:	Completed after 0 iterations at t[s]:    584.32
	FillingsUpdate:  mu: -0.171251800  nElectrons: 278.295874
	SubspaceRotationAdjust: set factor to 0.11
ElecMinimize: Iter:  35  G: -1180.708137421151150  |grad|_K:  1.192e-07  alpha:  1.982e-01  linmin: -7.369e-04  t[s]:    589.48
	Linear fluid (dielectric constant: 78.4, screening length: 5.74355 Bohr) occupying 0.765874 of unit cell:	Completed after 2 iterations at t[s]:    594.66
	Linear fluid (dielectric constant: 78.4, screening length: 5.74355 Bohr) occupying 0.765874 of unit cell:	Completed after 0 iterations at t[s]:    598.99
	FillingsUpdate:  mu: -0.171251800  nElectrons: 278.295337
	SubspaceRotationAdjust: set factor to 0.113
ElecMinimize: Iter:  36  G: -1180.708137717330146  |grad|_K:  1.333e-07  alpha:  2.305e-01  linmin: -1.453e-03  t[s]:    603.83
	Linear fluid (dielectric constant: 78.4, screening length: 5.74355 Bohr) occupying 0.765877 of unit cell:	Completed after 2 iterations at t[s]:    608.66
	Linear fluid (dielectric constant: 78.4, screening length: 5.74355 Bohr) occupying 0.765876 of unit cell:	Completed after 0 iterations at t[s]:    613.23
	FillingsUpdate:  mu: -0.171251800  nElectrons: 278.294926
	SubspaceRotationAdjust: set factor to 0.0873
ElecMinimize: Iter:  37  G: -1180.708138028803205  |grad|_K:  1.207e-07  alpha:  1.685e-01  linmin:  6.902e-04  t[s]:    618.53
	Linear fluid (dielectric constant: 78.4, screening length: 5.74355 Bohr) occupying 0.765878 of unit cell:	Completed after 0 iterations at t[s]:    622.96
	Linear fluid (dielectric constant: 78.4, screening length: 5.74355 Bohr) occupying 0.765880 of unit cell:	Completed after 1 iterations at t[s]:    627.36
	FillingsUpdate:  mu: -0.171251800  nElectrons: 278.295828
	SubspaceRotationAdjust: set factor to 0.111
ElecMinimize: Iter:  38  G: -1180.708138211591177  |grad|_K:  1.160e-07  alpha:  2.866e-01  linmin:  1.406e-04  t[s]:    632.72
	Linear fluid (dielectric constant: 78.4, screening length: 5.74355 Bohr) occupying 0.765883 of unit cell:	Completed after 2 iterations at t[s]:    637.93
	Linear fluid (dielectric constant: 78.4, screening length: 5.74355 Bohr) occupying 0.765881 of unit cell:	Completed after 0 iterations at t[s]:    642.35
	FillingsUpdate:  mu: -0.171251800  nElectrons: 278.296401
	SubspaceRotationAdjust: set factor to 0.0798
ElecMinimize: Iter:  39  G: -1180.708138343026349  |grad|_K:  1.797e-07  alpha:  1.328e-01  linmin:  7.580e-04  t[s]:    647.81
	Linear fluid (dielectric constant: 78.4, screening length: 5.74355 Bohr) occupying 0.765885 of unit cell:	Completed after 2 iterations at t[s]:    653.24
	Linear fluid (dielectric constant: 78.4, screening length: 5.74355 Bohr) occupying 0.765883 of unit cell:	Completed after 1 iterations at t[s]:    657.96
	FillingsUpdate:  mu: -0.171251800  nElectrons: 278.296359
	SubspaceRotationAdjust: set factor to 0.102
ElecMinimize: Iter:  40  G: -1180.708138376839543  |grad|_K:  9.074e-08  alpha:  4.570e-02  linmin:  3.277e-04  t[s]:    663.50
	Linear fluid (dielectric constant: 78.4, screening length: 5.74355 Bohr) occupying 0.765883 of unit cell:	Completed after 0 iterations at t[s]:    668.48
ElecMinimize: 	Predicted alpha/alphaT>3.000000, increasing alphaT to 1.370877e-01.
	Linear fluid (dielectric constant: 78.4, screening length: 5.74355 Bohr) occupying 0.765884 of unit cell:	Completed after 0 iterations at t[s]:    672.84
	Linear fluid (dielectric constant: 78.4, screening length: 5.74355 Bohr) occupying 0.765885 of unit cell:	Completed after 0 iterations at t[s]:    677.45
	FillingsUpdate:  mu: -0.171251800  nElectrons: 278.296037
	SubspaceRotationAdjust: set factor to 0.107
ElecMinimize: Iter:  41  G: -1180.708138518923306  |grad|_K:  7.952e-08  alpha:  3.083e-01  linmin:  3.941e-05  t[s]:    682.75
	Linear fluid (dielectric constant: 78.4, screening length: 5.74355 Bohr) occupying 0.765887 of unit cell:	Completed after 2 iterations at t[s]:    688.35
	Linear fluid (dielectric constant: 78.4, screening length: 5.74355 Bohr) occupying 0.765886 of unit cell:	Completed after 0 iterations at t[s]:    692.92
	FillingsUpdate:  mu: -0.171251800  nElectrons: 278.295819
	SubspaceRotationAdjust: set factor to 0.0822
ElecMinimize: Iter:  42  G: -1180.708138548533725  |grad|_K:  1.423e-07  alpha:  1.177e-01  linmin:  6.295e-04  t[s]:    698.37
	Linear fluid (dielectric constant: 78.4, screening length: 5.74355 Bohr) occupying 0.765889 of unit cell:	Completed after 0 iterations at t[s]:    703.30
	Linear fluid (dielectric constant: 78.4, screening length: 5.74355 Bohr) occupying 0.765887 of unit cell:	Completed after 0 iterations at t[s]:    708.06
	FillingsUpdate:  mu: -0.171251800  nElectrons: 278.295454
	SubspaceRotationAdjust: set factor to 0.0712
ElecMinimize: Iter:  43  G: -1180.708138602323743  |grad|_K:  1.332e-07  alpha:  5.678e-02  linmin:  3.158e-08  t[s]:    713.49
	Linear fluid (dielectric constant: 78.4, screening length: 5.74355 Bohr) occupying 0.765888 of unit cell:	Completed after 1 iterations at t[s]:    718.79
	Linear fluid (dielectric constant: 78.4, screening length: 5.74355 Bohr) occupying 0.765888 of unit cell:	Completed after 0 iterations at t[s]:    723.47
ElecMinimize: 	Step increased G by 2.983415e-08, reducing alpha to 1.817448e-03.
	Linear fluid (dielectric constant: 78.4, screening length: 5.74355 Bohr) occupying 0.765887 of unit cell:	Completed after 0 iterations at t[s]:    732.86
ElecMinimize: 	Step increased G by 1.351532e-08, reducing alpha to 1.817448e-04.
	Linear fluid (dielectric constant: 78.4, screening length: 5.74355 Bohr) occupying 0.765887 of unit cell:	Completed after 0 iterations at t[s]:    742.22
ElecMinimize: 	Step increased G by 1.221019e-08, reducing alpha to 1.817448e-05.
ElecMinimize: 	Step failed to reduce G after 3 attempts. Quitting step.
ElecMinimize: 	Undoing step.
	Linear fluid (dielectric constant: 78.4, screening length: 5.74355 Bohr) occupying 0.765887 of unit cell:	Completed after 0 iterations at t[s]:    751.47
ElecMinimize: 	Step failed: resetting search direction.
	FillingsUpdate:  mu: -0.171251800  nElectrons: 278.295453
	SubspaceRotationAdjust: set factor to 0.0544
ElecMinimize: Iter:  44  G: -1180.708138590147655  |grad|_K:  7.343e-08  alpha:  1.817e-05
	Linear fluid (dielectric constant: 78.4, screening length: 5.74355 Bohr) occupying 0.765887 of unit cell:	Completed after 0 iterations at t[s]:    762.02
ElecMinimize: 	Predicted alpha/alphaT>3.000000, increasing alphaT to 1.703358e-01.
	Linear fluid (dielectric constant: 78.4, screening length: 5.74355 Bohr) occupying 0.765887 of unit cell:	Completed after 1 iterations at t[s]:    766.85
	Linear fluid (dielectric constant: 78.4, screening length: 5.74355 Bohr) occupying 0.765887 of unit cell:	Completed after 0 iterations at t[s]:    771.16
	FillingsUpdate:  mu: -0.171251800  nElectrons: 278.295585
	SubspaceRotationAdjust: set factor to 0.0496
ElecMinimize: Iter:  45  G: -1180.708138614216296  |grad|_K:  5.346e-08  alpha:  1.177e-01  linmin: -8.881e-03  t[s]:    776.28
	Linear fluid (dielectric constant: 78.4, screening length: 5.74355 Bohr) occupying 0.765887 of unit cell:	Completed after 0 iterations at t[s]:    781.23
	Linear fluid (dielectric constant: 78.4, screening length: 5.74355 Bohr) occupying 0.765887 of unit cell:	Completed after 0 iterations at t[s]:    785.56
	FillingsUpdate:  mu: -0.171251800  nElectrons: 278.295977
	SubspaceRotationAdjust: set factor to 0.0639
ElecMinimize: Iter:  46  G: -1180.708138703002987  |grad|_K:  5.718e-08  alpha:  3.180e-01  linmin:  4.837e-06  t[s]:    790.51
	Linear fluid (dielectric constant: 78.4, screening length: 5.74355 Bohr) occupying 0.765887 of unit cell:	Completed after 3 iterations at t[s]:    795.10
	Linear fluid (dielectric constant: 78.4, screening length: 5.74355 Bohr) occupying 0.765887 of unit cell:	Completed after 0 iterations at t[s]:    799.57
	FillingsUpdate:  mu: -0.171251800  nElectrons: 278.296092
	SubspaceRotationAdjust: set factor to 0.0567
ElecMinimize: Iter:  47  G: -1180.708138761707914  |grad|_K:  1.444e-07  alpha:  5.737e-02  linmin:  5.185e-03  t[s]:    804.44
ElecMinimize: 	Bad step direction: g.d > 0.
ElecMinimize: 	Undoing step.
	Linear fluid (dielectric constant: 78.4, screening length: 5.74355 Bohr) occupying 0.765887 of unit cell:	Completed after 0 iterations at t[s]:    808.86
ElecMinimize: 	Step failed: resetting search direction.
	FillingsUpdate:  mu: -0.171251800  nElectrons: 278.296092
	SubspaceRotationAdjust: set factor to 0.0561
ElecMinimize: Iter:  48  G: -1180.708138761709733  |grad|_K:  1.400e-07  alpha:  0.000e+00
	Linear fluid (dielectric constant: 78.4, screening length: 5.74355 Bohr) occupying 0.765887 of unit cell:	Completed after 1 iterations at t[s]:    817.97
	Linear fluid (dielectric constant: 78.4, screening length: 5.74355 Bohr) occupying 0.765887 of unit cell:	Completed after 0 iterations at t[s]:    822.14
ElecMinimize: 	Step increased G by 8.179109e-08, reducing alpha to 1.946827e-03.
	Linear fluid (dielectric constant: 78.4, screening length: 5.74355 Bohr) occupying 0.765887 of unit cell:	Completed after 0 iterations at t[s]:    830.28
ElecMinimize: 	Step increased G by 8.614143e-08, reducing alpha to 1.946827e-04.
	Linear fluid (dielectric constant: 78.4, screening length: 5.74355 Bohr) occupying 0.765887 of unit cell:	Completed after 0 iterations at t[s]:    839.56
ElecMinimize: 	Step increased G by 8.661709e-08, reducing alpha to 1.946827e-05.
ElecMinimize: 	Step failed to reduce G after 3 attempts. Quitting step.
ElecMinimize: 	Undoing step.
	Linear fluid (dielectric constant: 78.4, screening length: 5.74355 Bohr) occupying 0.765887 of unit cell:	Completed after 0 iterations at t[s]:    848.20
ElecMinimize: 	Step failed along negative gradient direction.
ElecMinimize: Probably at roundoff error limit. (Stopping)
Setting wave functions to eigenvectors of Hamiltonian

# Ionic positions in lattice coordinates:
ion Mn   0.332719383074933   0.014758833810313   0.497656496674574 0
ion Mn   0.000169489485474   0.497355597067535   0.504242794587833 0
ion Mn   0.666985785660374   0.014786726952186   0.497676781305227 0
ion Mn   0.339709708183506   0.487356980155019   0.503796349326404 0
ion Mn   0.999911013093304   0.003992418986131   0.497312445835629 0
ion Mn   0.660421129806748   0.487404673207444   0.503824451040967 0
ion Sb   0.174998426196222   0.283539300292329   0.612391842692528 0
ion Sb   0.168211369829137   0.704855221758110   0.386376941324248 0
ion Sb   0.499966504413451   0.719426693467854   0.389122484686495 0
ion Sb   0.825201734217321   0.283740229816772   0.612395691384743 0
ion Sb   0.831748612685353   0.704875054724857   0.386396594778813 0
ion Se   0.000082571508475   0.249163649129313   0.527982397642772 0
ion Se   0.177733291575091   0.466837397157085   0.416647011956179 0
ion Se   0.000012592487562   0.750343243544393   0.472565702774772 0
ion Se   0.179443266972577   0.528035251827521   0.587477178552525 0
ion Se   0.342218708722147   0.247350242050042   0.535334744926254 0
ion Se   0.500083035322448   0.474309095287500   0.418151043057453 0
ion Se   0.331273296378467   0.761412488388751   0.472443393666124 0
ion Se   0.500021974101789   0.531409866574501   0.575073783672431 0
ion Se   0.657895516819840   0.247435778291702   0.535364752463029 0
ion Se   0.822322959963131   0.466817461302753   0.416656186615866 0
ion Se   0.668628076329763   0.761441305158222   0.472455374350418 0
ion Se   0.820728858686297   0.528125338619089   0.587427039978151 0
ion I   0.166756245716404   0.945005914184579   0.593987937783229 0
ion I   0.165511887540930   0.051979757835548   0.400307341324923 0
ion I   0.499954024204768   0.932203669876089   0.586880969394476 0
ion I   0.499845188698261   0.061375537140662   0.399442043786387 0
ion I   0.833246249252302   0.945092896158271   0.593927989221466 0
ion I   0.834091925073924   0.051870412235441   0.400308986196064 0


# Forces in Lattice coordinates:
force Mn  -0.014823797254308  -0.045221265185886  -0.011928163964956 0
force Mn  -0.001245603862176  -0.010573525201840   0.009853507944307 0
force Mn   0.017420722454866  -0.043335089414366  -0.015363686735459 0
force Mn   0.203205675871622  -0.035449525158033   0.399071191995964 0
force Mn   0.000868398598897  -0.053689088682891   0.012704217913073 0
force Mn  -0.198181730853596  -0.035682268059316   0.394863818987474 0
force Sb  -0.059707692320551  -0.012485647004447   0.236221554148603 0
force Sb  -0.017031946630084   0.047075493711630  -0.271293060048267 0
force Sb   0.000543514596022  -0.060465158612233  -0.355295465445021 0
force Sb   0.058243444027070  -0.015026763569423   0.235661514923480 0
force Sb   0.016901864984035   0.045847987753945  -0.269002627653279 0
force Se  -0.000737508390048  -0.001163752473644  -0.233548781592288 0
force Se  -0.138935242316863   0.041958896786967   0.682078148009238 0
force Se  -0.000562249181706   0.038490999432714   0.251507833375315 0
force Se  -0.127999596486515  -0.105818624070554  -0.725523449741998 0
force Se   0.068170653745524  -0.051978660729669  -0.381977030753759 0
force Se  -0.000525394904369   0.044854188311799   0.496866199640842 0
force Se  -0.006920562163815   0.108853250304637   0.300011625056768 0
force Se   0.000434279488948  -0.088010127690728  -0.840167524350776 0
force Se  -0.068120417172212  -0.051751752259186  -0.380054441302501 0
force Se   0.138710772320851   0.043556118659695   0.681217946589828 0
force Se   0.007300423489315   0.108068485415983   0.299263781276244 0
force Se   0.127423620429223  -0.104310016993727  -0.724052529259035 0
force I  -0.002717908986972   0.223620933211359  -0.820459078926302 0
force I  -0.003965752585020  -0.126104689918958   0.884606030531380 0
force I  -0.000301738188918   0.252146991455242  -0.686395636535003 0
force I   0.000205829261847  -0.133850863722400   0.920722443127304 0
force I   0.001273211579835   0.223143741246076  -0.818651963496367 0
force I   0.005633220380346  -0.124985786107938   0.884587374064950 0

# Energy components:
   A_diel =        0.0034747840058018
   Eewald =     4746.5856889889519152
       EH =     5778.1909241559314978
     Eloc =   -12040.4838211385740578
      Enl =      202.0280842159880876
      Exc =     -511.9753792254700784
 Exc_core =      326.0388405317812612
       KE =      271.3598725761719379
  MuShift =        0.0056881124943136
-------------------------------------
     Etot =    -1228.2466269987205578
       TS =        0.1202182613453813
-------------------------------------
        F =    -1228.3668452600659293
      muN =      -47.6587065849861915
-------------------------------------
        G =    -1180.7081386750796810

IonicMinimize: Iter:   0  G: -1180.708138675079681  |grad|_K:  0.000e+00  t[s]:    857.00
IonicMinimize: Converged (|grad|_K<1.000000e-04).

#--- Lowdin population analysis ---
# oxidation-state Mn -0.717 -0.564 -0.715 -0.654 -0.726 -0.652
# oxidation-state Sb +0.742 +0.683 +0.679 +0.742 +0.682
# oxidation-state Se +0.140 +0.004 +0.122 +0.031 +0.137 +0.083 +0.095 +0.191 +0.137 +0.003 +0.095 +0.031
# oxidation-state I +0.191 +0.214 +0.229 +0.202 +0.191 +0.214


Dumping 'NbTe2.fillings' ... done
Dumping 'NbTe2.wfns' ... done
Dumping 'NbTe2.fluidState' ... done
Dumping 'NbTe2.eigenvals' ... done
End date and time: Mon Jul 13 14:20:37 2020  (Duration: 0-0:14:19.58)
Done!

*************** JDFTx 1.5.0  ***************

Start date and time: Mon Jul 13 15:07:46 2020
Executable jdftx_gpu with command-line: -i Charged.in -o Charged.out
Running on hosts (process indices):  amax (0-3)
Divided in process groups (process indices):  0 (0)  1 (1)  2 (2)  3 (3)
gpuInit: Found compatible cuda device 0 'Tesla K80'
gpuInit: Found compatible cuda device 1 'Tesla K80'
gpuInit: Found compatible cuda device 2 'Tesla K80'
gpuInit: Found compatible cuda device 3 'Tesla K80'
gpuInit: Selected device 0
Resource initialization completed at t[s]:     12.77
Run totals: 4 processes, 24 threads, 4 GPUs


Input parsed successfully to the following command list (including defaults):

basis kpoint-dependent
cache-projectors no
coords-type Lattice
core-overlap-check none
coulomb-interaction Slab 001
coulomb-truncation-embed 0 0 0.5
davidson-band-ratio 1.1
dump End State
dump-name NbTe2.$VAR
elec-cutoff 20 100
elec-eigen-algo Davidson
elec-ex-corr gga-PBE
elec-smearing Gauss 0.0073499
electronic-minimize  \
	dirUpdateScheme      FletcherReeves \
	linminMethod         DirUpdateRecommended \
	nIterations          500 \
	history              15 \
	knormThreshold       0 \
	energyDiffThreshold  1e-08 \
	nEnergyDiff          2 \
	alphaTstart          1 \
	alphaTmin            1e-10 \
	updateTestStepSize   yes \
	alphaTreduceFactor   0.1 \
	alphaTincreaseFactor 3 \
	nAlphaAdjustMax      3 \
	wolfeEnergy          0.0001 \
	wolfeGradient        0.9 \
	fdTest               no
exchange-regularization WignerSeitzTruncated
fluid LinearPCM 298.000000 1.013250
fluid-anion F- 1 MeanFieldLJ \
	epsBulk 1 \
	pMol 0 \
	epsInf 1 \
	Pvap 0 \
	sigmaBulk 0 \
	Rvdw 2.24877 \
	Res 0 \
	tauNuc 343133
fluid-cation Na+ 1 MeanFieldLJ \
	epsBulk 1 \
	pMol 0 \
	epsInf 1 \
	Pvap 0 \
	sigmaBulk 0 \
	Rvdw 2.19208 \
	Res 0 \
	tauNuc 343133
fluid-ex-corr lda-TF lda-PZ
fluid-gummel-loop 10 1.000000e-05
fluid-minimize  \
	dirUpdateScheme      PolakRibiere \
	linminMethod         DirUpdateRecommended \
	nIterations          400 \
	history              15 \
	knormThreshold       1e-11 \
	energyDiffThreshold  0 \
	nEnergyDiff          2 \
	alphaTstart          1 \
	alphaTmin            1e-10 \
	updateTestStepSize   yes \
	alphaTreduceFactor   0.1 \
	alphaTincreaseFactor 3 \
	nAlphaAdjustMax      6 \
	wolfeEnergy          0.0001 \
	wolfeGradient        0.9 \
	fdTest               no
fluid-solvent H2O 55.338 ScalarEOS \
	epsBulk 78.4 \
	pMol 0.92466 \
	epsInf 1.77 \
	Pvap 1.06736e-10 \
	sigmaBulk 4.62e-05 \
	Rvdw 2.61727 \
	Res 1.42 \
	tauNuc 343133 \
	poleEl 15 7 1
forces-output-coords Positions
initial-state NbTe2.$VAR
ion Mn   0.332719383074933   0.014758833810313   0.497656496674574 0
ion Mn   0.000169489485474   0.497355597067535   0.504242794587833 0
ion Mn   0.666985785660374   0.014786726952186   0.497676781305227 0
ion Mn   0.339709708183506   0.487356980155019   0.503796349326404 0
ion Mn   0.999911013093304   0.003992418986131   0.497312445835629 0
ion Mn   0.660421129806748   0.487404673207444   0.503824451040967 0
ion Sb   0.174998426196222   0.283539300292329   0.612391842692528 0
ion Sb   0.168211369829137   0.704855221758110   0.386376941324248 0
ion Sb   0.499966504413451   0.719426693467854   0.389122484686495 0
ion Sb   0.825201734217321   0.283740229816772   0.612395691384743 0
ion Sb   0.831748612685353   0.704875054724857   0.386396594778813 0
ion Se   0.000082571508475   0.249163649129313   0.527982397642772 0
ion Se   0.177733291575091   0.466837397157085   0.416647011956179 0
ion Se   0.000012592487562   0.750343243544393   0.472565702774772 0
ion Se   0.179443266972577   0.528035251827521   0.587477178552525 0
ion Se   0.342218708722147   0.247350242050042   0.535334744926254 0
ion Se   0.500083035322448   0.474309095287500   0.418151043057453 0
ion Se   0.331273296378467   0.761412488388751   0.472443393666124 0
ion Se   0.500021974101789   0.531409866574501   0.575073783672431 0
ion Se   0.657895516819840   0.247435778291702   0.535364752463029 0
ion Se   0.822322959963131   0.466817461302753   0.416656186615866 0
ion Se   0.668628076329763   0.761441305158222   0.472455374350418 0
ion Se   0.820728858686297   0.528125338619089   0.587427039978151 0
ion I   0.166756245716404   0.945005914184579   0.593987937783229 0
ion I   0.165511887540930   0.051979757835548   0.400307341324923 0
ion I   0.499954024204768   0.932203669876089   0.586880969394476 0
ion I   0.499845188698261   0.061375537140662   0.399442043786387 0
ion I   0.833246249252302   0.945092896158271   0.593927989221466 0
ion I   0.834091925073924   0.051870412235441   0.400308986196064 0
ion-species GBRV/$ID_pbe.uspp
ion-width Ecut
ionic-minimize  \
	dirUpdateScheme      L-BFGS \
	linminMethod         DirUpdateRecommended \
	nIterations          0 \
	history              15 \
	knormThreshold       0.0001 \
	energyDiffThreshold  1e-06 \
	nEnergyDiff          2 \
	alphaTstart          1 \
	alphaTmin            1e-10 \
	updateTestStepSize   yes \
	alphaTreduceFactor   0.1 \
	alphaTincreaseFactor 3 \
	nAlphaAdjustMax      3 \
	wolfeEnergy          0.0001 \
	wolfeGradient        0.9 \
	fdTest               no
kpoint   0.000000000000   0.000000000000   0.000000000000  1.00000000000000
kpoint-folding 3 3 1 
latt-move-scale 1 1 1
latt-scale 1 1 1 
lattice Triclinic 22.1353 19.893 38.8989 90 90 90
lattice-minimize  \
	dirUpdateScheme      L-BFGS \
	linminMethod         DirUpdateRecommended \
	nIterations          0 \
	history              15 \
	knormThreshold       0 \
	energyDiffThreshold  1e-06 \
	nEnergyDiff          2 \
	alphaTstart          1 \
	alphaTmin            1e-10 \
	updateTestStepSize   yes \
	alphaTreduceFactor   0.1 \
	alphaTincreaseFactor 3 \
	nAlphaAdjustMax      3 \
	wolfeEnergy          0.0001 \
	wolfeGradient        0.9 \
	fdTest               no
lcao-params -1 1e-06 0.0073499
pcm-variant CANDLE
spintype no-spin
subspace-rotation-factor 1 yes
symmetries automatic
symmetry-threshold 0.0001
target-mu -0.24475 no




---------- Setting up symmetries ----------

Found 8 point-group symmetries of the bravais lattice
Found 1 space-group symmetries with basis
Applied RMS atom displacement 0 bohrs to make symmetries exact.

---------- Initializing the Grid ----------
R = 
[    22.1353          0          0  ]
[          0     19.893          0  ]
[          0          0    38.8989  ]
unit cell volume = 17128.6
G =
[   0.283854          0          0  ]
[          0    0.31585          0  ]
[          0          0   0.161526  ]
Minimum fftbox size, Smin = [  100  92  176  ]
Chosen fftbox size, S = [  100  96  180  ]

---------- Initializing tighter grid for wavefunction operations ----------
R = 
[    22.1353          0          0  ]
[          0     19.893          0  ]
[          0          0    38.8989  ]
unit cell volume = 17128.6
G =
[   0.283854          0          0  ]
[          0    0.31585          0  ]
[          0          0   0.161526  ]
Minimum fftbox size, Smin = [  92  84  160  ]
Chosen fftbox size, S = [  96  84  160  ]

---------- Exchange Correlation functional ----------
Initalized PBE GGA exchange.
Initalized PBE GGA correlation.

---------- Setting up pseudopotentials ----------
Width of ionic core gaussian charges (only for fluid interactions / plotting) set to 0.397384

Reading pseudopotential file '/home/guoxy/vasp/jdftx-1.5.0/build/pseudopotentials/GBRV/mn_pbe.uspp':
  Title: Mn.  Created by USPP 7.3.6 on 16-6-15
  Reference state energy: -105.136484.  15 valence electrons in orbitals:
    |300>  occupation: 2  eigenvalue: -3.300080
    |310>  occupation: 6  eigenvalue: -2.150696
    |400>  occupation: 1.5  eigenvalue: -0.307943
    |320>  occupation: 5  eigenvalue: -0.391818
    |410>  occupation: 0  eigenvalue: -0.152105
  lMax: 2  lLocal: 3  QijEcut: 6
  6 projectors sampled on a log grid with 585 points:
    l: 0  eig: -3.300083  rCut: 1.45
    l: 0  eig: -0.307946  rCut: 1.45
    l: 1  eig: -2.150696  rCut: 1.45
    l: 1  eig: -0.152108  rCut: 1.45
    l: 2  eig: -0.391817  rCut: 1.7
    l: 2  eig: 0.500000  rCut: 1.7
  Partial core density with radius 0.65
  Transforming core density to a uniform radial grid of dG=0.02 with 1273 points.
  Transforming local potential to a uniform radial grid of dG=0.02 with 1273 points.
  Transforming nonlocal projectors to a uniform radial grid of dG=0.02 with 432 points.
  Transforming density augmentations to a uniform radial grid of dG=0.02 with 1273 points.
  Transforming atomic orbitals to a uniform radial grid of dG=0.02 with 432 points.
  Core radius for overlap checks: 1.70 bohrs.

Reading pseudopotential file '/home/guoxy/vasp/jdftx-1.5.0/build/pseudopotentials/GBRV/sb_pbe.uspp':
  Title: Sb.  Created by USPP 7.3.6 on 1-4-15
  Reference state energy: -92.019396.  15 valence electrons in orbitals:
    |420>  occupation: 10  eigenvalue: -1.543740
    |500>  occupation: 2  eigenvalue: -0.758471
    |510>  occupation: 2  eigenvalue: -0.440746
  lMax: 2  lLocal: 3  QijEcut: 6
  6 projectors sampled on a log grid with 721 points:
    l: 0  eig: -0.758469  rCut: 1.7
    l: 0  eig: 0.000000  rCut: 1.7
    l: 1  eig: -0.440746  rCut: 1.8
    l: 1  eig: 1.000000  rCut: 1.8
    l: 2  eig: -1.543739  rCut: 1.7
    l: 2  eig: 0.250000  rCut: 1.7
  Partial core density with radius 1.1
  Transforming core density to a uniform radial grid of dG=0.02 with 1273 points.
  Transforming local potential to a uniform radial grid of dG=0.02 with 1273 points.
  Transforming nonlocal projectors to a uniform radial grid of dG=0.02 with 432 points.
  Transforming density augmentations to a uniform radial grid of dG=0.02 with 1273 points.
  Transforming atomic orbitals to a uniform radial grid of dG=0.02 with 432 points.
  Core radius for overlap checks: 2.10 bohrs.

Reading pseudopotential file '/home/guoxy/vasp/jdftx-1.5.0/build/pseudopotentials/GBRV/se_pbe.uspp':
  Title: Se.  Created by USPP 7.3.6 on 14-9-2013
  Reference state energy: -21.672887.  6 valence electrons in orbitals:
    |400>  occupation: 2  eigenvalue: -0.635284
    |410>  occupation: 4  eigenvalue: -0.239295
  lMax: 2  lLocal: 3  QijEcut: 5
  6 projectors sampled on a log grid with 625 points:
    l: 0  eig: -0.635278  rCut: 1.5
    l: 0  eig: 0.500000  rCut: 1.5
    l: 1  eig: -0.239295  rCut: 1.5
    l: 1  eig: 0.500000  rCut: 1.5
    l: 2  eig: 0.000000  rCut: 1.8
    l: 2  eig: 1.000000  rCut: 1.8
  Partial core density with radius 1.2
  Transforming core density to a uniform radial grid of dG=0.02 with 1273 points.
  Transforming local potential to a uniform radial grid of dG=0.02 with 1273 points.
  Transforming nonlocal projectors to a uniform radial grid of dG=0.02 with 432 points.
  Transforming density augmentations to a uniform radial grid of dG=0.02 with 1273 points.
  Transforming atomic orbitals to a uniform radial grid of dG=0.02 with 432 points.
  Core radius for overlap checks: 1.80 bohrs.

Reading pseudopotential file '/home/guoxy/vasp/jdftx-1.5.0/build/pseudopotentials/GBRV/i_pbe.uspp':
  Title: I.  Created by USPP 7.3.6 on 14-9-2013
  Reference state energy: -32.770235.  7 valence electrons in orbitals:
    |500>  occupation: 2  eigenvalue: -0.639712
    |510>  occupation: 5  eigenvalue: -0.260406
  lMax: 2  lLocal: 3  QijEcut: 5
  6 projectors sampled on a log grid with 725 points:
    l: 0  eig: -0.639710  rCut: 1.9
    l: 0  eig: 0.000000  rCut: 1.9
    l: 1  eig: -0.260404  rCut: 2
    l: 1  eig: 0.000000  rCut: 2
    l: 2  eig: -0.500000  rCut: 2.45
    l: 2  eig: 0.500000  rCut: 2.45
  Partial core density with radius 1.3
  Transforming core density to a uniform radial grid of dG=0.02 with 1273 points.
  Transforming local potential to a uniform radial grid of dG=0.02 with 1273 points.
  Transforming nonlocal projectors to a uniform radial grid of dG=0.02 with 432 points.
  Transforming density augmentations to a uniform radial grid of dG=0.02 with 1273 points.
  Transforming atomic orbitals to a uniform radial grid of dG=0.02 with 432 points.
  Core radius for overlap checks: 2.45 bohrs.

Initialized 4 species with 29 total atoms.

Folded 1 k-points by 3x3x1 to 9 k-points.

---------- Setting up k-points, bands, fillings ----------
Adding inversion symmetry to k-mesh for non-inversion-symmetric unit cell.
Reduced to 5 k-points under symmetry. 
Computing the number of bands and number of electrons
Reading initial fillings from file NbTe2.fillings.
nElectrons: 278.296091   nBands: 195   nStates: 5

----- Setting up reduced wavefunction bases (one per k-point) -----
average nbasis = 73169.222 , ideal nbasis = 73174.690

---------- Setting up coulomb interaction ----------
Fluid mode embedding: using embedded box, but periodic Coulomb kernel.
(Fluid response is responsible for (approximate) separation between periodic images.)
Setting up double-sized grid for truncated Coulomb potentials:
R = 
[    22.1353          0          0  ]
[          0     19.893          0  ]
[          0          0    77.7978  ]
unit cell volume = 34257.2
G =
[   0.283854          0          0  ]
[          0    0.31585          0  ]
[          0          0  0.0807631  ]
Chosen fftbox size, S = [  100  96  360  ]
Integer grid location selected as the embedding center:
   Grid: [  0  0  90  ]
   Lattice: [  0  0  0.5  ]
   Cartesian: [  0  0  19.4494  ]
Constructing Wigner-Seitz cell: 6 faces (6 quadrilaterals, 0 hexagons)
Range-separation parameter for embedded mesh potentials due to point charges: 0.593544 bohrs.

Initializing van der Waals corrections
	NOTE: vdW corrections apply only for interactions with fluid.
	Mn:  C6:  187.33 Eh-a0^6  R0: 2.952 a0
	Sb:  C6:  666.75 Eh-a0^6  R0: 3.555 a0
	Se:  C6:  219.24 Eh-a0^6  R0: 3.347 a0
	 I:  C6:  546.38 Eh-a0^6  R0: 3.575 a0

---------- Setting up ewald sum ----------
Optimum gaussian width for ewald sums = 7.391984 bohr.
Real space sum over 605 unit cells with max indices [  5  5  2  ]
Reciprocal space sum over 5915 terms with max indices [  6  6  17  ]

---------- Allocating electronic variables ----------
Initializing wave functions:  reading from 'NbTe2.wfns'
----- createFluidSolver() ----- (Fluid-side solver setup)
   Initializing fluid molecule 'H2O'
     Initializing site 'O'
       Electron density: proportional to exp(-r/0.36935)*erfc((r-0.51523)/0.36823) with norm 6.826
       Charge density: gaussian nuclear width 0.478731 with net site charge 0.826
       Polarizability: cuspless exponential with width 0.32 and norm 3.73
       Hard sphere radius: 2.57003 bohrs
       Positions in reference frame:
         [ +0.000000 +0.000000 +0.000000 ]
     Initializing site 'H'
       Electron density: proportional to exp(-r/0.34641)*erfc((r-0)/0.390882) with norm 0.587
       Charge density: gaussian nuclear width 0.377945 with net site charge -0.413
       Polarizability: cuspless exponential with width 0.39 and norm 3.3
       Positions in reference frame:
         [ +0.000000 -1.441945 +1.122523 ]
         [ +0.000000 +1.441945 +1.122523 ]
     Net charge: 0   dipole magnitude: 0.927204
     Initializing spherical shell mfKernel with radius 2.61727 Bohr
     deltaS corrections:
       site 'O': -7.54299
       site 'H': -6.83917
   Initializing fluid molecule 'Na+'
     Initializing site 'Na'
       Electron density: proportional to exp(-r/0.19682)*erfc((r-0.71491)/0.41314) with norm 8.1383
       Charge density: gaussian nuclear width 0.365347 with net site charge -1
       Hard sphere radius: 1.86327 bohrs
       Positions in reference frame:
         [ +0.000000 +0.000000 +0.000000 ]
     Net charge: -1   dipole magnitude: 0
     Initializing gaussian mfKernel with width: 1.55004 Bohr
     deltaS corrections:
       site 'Na': -22.3555
   Initializing fluid molecule 'F-'
     Initializing site 'F'
       Electron density: proportional to exp(-r/0.38886)*erfc((r-0)/0.438782) with norm 8
       Charge density: gaussian nuclear width 0.374796 with net site charge 1
       Hard sphere radius: 2.39995 bohrs
       Positions in reference frame:
         [ +0.000000 +0.000000 +0.000000 ]
     Net charge: 1   dipole magnitude: 0
     Initializing gaussian mfKernel with width: 1.59012 Bohr
     deltaS corrections:
       site 'F': -9.04335

Correction to mu due to finite nuclear width = -0.00808075
   Cavity determined by nc: 0.00142 and sigma: 0.707107
   Nonlocal vdW cavity from gaussian model electron density with norm = 8 and sigma = 0.993594 bohr
   Charge asymmetry in cavity with sensitivity pCavity = 36.5 e-bohr/Eh
   Electrostatic cavity expanded by eta = 1.46 bohrs
   Weighted density cavitation model constrained by Nbulk: 0.0049383 bohr^-3, Pvap: 3.14029 kPa, Rvdw: 2.61727 bohr and sigmaBulk: 4.62e-05 Eh/bohr^2 at T: 298 K.
   Weighted density dispersion model using vdW pair potentials with single solvent site with sqrtC6eff: 0.77 SI.
Reading fluid state from 'NbTe2.fluidState'


---- Citations for features of the code used in this run ----

   Software package:
      R. Sundararaman, K. Letchworth-Weaver, K.A. Schwarz, D. Gunceler, Y. Ozhabes and T.A. Arias, 'JDFTx: software for joint density-functional theory', SoftwareX 6, 278 (2017)

   gga-PBE exchange-correlation functional:
      J.P. Perdew, K. Burke and M. Ernzerhof, Phys. Rev. Lett. 77, 3865 (1996)

   Pseudopotentials:
      KF Garrity, JW Bennett, KM Rabe and D Vanderbilt, Comput. Mater. Sci. 81, 446 (2014)

   Truncated Coulomb potentials:
      R. Sundararaman and T.A. Arias, Phys. Rev. B 87, 165122 (2013)

   Van der Waals correction pair-potentials:
      S. Grimme, J. Comput. Chem. 27, 1787 (2006)

   Charge-asymmetric nonlocally-determined local-electric (CANDLE) solvation model:
      R. Sundararaman and W.A. Goddard III, J. Chem. Phys. 142, 064107 (2015)

   Total energy minimization with Auxiliary Hamiltonian:
      C. Freysoldt, S. Boeck, and J. Neugebauer, Phys. Rev. B 79, 241103(R) (2009)

   Grand-canonical (fixed-potential) DFT:
      R. Sundararaman, W. A. Goddard III and T. A. Arias, J. Chem. Phys. 146, 114104 (2017)

This list may not be complete. Please suggest additional citations or
report any other bugs at https://github.com/shankar1729/jdftx/issues

Initialization completed successfully at t[s]:     18.78

Shifting auxilliary hamiltonian by -0.073518 to set nElectrons=278.296091
	Linear fluid (dielectric constant: 78.4, screening length: 5.74355 Bohr) occupying 0.765888 of unit cell:	Completed after 7 iterations at t[s]:     22.02

-------- Electronic minimization -----------
	Linear fluid (dielectric constant: 78.4, screening length: 5.74355 Bohr) occupying 0.765888 of unit cell:	Completed after 0 iterations at t[s]:     25.04
	FillingsUpdate:  mu: -0.244750400  nElectrons: 278.296091
ElecMinimize: Iter:   0  G: -1160.253718344878507  |grad|_K:  2.059e-04  alpha:  1.000e+00
	Linear fluid (dielectric constant: 78.4, screening length: 5.74355 Bohr) occupying 0.772015 of unit cell:	Completed after 32 iterations at t[s]:     37.26
	Linear fluid (dielectric constant: 78.4, screening length: 5.74355 Bohr) occupying 0.766100 of unit cell:	Completed after 30 iterations at t[s]:     44.16
ElecMinimize: 	Step increased G by 3.069938e-01, reducing alpha to 3.493296e-03.
	Linear fluid (dielectric constant: 78.4, screening length: 5.74355 Bohr) occupying 0.765909 of unit cell:	Completed after 22 iterations at t[s]:     54.24
	FillingsUpdate:  mu: -0.244750400  nElectrons: 278.008572
	SubspaceRotationAdjust: set factor to 0.503
ElecMinimize: Iter:   1  G: -1160.270005046896586  |grad|_K:  1.133e-04  alpha:  3.493e-03  linmin: -9.530e-02  t[s]:     58.97
	Linear fluid (dielectric constant: 78.4, screening length: 5.74355 Bohr) occupying 0.765935 of unit cell:	Completed after 16 iterations at t[s]:     64.29
	Linear fluid (dielectric constant: 78.4, screening length: 5.74355 Bohr) occupying 0.765948 of unit cell:	Completed after 14 iterations at t[s]:     69.88
	FillingsUpdate:  mu: -0.244750400  nElectrons: 277.638067
	SubspaceRotationAdjust: set factor to 0.318
ElecMinimize: Iter:   2  G: -1160.277503026346039  |grad|_K:  4.253e-05  alpha:  5.336e-03  linmin:  2.846e-04  t[s]:     74.66
	Linear fluid (dielectric constant: 78.4, screening length: 5.74355 Bohr) occupying 0.765968 of unit cell:	Completed after 10 iterations at t[s]:     79.58
ElecMinimize: 	Predicted alpha/alphaT>3.000000, increasing alphaT to 1.600858e-02.
	Linear fluid (dielectric constant: 78.4, screening length: 5.74355 Bohr) occupying 0.766007 of unit cell:	Completed after 12 iterations at t[s]:     84.92
ElecMinimize: 	Predicted alpha/alphaT>3.000000, increasing alphaT to 4.802574e-02.
	Linear fluid (dielectric constant: 78.4, screening length: 5.74355 Bohr) occupying 0.766122 of unit cell:	Completed after 14 iterations at t[s]:     90.32
	Linear fluid (dielectric constant: 78.4, screening length: 5.74355 Bohr) occupying 0.766237 of unit cell:	Completed after 14 iterations at t[s]:     95.81
	FillingsUpdate:  mu: -0.244750400  nElectrons: 276.994673
	SubspaceRotationAdjust: set factor to 0.172
ElecMinimize: Iter:   3  G: -1160.287657418921071  |grad|_K:  8.413e-05  alpha:  7.965e-02  linmin:  3.632e-05  t[s]:    100.59
	Linear fluid (dielectric constant: 78.4, screening length: 5.74355 Bohr) occupying 0.767519 of unit cell:	Completed after 20 iterations at t[s]:    106.39
	Linear fluid (dielectric constant: 78.4, screening length: 5.74355 Bohr) occupying 0.766923 of unit cell:	Completed after 18 iterations at t[s]:    112.07
	FillingsUpdate:  mu: -0.244750400  nElectrons: 276.281965
	SubspaceRotationAdjust: set factor to 0.106
	SubspaceRotationAdjust: resetting CG because factor has changed by 0.105739
	Linear fluid (dielectric constant: 78.4, screening length: 5.74355 Bohr) occupying 0.766923 of unit cell:	Completed after 0 iterations at t[s]:    119.50
ElecMinimize: 	State modified externally: resetting search direction.
ElecMinimize: Iter:   4  G: -1160.310608339085093  |grad|_K:  4.203e-05  alpha:  4.308e-02
	Linear fluid (dielectric constant: 78.4, screening length: 5.74355 Bohr) occupying 0.766992 of unit cell:	Completed after 16 iterations at t[s]:    130.17
	Linear fluid (dielectric constant: 78.4, screening length: 5.74355 Bohr) occupying 0.767073 of unit cell:	Completed after 16 iterations at t[s]:    135.73
	FillingsUpdate:  mu: -0.244750400  nElectrons: 276.659253
	SubspaceRotationAdjust: set factor to 0.0416
ElecMinimize: Iter:   5  G: -1160.322496988708735  |grad|_K:  2.380e-05  alpha:  9.367e-02  linmin: -8.496e-04  t[s]:    140.49
	Linear fluid (dielectric constant: 78.4, screening length: 5.74355 Bohr) occupying 0.767253 of unit cell:	Completed after 14 iterations at t[s]:    145.90
	Linear fluid (dielectric constant: 78.4, screening length: 5.74355 Bohr) occupying 0.767447 of unit cell:	Completed after 13 iterations at t[s]:    151.49
	FillingsUpdate:  mu: -0.244750400  nElectrons: 276.601764
	SubspaceRotationAdjust: set factor to 0.0466
ElecMinimize: Iter:   6  G: -1160.330470909523456  |grad|_K:  1.401e-05  alpha:  1.948e-01  linmin: -7.158e-05  t[s]:    156.26
	Linear fluid (dielectric constant: 78.4, screening length: 5.74355 Bohr) occupying 0.767778 of unit cell:	Completed after 14 iterations at t[s]:    161.61
	Linear fluid (dielectric constant: 78.4, screening length: 5.74355 Bohr) occupying 0.768294 of unit cell:	Completed after 15 iterations at t[s]:    167.10
	FillingsUpdate:  mu: -0.244750400  nElectrons: 276.551208
	SubspaceRotationAdjust: set factor to 0.0434
ElecMinimize: Iter:   7  G: -1160.337469104107868  |grad|_K:  1.762e-05  alpha:  4.980e-01  linmin: -4.748e-05  t[s]:    171.82
	Linear fluid (dielectric constant: 78.4, screening length: 5.74355 Bohr) occupying 0.770033 of unit cell:	Completed after 16 iterations at t[s]:    177.49
	Linear fluid (dielectric constant: 78.4, screening length: 5.74355 Bohr) occupying 0.769770 of unit cell:	Completed after 8 iterations at t[s]:    182.70
	FillingsUpdate:  mu: -0.244750400  nElectrons: 276.186677
	SubspaceRotationAdjust: set factor to 0.0515
ElecMinimize: Iter:   8  G: -1160.346845141377344  |grad|_K:  1.067e-05  alpha:  4.225e-01  linmin: -3.225e-05  t[s]:    187.64
	Linear fluid (dielectric constant: 78.4, screening length: 5.74355 Bohr) occupying 0.770514 of unit cell:	Completed after 16 iterations at t[s]:    193.16
	Linear fluid (dielectric constant: 78.4, screening length: 5.74355 Bohr) occupying 0.770584 of unit cell:	Completed after 9 iterations at t[s]:    198.19
	FillingsUpdate:  mu: -0.244750400  nElectrons: 275.905532
	SubspaceRotationAdjust: set factor to 0.0391
ElecMinimize: Iter:   9  G: -1160.350610822718409  |grad|_K:  1.399e-05  alpha:  4.629e-01  linmin:  4.029e-05  t[s]:    202.88
	Linear fluid (dielectric constant: 78.4, screening length: 5.74355 Bohr) occupying 0.772078 of unit cell:	Completed after 16 iterations at t[s]:    208.50
	Linear fluid (dielectric constant: 78.4, screening length: 5.74355 Bohr) occupying 0.771688 of unit cell:	Completed after 12 iterations at t[s]:    213.80
	FillingsUpdate:  mu: -0.244750400  nElectrons: 275.797118
	SubspaceRotationAdjust: set factor to 0.0338
ElecMinimize: Iter:  10  G: -1160.355342797679896  |grad|_K:  9.397e-06  alpha:  3.395e-01  linmin: -9.200e-06  t[s]:    218.73
	Linear fluid (dielectric constant: 78.4, screening length: 5.74355 Bohr) occupying 0.772150 of unit cell:	Completed after 15 iterations at t[s]:    224.11
	Linear fluid (dielectric constant: 78.4, screening length: 5.74355 Bohr) occupying 0.772228 of unit cell:	Completed after 9 iterations at t[s]:    229.34
	FillingsUpdate:  mu: -0.244750400  nElectrons: 275.613789
	SubspaceRotationAdjust: set factor to 0.0317
ElecMinimize: Iter:  11  G: -1160.357851868659736  |grad|_K:  9.391e-06  alpha:  3.976e-01  linmin: -5.422e-06  t[s]:    234.07
	Linear fluid (dielectric constant: 78.4, screening length: 5.74355 Bohr) occupying 0.772685 of unit cell:	Completed after 14 iterations at t[s]:    239.51
	Linear fluid (dielectric constant: 78.4, screening length: 5.74355 Bohr) occupying 0.772725 of unit cell:	Completed after 9 iterations at t[s]:    244.61
	FillingsUpdate:  mu: -0.244750400  nElectrons: 275.434960
	SubspaceRotationAdjust: set factor to 0.0347
[...]
	Linear fluid (dielectric constant: 78.4, screening length: 5.74355 Bohr) occupying 0.774792 of unit cell:	Completed after 0 iterations at t[s]:    650.04
	FillingsUpdate:  mu: -0.244750400  nElectrons: 274.926932
	SubspaceRotationAdjust: set factor to 0.0294
ElecMinimize: Iter:  38  G: -1160.373267292364289  |grad|_K:  4.004e-07  alpha:  4.327e-01  linmin: -7.041e-05  t[s]:    655.57
	Linear fluid (dielectric constant: 78.4, screening length: 5.74355 Bohr) occupying 0.774799 of unit cell:	Completed after 2 iterations at t[s]:    660.93
	Linear fluid (dielectric constant: 78.4, screening length: 5.74355 Bohr) occupying 0.774799 of unit cell:	Completed after 0 iterations at t[s]:    679.62
	FillingsUpdate:  mu: -0.244750400  nElectrons: 274.927903
	SubspaceRotationAdjust: set factor to 0.0289
ElecMinimize: Iter:  39  G: -1160.373271988133411  |grad|_K:  3.140e-07  alpha:  4.054e-01  linmin:  1.011e-04  t[s]:    684.39
	Linear fluid (dielectric constant: 78.4, screening length: 5.74355 Bohr) occupying 0.774804 of unit cell:	Completed after 3 iterations at t[s]:    688.76
	Linear fluid (dielectric constant: 78.4, screening length: 5.74355 Bohr) occupying 0.774804 of unit cell:	Completed after 0 iterations at t[s]:    692.82
	FillingsUpdate:  mu: -0.244750400  nElectrons: 274.926262
	SubspaceRotationAdjust: set factor to 0.03
ElecMinimize: Iter:  40  G: -1160.373274812202908  |grad|_K:  2.350e-07  alpha:  4.072e-01  linmin: -1.757e-04  t[s]:    697.65
	Linear fluid (dielectric constant: 78.4, screening length: 5.74355 Bohr) occupying 0.774807 of unit cell:	Completed after 2 iterations at t[s]:    701.94
	Linear fluid (dielectric constant: 78.4, screening length: 5.74355 Bohr) occupying 0.774807 of unit cell:	Completed after 0 iterations at t[s]:    705.93
	FillingsUpdate:  mu: -0.244750400  nElectrons: 274.925742
	SubspaceRotationAdjust: set factor to 0.0329
ElecMinimize: Iter:  41  G: -1160.373276644815405  |grad|_K:  1.851e-07  alpha:  4.522e-01  linmin: -1.847e-04  t[s]:    710.72
	Linear fluid (dielectric constant: 78.4, screening length: 5.74355 Bohr) occupying 0.774809 of unit cell:	Completed after 2 iterations at t[s]:    715.16
	Linear fluid (dielectric constant: 78.4, screening length: 5.74355 Bohr) occupying 0.774809 of unit cell:	Completed after 0 iterations at t[s]:    719.42
	FillingsUpdate:  mu: -0.244750400  nElectrons: 274.925699
	SubspaceRotationAdjust: set factor to 0.0375
ElecMinimize: Iter:  42  G: -1160.373277907560123  |grad|_K:  1.766e-07  alpha:  5.007e-01  linmin: -3.495e-05  t[s]:    724.23
	Linear fluid (dielectric constant: 78.4, screening length: 5.74355 Bohr) occupying 0.774811 of unit cell:	Completed after 1 iterations at t[s]:    728.58
	Linear fluid (dielectric constant: 78.4, screening length: 5.74355 Bohr) occupying 0.774811 of unit cell:	Completed after 0 iterations at t[s]:    732.94
	FillingsUpdate:  mu: -0.244750400  nElectrons: 274.925676
	SubspaceRotationAdjust: set factor to 0.0429
ElecMinimize: Iter:  43  G: -1160.373278901847470  |grad|_K:  1.732e-07  alpha:  4.450e-01  linmin: -4.485e-05  t[s]:    737.79
	Linear fluid (dielectric constant: 78.4, screening length: 5.74355 Bohr) occupying 0.774812 of unit cell:	Completed after 3 iterations at t[s]:    742.46
	Linear fluid (dielectric constant: 78.4, screening length: 5.74355 Bohr) occupying 0.774812 of unit cell:	Completed after 0 iterations at t[s]:    746.78
	FillingsUpdate:  mu: -0.244750400  nElectrons: 274.926389
	SubspaceRotationAdjust: set factor to 0.0433
ElecMinimize: Iter:  44  G: -1160.373279731150433  |grad|_K:  1.865e-07  alpha:  3.781e-01  linmin:  1.546e-04  t[s]:    751.66
	Linear fluid (dielectric constant: 78.4, screening length: 5.74355 Bohr) occupying 0.774813 of unit cell:	Completed after 2 iterations at t[s]:    756.16
	Linear fluid (dielectric constant: 78.4, screening length: 5.74355 Bohr) occupying 0.774813 of unit cell:	Completed after 0 iterations at t[s]:    760.76
	FillingsUpdate:  mu: -0.244750400  nElectrons: 274.926966
	SubspaceRotationAdjust: set factor to 0.0465
ElecMinimize: Iter:  45  G: -1160.373280682013956  |grad|_K:  1.622e-07  alpha:  4.056e-01  linmin: -1.428e-04  t[s]:    765.94
	Linear fluid (dielectric constant: 78.4, screening length: 5.74355 Bohr) occupying 0.774813 of unit cell:	Completed after 2 iterations at t[s]:    770.94
	Linear fluid (dielectric constant: 78.4, screening length: 5.74355 Bohr) occupying 0.774813 of unit cell:	Completed after 0 iterations at t[s]:    775.34
	FillingsUpdate:  mu: -0.244750400  nElectrons: 274.926398
	SubspaceRotationAdjust: set factor to 0.05
ElecMinimize: Iter:  46  G: -1160.373281414822259  |grad|_K:  1.647e-07  alpha:  3.678e-01  linmin: -2.856e-05  t[s]:    780.33
	Linear fluid (dielectric constant: 78.4, screening length: 5.74355 Bohr) occupying 0.774813 of unit cell:	Completed after 3 iterations at t[s]:    784.77
	Linear fluid (dielectric constant: 78.4, screening length: 5.74355 Bohr) occupying 0.774813 of unit cell:	Completed after 0 iterations at t[s]:    789.09
	FillingsUpdate:  mu: -0.244750400  nElectrons: 274.926793
	SubspaceRotationAdjust: set factor to 0.0459
ElecMinimize: Iter:  47  G: -1160.373282145469375  |grad|_K:  1.557e-07  alpha:  3.711e-01  linmin: -4.708e-05  t[s]:    794.03
	Linear fluid (dielectric constant: 78.4, screening length: 5.74355 Bohr) occupying 0.774813 of unit cell:	Completed after 2 iterations at t[s]:    798.41
	Linear fluid (dielectric constant: 78.4, screening length: 5.74355 Bohr) occupying 0.774813 of unit cell:	Completed after 0 iterations at t[s]:    802.85
	FillingsUpdate:  mu: -0.244750400  nElectrons: 274.927759
	SubspaceRotationAdjust: set factor to 0.0479
ElecMinimize: Iter:  48  G: -1160.373282693305327  |grad|_K:  1.338e-07  alpha:  3.061e-01  linmin:  4.623e-05  t[s]:    807.88
	Linear fluid (dielectric constant: 78.4, screening length: 5.74355 Bohr) occupying 0.774813 of unit cell:	Completed after 0 iterations at t[s]:    812.28
	Linear fluid (dielectric constant: 78.4, screening length: 5.74355 Bohr) occupying 0.774813 of unit cell:	Completed after 2 iterations at t[s]:    817.12
	FillingsUpdate:  mu: -0.244750400  nElectrons: 274.927833
	SubspaceRotationAdjust: set factor to 0.0465
ElecMinimize: Iter:  49  G: -1160.373283133417999  |grad|_K:  1.403e-07  alpha:  4.955e-01  linmin:  3.190e-04  t[s]:    821.95
	Linear fluid (dielectric constant: 78.4, screening length: 5.74355 Bohr) occupying 0.774812 of unit cell:	Completed after 3 iterations at t[s]:    826.48
	Linear fluid (dielectric constant: 78.4, screening length: 5.74355 Bohr) occupying 0.774813 of unit cell:	Completed after 0 iterations at t[s]:    830.98
	FillingsUpdate:  mu: -0.244750400  nElectrons: 274.928468
	SubspaceRotationAdjust: set factor to 0.04
ElecMinimize: Iter:  50  G: -1160.373283487868775  |grad|_K:  1.491e-07  alpha:  2.540e-01  linmin:  3.189e-04  t[s]:    836.56
	Linear fluid (dielectric constant: 78.4, screening length: 5.74355 Bohr) occupying 0.774813 of unit cell:	Completed after 1 iterations at t[s]:    841.70
	Linear fluid (dielectric constant: 78.4, screening length: 5.74355 Bohr) occupying 0.774813 of unit cell:	Completed after 0 iterations at t[s]:    846.32
	FillingsUpdate:  mu: -0.244750400  nElectrons: 274.928098
	SubspaceRotationAdjust: set factor to 0.0292
ElecMinimize: Iter:  51  G: -1160.373283560242271  |grad|_K:  9.291e-08  alpha:  1.347e-01  linmin: -7.302e-05  t[s]:    852.40
	Linear fluid (dielectric constant: 78.4, screening length: 5.74355 Bohr) occupying 0.774813 of unit cell:	Completed after 0 iterations at t[s]:    857.85
	Linear fluid (dielectric constant: 78.4, screening length: 5.74355 Bohr) occupying 0.774813 of unit cell:	Completed after 0 iterations at t[s]:    862.94
	FillingsUpdate:  mu: -0.244750400  nElectrons: 274.928239
	SubspaceRotationAdjust: set factor to 0.0434
ElecMinimize: Iter:  52  G: -1160.373283744705304  |grad|_K:  7.109e-08  alpha:  2.517e-01  linmin: -6.140e-04  t[s]:    868.71
	Linear fluid (dielectric constant: 78.4, screening length: 5.74355 Bohr) occupying 0.774813 of unit cell:	Completed after 1 iterations at t[s]:    873.96
	Linear fluid (dielectric constant: 78.4, screening length: 5.74355 Bohr) occupying 0.774813 of unit cell:	Completed after 0 iterations at t[s]:    878.74
ElecMinimize: 	Step increased G by 1.123908e-09, reducing alpha to 1.096446e-02.
	Linear fluid (dielectric constant: 78.4, screening length: 5.74355 Bohr) occupying 0.774813 of unit cell:	Completed after 0 iterations at t[s]:    888.37
	FillingsUpdate:  mu: -0.244750400  nElectrons: 274.928250
	SubspaceRotationAdjust: set factor to 0.0397
ElecMinimize: Iter:  53  G: -1160.373283748335552  |grad|_K:  1.182e-07  alpha:  1.096e-02  linmin: -4.360e-05  t[s]:    893.93
	Linear fluid (dielectric constant: 78.4, screening length: 5.74355 Bohr) occupying 0.774813 of unit cell:	Completed after 0 iterations at t[s]:    899.20
ElecMinimize: 	Predicted alpha/alphaT>3.000000, increasing alphaT to 3.289338e-02.
	Linear fluid (dielectric constant: 78.4, screening length: 5.74355 Bohr) occupying 0.774813 of unit cell:	Completed after 0 iterations at t[s]:    904.23
ElecMinimize: 	Predicted alpha/alphaT>3.000000, increasing alphaT to 9.868014e-02.
	Linear fluid (dielectric constant: 78.4, screening length: 5.74355 Bohr) occupying 0.774813 of unit cell:	Completed after 0 iterations at t[s]:    909.29
	Linear fluid (dielectric constant: 78.4, screening length: 5.74355 Bohr) occupying 0.774813 of unit cell:	Completed after 0 iterations at t[s]:    914.28
	FillingsUpdate:  mu: -0.244750400  nElectrons: 274.928114
	SubspaceRotationAdjust: set factor to 0.0437
ElecMinimize: Iter:  54  G: -1160.373283868432054  |grad|_K:  1.081e-07  alpha:  1.155e-01  linmin:  7.734e-08  t[s]:    920.09
	Linear fluid (dielectric constant: 78.4, screening length: 5.74355 Bohr) occupying 0.774813 of unit cell:	Completed after 2 iterations at t[s]:    925.37
	Linear fluid (dielectric constant: 78.4, screening length: 5.74355 Bohr) occupying 0.774813 of unit cell:	Completed after 0 iterations at t[s]:    930.12
	FillingsUpdate:  mu: -0.244750400  nElectrons: 274.927830
	SubspaceRotationAdjust: set factor to 0.0601
ElecMinimize: Iter:  55  G: -1160.373283884794773  |grad|_K:  7.007e-08  alpha:  5.938e-02  linmin: -8.818e-05  t[s]:    935.64
	Linear fluid (dielectric constant: 78.4, screening length: 5.74355 Bohr) occupying 0.774813 of unit cell:	Completed after 0 iterations at t[s]:    940.68
ElecMinimize: 	Predicted alpha/alphaT>3.000000, increasing alphaT to 1.781305e-01.
	Linear fluid (dielectric constant: 78.4, screening length: 5.74355 Bohr) occupying 0.774813 of unit cell:	Completed after 0 iterations at t[s]:    945.57
	Linear fluid (dielectric constant: 78.4, screening length: 5.74355 Bohr) occupying 0.774814 of unit cell:	Completed after 2 iterations at t[s]:    950.82
	FillingsUpdate:  mu: -0.244750400  nElectrons: 274.927127
	SubspaceRotationAdjust: set factor to 0.0611
ElecMinimize: Iter:  56  G: -1160.373283915251022  |grad|_K:  1.011e-07  alpha:  3.224e-01  linmin:  4.995e-04  t[s]:    956.68
	Linear fluid (dielectric constant: 78.4, screening length: 5.74355 Bohr) occupying 0.774815 of unit cell:	Completed after 1 iterations at t[s]:    962.05
	Linear fluid (dielectric constant: 78.4, screening length: 5.74355 Bohr) occupying 0.774814 of unit cell:	Completed after 0 iterations at t[s]:    966.91
	FillingsUpdate:  mu: -0.244750400  nElectrons: 274.927052
	SubspaceRotationAdjust: set factor to 0.0761
ElecMinimize: Iter:  57  G: -1160.373283925712485  |grad|_K:  1.251e-07  alpha:  6.155e-02  linmin:  5.508e-05  t[s]:    972.53
	Linear fluid (dielectric constant: 78.4, screening length: 5.74355 Bohr) occupying 0.774814 of unit cell:	Completed after 0 iterations at t[s]:    977.61
	Linear fluid (dielectric constant: 78.4, screening length: 5.74355 Bohr) occupying 0.774815 of unit cell:	Completed after 1 iterations at t[s]:    982.50
	FillingsUpdate:  mu: -0.244750400  nElectrons: 274.927251
	SubspaceRotationAdjust: set factor to 0.0989
ElecMinimize: Iter:  58  G: -1160.373284007842358  |grad|_K:  1.018e-07  alpha:  1.479e-01  linmin:  1.681e-04  t[s]:    988.10
	Linear fluid (dielectric constant: 78.4, screening length: 5.74355 Bohr) occupying 0.774816 of unit cell:	Completed after 3 iterations at t[s]:    993.47
	Linear fluid (dielectric constant: 78.4, screening length: 5.74355 Bohr) occupying 0.774815 of unit cell:	Completed after 0 iterations at t[s]:    998.27
	FillingsUpdate:  mu: -0.244750400  nElectrons: 274.927319
	SubspaceRotationAdjust: set factor to 0.0858
ElecMinimize: Iter:  59  G: -1160.373284048855567  |grad|_K:  1.777e-07  alpha:  3.455e-02  linmin:  4.656e-04  t[s]:   1003.77
ElecMinimize: 	Bad step direction: g.d > 0.
ElecMinimize: 	Undoing step.
	Linear fluid (dielectric constant: 78.4, screening length: 5.74355 Bohr) occupying 0.774815 of unit cell:	Completed after 0 iterations at t[s]:   1008.89
ElecMinimize: 	Step failed: resetting search direction.
	FillingsUpdate:  mu: -0.244750400  nElectrons: 274.927319
	SubspaceRotationAdjust: set factor to 0.0792
ElecMinimize: Iter:  60  G: -1160.373284048848063  |grad|_K:  1.708e-07  alpha:  0.000e+00
	Linear fluid (dielectric constant: 78.4, screening length: 5.74355 Bohr) occupying 0.774815 of unit cell:	Completed after 1 iterations at t[s]:   1019.67
	Linear fluid (dielectric constant: 78.4, screening length: 5.74355 Bohr) occupying 0.774815 of unit cell:	Completed after 0 iterations at t[s]:   1024.23
ElecMinimize: 	Step increased G by 2.647971e-08, reducing alpha to 1.717827e-03.
	Linear fluid (dielectric constant: 78.4, screening length: 5.74355 Bohr) occupying 0.774815 of unit cell:	Completed after 0 iterations at t[s]:   1033.59
ElecMinimize: 	Step increased G by 5.046309e-08, reducing alpha to 1.717827e-04.
	Linear fluid (dielectric constant: 78.4, screening length: 5.74355 Bohr) occupying 0.774815 of unit cell:	Completed after 0 iterations at t[s]:   1042.91
ElecMinimize: 	Step increased G by 5.292759e-08, reducing alpha to 1.717827e-05.
ElecMinimize: 	Step failed to reduce G after 3 attempts. Quitting step.
ElecMinimize: 	Undoing step.
	Linear fluid (dielectric constant: 78.4, screening length: 5.74355 Bohr) occupying 0.774815 of unit cell:	Completed after 0 iterations at t[s]:   1052.36
ElecMinimize: 	Step failed along negative gradient direction.
ElecMinimize: Probably at roundoff error limit. (Stopping)
Setting wave functions to eigenvectors of Hamiltonian

# Ionic positions in lattice coordinates:
ion Mn   0.332719383074933   0.014758833810313   0.497656496674574 0
ion Mn   0.000169489485474   0.497355597067535   0.504242794587833 0
ion Mn   0.666985785660374   0.014786726952186   0.497676781305227 0
ion Mn   0.339709708183506   0.487356980155019   0.503796349326404 0
ion Mn   0.999911013093304   0.003992418986131   0.497312445835629 0
ion Mn   0.660421129806748   0.487404673207444   0.503824451040967 0
ion Sb   0.174998426196222   0.283539300292329   0.612391842692528 0
ion Sb   0.168211369829137   0.704855221758110   0.386376941324248 0
ion Sb   0.499966504413451   0.719426693467854   0.389122484686495 0
ion Sb   0.825201734217321   0.283740229816772   0.612395691384743 0
ion Sb   0.831748612685353   0.704875054724857   0.386396594778813 0
ion Se   0.000082571508475   0.249163649129313   0.527982397642772 0
ion Se   0.177733291575091   0.466837397157085   0.416647011956179 0
ion Se   0.000012592487562   0.750343243544393   0.472565702774772 0
ion Se   0.179443266972577   0.528035251827521   0.587477178552525 0
ion Se   0.342218708722147   0.247350242050042   0.535334744926254 0
ion Se   0.500083035322448   0.474309095287500   0.418151043057453 0
ion Se   0.331273296378467   0.761412488388751   0.472443393666124 0
ion Se   0.500021974101789   0.531409866574501   0.575073783672431 0
ion Se   0.657895516819840   0.247435778291702   0.535364752463029 0
ion Se   0.822322959963131   0.466817461302753   0.416656186615866 0
ion Se   0.668628076329763   0.761441305158222   0.472455374350418 0
ion Se   0.820728858686297   0.528125338619089   0.587427039978151 0
ion I   0.166756245716404   0.945005914184579   0.593987937783229 0
ion I   0.165511887540930   0.051979757835548   0.400307341324923 0
ion I   0.499954024204768   0.932203669876089   0.586880969394476 0
ion I   0.499845188698261   0.061375537140662   0.399442043786387 0
ion I   0.833246249252302   0.945092896158271   0.593927989221466 0
ion I   0.834091925073924   0.051870412235441   0.400308986196064 0


# Forces in Lattice coordinates:
force Mn  -0.004359252403235  -0.013128538304496   0.005322362569687 0
force Mn  -0.000273183051101  -0.017857783787873   0.014747602006193 0
force Mn   0.006680105168342  -0.011251970422837   0.001731118338745 0
force Mn   0.170837964079172  -0.084196409860798   0.543487420146255 0
force Mn   0.000457915052342  -0.041407352598633   0.009456668660251 0
force Mn  -0.165715083229574  -0.084881952089371   0.540112110935811 0
force Sb  -0.036086653737513  -0.033467351895656   0.537428715044815 0
force Sb  -0.041411294250510   0.109154597728586  -0.536578378373280 0
force Sb   0.000409999015385   0.020424604304278  -0.613572386866863 0
force Sb   0.034596835776910  -0.035715238594662   0.537655094893436 0
force Sb   0.041411212785064   0.108043659330775  -0.534245017873671 0
force Se  -0.000685056415337   0.022887615685158  -0.380271805469393 0
force Se  -0.125958167029315  -0.012295181478188   0.863867183836396 0
force Se  -0.000560374231716  -0.010051970749498   0.396113331413657 0
force Se  -0.123262908105535  -0.070101558452734  -0.911156881552690 0
force Se   0.153065989774898  -0.034013909736860  -0.583615012849377 0
force Se  -0.000586737583949   0.007294519640502   0.665574133681995 0
force Se  -0.006348895035683   0.059965529266744   0.443938673702805 0
force Se   0.000288954064902  -0.102390770142223  -1.059502344633795 0
force Se  -0.152828972700133  -0.033712005835024  -0.582198778531904 0
force Se   0.125442898511082  -0.010591083961161   0.862934164943232 0
force Se   0.006768062533273   0.059441540513397   0.443245575406902 0
force Se   0.122457572948550  -0.068590914860185  -0.909822861971468 0
force I   0.000580391914732   0.278995925320224  -0.987870611372252 0
force I  -0.001647130845321  -0.153300272122176   1.064875560050041 0
force I  -0.000186386907469   0.278002385057206  -0.861459196081061 0
force I   0.000222952857992  -0.169080499075019   1.102334372588045 0
force I  -0.001741456254360   0.278279374952456  -0.985968892618260 0
force I   0.003413705213295  -0.152167361177221   1.065121511503366 0

# Energy components:
   A_diel =       -0.6020820176305389
   Eewald =     4746.5856889889519152
       EH =     5673.0496612732104040
     Eloc =   -11933.8801650028435688
      Enl =      201.6556428940967862
      Exc =     -510.9694074344295700
 Exc_core =      326.0388405317812612
       KE =      270.5503972764945502
  MuShift =        0.0329103451224857
-------------------------------------
     Etot =    -1227.5385131452467249
       TS =        0.1233418317324398
-------------------------------------
        F =    -1227.6618549769791571
      muN =      -67.2885709810758073
-------------------------------------
        G =    -1160.3732839959034209

IonicMinimize: Iter:   0  G: -1160.373283995903421  |grad|_K:  0.000e+00  t[s]:   1062.96
IonicMinimize: Converged (|grad|_K<1.000000e-04).

#--- Lowdin population analysis ---
# oxidation-state Mn -0.710 -0.539 -0.710 -0.649 -0.709 -0.649
# oxidation-state Sb +1.014 +0.923 +0.914 +1.014 +0.923
# oxidation-state Se +0.131 +0.143 +0.104 +0.190 +0.182 +0.219 +0.074 +0.413 +0.182 +0.143 +0.074 +0.190
# oxidation-state I +0.375 +0.404 +0.427 +0.393 +0.375 +0.403


Dumping 'NbTe2.fillings' ... done
Dumping 'NbTe2.wfns' ... done
Dumping 'NbTe2.fluidState' ... done
Dumping 'NbTe2.eigenvals' ... done
End date and time: Mon Jul 13 15:25:32 2020  (Duration: 0-0:17:45.62)
Done!
