
*************** JDFTx 1.5.0  ***************

Start date and time: Sun Jul 12 21:08:25 2020
Executable jdftx_gpu with command-line: -i Neutral.in -o Neutral.out
Running on hosts (process indices):  amax (0-3)
Divided in process groups (process indices):  0 (0)  1 (1)  2 (2)  3 (3)
gpuInit: Found compatible cuda device 0 'Tesla K80'
gpuInit: Found compatible cuda device 1 'Tesla K80'
gpuInit: Found compatible cuda device 2 'Tesla K80'
gpuInit: Found compatible cuda device 3 'Tesla K80'
gpuInit: Selected device 0
Resource initialization completed at t[s]:     17.28
Run totals: 4 processes, 24 threads, 4 GPUs


Input parsed successfully to the following command list (including defaults):

basis kpoint-dependent
cache-projectors no
coords-type Lattice
core-overlap-check none
coulomb-interaction Slab 001
coulomb-truncation-embed 0 0 0.5
davidson-band-ratio 1.1
dump End State
dump-name NbTe2.$VAR
elec-cutoff 20 100
elec-eigen-algo Davidson
elec-ex-corr gga-PBE
elec-smearing Gauss 0.0073499
electronic-minimize  \
	dirUpdateScheme      FletcherReeves \
	linminMethod         DirUpdateRecommended \
	nIterations          500 \
	history              15 \
	knormThreshold       0 \
	energyDiffThreshold  1e-08 \
	nEnergyDiff          2 \
	alphaTstart          1 \
	alphaTmin            1e-10 \
	updateTestStepSize   yes \
	alphaTreduceFactor   0.1 \
	alphaTincreaseFactor 3 \
	nAlphaAdjustMax      3 \
	wolfeEnergy          0.0001 \
	wolfeGradient        0.9 \
	fdTest               no
exchange-regularization WignerSeitzTruncated
fluid LinearPCM 298.000000 1.013250
fluid-anion F- 1 MeanFieldLJ \
	epsBulk 1 \
	pMol 0 \
	epsInf 1 \
	Pvap 0 \
	sigmaBulk 0 \
	Rvdw 2.24877 \
	Res 0 \
	tauNuc 343133
fluid-cation Na+ 1 MeanFieldLJ \
	epsBulk 1 \
	pMol 0 \
	epsInf 1 \
	Pvap 0 \
	sigmaBulk 0 \
	Rvdw 2.19208 \
	Res 0 \
	tauNuc 343133
fluid-ex-corr lda-TF lda-PZ
fluid-gummel-loop 10 1.000000e-05
fluid-minimize  \
	dirUpdateScheme      PolakRibiere \
	linminMethod         DirUpdateRecommended \
	nIterations          400 \
	history              15 \
	knormThreshold       1e-11 \
	energyDiffThreshold  0 \
	nEnergyDiff          2 \
	alphaTstart          1 \
	alphaTmin            1e-10 \
	updateTestStepSize   yes \
	alphaTreduceFactor   0.1 \
	alphaTincreaseFactor 3 \
	nAlphaAdjustMax      6 \
	wolfeEnergy          0.0001 \
	wolfeGradient        0.9 \
	fdTest               no
fluid-solvent H2O 55.338 ScalarEOS \
	epsBulk 78.4 \
	pMol 0.92466 \
	epsInf 1.77 \
	Pvap 1.06736e-10 \
	sigmaBulk 4.62e-05 \
	Rvdw 2.61727 \
	Res 1.42 \
	tauNuc 343133 \
	poleEl 15 7 1
forces-output-coords Positions
initial-state NbTe2.$VAR
ion Mn   0.332719383074933   0.014758833810313   0.497656496674574 0
ion Mn   0.000169489485474   0.497355597067535   0.504242794587833 0
ion Mn   0.666985785660374   0.014786726952186   0.497676781305227 0
ion Mn   0.339709708183506   0.487356980155019   0.503796349326404 0
ion Mn   0.999911013093304   0.003992418986131   0.497312445835629 0
ion Mn   0.660421129806748   0.487404673207444   0.503824451040967 0
ion Sb   0.174998426196222   0.283539300292329   0.612391842692528 0
ion Sb   0.168211369829137   0.704855221758110   0.386376941324248 0
ion Sb   0.499966504413451   0.719426693467854   0.389122484686495 0
ion Sb   0.825201734217321   0.283740229816772   0.612395691384743 0
ion Sb   0.831748612685353   0.704875054724857   0.386396594778813 0
ion Se   0.000082571508475   0.249163649129313   0.527982397642772 0
ion Se   0.177733291575091   0.466837397157085   0.416647011956179 0
ion Se   0.000012592487562   0.750343243544393   0.472565702774772 0
ion Se   0.179443266972577   0.528035251827521   0.587477178552525 0
ion Se   0.342218708722147   0.247350242050042   0.535334744926254 0
ion Se   0.500083035322448   0.474309095287500   0.418151043057453 0
ion Se   0.331273296378467   0.761412488388751   0.472443393666124 0
ion Se   0.500021974101789   0.531409866574501   0.575073783672431 0
ion Se   0.657895516819840   0.247435778291702   0.535364752463029 0
ion Se   0.822322959963131   0.466817461302753   0.416656186615866 0
ion Se   0.668628076329763   0.761441305158222   0.472455374350418 0
ion Se   0.820728858686297   0.528125338619089   0.587427039978151 0
ion I   0.166756245716404   0.945005914184579   0.593987937783229 0
ion I   0.165511887540930   0.051979757835548   0.400307341324923 0
ion I   0.499954024204768   0.932203669876089   0.586880969394476 0
ion I   0.499845188698261   0.061375537140662   0.399442043786387 0
ion I   0.833246249252302   0.945092896158271   0.593927989221466 0
ion I   0.834091925073924   0.051870412235441   0.400308986196064 0
ion-species GBRV/$ID_pbe.uspp
ion-width Ecut
ionic-minimize  \
	dirUpdateScheme      L-BFGS \
	linminMethod         DirUpdateRecommended \
	nIterations          0 \
	history              15 \
	knormThreshold       0.0001 \
	energyDiffThreshold  1e-06 \
	nEnergyDiff          2 \
	alphaTstart          1 \
	alphaTmin            1e-10 \
	updateTestStepSize   yes \
	alphaTreduceFactor   0.1 \
	alphaTincreaseFactor 3 \
	nAlphaAdjustMax      3 \
	wolfeEnergy          0.0001 \
	wolfeGradient        0.9 \
	fdTest               no
kpoint   0.000000000000   0.000000000000   0.000000000000  1.00000000000000
kpoint-folding 3 3 1 
latt-move-scale 1 1 1
latt-scale 1 1 1 
lattice Triclinic 22.1353 19.893 38.8989 90 90 90
lattice-minimize  \
	dirUpdateScheme      L-BFGS \
	linminMethod         DirUpdateRecommended \
	nIterations          0 \
	history              15 \
	knormThreshold       0 \
	energyDiffThreshold  1e-06 \
	nEnergyDiff          2 \
	alphaTstart          1 \
	alphaTmin            1e-10 \
	updateTestStepSize   yes \
	alphaTreduceFactor   0.1 \
	alphaTincreaseFactor 3 \
	nAlphaAdjustMax      3 \
	wolfeEnergy          0.0001 \
	wolfeGradient        0.9 \
	fdTest               no
lcao-params -1 1e-06 0.0073499
pcm-variant CANDLE
spintype no-spin
subspace-rotation-factor 1 yes
symmetries automatic
symmetry-threshold 0.0001



---------- Setting up symmetries ----------

Found 8 point-group symmetries of the bravais lattice
Found 1 space-group symmetries with basis
Applied RMS atom displacement 0 bohrs to make symmetries exact.

---------- Initializing the Grid ----------
R = 
[    22.1353          0          0  ]
[          0     19.893          0  ]
[          0          0    38.8989  ]
unit cell volume = 17128.6
G =
[   0.283854          0          0  ]
[          0    0.31585          0  ]
[          0          0   0.161526  ]
Minimum fftbox size, Smin = [  100  92  176  ]
Chosen fftbox size, S = [  100  96  180  ]

---------- Initializing tighter grid for wavefunction operations ----------
R = 
[    22.1353          0          0  ]
[          0     19.893          0  ]
[          0          0    38.8989  ]
unit cell volume = 17128.6
G =
[   0.283854          0          0  ]
[          0    0.31585          0  ]
[          0          0   0.161526  ]
Minimum fftbox size, Smin = [  92  84  160  ]
Chosen fftbox size, S = [  96  84  160  ]

---------- Exchange Correlation functional ----------
Initalized PBE GGA exchange.
Initalized PBE GGA correlation.

---------- Setting up pseudopotentials ----------
Width of ionic core gaussian charges (only for fluid interactions / plotting) set to 0.397384

Reading pseudopotential file '/home/guoxy/vasp/jdftx-1.5.0/build/pseudopotentials/GBRV/mn_pbe.uspp':
  Title: Mn.  Created by USPP 7.3.6 on 16-6-15
  Reference state energy: -105.136484.  15 valence electrons in orbitals:
    |300>  occupation: 2  eigenvalue: -3.300080
    |310>  occupation: 6  eigenvalue: -2.150696
    |400>  occupation: 1.5  eigenvalue: -0.307943
    |320>  occupation: 5  eigenvalue: -0.391818
    |410>  occupation: 0  eigenvalue: -0.152105
  lMax: 2  lLocal: 3  QijEcut: 6
  6 projectors sampled on a log grid with 585 points:
    l: 0  eig: -3.300083  rCut: 1.45
    l: 0  eig: -0.307946  rCut: 1.45
    l: 1  eig: -2.150696  rCut: 1.45
    l: 1  eig: -0.152108  rCut: 1.45
    l: 2  eig: -0.391817  rCut: 1.7
    l: 2  eig: 0.500000  rCut: 1.7
  Partial core density with radius 0.65
  Transforming core density to a uniform radial grid of dG=0.02 with 1273 points.
  Transforming local potential to a uniform radial grid of dG=0.02 with 1273 points.
  Transforming nonlocal projectors to a uniform radial grid of dG=0.02 with 432 points.
  Transforming density augmentations to a uniform radial grid of dG=0.02 with 1273 points.
  Transforming atomic orbitals to a uniform radial grid of dG=0.02 with 432 points.
  Core radius for overlap checks: 1.70 bohrs.

Reading pseudopotential file '/home/guoxy/vasp/jdftx-1.5.0/build/pseudopotentials/GBRV/sb_pbe.uspp':
  Title: Sb.  Created by USPP 7.3.6 on 1-4-15
  Reference state energy: -92.019396.  15 valence electrons in orbitals:
    |420>  occupation: 10  eigenvalue: -1.543740
    |500>  occupation: 2  eigenvalue: -0.758471
    |510>  occupation: 2  eigenvalue: -0.440746
  lMax: 2  lLocal: 3  QijEcut: 6
  6 projectors sampled on a log grid with 721 points:
    l: 0  eig: -0.758469  rCut: 1.7
    l: 0  eig: 0.000000  rCut: 1.7
    l: 1  eig: -0.440746  rCut: 1.8
    l: 1  eig: 1.000000  rCut: 1.8
    l: 2  eig: -1.543739  rCut: 1.7
    l: 2  eig: 0.250000  rCut: 1.7
  Partial core density with radius 1.1
  Transforming core density to a uniform radial grid of dG=0.02 with 1273 points.
  Transforming local potential to a uniform radial grid of dG=0.02 with 1273 points.
  Transforming nonlocal projectors to a uniform radial grid of dG=0.02 with 432 points.
  Transforming density augmentations to a uniform radial grid of dG=0.02 with 1273 points.
  Transforming atomic orbitals to a uniform radial grid of dG=0.02 with 432 points.
  Core radius for overlap checks: 2.10 bohrs.

Reading pseudopotential file '/home/guoxy/vasp/jdftx-1.5.0/build/pseudopotentials/GBRV/se_pbe.uspp':
  Title: Se.  Created by USPP 7.3.6 on 14-9-2013
  Reference state energy: -21.672887.  6 valence electrons in orbitals:
    |400>  occupation: 2  eigenvalue: -0.635284
    |410>  occupation: 4  eigenvalue: -0.239295
  lMax: 2  lLocal: 3  QijEcut: 5
  6 projectors sampled on a log grid with 625 points:
    l: 0  eig: -0.635278  rCut: 1.5
    l: 0  eig: 0.500000  rCut: 1.5
    l: 1  eig: -0.239295  rCut: 1.5
    l: 1  eig: 0.500000  rCut: 1.5
    l: 2  eig: 0.000000  rCut: 1.8
    l: 2  eig: 1.000000  rCut: 1.8
  Partial core density with radius 1.2
  Transforming core density to a uniform radial grid of dG=0.02 with 1273 points.
  Transforming local potential to a uniform radial grid of dG=0.02 with 1273 points.
  Transforming nonlocal projectors to a uniform radial grid of dG=0.02 with 432 points.
  Transforming density augmentations to a uniform radial grid of dG=0.02 with 1273 points.
  Transforming atomic orbitals to a uniform radial grid of dG=0.02 with 432 points.
  Core radius for overlap checks: 1.80 bohrs.

Reading pseudopotential file '/home/guoxy/vasp/jdftx-1.5.0/build/pseudopotentials/GBRV/i_pbe.uspp':
  Title: I.  Created by USPP 7.3.6 on 14-9-2013
  Reference state energy: -32.770235.  7 valence electrons in orbitals:
    |500>  occupation: 2  eigenvalue: -0.639712
    |510>  occupation: 5  eigenvalue: -0.260406
  lMax: 2  lLocal: 3  QijEcut: 5
  6 projectors sampled on a log grid with 725 points:
    l: 0  eig: -0.639710  rCut: 1.9
    l: 0  eig: 0.000000  rCut: 1.9
    l: 1  eig: -0.260404  rCut: 2
    l: 1  eig: 0.000000  rCut: 2
    l: 2  eig: -0.500000  rCut: 2.45
    l: 2  eig: 0.500000  rCut: 2.45
  Partial core density with radius 1.3
  Transforming core density to a uniform radial grid of dG=0.02 with 1273 points.
  Transforming local potential to a uniform radial grid of dG=0.02 with 1273 points.
  Transforming nonlocal projectors to a uniform radial grid of dG=0.02 with 432 points.
  Transforming density augmentations to a uniform radial grid of dG=0.02 with 1273 points.
  Transforming atomic orbitals to a uniform radial grid of dG=0.02 with 432 points.
  Core radius for overlap checks: 2.45 bohrs.

Initialized 4 species with 29 total atoms.

Folded 1 k-points by 3x3x1 to 9 k-points.

---------- Setting up k-points, bands, fillings ----------
Adding inversion symmetry to k-mesh for non-inversion-symmetric unit cell.
Reduced to 5 k-points under symmetry. 
Computing the number of bands and number of electrons
Calculating initial fillings.
nElectrons: 279.000000   nBands: 195   nStates: 5

----- Setting up reduced wavefunction bases (one per k-point) -----
average nbasis = 73169.222 , ideal nbasis = 73174.690

---------- Setting up coulomb interaction ----------
Fluid mode embedding: using embedded box, but periodic Coulomb kernel.
(Fluid response is responsible for (approximate) separation between periodic images.)
Setting up double-sized grid for truncated Coulomb potentials:
R = 
[    22.1353          0          0  ]
[          0     19.893          0  ]
[          0          0    77.7978  ]
unit cell volume = 34257.2
G =
[   0.283854          0          0  ]
[          0    0.31585          0  ]
[          0          0  0.0807631  ]
Chosen fftbox size, S = [  100  96  360  ]
Integer grid location selected as the embedding center:
   Grid: [  0  0  90  ]
   Lattice: [  0  0  0.5  ]
   Cartesian: [  0  0  19.4494  ]
Constructing Wigner-Seitz cell: 6 faces (6 quadrilaterals, 0 hexagons)
Range-separation parameter for embedded mesh potentials due to point charges: 0.593544 bohrs.

Initializing van der Waals corrections
	NOTE: vdW corrections apply only for interactions with fluid.
	Mn:  C6:  187.33 Eh-a0^6  R0: 2.952 a0
	Sb:  C6:  666.75 Eh-a0^6  R0: 3.555 a0
	Se:  C6:  219.24 Eh-a0^6  R0: 3.347 a0
	 I:  C6:  546.38 Eh-a0^6  R0: 3.575 a0

---------- Setting up ewald sum ----------
Optimum gaussian width for ewald sums = 7.391984 bohr.
Real space sum over 605 unit cells with max indices [  5  5  2  ]
Reciprocal space sum over 5915 terms with max indices [  6  6  17  ]

---------- Allocating electronic variables ----------
Initializing wave functions:  linear combination of atomic orbitals
Mn pseudo-atom occupations:   s ( 2 0 )  p ( 6 0 )  d ( 7 )
Sb pseudo-atom occupations:   s ( 2 )  p ( 3 )  d ( 10 )
Se pseudo-atom occupations:   s ( 2 )  p ( 4 )
I pseudo-atom occupations:   s ( 2 )  p ( 5 )
	FillingsUpdate:  mu: -0.400391137  nElectrons: 279.000000
LCAOMinimize: Iter:   0  F: -1161.2655553606577996  |grad|_K:  2.323e-02  alpha:  1.000e+00
	FillingsUpdate:  mu: -0.404891775  nElectrons: 279.000000
LCAOMinimize: Iter:   1  F: -1187.3835737933538894  |grad|_K:  6.298e-02  alpha:  1.188e-01  linmin: -2.169e-01  cgtest:  1.493e-01  t[s]:     36.68
LCAOMinimize: 	Step increased F by 6.485881e+01, reducing alpha to 4.655330e-03.
	FillingsUpdate:  mu: +0.300542845  nElectrons: 279.000000
LCAOMinimize: Iter:   2  F: -1191.3841349663457549  |grad|_K:  9.953e-02  alpha:  4.655e-03  linmin:  1.336e-02  cgtest: -5.804e-01  t[s]:     48.46
LCAOMinimize: 	Bad step direction: g.d > 0.
LCAOMinimize: 	Undoing step.
LCAOMinimize: 	Step failed: resetting search direction.
	FillingsUpdate:  mu: +0.300542845  nElectrons: 279.000000
LCAOMinimize: Iter:   3  F: -1191.3841349663457549  |grad|_K:  9.953e-02  alpha:  0.000e+00
LCAOMinimize: 	Wrong curvature in test step, increasing alphaT to 1.396599e-02.
	FillingsUpdate:  mu: +0.165961288  nElectrons: 279.000000
LCAOMinimize: Iter:   4  F: -1207.6197491997995712  |grad|_K:  1.247e-01  alpha: -2.795e-03  linmin: -3.380e-01  cgtest:  5.382e-01  t[s]:     60.04
LCAOMinimize: 	Step increased F by 3.223820e+02, reducing alpha to 4.695414e-02.
LCAOMinimize: 	Step increased F by 3.877798e+01, reducing alpha to 4.695414e-03.
	FillingsUpdate:  mu: -0.021676383  nElectrons: 279.000000
LCAOMinimize: Iter:   5  F: -1223.1817881595175095  |grad|_K:  4.841e-02  alpha:  4.695e-03  linmin:  3.909e-01  cgtest: -8.120e-01  t[s]:     77.15
LCAOMinimize: 	Bad step direction: g.d > 0.
LCAOMinimize: 	Undoing step.
LCAOMinimize: 	Step failed: resetting search direction.
	FillingsUpdate:  mu: -0.021676383  nElectrons: 279.000000
LCAOMinimize: Iter:   6  F: -1223.1817881595175095  |grad|_K:  4.841e-02  alpha:  0.000e+00
	FillingsUpdate:  mu: -0.082260208  nElectrons: 279.000000
LCAOMinimize: Iter:   7  F: -1225.0164053000871718  |grad|_K:  1.172e-02  alpha:  8.769e-03  linmin:  2.720e-01  cgtest: -4.866e-01  t[s]:     88.84
LCAOMinimize: 	Predicted alpha/alphaT>3.000000, increasing alphaT to 2.630808e-02.
	FillingsUpdate:  mu: -0.025945048  nElectrons: 279.000000
LCAOMinimize: Iter:   8  F: -1225.7400421691559131  |grad|_K:  2.531e-02  alpha:  7.848e-02  linmin: -8.908e-03  cgtest:  5.006e-01  t[s]:     98.06
	FillingsUpdate:  mu: -0.063153914  nElectrons: 279.000000
LCAOMinimize: Iter:   9  F: -1226.9694262830937532  |grad|_K:  1.154e-02  alpha:  1.646e-02  linmin: -2.284e-02  cgtest: -5.567e-01  t[s]:    105.37
	FillingsUpdate:  mu: -0.042081240  nElectrons: 279.000000
LCAOMinimize: Iter:  10  F: -1227.3200843696322409  |grad|_K:  1.059e-02  alpha:  2.089e-02  linmin:  5.639e-03  cgtest: -7.906e-02  t[s]:    112.42
	FillingsUpdate:  mu: -0.030440263  nElectrons: 279.000000
LCAOMinimize: Iter:  11  F: -1227.4041821592225006  |grad|_K:  6.926e-03  alpha:  8.214e-03  linmin: -3.210e-03  cgtest:  8.227e-01  t[s]:    119.41
LCAOMinimize: Encountered beta<0, resetting CG.
	FillingsUpdate:  mu: -0.030066241  nElectrons: 279.000000
LCAOMinimize: Iter:  12  F: -1227.4710019082313011  |grad|_K:  4.948e-03  alpha:  1.484e-02  linmin:  1.734e-02  cgtest: -4.721e-02  t[s]:    126.39
LCAOMinimize: 	Predicted alpha/alphaT>3.000000, increasing alphaT to 4.453161e-02.
	FillingsUpdate:  mu: -0.108321137  nElectrons: 279.000000
LCAOMinimize: Iter:  13  F: -1227.6200886577705660  |grad|_K:  4.658e-03  alpha:  6.612e-02  linmin: -1.595e-03  cgtest:  1.856e-01  t[s]:    135.71
	FillingsUpdate:  mu: -0.124122617  nElectrons: 279.000000
LCAOMinimize: Iter:  14  F: -1227.6446000821779307  |grad|_K:  1.835e-03  alpha:  1.180e-02  linmin:  6.435e-03  cgtest: -5.087e-02  t[s]:    142.86
LCAOMinimize: 	Predicted alpha/alphaT>3.000000, increasing alphaT to 3.539401e-02.
LCAOMinimize: 	Predicted alpha/alphaT>3.000000, increasing alphaT to 1.061820e-01.
	FillingsUpdate:  mu: -0.114786889  nElectrons: 279.000000
LCAOMinimize: Iter:  15  F: -1227.6873869272189950  |grad|_K:  4.375e-03  alpha:  1.356e-01  linmin:  1.387e-03  cgtest:  1.705e-03  t[s]:    153.81
	FillingsUpdate:  mu: -0.101369943  nElectrons: 279.000000
LCAOMinimize: Iter:  16  F: -1227.7035169827968275  |grad|_K:  2.715e-03  alpha:  5.811e-03  linmin: -3.737e-02  cgtest:  9.936e-01  t[s]:    160.57
LCAOMinimize: Encountered beta<0, resetting CG.
	FillingsUpdate:  mu: -0.095484463  nElectrons: 279.000000
LCAOMinimize: Iter:  17  F: -1227.7103133914897626  |grad|_K:  5.837e-04  alpha:  9.621e-03  linmin:  1.933e-02  cgtest: -2.609e-02  t[s]:    167.47
LCAOMinimize: 	Predicted alpha/alphaT>3.000000, increasing alphaT to 2.886449e-02.
LCAOMinimize: 	Predicted alpha/alphaT>3.000000, increasing alphaT to 8.659347e-02.
	FillingsUpdate:  mu: -0.089881387  nElectrons: 279.000000
LCAOMinimize: Iter:  18  F: -1227.7148405955747421  |grad|_K:  1.663e-03  alpha:  1.402e-01  linmin:  7.961e-04  cgtest: -2.232e-03  t[s]:    178.50
	FillingsUpdate:  mu: -0.088517116  nElectrons: 279.000000
LCAOMinimize: Iter:  19  F: -1227.7204748752330943  |grad|_K:  5.420e-04  alpha:  1.848e-02  linmin: -2.657e-02  cgtest:  7.016e-01  t[s]:    185.51
LCAOMinimize: Encountered beta<0, resetting CG.
	FillingsUpdate:  mu: -0.088934601  nElectrons: 279.000000
LCAOMinimize: Iter:  20  F: -1227.7210081291341339  |grad|_K:  4.977e-04  alpha:  1.890e-02  linmin: -6.320e-04  cgtest: -2.905e-04  t[s]:    192.53
LCAOMinimize: 	Predicted alpha/alphaT>3.000000, increasing alphaT to 5.669548e-02.
	FillingsUpdate:  mu: -0.090957952  nElectrons: 279.000000
LCAOMinimize: Iter:  21  F: -1227.7231775339851083  |grad|_K:  3.607e-04  alpha:  9.108e-02  linmin:  4.127e-04  cgtest: -1.848e-02  t[s]:    202.01
	FillingsUpdate:  mu: -0.090847405  nElectrons: 279.000000
LCAOMinimize: Iter:  22  F: -1227.7233597068163817  |grad|_K:  2.613e-04  alpha:  1.450e-02  linmin: -1.615e-03  cgtest:  1.418e-02  t[s]:    208.83
LCAOMinimize: 	Predicted alpha/alphaT>3.000000, increasing alphaT to 4.348705e-02.
LCAOMinimize: 	Predicted alpha/alphaT>3.000000, increasing alphaT to 1.304611e-01.
	FillingsUpdate:  mu: -0.087251397  nElectrons: 279.000000
LCAOMinimize: Iter:  23  F: -1227.7252876135432871  |grad|_K:  1.856e-04  alpha:  2.957e-01  linmin:  3.733e-03  cgtest: -1.833e-01  t[s]:    220.14
	FillingsUpdate:  mu: -0.087535927  nElectrons: 279.000000
LCAOMinimize: Iter:  24  F: -1227.7253349908833115  |grad|_K:  1.462e-04  alpha:  1.500e-02  linmin:  2.332e-03  cgtest:  2.022e-02  t[s]:    227.08
LCAOMinimize: 	Predicted alpha/alphaT>3.000000, increasing alphaT to 4.501323e-02.
	FillingsUpdate:  mu: -0.090424157  nElectrons: 279.000000
LCAOMinimize: Iter:  25  F: -1227.7254703776786755  |grad|_K:  1.458e-04  alpha:  6.690e-02  linmin: -9.433e-06  cgtest: -2.335e-02  t[s]:    236.46
	FillingsUpdate:  mu: -0.090834082  nElectrons: 279.000000
LCAOMinimize: Iter:  26  F: -1227.7254979838025974  |grad|_K:  7.050e-05  alpha:  1.346e-02  linmin: -1.190e-03  cgtest:  1.034e-03  t[s]:    243.51
LCAOMinimize: 	Predicted alpha/alphaT>3.000000, increasing alphaT to 4.036521e-02.
	FillingsUpdate:  mu: -0.089332604  nElectrons: 279.000000
LCAOMinimize: Iter:  27  F: -1227.7255451078538044  |grad|_K:  3.018e-05  alpha:  9.803e-02  linmin: -1.729e-03  cgtest: -1.212e-02  t[s]:    252.65
	FillingsUpdate:  mu: -0.089303222  nElectrons: 279.000000
LCAOMinimize: Iter:  28  F: -1227.7255463015005716  |grad|_K:  2.059e-05  alpha:  1.357e-02  linmin:  6.753e-05  cgtest: -8.149e-03  t[s]:    259.81
LCAOMinimize: 	Predicted alpha/alphaT>3.000000, increasing alphaT to 4.072254e-02.
LCAOMinimize: 	Predicted alpha/alphaT>3.000000, increasing alphaT to 1.221676e-01.
	FillingsUpdate:  mu: -0.089209904  nElectrons: 279.000000
LCAOMinimize: Iter:  29  F: -1227.7255545237323986  |grad|_K:  3.493e-05  alpha:  2.018e-01  linmin: -6.305e-05  cgtest:  2.326e-02  t[s]:    271.16
	FillingsUpdate:  mu: -0.089238396  nElectrons: 279.000000
LCAOMinimize: Iter:  30  F: -1227.7255559979203099  |grad|_K:  1.245e-05  alpha:  1.257e-02  linmin:  4.759e-05  cgtest: -4.381e-03  t[s]:    278.28
LCAOMinimize: None of the convergence criteria satisfied after 30 iterations.
----- createFluidSolver() ----- (Fluid-side solver setup)
   Initializing fluid molecule 'H2O'
     Initializing site 'O'
       Electron density: proportional to exp(-r/0.36935)*erfc((r-0.51523)/0.36823) with norm 6.826
       Charge density: gaussian nuclear width 0.478731 with net site charge 0.826
       Polarizability: cuspless exponential with width 0.32 and norm 3.73
       Hard sphere radius: 2.57003 bohrs
       Positions in reference frame:
         [ +0.000000 +0.000000 +0.000000 ]
     Initializing site 'H'
       Electron density: proportional to exp(-r/0.34641)*erfc((r-0)/0.390882) with norm 0.587
       Charge density: gaussian nuclear width 0.377945 with net site charge -0.413
       Polarizability: cuspless exponential with width 0.39 and norm 3.3
       Positions in reference frame:
         [ +0.000000 -1.441945 +1.122523 ]
         [ +0.000000 +1.441945 +1.122523 ]
     Net charge: 0   dipole magnitude: 0.927204
     Initializing spherical shell mfKernel with radius 2.61727 Bohr
     deltaS corrections:
       site 'O': -7.54299
       site 'H': -6.83917
   Initializing fluid molecule 'Na+'
     Initializing site 'Na'
       Electron density: proportional to exp(-r/0.19682)*erfc((r-0.71491)/0.41314) with norm 8.1383
       Charge density: gaussian nuclear width 0.365347 with net site charge -1
       Hard sphere radius: 1.86327 bohrs
       Positions in reference frame:
         [ +0.000000 +0.000000 +0.000000 ]
     Net charge: -1   dipole magnitude: 0
     Initializing gaussian mfKernel with width: 1.55004 Bohr
     deltaS corrections:
       site 'Na': -22.3555
   Initializing fluid molecule 'F-'
     Initializing site 'F'
       Electron density: proportional to exp(-r/0.38886)*erfc((r-0)/0.438782) with norm 8
       Charge density: gaussian nuclear width 0.374796 with net site charge 1
       Hard sphere radius: 2.39995 bohrs
       Positions in reference frame:
         [ +0.000000 +0.000000 +0.000000 ]
     Net charge: 1   dipole magnitude: 0
     Initializing gaussian mfKernel with width: 1.59012 Bohr
     deltaS corrections:
       site 'F': -9.04335

Correction to mu due to finite nuclear width = -0.00808075
   Cavity determined by nc: 0.00142 and sigma: 0.707107
   Nonlocal vdW cavity from gaussian model electron density with norm = 8 and sigma = 0.993594 bohr
   Charge asymmetry in cavity with sensitivity pCavity = 36.5 e-bohr/Eh
   Electrostatic cavity expanded by eta = 1.46 bohrs
   Weighted density cavitation model constrained by Nbulk: 0.0049383 bohr^-3, Pvap: 3.14029 kPa, Rvdw: 2.61727 bohr and sigmaBulk: 4.62e-05 Eh/bohr^2 at T: 298 K.
   Weighted density dispersion model using vdW pair potentials with single solvent site with sqrtC6eff: 0.77 SI.


---- Citations for features of the code used in this run ----

   Software package:
      R. Sundararaman, K. Letchworth-Weaver, K.A. Schwarz, D. Gunceler, Y. Ozhabes and T.A. Arias, 'JDFTx: software for joint density-functional theory', SoftwareX 6, 278 (2017)

   gga-PBE exchange-correlation functional:
      J.P. Perdew, K. Burke and M. Ernzerhof, Phys. Rev. Lett. 77, 3865 (1996)

   Pseudopotentials:
      KF Garrity, JW Bennett, KM Rabe and D Vanderbilt, Comput. Mater. Sci. 81, 446 (2014)

   Truncated Coulomb potentials:
      R. Sundararaman and T.A. Arias, Phys. Rev. B 87, 165122 (2013)

   Van der Waals correction pair-potentials:
      S. Grimme, J. Comput. Chem. 27, 1787 (2006)

   Charge-asymmetric nonlocally-determined local-electric (CANDLE) solvation model:
      R. Sundararaman and W.A. Goddard III, J. Chem. Phys. 142, 064107 (2015)

   Total energy minimization with Auxiliary Hamiltonian:
      C. Freysoldt, S. Boeck, and J. Neugebauer, Phys. Rev. B 79, 241103(R) (2009)

This list may not be complete. Please suggest additional citations or
report any other bugs at https://github.com/shankar1729/jdftx/issues

Initialization completed successfully at t[s]:    281.11

Fluid solver invoked on fresh (partially random / LCAO) wavefunctions
Running a vacuum solve first:

-------- Initial electronic minimization -----------
	FillingsUpdate:  mu: -0.089238396  nElectrons: 279.000000
ElecMinimize: Iter:   0  F: -1227.725555997918264  |grad|_K:  1.044e-04  alpha:  1.000e+00
	FillingsUpdate:  mu: -0.146277841  nElectrons: 279.000000
	SubspaceRotationAdjust: set factor to 0.958
ElecMinimize: Iter:   1  F: -1228.060166729441789  |grad|_K:  1.298e-04  alpha:  4.290e-01  linmin:  1.646e-05  t[s]:    298.82
	FillingsUpdate:  mu: -0.053949642  nElectrons: 279.000000
	SubspaceRotationAdjust: set factor to 0.522
ElecMinimize: Iter:   2  F: -1228.159926365221509  |grad|_K:  2.441e-04  alpha:  9.703e-02  linmin:  7.758e-04  t[s]:    309.77
	FillingsUpdate:  mu: -0.017162308  nElectrons: 279.000000
	SubspaceRotationAdjust: set factor to 0.393
ElecMinimize: Iter:   3  F: -1228.219456872566980  |grad|_K:  8.260e-05  alpha:  1.810e-02  linmin:  1.244e-03  t[s]:    320.70
ElecMinimize: 	Predicted alpha/alphaT>3.000000, increasing alphaT to 5.428655e-02.
ElecMinimize: 	Predicted alpha/alphaT>3.000000, increasing alphaT to 1.628597e-01.
	FillingsUpdate:  mu: -0.049256013  nElectrons: 279.000000
	SubspaceRotationAdjust: set factor to 0.217
ElecMinimize: Iter:   4  F: -1228.319381005791683  |grad|_K:  1.408e-04  alpha:  2.321e-01  linmin:  1.551e-04  t[s]:    337.99
	FillingsUpdate:  mu: -0.053084289  nElectrons: 279.000000
	SubspaceRotationAdjust: set factor to 0.197
ElecMinimize: Iter:   5  F: -1228.377084266252950  |grad|_K:  4.441e-05  alpha:  3.984e-02  linmin: -4.965e-04  t[s]:    349.64
ElecMinimize: 	Predicted alpha/alphaT>3.000000, increasing alphaT to 1.195209e-01.
	FillingsUpdate:  mu: -0.089690296  nElectrons: 279.000000
	SubspaceRotationAdjust: set factor to 0.141
ElecMinimize: Iter:   6  F: -1228.405208964244821  |grad|_K:  5.243e-05  alpha:  1.956e-01  linmin:  9.876e-05  t[s]:    363.49
	FillingsUpdate:  mu: -0.122118509  nElectrons: 279.000000
	SubspaceRotationAdjust: set factor to 0.129
	SubspaceRotationAdjust: resetting CG because factor has changed by 0.128838
ElecMinimize: 	State modified externally: resetting search direction.
ElecMinimize: Iter:   7  F: -1228.424114630596478  |grad|_K:  3.103e-05  alpha:  9.691e-02
	FillingsUpdate:  mu: -0.089771090  nElectrons: 279.000000
	SubspaceRotationAdjust: set factor to 0.144
ElecMinimize: Iter:   8  F: -1228.440927855893051  |grad|_K:  2.669e-05  alpha:  2.448e-01  linmin:  9.508e-05  t[s]:    391.41
	FillingsUpdate:  mu: -0.081946702  nElectrons: 279.000000
	SubspaceRotationAdjust: set factor to 0.102
ElecMinimize: Iter:   9  F: -1228.450437265214077  |grad|_K:  2.551e-05  alpha:  1.877e-01  linmin: -2.151e-05  t[s]:    402.28
	FillingsUpdate:  mu: -0.086844143  nElectrons: 279.000000
	SubspaceRotationAdjust: set factor to 0.0769
ElecMinimize: Iter:  10  F: -1228.461931427339550  |grad|_K:  1.304e-05  alpha:  2.469e-01  linmin: -4.733e-05  t[s]:    413.48
	FillingsUpdate:  mu: -0.090078569  nElectrons: 279.000000
	SubspaceRotationAdjust: set factor to 0.0619
ElecMinimize: Iter:  11  F: -1228.465908912110308  |grad|_K:  1.632e-05  alpha:  3.272e-01  linmin: -1.074e-06  t[s]:    424.24
	FillingsUpdate:  mu: -0.097273437  nElectrons: 279.000000
	SubspaceRotationAdjust: set factor to 0.0592
ElecMinimize: Iter:  12  F: -1228.472229908182726  |grad|_K:  1.032e-05  alpha:  3.321e-01  linmin:  1.087e-05  t[s]:    435.05
	FillingsUpdate:  mu: -0.099687092  nElectrons: 279.000000
	SubspaceRotationAdjust: set factor to 0.0618
ElecMinimize: Iter:  13  F: -1228.475388225694132  |grad|_K:  9.188e-06  alpha:  4.158e-01  linmin:  1.244e-05  t[s]:    446.54
	FillingsUpdate:  mu: -0.101334290  nElectrons: 279.000000
	SubspaceRotationAdjust: set factor to 0.0538
ElecMinimize: Iter:  14  F: -1228.476685929482983  |grad|_K:  5.495e-06  alpha:  2.156e-01  linmin:  5.006e-06  t[s]:    457.53
	FillingsUpdate:  mu: -0.098018938  nElectrons: 279.000000
	SubspaceRotationAdjust: set factor to 0.0593
ElecMinimize: Iter:  15  F: -1228.477745753564477  |grad|_K:  5.688e-06  alpha:  4.915e-01  linmin: -1.995e-06  t[s]:    468.71
	FillingsUpdate:  mu: -0.096315120  nElectrons: 279.000000
	SubspaceRotationAdjust: set factor to 0.0611
ElecMinimize: Iter:  16  F: -1228.478340626872068  |grad|_K:  3.582e-06  alpha:  2.574e-01  linmin:  2.490e-06  t[s]:    479.80
	FillingsUpdate:  mu: -0.095848495  nElectrons: 279.000000
	SubspaceRotationAdjust: set factor to 0.0597
ElecMinimize: Iter:  17  F: -1228.478854576528192  |grad|_K:  4.695e-06  alpha:  5.610e-01  linmin: -1.342e-06  t[s]:    490.45
	FillingsUpdate:  mu: -0.095124904  nElectrons: 279.000000
	SubspaceRotationAdjust: set factor to 0.0609
ElecMinimize: Iter:  18  F: -1228.479307736088685  |grad|_K:  3.326e-06  alpha:  2.881e-01  linmin:  2.708e-06  t[s]:    501.04
	FillingsUpdate:  mu: -0.094113578  nElectrons: 279.000000
	SubspaceRotationAdjust: set factor to 0.0596
ElecMinimize: Iter:  19  F: -1228.479744373050380  |grad|_K:  3.907e-06  alpha:  5.524e-01  linmin: -4.841e-06  t[s]:    511.72
	FillingsUpdate:  mu: -0.095001184  nElectrons: 279.000000
	SubspaceRotationAdjust: set factor to 0.0595
ElecMinimize: Iter:  20  F: -1228.480045005570219  |grad|_K:  2.838e-06  alpha:  2.752e-01  linmin:  1.877e-07  t[s]:    522.84
	FillingsUpdate:  mu: -0.096266295  nElectrons: 279.000000
	SubspaceRotationAdjust: set factor to 0.0603
ElecMinimize: Iter:  21  F: -1228.480309018807930  |grad|_K:  2.876e-06  alpha:  4.593e-01  linmin:  3.693e-06  t[s]:    533.89
	FillingsUpdate:  mu: -0.095838512  nElectrons: 279.000000
	SubspaceRotationAdjust: set factor to 0.057
ElecMinimize: Iter:  22  F: -1228.480518785499044  |grad|_K:  2.675e-06  alpha:  3.558e-01  linmin: -2.927e-07  t[s]:    544.61
	FillingsUpdate:  mu: -0.095579419  nElectrons: 279.000000
	SubspaceRotationAdjust: set factor to 0.0537
ElecMinimize: Iter:  23  F: -1228.480720008811204  |grad|_K:  2.645e-06  alpha:  3.937e-01  linmin: -1.267e-06  t[s]:    555.75
	FillingsUpdate:  mu: -0.096549469  nElectrons: 279.000000
	SubspaceRotationAdjust: set factor to 0.0527
ElecMinimize: Iter:  24  F: -1228.480903034713492  |grad|_K:  1.999e-06  alpha:  3.658e-01  linmin:  2.659e-06  t[s]:    566.93
	FillingsUpdate:  mu: -0.096347621  nElectrons: 279.000000
	SubspaceRotationAdjust: set factor to 0.0507
ElecMinimize: Iter:  25  F: -1228.481019800495233  |grad|_K:  2.008e-06  alpha:  4.099e-01  linmin: -3.278e-07  t[s]:    577.93
	FillingsUpdate:  mu: -0.095974257  nElectrons: 279.000000
	SubspaceRotationAdjust: set factor to 0.044
ElecMinimize: Iter:  26  F: -1228.481108188975440  |grad|_K:  1.360e-06  alpha:  3.072e-01  linmin: -8.644e-07  t[s]:    589.07
	FillingsUpdate:  mu: -0.096353604  nElectrons: 279.000000
	SubspaceRotationAdjust: set factor to 0.0444
ElecMinimize: Iter:  27  F: -1228.481156313162955  |grad|_K:  1.195e-06  alpha:  3.642e-01  linmin:  5.998e-07  t[s]:    600.21
	FillingsUpdate:  mu: -0.096572470  nElectrons: 279.000000
	SubspaceRotationAdjust: set factor to 0.0438
ElecMinimize: Iter:  28  F: -1228.481193502962242  |grad|_K:  8.900e-07  alpha:  3.649e-01  linmin:  3.042e-07  t[s]:    611.40
	FillingsUpdate:  mu: -0.096375068  nElectrons: 279.000000
	SubspaceRotationAdjust: set factor to 0.042
ElecMinimize: Iter:  29  F: -1228.481212442586411  |grad|_K:  7.280e-07  alpha:  3.349e-01  linmin: -4.706e-07  t[s]:    622.35
	FillingsUpdate:  mu: -0.096496798  nElectrons: 279.000000
	SubspaceRotationAdjust: set factor to 0.0413
ElecMinimize: Iter:  30  F: -1228.481226756816341  |grad|_K:  5.796e-07  alpha:  3.781e-01  linmin:  2.705e-07  t[s]:    633.65
	FillingsUpdate:  mu: -0.096692687  nElectrons: 279.000000
	SubspaceRotationAdjust: set factor to 0.0438
ElecMinimize: Iter:  31  F: -1228.481234488182281  |grad|_K:  4.329e-07  alpha:  3.223e-01  linmin:  6.817e-08  t[s]:    644.79
	FillingsUpdate:  mu: -0.096613762  nElectrons: 279.000000
	SubspaceRotationAdjust: set factor to 0.0442
ElecMinimize: Iter:  32  F: -1228.481239764126940  |grad|_K:  3.652e-07  alpha:  3.942e-01  linmin: -1.159e-07  t[s]:    655.60
	FillingsUpdate:  mu: -0.096601238  nElectrons: 279.000000
	SubspaceRotationAdjust: set factor to 0.0438
ElecMinimize: Iter:  33  F: -1228.481243074997337  |grad|_K:  3.130e-07  alpha:  3.475e-01  linmin:  6.374e-08  t[s]:    666.92
	FillingsUpdate:  mu: -0.096702902  nElectrons: 279.000000
	SubspaceRotationAdjust: set factor to 0.0495
ElecMinimize: Iter:  34  F: -1228.481245645757099  |grad|_K:  2.438e-07  alpha:  3.675e-01  linmin:  7.586e-08  t[s]:    678.03
	FillingsUpdate:  mu: -0.096707649  nElectrons: 279.000000
	SubspaceRotationAdjust: set factor to 0.0513
ElecMinimize: Iter:  35  F: -1228.481247610198807  |grad|_K:  2.501e-07  alpha:  4.629e-01  linmin:  8.111e-08  t[s]:    688.88
	FillingsUpdate:  mu: -0.096717630  nElectrons: 279.000000
	SubspaceRotationAdjust: set factor to 0.0497
ElecMinimize: Iter:  36  F: -1228.481249005730433  |grad|_K:  2.076e-07  alpha:  3.124e-01  linmin:  1.952e-09  t[s]:    700.04
	FillingsUpdate:  mu: -0.096783218  nElectrons: 279.000000
	SubspaceRotationAdjust: set factor to 0.0543
ElecMinimize: Iter:  37  F: -1228.481250458368550  |grad|_K:  1.856e-07  alpha:  4.720e-01  linmin: -3.751e-08  t[s]:    711.19
	FillingsUpdate:  mu: -0.096773765  nElectrons: 279.000000
	SubspaceRotationAdjust: set factor to 0.0555
ElecMinimize: Iter:  38  F: -1228.481251385967425  |grad|_K:  1.863e-07  alpha:  3.768e-01  linmin:  2.277e-08  t[s]:    721.96
	FillingsUpdate:  mu: -0.096746944  nElectrons: 279.000000
	SubspaceRotationAdjust: set factor to 0.053
ElecMinimize: Iter:  39  F: -1228.481252293170428  |grad|_K:  1.505e-07  alpha:  3.660e-01  linmin:  5.762e-09  t[s]:    732.67
	FillingsUpdate:  mu: -0.096751670  nElectrons: 279.000000
	SubspaceRotationAdjust: set factor to 0.0536
ElecMinimize: Iter:  40  F: -1228.481252963018733  |grad|_K:  1.605e-07  alpha:  4.142e-01  linmin: -8.009e-09  t[s]:    743.89
	FillingsUpdate:  mu: -0.096742485  nElectrons: 279.000000
	SubspaceRotationAdjust: set factor to 0.0571
ElecMinimize: Iter:  41  F: -1228.481253632042126  |grad|_K:  1.161e-07  alpha:  3.634e-01  linmin: -1.205e-08  t[s]:    754.59
	FillingsUpdate:  mu: -0.096715504  nElectrons: 279.000000
	SubspaceRotationAdjust: set factor to 0.0544
ElecMinimize: Iter:  42  F: -1228.481254029379670  |grad|_K:  1.264e-07  alpha:  4.130e-01  linmin: -3.384e-08  t[s]:    765.17
	FillingsUpdate:  mu: -0.096709834  nElectrons: 279.000000
	SubspaceRotationAdjust: set factor to 0.0543
ElecMinimize: Iter:  43  F: -1228.481254417089303  |grad|_K:  9.775e-08  alpha:  3.400e-01  linmin:  1.863e-08  t[s]:    776.09
	FillingsUpdate:  mu: -0.096734536  nElectrons: 279.000000
	SubspaceRotationAdjust: set factor to 0.0569
ElecMinimize: Iter:  44  F: -1228.481254687190813  |grad|_K:  8.872e-08  alpha:  3.958e-01  linmin: -4.170e-08  t[s]:    787.29
	FillingsUpdate:  mu: -0.096718102  nElectrons: 279.000000
	SubspaceRotationAdjust: set factor to 0.0565
ElecMinimize: Iter:  45  F: -1228.481254905666447  |grad|_K:  8.259e-08  alpha:  3.886e-01  linmin:  1.231e-08  t[s]:    798.70
	FillingsUpdate:  mu: -0.096696596  nElectrons: 279.000000
	SubspaceRotationAdjust: set factor to 0.0556
ElecMinimize: Iter:  46  F: -1228.481255070411407  |grad|_K:  7.101e-08  alpha:  3.381e-01  linmin:  5.508e-08  t[s]:    809.55
	FillingsUpdate:  mu: -0.096708818  nElectrons: 279.000000
	SubspaceRotationAdjust: set factor to 0.0571
ElecMinimize: Iter:  47  F: -1228.481255221905712  |grad|_K:  6.483e-08  alpha:  4.207e-01  linmin: -5.005e-08  t[s]:    820.59
	FillingsUpdate:  mu: -0.096699072  nElectrons: 279.000000
	SubspaceRotationAdjust: set factor to 0.0552
ElecMinimize: Iter:  48  F: -1228.481255326786595  |grad|_K:  5.892e-08  alpha:  3.492e-01  linmin:  1.536e-08  t[s]:    831.79
	FillingsUpdate:  mu: -0.096674648  nElectrons: 279.000000
	SubspaceRotationAdjust: set factor to 0.0546
ElecMinimize: Iter:  49  F: -1228.481255420589150  |grad|_K:  4.875e-08  alpha:  3.785e-01  linmin:  1.015e-07  t[s]:    842.85
	FillingsUpdate:  mu: -0.096682437  nElectrons: 279.000000
	SubspaceRotationAdjust: set factor to 0.0536
ElecMinimize: Iter:  50  F: -1228.481255486530472  |grad|_K:  4.690e-08  alpha:  3.885e-01  linmin: -7.511e-08  t[s]:    853.83
	FillingsUpdate:  mu: -0.096683345  nElectrons: 279.000000
	SubspaceRotationAdjust: set factor to 0.0507
ElecMinimize: Iter:  51  F: -1228.481255541498513  |grad|_K:  3.729e-08  alpha:  3.493e-01  linmin:  1.704e-08  t[s]:    865.03
	FillingsUpdate:  mu: -0.096668947  nElectrons: 279.000000
	SubspaceRotationAdjust: set factor to 0.0487
ElecMinimize: Iter:  52  F: -1228.481255576022249  |grad|_K:  3.177e-08  alpha:  3.474e-01  linmin: -2.121e-07  t[s]:    876.25
	FillingsUpdate:  mu: -0.096667700  nElectrons: 279.000000
	SubspaceRotationAdjust: set factor to 0.0496
ElecMinimize: Iter:  53  F: -1228.481255604386433  |grad|_K:  2.669e-08  alpha:  3.930e-01  linmin:  4.652e-09  t[s]:    887.19
	FillingsUpdate:  mu: -0.096673272  nElectrons: 279.000000
	SubspaceRotationAdjust: set factor to 0.0467
ElecMinimize: Iter:  54  F: -1228.481255622122717  |grad|_K:  2.289e-08  alpha:  3.487e-01  linmin:  2.215e-08  t[s]:    898.29
	FillingsUpdate:  mu: -0.096669978  nElectrons: 279.000000
	SubspaceRotationAdjust: set factor to 0.0453
ElecMinimize: Iter:  55  F: -1228.481255635537991  |grad|_K:  1.801e-08  alpha:  3.591e-01  linmin:  6.448e-07  t[s]:    909.42
	FillingsUpdate:  mu: -0.096666061  nElectrons: 279.000000
	SubspaceRotationAdjust: set factor to 0.0467
ElecMinimize: Iter:  56  F: -1228.481255643919894  |grad|_K:  1.593e-08  alpha:  3.609e-01  linmin: -5.543e-07  t[s]:    920.60
	FillingsUpdate:  mu: -0.096669462  nElectrons: 279.000000
	SubspaceRotationAdjust: set factor to 0.0489
ElecMinimize: Iter:  57  F: -1228.481255651066022  |grad|_K:  1.255e-08  alpha:  3.920e-01  linmin: -1.754e-07  t[s]:    931.69
ElecMinimize: Converged (|Delta F|<1.000000e-08 for 2 iters).
Setting wave functions to eigenvectors of Hamiltonian
Vacuum energy after initial minimize, F = -1228.481255651066022

	Linear fluid (dielectric constant: 78.4, screening length: 5.74355 Bohr) occupying 0.762386 of unit cell:	Completed after 23 iterations at t[s]:    936.36

-------- Electronic minimization -----------
	Linear fluid (dielectric constant: 78.4, screening length: 5.74355 Bohr) occupying 0.762386 of unit cell:	Completed after 0 iterations at t[s]:    939.41
	FillingsUpdate:  mu: -0.161285140  nElectrons: 279.000000
ElecMinimize: Iter:   0  F: -1228.477289840520143  |grad|_K:  3.789e-06  alpha:  1.000e+00
	Linear fluid (dielectric constant: 78.4, screening length: 5.74355 Bohr) occupying 0.762726 of unit cell:	Completed after 14 iterations at t[s]:    949.59
	Linear fluid (dielectric constant: 78.4, screening length: 5.74355 Bohr) occupying 0.762906 of unit cell:	Completed after 14 iterations at t[s]:    954.91
	FillingsUpdate:  mu: -0.157411597  nElectrons: 279.000000
	SubspaceRotationAdjust: set factor to 0.0562
ElecMinimize: Iter:   1  F: -1228.478847940469677  |grad|_K:  3.783e-06  alpha:  1.518e+00  linmin: -1.346e-05  t[s]:    971.44
	Linear fluid (dielectric constant: 78.4, screening length: 5.74355 Bohr) occupying 0.763631 of unit cell:	Completed after 16 iterations at t[s]:    976.84
	Linear fluid (dielectric constant: 78.4, screening length: 5.74355 Bohr) occupying 0.763156 of unit cell:	Completed after 14 iterations at t[s]:    982.28
	FillingsUpdate:  mu: -0.157371095  nElectrons: 279.000000
	SubspaceRotationAdjust: set factor to 0.0522
ElecMinimize: Iter:   2  F: -1228.479386525775908  |grad|_K:  4.455e-06  alpha:  5.264e-01  linmin:  3.186e-06  t[s]:    986.94
	Linear fluid (dielectric constant: 78.4, screening length: 5.74355 Bohr) occupying 0.763536 of unit cell:	Completed after 14 iterations at t[s]:    992.06
	Linear fluid (dielectric constant: 78.4, screening length: 5.74355 Bohr) occupying 0.763351 of unit cell:	Completed after 10 iterations at t[s]:    996.91
	FillingsUpdate:  mu: -0.157167289  nElectrons: 279.000000
	SubspaceRotationAdjust: set factor to 0.0507
ElecMinimize: Iter:   3  F: -1228.479769187047850  |grad|_K:  2.769e-06  alpha:  2.706e-01  linmin:  1.332e-06  t[s]:   1001.40
	Linear fluid (dielectric constant: 78.4, screening length: 5.74355 Bohr) occupying 0.763430 of unit cell:	Completed after 8 iterations at t[s]:   1005.99
	Linear fluid (dielectric constant: 78.4, screening length: 5.74355 Bohr) occupying 0.763545 of unit cell:	Completed after 10 iterations at t[s]:   1010.82
	FillingsUpdate:  mu: -0.155349541  nElectrons: 279.000000
	SubspaceRotationAdjust: set factor to 0.0539
ElecMinimize: Iter:   4  F: -1228.480133748859316  |grad|_K:  3.005e-06  alpha:  6.681e-01  linmin:  3.276e-06  t[s]:   1015.58
	Linear fluid (dielectric constant: 78.4, screening length: 5.74355 Bohr) occupying 0.763746 of unit cell:	Completed after 12 iterations at t[s]:   1020.62
	Linear fluid (dielectric constant: 78.4, screening length: 5.74355 Bohr) occupying 0.763680 of unit cell:	Completed after 8 iterations at t[s]:   1025.43
	FillingsUpdate:  mu: -0.156662911  nElectrons: 279.000000
	SubspaceRotationAdjust: set factor to 0.0581
ElecMinimize: Iter:   5  F: -1228.480420816949163  |grad|_K:  2.753e-06  alpha:  4.467e-01  linmin:  5.020e-07  t[s]:   1030.22
	Linear fluid (dielectric constant: 78.4, screening length: 5.74355 Bohr) occupying 0.763772 of unit cell:	Completed after 10 iterations at t[s]:   1035.44
	Linear fluid (dielectric constant: 78.4, screening length: 5.74355 Bohr) occupying 0.763789 of unit cell:	Completed after 3 iterations at t[s]:   1040.02
	FillingsUpdate:  mu: -0.155395898  nElectrons: 279.000000
	SubspaceRotationAdjust: set factor to 0.054
ElecMinimize: Iter:   6  F: -1228.480710565121171  |grad|_K:  2.564e-06  alpha:  5.357e-01  linmin: -5.628e-07  t[s]:   1044.68
	Linear fluid (dielectric constant: 78.4, screening length: 5.74355 Bohr) occupying 0.763861 of unit cell:	Completed after 10 iterations at t[s]:   1049.46
	Linear fluid (dielectric constant: 78.4, screening length: 5.74355 Bohr) occupying 0.763838 of unit cell:	Completed after 6 iterations at t[s]:   1054.07
	FillingsUpdate:  mu: -0.154378640  nElectrons: 279.000000
	SubspaceRotationAdjust: set factor to 0.0494
ElecMinimize: Iter:   7  F: -1228.480877069927146  |grad|_K:  2.517e-06  alpha:  3.551e-01  linmin: -2.441e-07  t[s]:   1058.96
	Linear fluid (dielectric constant: 78.4, screening length: 5.74355 Bohr) occupying 0.763869 of unit cell:	Completed after 8 iterations at t[s]:   1063.89
	Linear fluid (dielectric constant: 78.4, screening length: 5.74355 Bohr) occupying 0.763880 of unit cell:	Completed after 4 iterations at t[s]:   1068.31
	FillingsUpdate:  mu: -0.155097808  nElectrons: 279.000000
	SubspaceRotationAdjust: set factor to 0.0497
ElecMinimize: Iter:   8  F: -1228.481102097218354  |grad|_K:  1.629e-06  alpha:  4.973e-01  linmin:  7.543e-07  t[s]:   1072.86
	Linear fluid (dielectric constant: 78.4, screening length: 5.74355 Bohr) occupying 0.763884 of unit cell:	Completed after 7 iterations at t[s]:   1077.56
	Linear fluid (dielectric constant: 78.4, screening length: 5.74355 Bohr) occupying 0.763884 of unit cell:	Completed after 0 iterations at t[s]:   1086.59
	FillingsUpdate:  mu: -0.155218218  nElectrons: 279.000000
	SubspaceRotationAdjust: set factor to 0.0509
ElecMinimize: Iter:   9  F: -1228.481199639806391  |grad|_K:  1.767e-06  alpha:  5.147e-01  linmin: -6.120e-06  t[s]:   1092.18
	Linear fluid (dielectric constant: 78.4, screening length: 5.74355 Bohr) occupying 0.763877 of unit cell:	Completed after 7 iterations at t[s]:   1097.44
	Linear fluid (dielectric constant: 78.4, screening length: 5.74355 Bohr) occupying 0.763879 of unit cell:	Completed after 3 iterations at t[s]:   1102.53
	FillingsUpdate:  mu: -0.154983160  nElectrons: 279.000000
	SubspaceRotationAdjust: set factor to 0.0499
ElecMinimize: Iter:  10  F: -1228.481280336637610  |grad|_K:  1.228e-06  alpha:  3.578e-01  linmin:  1.670e-06  t[s]:   1107.65
	Linear fluid (dielectric constant: 78.4, screening length: 5.74355 Bohr) occupying 0.763878 of unit cell:	Completed after 4 iterations at t[s]:   1112.65
	Linear fluid (dielectric constant: 78.4, screening length: 5.74355 Bohr) occupying 0.763878 of unit cell:	Completed after 3 iterations at t[s]:   1117.88
	FillingsUpdate:  mu: -0.155135589  nElectrons: 279.000000
	SubspaceRotationAdjust: set factor to 0.0522
ElecMinimize: Iter:  11  F: -1228.481333531356313  |grad|_K:  1.074e-06  alpha:  4.952e-01  linmin:  7.449e-07  t[s]:   1132.04
	Linear fluid (dielectric constant: 78.4, screening length: 5.74355 Bohr) occupying 0.763881 of unit cell:	Completed after 4 iterations at t[s]:   1145.29
	Linear fluid (dielectric constant: 78.4, screening length: 5.74355 Bohr) occupying 0.763881 of unit cell:	Completed after 2 iterations at t[s]:   1160.43
	FillingsUpdate:  mu: -0.154930329  nElectrons: 279.000000
	SubspaceRotationAdjust: set factor to 0.0513
ElecMinimize: Iter:  12  F: -1228.481370428246919  |grad|_K:  1.044e-06  alpha:  4.494e-01  linmin: -1.460e-06  t[s]:   1175.90
	Linear fluid (dielectric constant: 78.4, screening length: 5.74355 Bohr) occupying 0.763890 of unit cell:	Completed after 3 iterations at t[s]:   1187.45
	Linear fluid (dielectric constant: 78.4, screening length: 5.74355 Bohr) occupying 0.763888 of unit cell:	Completed after 2 iterations at t[s]:   1205.87
	FillingsUpdate:  mu: -0.154867052  nElectrons: 279.000000
	SubspaceRotationAdjust: set factor to 0.0504
ElecMinimize: Iter:  13  F: -1228.481398156494151  |grad|_K:  8.331e-07  alpha:  3.564e-01  linmin:  9.485e-07  t[s]:   1210.81
	Linear fluid (dielectric constant: 78.4, screening length: 5.74355 Bohr) occupying 0.763898 of unit cell:	Completed after 3 iterations at t[s]:   1215.73
	Linear fluid (dielectric constant: 78.4, screening length: 5.74355 Bohr) occupying 0.763903 of unit cell:	Completed after 3 iterations at t[s]:   1220.70
	FillingsUpdate:  mu: -0.154923010  nElectrons: 279.000000
	SubspaceRotationAdjust: set factor to 0.0531
ElecMinimize: Iter:  14  F: -1228.481425875191007  |grad|_K:  7.855e-07  alpha:  5.597e-01  linmin: -1.130e-06  t[s]:   1225.57
	Linear fluid (dielectric constant: 78.4, screening length: 5.74355 Bohr) occupying 0.763923 of unit cell:	Completed after 3 iterations at t[s]:   1230.90
	Linear fluid (dielectric constant: 78.4, screening length: 5.74355 Bohr) occupying 0.763921 of unit cell:	Completed after 2 iterations at t[s]:   1236.06
	FillingsUpdate:  mu: -0.154864624  nElectrons: 279.000000
	SubspaceRotationAdjust: set factor to 0.0531
ElecMinimize: Iter:  15  F: -1228.481447467800763  |grad|_K:  7.929e-07  alpha:  4.903e-01  linmin:  2.927e-07  t[s]:   1241.19
	Linear fluid (dielectric constant: 78.4, screening length: 5.74355 Bohr) occupying 0.763942 of unit cell:	Completed after 4 iterations at t[s]:   1246.01
	Linear fluid (dielectric constant: 78.4, screening length: 5.74355 Bohr) occupying 0.763937 of unit cell:	Completed after 2 iterations at t[s]:   1250.92
	FillingsUpdate:  mu: -0.154911076  nElectrons: 279.000000
	SubspaceRotationAdjust: set factor to 0.0473
ElecMinimize: Iter:  16  F: -1228.481463787268694  |grad|_K:  6.969e-07  alpha:  3.652e-01  linmin:  4.395e-08  t[s]:   1255.89
	Linear fluid (dielectric constant: 78.4, screening length: 5.74355 Bohr) occupying 0.763949 of unit cell:	Completed after 3 iterations at t[s]:   1260.71
	Linear fluid (dielectric constant: 78.4, screening length: 5.74355 Bohr) occupying 0.763953 of unit cell:	Completed after 2 iterations at t[s]:   1265.55
	FillingsUpdate:  mu: -0.155076690  nElectrons: 279.000000
	SubspaceRotationAdjust: set factor to 0.0445
ElecMinimize: Iter:  17  F: -1228.481479677079733  |grad|_K:  6.201e-07  alpha:  4.583e-01  linmin: -1.782e-06  t[s]:   1270.64
	Linear fluid (dielectric constant: 78.4, screening length: 5.74355 Bohr) occupying 0.763964 of unit cell:	Completed after 3 iterations at t[s]:   1275.58
	Linear fluid (dielectric constant: 78.4, screening length: 5.74355 Bohr) occupying 0.763964 of unit cell:	Completed after 0 iterations at t[s]:   1279.86
	FillingsUpdate:  mu: -0.155042384  nElectrons: 279.000000
	SubspaceRotationAdjust: set factor to 0.0456
ElecMinimize: Iter:  18  F: -1228.481492403823722  |grad|_K:  4.849e-07  alpha:  4.620e-01  linmin: -2.199e-06  t[s]:   1284.73
	Linear fluid (dielectric constant: 78.4, screening length: 5.74355 Bohr) occupying 0.763969 of unit cell:	Completed after 2 iterations at t[s]:   1289.45
	Linear fluid (dielectric constant: 78.4, screening length: 5.74355 Bohr) occupying 0.763969 of unit cell:	Completed after 0 iterations at t[s]:   1294.14
	FillingsUpdate:  mu: -0.155103230  nElectrons: 279.000000
	SubspaceRotationAdjust: set factor to 0.0462
ElecMinimize: Iter:  19  F: -1228.481499526694734  |grad|_K:  4.640e-07  alpha:  4.226e-01  linmin:  4.602e-06  t[s]:   1299.12
	Linear fluid (dielectric constant: 78.4, screening length: 5.74355 Bohr) occupying 0.763971 of unit cell:	Completed after 2 iterations at t[s]:   1304.23
	Linear fluid (dielectric constant: 78.4, screening length: 5.74355 Bohr) occupying 0.763971 of unit cell:	Completed after 0 iterations at t[s]:   1308.95
	FillingsUpdate:  mu: -0.155119023  nElectrons: 279.000000
	SubspaceRotationAdjust: set factor to 0.0458
ElecMinimize: Iter:  20  F: -1228.481505782679051  |grad|_K:  3.014e-07  alpha:  4.101e-01  linmin: -7.676e-06  t[s]:   1314.01
	Linear fluid (dielectric constant: 78.4, screening length: 5.74355 Bohr) occupying 0.763972 of unit cell:	Completed after 3 iterations at t[s]:   1318.90
	Linear fluid (dielectric constant: 78.4, screening length: 5.74355 Bohr) occupying 0.763972 of unit cell:	Completed after 0 iterations at t[s]:   1323.59
	FillingsUpdate:  mu: -0.155061906  nElectrons: 279.000000
	SubspaceRotationAdjust: set factor to 0.0446
ElecMinimize: Iter:  21  F: -1228.481508823106878  |grad|_K:  2.726e-07  alpha:  4.621e-01  linmin: -5.879e-05  t[s]:   1333.69
	Linear fluid (dielectric constant: 78.4, screening length: 5.74355 Bohr) occupying 0.763972 of unit cell:	Completed after 2 iterations at t[s]:   1346.31
	Linear fluid (dielectric constant: 78.4, screening length: 5.74355 Bohr) occupying 0.763972 of unit cell:	Completed after 0 iterations at t[s]:   1364.79
	FillingsUpdate:  mu: -0.155065852  nElectrons: 279.000000
	SubspaceRotationAdjust: set factor to 0.0422
ElecMinimize: Iter:  22  F: -1228.481511048246148  |grad|_K:  2.258e-07  alpha:  3.914e-01  linmin:  9.851e-05  t[s]:   1377.04
	Linear fluid (dielectric constant: 78.4, screening length: 5.74355 Bohr) occupying 0.763973 of unit cell:	Completed after 3 iterations at t[s]:   1382.89
	Linear fluid (dielectric constant: 78.4, screening length: 5.74355 Bohr) occupying 0.763973 of unit cell:	Completed after 0 iterations at t[s]:   1388.24
	FillingsUpdate:  mu: -0.155072714  nElectrons: 279.000000
	SubspaceRotationAdjust: set factor to 0.0426
ElecMinimize: Iter:  23  F: -1228.481512398113864  |grad|_K:  1.650e-07  alpha:  4.005e-01  linmin: -1.160e-04  t[s]:   1393.95
	Linear fluid (dielectric constant: 78.4, screening length: 5.74355 Bohr) occupying 0.763974 of unit cell:	Completed after 2 iterations at t[s]:   1399.20
	Linear fluid (dielectric constant: 78.4, screening length: 5.74355 Bohr) occupying 0.763974 of unit cell:	Completed after 0 iterations at t[s]:   1403.84
	FillingsUpdate:  mu: -0.155029287  nElectrons: 279.000000
	SubspaceRotationAdjust: set factor to 0.0463
ElecMinimize: Iter:  24  F: -1228.481513332520763  |grad|_K:  1.379e-07  alpha:  4.494e-01  linmin: -4.978e-05  t[s]:   1409.52
	Linear fluid (dielectric constant: 78.4, screening length: 5.74355 Bohr) occupying 0.763975 of unit cell:	Completed after 0 iterations at t[s]:   1414.37
	Linear fluid (dielectric constant: 78.4, screening length: 5.74355 Bohr) occupying 0.763976 of unit cell:	Completed after 0 iterations at t[s]:   1419.69
	FillingsUpdate:  mu: -0.155029659  nElectrons: 279.000000
	SubspaceRotationAdjust: set factor to 0.0536
ElecMinimize: Iter:  25  F: -1228.481514145044684  |grad|_K:  1.286e-07  alpha:  5.816e-01  linmin: -3.543e-07  t[s]:   1425.33
	Linear fluid (dielectric constant: 78.4, screening length: 5.74355 Bohr) occupying 0.763977 of unit cell:	Completed after 2 iterations at t[s]:   1430.45
	Linear fluid (dielectric constant: 78.4, screening length: 5.74355 Bohr) occupying 0.763976 of unit cell:	Completed after 1 iterations at t[s]:   1435.12
	FillingsUpdate:  mu: -0.155051088  nElectrons: 279.000000
	SubspaceRotationAdjust: set factor to 0.0533
ElecMinimize: Iter:  26  F: -1228.481514391212158  |grad|_K:  1.879e-07  alpha:  2.832e-01  linmin:  1.102e-04  t[s]:   1440.51
	Linear fluid (dielectric constant: 78.4, screening length: 5.74355 Bohr) occupying 0.763978 of unit cell:	Completed after 2 iterations at t[s]:   1445.83
	Linear fluid (dielectric constant: 78.4, screening length: 5.74355 Bohr) occupying 0.763977 of unit cell:	Completed after 0 iterations at t[s]:   1451.37
	FillingsUpdate:  mu: -0.155030342  nElectrons: 279.000000
	SubspaceRotationAdjust: set factor to 0.0533
ElecMinimize: Iter:  27  F: -1228.481514736321969  |grad|_K:  1.395e-07  alpha:  1.599e-01  linmin:  1.062e-04  t[s]:   1456.96
	Linear fluid (dielectric constant: 78.4, screening length: 5.74355 Bohr) occupying 0.763978 of unit cell:	Completed after 0 iterations at t[s]:   1461.24
	Linear fluid (dielectric constant: 78.4, screening length: 5.74355 Bohr) occupying 0.763978 of unit cell:	Completed after 0 iterations at t[s]:   1466.39
	FillingsUpdate:  mu: -0.155027911  nElectrons: 279.000000
	SubspaceRotationAdjust: set factor to 0.0619
ElecMinimize: Iter:  28  F: -1228.481515117910703  |grad|_K:  9.848e-08  alpha:  3.122e-01  linmin:  2.124e-05  t[s]:   1471.78
	Linear fluid (dielectric constant: 78.4, screening length: 5.74355 Bohr) occupying 0.763978 of unit cell:	Completed after 1 iterations at t[s]:   1476.82
	Linear fluid (dielectric constant: 78.4, screening length: 5.74355 Bohr) occupying 0.763978 of unit cell:	Completed after 0 iterations at t[s]:   1482.05
	FillingsUpdate:  mu: -0.154962806  nElectrons: 279.000000
	SubspaceRotationAdjust: set factor to 0.0632
ElecMinimize: Iter:  29  F: -1228.481515282589498  |grad|_K:  1.116e-07  alpha:  2.672e-01  linmin: -3.021e-04  t[s]:   1487.62
	Linear fluid (dielectric constant: 78.4, screening length: 5.74355 Bohr) occupying 0.763978 of unit cell:	Completed after 2 iterations at t[s]:   1492.34
	Linear fluid (dielectric constant: 78.4, screening length: 5.74355 Bohr) occupying 0.763978 of unit cell:	Completed after 0 iterations at t[s]:   1496.69
	FillingsUpdate:  mu: -0.154977249  nElectrons: 279.000000
	SubspaceRotationAdjust: set factor to 0.0642
ElecMinimize: Iter:  30  F: -1228.481515535829431  |grad|_K:  8.901e-08  alpha:  2.302e-01  linmin: -3.195e-06  t[s]:   1501.76
	Linear fluid (dielectric constant: 78.4, screening length: 5.74355 Bohr) occupying 0.763977 of unit cell:	Completed after 0 iterations at t[s]:   1506.62
	Linear fluid (dielectric constant: 78.4, screening length: 5.74355 Bohr) occupying 0.763977 of unit cell:	Completed after 1 iterations at t[s]:   1510.98
	FillingsUpdate:  mu: -0.155003377  nElectrons: 279.000000
	SubspaceRotationAdjust: set factor to 0.0694
ElecMinimize: Iter:  31  F: -1228.481515693054234  |grad|_K:  9.832e-08  alpha:  4.258e-01  linmin:  2.077e-04  t[s]:   1515.80
	Linear fluid (dielectric constant: 78.4, screening length: 5.74355 Bohr) occupying 0.763976 of unit cell:	Completed after 3 iterations at t[s]:   1520.91
	Linear fluid (dielectric constant: 78.4, screening length: 5.74355 Bohr) occupying 0.763977 of unit cell:	Completed after 0 iterations at t[s]:   1525.23
	FillingsUpdate:  mu: -0.155015429  nElectrons: 279.000000
	SubspaceRotationAdjust: set factor to 0.0666
ElecMinimize: Iter:  32  F: -1228.481515805534855  |grad|_K:  1.517e-07  alpha:  1.716e-01  linmin:  1.867e-04  t[s]:   1530.16
	Linear fluid (dielectric constant: 78.4, screening length: 5.74355 Bohr) occupying 0.763975 of unit cell:	Completed after 1 iterations at t[s]:   1535.08
	Linear fluid (dielectric constant: 78.4, screening length: 5.74355 Bohr) occupying 0.763976 of unit cell:	Completed after 0 iterations at t[s]:   1539.83
	FillingsUpdate:  mu: -0.154982316  nElectrons: 279.000000
	SubspaceRotationAdjust: set factor to 0.0728
ElecMinimize: Iter:  33  F: -1228.481515867280677  |grad|_K:  8.342e-08  alpha:  7.053e-02  linmin:  9.734e-05  t[s]:   1544.95
	Linear fluid (dielectric constant: 78.4, screening length: 5.74355 Bohr) occupying 0.763976 of unit cell:	Completed after 0 iterations at t[s]:   1549.30
ElecMinimize: 	Predicted alpha/alphaT>3.000000, increasing alphaT to 2.115966e-01.
	Linear fluid (dielectric constant: 78.4, screening length: 5.74355 Bohr) occupying 0.763976 of unit cell:	Completed after 0 iterations at t[s]:   1553.77
	Linear fluid (dielectric constant: 78.4, screening length: 5.74355 Bohr) occupying 0.763975 of unit cell:	Completed after 0 iterations at t[s]:   1557.91
	FillingsUpdate:  mu: -0.154982863  nElectrons: 279.000000
	SubspaceRotationAdjust: set factor to 0.0839
ElecMinimize: Iter:  34  F: -1228.481515997253837  |grad|_K:  6.612e-08  alpha:  2.983e-01  linmin:  6.724e-07  t[s]:   1562.91
	Linear fluid (dielectric constant: 78.4, screening length: 5.74355 Bohr) occupying 0.763975 of unit cell:	Completed after 2 iterations at t[s]:   1567.52
	Linear fluid (dielectric constant: 78.4, screening length: 5.74355 Bohr) occupying 0.763975 of unit cell:	Completed after 0 iterations at t[s]:   1572.03
ElecMinimize: 	Step increased F by 2.689035e-08, reducing alpha to 9.490364e-03.
	Linear fluid (dielectric constant: 78.4, screening length: 5.74355 Bohr) occupying 0.763975 of unit cell:	Completed after 0 iterations at t[s]:   1580.50
ElecMinimize: 	Step increased F by 1.119474e-08, reducing alpha to 9.490364e-04.
	Linear fluid (dielectric constant: 78.4, screening length: 5.74355 Bohr) occupying 0.763975 of unit cell:	Completed after 0 iterations at t[s]:   1589.12
ElecMinimize: 	Step increased F by 1.026865e-08, reducing alpha to 9.490364e-05.
ElecMinimize: 	Step failed to reduce F after 3 attempts. Quitting step.
ElecMinimize: 	Undoing step.
	Linear fluid (dielectric constant: 78.4, screening length: 5.74355 Bohr) occupying 0.763975 of unit cell:	Completed after 0 iterations at t[s]:   1597.33
ElecMinimize: 	Step failed: resetting search direction.
	FillingsUpdate:  mu: -0.154973288  nElectrons: 279.000000
	SubspaceRotationAdjust: set factor to 0.0753
ElecMinimize: Iter:  35  F: -1228.481515986991781  |grad|_K:  1.234e-07  alpha:  9.490e-05
	Linear fluid (dielectric constant: 78.4, screening length: 5.74355 Bohr) occupying 0.763976 of unit cell:	Completed after 3 iterations at t[s]:   1607.40
	Linear fluid (dielectric constant: 78.4, screening length: 5.74355 Bohr) occupying 0.763975 of unit cell:	Completed after 1 iterations at t[s]:   1611.89
ElecMinimize: 	Step increased F by 3.286459e-09, reducing alpha to 8.325384e-03.
	Linear fluid (dielectric constant: 78.4, screening length: 5.74355 Bohr) occupying 0.763975 of unit cell:	Completed after 0 iterations at t[s]:   1620.36
	FillingsUpdate:  mu: -0.154984656  nElectrons: 279.000000
	SubspaceRotationAdjust: set factor to 0.0422
ElecMinimize: Iter:  36  F: -1228.481516019425726  |grad|_K:  8.153e-08  alpha:  8.325e-03  linmin:  1.816e-03  t[s]:   1625.32
	Linear fluid (dielectric constant: 78.4, screening length: 5.74355 Bohr) occupying 0.763975 of unit cell:	Completed after 0 iterations at t[s]:   1629.61
ElecMinimize: 	Predicted alpha/alphaT>3.000000, increasing alphaT to 2.497615e-02.
	Linear fluid (dielectric constant: 78.4, screening length: 5.74355 Bohr) occupying 0.763975 of unit cell:	Completed after 0 iterations at t[s]:   1633.96
ElecMinimize: 	Predicted alpha/alphaT>3.000000, increasing alphaT to 7.492846e-02.
	Linear fluid (dielectric constant: 78.4, screening length: 5.74355 Bohr) occupying 0.763975 of unit cell:	Completed after 0 iterations at t[s]:   1638.09
ElecMinimize: 	Predicted alpha/alphaT>3.000000, increasing alphaT to 2.247854e-01.
	Linear fluid (dielectric constant: 78.4, screening length: 5.74355 Bohr) occupying 0.763975 of unit cell:	Completed after 2 iterations at t[s]:   1642.65
	FillingsUpdate:  mu: -0.155002669  nElectrons: 279.000000
	SubspaceRotationAdjust: set factor to 0.0306
ElecMinimize: Iter:  37  F: -1228.481516028169835  |grad|_K:  7.041e-08  alpha:  3.259e-01  linmin:  6.622e-04  t[s]:   1647.48
	Linear fluid (dielectric constant: 78.4, screening length: 5.74355 Bohr) occupying 0.763975 of unit cell:	Completed after 0 iterations at t[s]:   1652.42
	Linear fluid (dielectric constant: 78.4, screening length: 5.74355 Bohr) occupying 0.763975 of unit cell:	Completed after 0 iterations at t[s]:   1656.63
	FillingsUpdate:  mu: -0.155002582  nElectrons: 279.000000
	SubspaceRotationAdjust: set factor to 0.041
ElecMinimize: Iter:  38  F: -1228.481516134924505  |grad|_K:  5.083e-08  alpha:  3.878e-01  linmin: -2.250e-04  t[s]:   1661.45
	Linear fluid (dielectric constant: 78.4, screening length: 5.74355 Bohr) occupying 0.763975 of unit cell:	Completed after 1 iterations at t[s]:   1666.00
	Linear fluid (dielectric constant: 78.4, screening length: 5.74355 Bohr) occupying 0.763975 of unit cell:	Completed after 0 iterations at t[s]:   1670.42
	FillingsUpdate:  mu: -0.154957770  nElectrons: 279.000000
	SubspaceRotationAdjust: set factor to 0.0374
ElecMinimize: Iter:  39  F: -1228.481516148695391  |grad|_K:  1.093e-07  alpha:  1.019e-01  linmin:  1.052e-03  t[s]:   1675.31
ElecMinimize: 	Bad step direction: g.d > 0.
ElecMinimize: 	Undoing step.
	Linear fluid (dielectric constant: 78.4, screening length: 5.74355 Bohr) occupying 0.763975 of unit cell:	Completed after 0 iterations at t[s]:   1679.49
ElecMinimize: 	Step failed: resetting search direction.
	FillingsUpdate:  mu: -0.154957770  nElectrons: 279.000000
	SubspaceRotationAdjust: set factor to 0.0507
ElecMinimize: Iter:  40  F: -1228.481516148688115  |grad|_K:  1.078e-07  alpha:  0.000e+00
	Linear fluid (dielectric constant: 78.4, screening length: 5.74355 Bohr) occupying 0.763975 of unit cell:	Completed after 2 iterations at t[s]:   1689.06
	Linear fluid (dielectric constant: 78.4, screening length: 5.74355 Bohr) occupying 0.763975 of unit cell:	Completed after 0 iterations at t[s]:   1693.51
ElecMinimize: 	Step increased F by 6.614300e-09, reducing alpha to 4.854828e-03.
	Linear fluid (dielectric constant: 78.4, screening length: 5.74355 Bohr) occupying 0.763975 of unit cell:	Completed after 0 iterations at t[s]:   1702.13
ElecMinimize: 	Step increased F by 1.046124e-08, reducing alpha to 4.854828e-04.
	Linear fluid (dielectric constant: 78.4, screening length: 5.74355 Bohr) occupying 0.763975 of unit cell:	Completed after 0 iterations at t[s]:   1710.58
ElecMinimize: 	Step increased F by 1.113017e-08, reducing alpha to 4.854828e-05.
ElecMinimize: 	Step failed to reduce F after 3 attempts. Quitting step.
ElecMinimize: 	Undoing step.
	Linear fluid (dielectric constant: 78.4, screening length: 5.74355 Bohr) occupying 0.763975 of unit cell:	Completed after 0 iterations at t[s]:   1718.69
ElecMinimize: 	Step failed along negative gradient direction.
ElecMinimize: Probably at roundoff error limit. (Stopping)
Setting wave functions to eigenvectors of Hamiltonian
Single-point solvation energy estimate, DeltaF = -0.000260486410298

# Ionic positions in lattice coordinates:
ion Mn   0.332719383074933   0.014758833810313   0.497656496674574 0
ion Mn   0.000169489485474   0.497355597067535   0.504242794587833 0
ion Mn   0.666985785660374   0.014786726952186   0.497676781305227 0
ion Mn   0.339709708183506   0.487356980155019   0.503796349326404 0
ion Mn   0.999911013093304   0.003992418986131   0.497312445835629 0
ion Mn   0.660421129806748   0.487404673207444   0.503824451040967 0
ion Sb   0.174998426196222   0.283539300292329   0.612391842692528 0
ion Sb   0.168211369829137   0.704855221758110   0.386376941324248 0
ion Sb   0.499966504413451   0.719426693467854   0.389122484686495 0
ion Sb   0.825201734217321   0.283740229816772   0.612395691384743 0
ion Sb   0.831748612685353   0.704875054724857   0.386396594778813 0
ion Se   0.000082571508475   0.249163649129313   0.527982397642772 0
ion Se   0.177733291575091   0.466837397157085   0.416647011956179 0
ion Se   0.000012592487562   0.750343243544393   0.472565702774772 0
ion Se   0.179443266972577   0.528035251827521   0.587477178552525 0
ion Se   0.342218708722147   0.247350242050042   0.535334744926254 0
ion Se   0.500083035322448   0.474309095287500   0.418151043057453 0
ion Se   0.331273296378467   0.761412488388751   0.472443393666124 0
ion Se   0.500021974101789   0.531409866574501   0.575073783672431 0
ion Se   0.657895516819840   0.247435778291702   0.535364752463029 0
ion Se   0.822322959963131   0.466817461302753   0.416656186615866 0
ion Se   0.668628076329763   0.761441305158222   0.472455374350418 0
ion Se   0.820728858686297   0.528125338619089   0.587427039978151 0
ion I   0.166756245716404   0.945005914184579   0.593987937783229 0
ion I   0.165511887540930   0.051979757835548   0.400307341324923 0
ion I   0.499954024204768   0.932203669876089   0.586880969394476 0
ion I   0.499845188698261   0.061375537140662   0.399442043786387 0
ion I   0.833246249252302   0.945092896158271   0.593927989221466 0
ion I   0.834091925073924   0.051870412235441   0.400308986196064 0


# Forces in Lattice coordinates:
force Mn  -0.016779444393991  -0.056400223046259  -0.013100109397351 0
force Mn  -0.001047130765481  -0.005003183201154   0.008076728715362 0
force Mn   0.019022822375370  -0.054490323649590  -0.015938242655379 0
force Mn   0.208439602116247  -0.026456813845281   0.367365807499409 0
force Mn   0.001312914997148  -0.060235071512044   0.014592186471884 0
force Mn  -0.204254356459896  -0.026399860573888   0.362643386085267 0
force Sb  -0.064334401697437  -0.010093377326633   0.184997572305196 0
force Sb  -0.003683667140670   0.039130261452993  -0.227376338985501 0
force Sb   0.000448325363390  -0.073621371551065  -0.314061667305173 0
force Sb   0.063013844090205  -0.012609405253962   0.184522300107488 0
force Sb   0.003661846827353   0.037969913846718  -0.225385138749203 0
force Se  -0.000484313003085  -0.008060680217567  -0.205810204895528 0
force Se  -0.140543046219918   0.049932539905342   0.651204958837222 0
force Se  -0.000348241135915   0.049875410596986   0.234965927745423 0
force Se  -0.127386606437472  -0.112869582873639  -0.691096461675414 0
force Se   0.054602903125468  -0.055551402949812  -0.349515041458895 0
force Se  -0.000548137741144   0.053281022516656   0.474842295090970 0
force Se  -0.012064707429208   0.122519875736512   0.269719351926917 0
force Se   0.000478986153510  -0.082405684954239  -0.792184723149416 0
force Se  -0.054228767188638  -0.055472312757450  -0.348139353044393 0
force Se   0.140452392209504   0.051628405444153   0.650488508342560 0
force Se   0.012205326498171   0.121828119827792   0.268924751132953 0
force Se   0.127017426026028  -0.111499814926349  -0.689486850175485 0
force I  -0.003164216454653   0.215044139589356  -0.779438857843493 0
force I  -0.004029364955537  -0.121466795755509   0.841514526067377 0
force I  -0.000412857232847   0.247328675120694  -0.643821340075093 0
force I   0.000178634771366  -0.128119489521733   0.878008687206409 0
force I   0.001688528233653   0.214601766754585  -0.777354860336099 0
force I   0.005746267433932  -0.120273694941065   0.841121010199123 0

# Energy components:
   A_diel =       -0.0078581574303471
   Eewald =     4746.5856889889519152
       EH =     5800.0090492294266369
     Eloc =   -12062.4402892487760255
      Enl =      202.1038951654263087
      Exc =     -512.1777115198783576
 Exc_core =      326.0388405317812612
       KE =      271.5269765657693597
-------------------------------------
     Etot =    -1228.3614084447294772
       TS =        0.1201076927468586
-------------------------------------
        F =    -1228.4815161374763193

IonicMinimize: Iter:   0  F: -1228.481516137476319  |grad|_K:  0.000e+00  t[s]:   1727.46
IonicMinimize: Converged (|grad|_K<1.000000e-04).

#--- Lowdin population analysis ---
# oxidation-state Mn -0.718 -0.566 -0.722 -0.663 -0.718 -0.665
# oxidation-state Sb +0.690 +0.631 +0.628 +0.690 +0.630
# oxidation-state Se +0.142 -0.022 +0.125 +0.003 +0.128 +0.058 +0.098 +0.146 +0.128 -0.022 +0.098 +0.003
# oxidation-state I +0.157 +0.179 +0.192 +0.166 +0.158 +0.179


Dumping 'NbTe2.fillings' ... done
Dumping 'NbTe2.wfns' ... done
Dumping 'NbTe2.fluidState' ... done
Dumping 'NbTe2.eigenvals' ... done
End date and time: Sun Jul 12 21:37:15 2020  (Duration: 0-0:28:50.02)
Done!
