
*************** JDFTx 1.5.0  ***************

Start date and time: Sat Jul 18 09:58:18 2020
Executable jdftx_gpu with command-line: -i Neutral.in -o Neutral.out
Running on hosts (process indices):  amax (0-5)
Divided in process groups (process indices):  0 (0)  1 (1)  2 (2)  3 (3)  4 (4)  5 (5)
gpuInit: Found compatible cuda device 0 'Tesla K80'
gpuInit: Found compatible cuda device 1 'Tesla K80'
gpuInit: Found compatible cuda device 2 'Tesla K80'
gpuInit: Found compatible cuda device 3 'Tesla K80'
gpuInit: Found compatible cuda device 4 'Tesla K80'
gpuInit: Found compatible cuda device 5 'Tesla K80'
gpuInit: Selected device 0
Resource initialization completed at t[s]:      5.05
Run totals: 6 processes, 24 threads, 6 GPUs


Input parsed successfully to the following command list (including defaults):

basis kpoint-dependent
cache-projectors no
coords-type Lattice
core-overlap-check none
coulomb-interaction Slab 001
coulomb-truncation-embed 0 0 0.5
davidson-band-ratio 1.1
dump End State
dump-name NbTe2.$VAR
elec-cutoff 20 100
elec-eigen-algo Davidson
elec-ex-corr gga-PBE
elec-smearing Gauss 0.0073499
electronic-minimize  \
	dirUpdateScheme      FletcherReeves \
	linminMethod         DirUpdateRecommended \
	nIterations          500 \
	history              15 \
	knormThreshold       0 \
	energyDiffThreshold  1e-08 \
	nEnergyDiff          2 \
	alphaTstart          1 \
	alphaTmin            1e-10 \
	updateTestStepSize   yes \
	alphaTreduceFactor   0.1 \
	alphaTincreaseFactor 3 \
	nAlphaAdjustMax      3 \
	wolfeEnergy          0.0001 \
	wolfeGradient        0.9 \
	fdTest               no
exchange-regularization WignerSeitzTruncated
fluid LinearPCM 298.000000 1.013250
fluid-anion F- 1 MeanFieldLJ \
	epsBulk 1 \
	pMol 0 \
	epsInf 1 \
	Pvap 0 \
	sigmaBulk 0 \
	Rvdw 2.24877 \
	Res 0 \
	tauNuc 343133
fluid-cation Na+ 1 MeanFieldLJ \
	epsBulk 1 \
	pMol 0 \
	epsInf 1 \
	Pvap 0 \
	sigmaBulk 0 \
	Rvdw 2.19208 \
	Res 0 \
	tauNuc 343133
fluid-ex-corr lda-TF lda-PZ
fluid-gummel-loop 10 1.000000e-05
fluid-minimize  \
	dirUpdateScheme      PolakRibiere \
	linminMethod         DirUpdateRecommended \
	nIterations          400 \
	history              15 \
	knormThreshold       1e-11 \
	energyDiffThreshold  0 \
	nEnergyDiff          2 \
	alphaTstart          1 \
	alphaTmin            1e-10 \
	updateTestStepSize   yes \
	alphaTreduceFactor   0.1 \
	alphaTincreaseFactor 3 \
	nAlphaAdjustMax      6 \
	wolfeEnergy          0.0001 \
	wolfeGradient        0.9 \
	fdTest               no
fluid-solvent H2O 55.338 ScalarEOS \
	epsBulk 78.4 \
	pMol 0.92466 \
	epsInf 1.77 \
	Pvap 1.06736e-10 \
	sigmaBulk 4.62e-05 \
	Rvdw 2.61727 \
	Res 1.42 \
	tauNuc 343133 \
	poleEl 15 7 1
forces-output-coords Positions
initial-state NbTe2.$VAR
ion Cu   0.086434804815263   0.497306895845213   0.525699653128359 0
ion Cu   0.153559524409948   0.246847816654632   0.475901102810285 0
ion Cu   0.403567545803278   0.003237207496172   0.476634131278393 0
ion Cu   0.845292225726646   0.255775414995920   0.522999630765256 0
ion Cu   0.593539589611862   0.499924235977698   0.526107997121730 0
ion Cu   0.652575746628760   0.245977330593668   0.473804356318084 0
ion Cu   0.906650053084843   0.002236094869029   0.474530995933220 0
ion Cu   0.341145895519570   0.745000692426276   0.520457551805204 0
ion Cu   0.097451742753224   0.992438154776893   0.527169690804186 0
ion Cu   0.163535987150255   0.740666824596252   0.470443777632453 0
ion Cu   0.401772063461896   0.517821271743831   0.469469319085850 0
ion Cu   0.848024383526779   0.751382484479867   0.529645022889727 0
ion Cu   0.595623926136047   0.993575969396465   0.527223907214513 0
ion Cu   0.656033077290307   0.743973309462323   0.480948793034387 0
ion Cu   0.902503656869880   0.506857145658757   0.468657800037512 0
ion Cu   0.276586742940359   0.104527537417054   0.575963252364881 0
ion Te   0.222066557708107   0.400943079301321   0.427833077354028 0
ion Te   0.471875957453601   0.358167720616340   0.428585032894480 0
ion Te   0.026441984904488   0.145529528615787   0.573752635180670 0
ion Te   0.777211509285674   0.103239887945208   0.572844247432706 0
ion Te   0.720305593903122   0.398585229967445   0.424474638705526 0
ion Te   0.972951437042456   0.354014611280518   0.422373569649646 0
ion Te   0.526131999239253   0.146725732790737   0.574372212592797 0
ion Te   0.224344549038565   0.895629657650912   0.425135513588213 0
ion Te   0.473962376761844   0.850163891634990   0.426861301733683 0
ion Te   0.039828445267625   0.643297608751366   0.577365863279210 0
ion Te   0.780070887827234   0.600653189152553   0.575321615900444 0
ion Te   0.725473660380819   0.894214854405044   0.427496860242206 0
ion Te   0.976116444872739   0.848503862885830   0.427834720135086 0
ion Te   0.517870028881527   0.649964929169406   0.581174727449026 0
ion Te   0.305144356006940   0.065591890727344   0.482171553223211 0
ion O   0.257691780514170   0.306704794464425   0.463762082282229 0
ion O   0.399842280127549   0.175803307601395   0.576523078680461 0
ion O   0.489494770848640   0.051336933762331   0.543193867745536 0
ion O   0.347393552212199   0.429068177526591   0.432423573179196 0
ion O   0.150775691247614   0.074020369609754   0.576790968078738 0
ion O   0.445626795408478   0.318416036635532   0.522538258304335 0
ion O   0.189094270452918   0.441333144106701   0.519761558896236 0
ion O   0.009418952439523   0.450087142808993   0.452028872362929 0
ion O   0.239319680401905   0.199175892562473   0.543281171253214 0
ion O   0.056112620192960   0.183120557760960   0.479755185761652 0
ion O   0.098841240899897   0.325651819807607   0.422648474661945 0
ion O   0.807104225477228   0.063996449156622   0.479483827928601 0
ion O   0.757810420155039   0.303895003727681   0.457724487861706 0
ion O   0.900070121347812   0.174872230158281   0.573550362112908 0
ion O   0.990948769226090   0.050138952220488   0.541709537397508 0
ion O   0.847442617501800   0.426019643545899   0.421045761568506 0
ion O   0.650634242329181   0.074851905894237   0.574846189982884 0
ion O   0.944326664902376   0.317465175816979   0.517053111647085 0
ion O   0.692200389405476   0.436863726136952   0.518552417825961 0
ion O   0.510013530887535   0.452756983208114   0.457705512263902 0
ion O   0.740081276730562   0.197516806487085   0.538737817355774 0
ion O   0.553819746910080   0.183906981707235   0.479762396607318 0
ion O   0.597680368492623   0.326596597831731   0.424007179730193 0
ion O   0.321597715476944   0.581436821530590   0.444650756317528 0
ion O   0.264669796882028   0.798002134767389   0.450886282259680 0
ion O   0.400151129627000   0.685608064844796   0.586900646300124 0
ion O   0.487164995190311   0.555949577671177   0.542039134604833 0
ion O   0.349169333339230   0.924851974875851   0.422238059714652 0
ion O   0.130152231223005   0.568197280283608   0.587117928673106 0
ion O   0.436808902382750   0.811778446554517   0.518543482723764 0
ion O   0.196741987389300   0.930143928686562   0.520781329855931 0
ion O   0.012767205679089   0.943805961349050   0.459261793926712 0
ion O   0.243242928426412   0.687333141219800   0.522020083648195 0
ion O   0.067208634588997   0.679958918452902   0.480525288777602 0
ion O   0.102427991771660   0.819757189727431   0.425120374437585 0
ion O   0.803299450238403   0.566760757794276   0.477729994208912 0
ion O   0.762258592681382   0.800284866902975   0.461746256290931 0
ion O   0.901684503076456   0.670896469191834   0.575875404462176 0
ion O   0.984591728214822   0.554250982580537   0.535025254172047 0
ion O   0.851787304929362   0.922192903777165   0.424842114116256 0
ion O   0.652899698044621   0.574119001371342   0.579411430551854 0
ion O   0.947961599108463   0.811954942789384   0.522525610851245 0
ion O   0.696186393986124   0.933335221785076   0.521004173677378 0
ion O   0.508013868417743   0.944113566336342   0.464089607215044 0
ion O   0.742401809063600   0.697000707547315   0.546589120104142 0
ion O   0.554559151544466   0.686998336256938   0.488147183742053 0
ion O   0.600347796965375   0.822675889616323   0.428387234089922 0
ion-species GBRV/$ID_pbe.uspp
ion-width Ecut
ionic-minimize  \
	dirUpdateScheme      L-BFGS \
	linminMethod         DirUpdateRecommended \
	nIterations          0 \
	history              15 \
	knormThreshold       0.0001 \
	energyDiffThreshold  1e-06 \
	nEnergyDiff          2 \
	alphaTstart          1 \
	alphaTmin            1e-10 \
	updateTestStepSize   yes \
	alphaTreduceFactor   0.1 \
	alphaTincreaseFactor 3 \
	nAlphaAdjustMax      3 \
	wolfeEnergy          0.0001 \
	wolfeGradient        0.9 \
	fdTest               no
kpoint   0.000000000000   0.000000000000   0.000000000000  1.00000000000000
kpoint-folding 3 3 1 
latt-move-scale 1 1 1
latt-scale 1 1 1 
lattice Triclinic 28.6071 35.3613 33.7454 90 90 90
lattice-minimize  \
	dirUpdateScheme      L-BFGS \
	linminMethod         DirUpdateRecommended \
	nIterations          0 \
	history              15 \
	knormThreshold       0 \
	energyDiffThreshold  1e-06 \
	nEnergyDiff          2 \
	alphaTstart          1 \
	alphaTmin            1e-10 \
	updateTestStepSize   yes \
	alphaTreduceFactor   0.1 \
	alphaTincreaseFactor 3 \
	nAlphaAdjustMax      3 \
	wolfeEnergy          0.0001 \
	wolfeGradient        0.9 \
	fdTest               no
lcao-params -1 1e-06 0.0073499
pcm-variant CANDLE
spintype no-spin
subspace-rotation-factor 1 yes
symmetries automatic
symmetry-threshold 0.0001



---------- Setting up symmetries ----------

Found 8 point-group symmetries of the bravais lattice
Found 1 space-group symmetries with basis
Applied RMS atom displacement 0 bohrs to make symmetries exact.

---------- Initializing the Grid ----------
R = 
[    28.6071          0          0  ]
[          0    35.3613          0  ]
[          0          0    33.7454  ]
unit cell volume = 34136.3
G =
[   0.219638          0          0  ]
[          0   0.177685          0  ]
[          0          0   0.186194  ]
Minimum fftbox size, Smin = [  132  160  152  ]
Chosen fftbox size, S = [  140  160  160  ]

---------- Initializing tighter grid for wavefunction operations ----------
R = 
[    28.6071          0          0  ]
[          0    35.3613          0  ]
[          0          0    33.7454  ]
unit cell volume = 34136.3
G =
[   0.219638          0          0  ]
[          0   0.177685          0  ]
[          0          0   0.186194  ]
Minimum fftbox size, Smin = [  116  144  136  ]
Chosen fftbox size, S = [  120  144  140  ]

---------- Exchange Correlation functional ----------
Initalized PBE GGA exchange.
Initalized PBE GGA correlation.

---------- Setting up pseudopotentials ----------
Width of ionic core gaussian charges (only for fluid interactions / plotting) set to 0.397384

Reading pseudopotential file '/home/guoxy/vasp/jdftx-1.5.0/build/pseudopotentials/GBRV/cu_pbe.uspp':
  Title: Cu.  Created by USPP 7.3.6 on 3-2-2014
  Reference state energy: -201.059491.  19 valence electrons in orbitals:
    |300>  occupation: 2  eigenvalue: -5.020764
    |310>  occupation: 6  eigenvalue: -3.445588
    |320>  occupation: 8  eigenvalue: -0.925168
    |400>  occupation: 2  eigenvalue: -0.567638
    |410>  occupation: 0  eigenvalue: -0.326154
  lMax: 2  lLocal: 3  QijEcut: 6
  6 projectors sampled on a log grid with 613 points:
    l: 0  eig: -5.020767  rCut: 1.4
    l: 0  eig: -0.567640  rCut: 1.4
    l: 1  eig: -3.445589  rCut: 1.55
    l: 1  eig: -0.326157  rCut: 1.55
    l: 2  eig: -0.925170  rCut: 1.5
    l: 2  eig: 1.500000  rCut: 1.5
  Partial core density with radius 0.8
  Transforming core density to a uniform radial grid of dG=0.02 with 1290 points.
  Transforming local potential to a uniform radial grid of dG=0.02 with 1290 points.
  Transforming nonlocal projectors to a uniform radial grid of dG=0.02 with 432 points.
  Transforming density augmentations to a uniform radial grid of dG=0.02 with 1290 points.
  Transforming atomic orbitals to a uniform radial grid of dG=0.02 with 432 points.
  Core radius for overlap checks: 1.55 bohrs.

Reading pseudopotential file '/home/guoxy/vasp/jdftx-1.5.0/build/pseudopotentials/GBRV/te_pbe.uspp':
  Title: Te.  Created by USPP 7.3.6 on 14-9-2013
  Reference state energy: -13.134220.  6 valence electrons in orbitals:
    |500>  occupation: 2  eigenvalue: -0.555231
    |510>  occupation: 4  eigenvalue: -0.218781
  lMax: 2  lLocal: 2  QijEcut: 5
  5 projectors sampled on a log grid with 723 points:
    l: 0  eig: -0.555229  rCut: 2.1
    l: 0  eig: 1.000000  rCut: 2.1
    l: 1  eig: -0.218780  rCut: 2.1
    l: 1  eig: 1.000000  rCut: 2.1
    l: 2  eig: 1.000000  rCut: 2.6
  Partial core density with radius 1.8
  Transforming core density to a uniform radial grid of dG=0.02 with 1290 points.
  Transforming local potential to a uniform radial grid of dG=0.02 with 1290 points.
  Transforming nonlocal projectors to a uniform radial grid of dG=0.02 with 432 points.
  Transforming density augmentations to a uniform radial grid of dG=0.02 with 1290 points.
  Transforming atomic orbitals to a uniform radial grid of dG=0.02 with 432 points.
  Core radius for overlap checks: 2.60 bohrs.

Reading pseudopotential file '/home/guoxy/vasp/jdftx-1.5.0/build/pseudopotentials/GBRV/o_pbe.uspp':
  Title: O.  Created by USPP 7.3.6 on 3-2-2014
  Reference state energy: -15.894388.  6 valence electrons in orbitals:
    |200>  occupation: 2  eigenvalue: -0.878823
    |210>  occupation: 4  eigenvalue: -0.332131
  lMax: 2  lLocal: 2  QijEcut: 6
  5 projectors sampled on a log grid with 511 points:
    l: 0  eig: -0.878823  rCut: 1.25
    l: 0  eig: 0.000000  rCut: 1.25
    l: 1  eig: -0.332132  rCut: 1.25
    l: 1  eig: 0.000000  rCut: 1.25
    l: 2  eig: 1.000000  rCut: 1.25
  Partial core density with radius 0.7
  Transforming core density to a uniform radial grid of dG=0.02 with 1290 points.
  Transforming local potential to a uniform radial grid of dG=0.02 with 1290 points.
  Transforming nonlocal projectors to a uniform radial grid of dG=0.02 with 432 points.
  Transforming density augmentations to a uniform radial grid of dG=0.02 with 1290 points.
  Transforming atomic orbitals to a uniform radial grid of dG=0.02 with 432 points.
  Core radius for overlap checks: 1.25 bohrs.

Initialized 3 species with 78 total atoms.

Folded 1 k-points by 3x3x1 to 9 k-points.

---------- Setting up k-points, bands, fillings ----------
Adding inversion symmetry to k-mesh for non-inversion-symmetric unit cell.
Reduced to 5 k-points under symmetry. 
Computing the number of bands and number of electrons
Calculating initial fillings.
nElectrons: 676.000000   nBands: 456   nStates: 5

----- Setting up reduced wavefunction bases (one per k-point) -----
average nbasis = 145806.556 , ideal nbasis = 145832.736

---------- Setting up coulomb interaction ----------
Fluid mode embedding: using embedded box, but periodic Coulomb kernel.
(Fluid response is responsible for (approximate) separation between periodic images.)
Setting up double-sized grid for truncated Coulomb potentials:
R = 
[    28.6071          0          0  ]
[          0    35.3613          0  ]
[          0          0    67.4908  ]
unit cell volume = 68272.5
G =
[   0.219638          0          0  ]
[          0   0.177685          0  ]
[          0          0  0.0930969  ]
Chosen fftbox size, S = [  140  160  320  ]
Integer grid location selected as the embedding center:
   Grid: [  0  0  80  ]
   Lattice: [  0  0  0.5  ]
   Cartesian: [  0  0  16.8727  ]
Constructing Wigner-Seitz cell: 6 faces (6 quadrilaterals, 0 hexagons)
Range-separation parameter for embedded mesh potentials due to point charges: 0.593081 bohrs.

Initializing van der Waals corrections
	NOTE: vdW corrections apply only for interactions with fluid.
	Cu:  C6:  187.33 Eh-a0^6  R0: 2.952 a0
	Te:  C6:  550.54 Eh-a0^6  R0: 3.575 a0
	 O:  C6:   12.14 Eh-a0^6  R0: 2.536 a0

---------- Setting up ewald sum ----------
Optimum gaussian width for ewald sums = 7.888171 bohr.
Real space sum over 567 unit cells with max indices [  4  4  3  ]
Reciprocal space sum over 7395 terms with max indices [  7  8  14  ]

---------- Allocating electronic variables ----------
Initializing wave functions:  linear combination of atomic orbitals
Cu pseudo-atom occupations:   s ( 2 1 )  p ( 6 0 )  d ( 10 )
Te pseudo-atom occupations:   s ( 2 )  p ( 4 )
O pseudo-atom occupations:   s ( 2 )  p ( 4 )
	FillingsUpdate:  mu: +0.114478195  nElectrons: 676.000000
LCAOMinimize: Iter:   0  F: -3591.2440069494946329  |grad|_K:  2.142e-02  alpha:  1.000e+00
	FillingsUpdate:  mu: +2.338026467  nElectrons: 676.000000
LCAOMinimize: Iter:   1  F: -3741.5703360657475969  |grad|_K:  5.151e-02  alpha:  5.907e-01  linmin:  1.106e-02  cgtest: -5.241e-01  t[s]:     99.46
	FillingsUpdate:  mu: +1.774109128  nElectrons: 676.000000
LCAOMinimize: Iter:   2  F: -3762.4072617988986167  |grad|_K:  1.638e-02  alpha:  2.966e-01  linmin:  2.216e-03  cgtest: -4.807e-01  t[s]:    134.77
LCAOMinimize: 	Wrong curvature in test step, increasing alphaT to 8.897229e-01.
	FillingsUpdate:  mu: +1.156860144  nElectrons: 676.000000
LCAOMinimize: Iter:   3  F: -3860.6250023641773623  |grad|_K:  2.723e-02  alpha: -5.202e-01  linmin:  4.502e-03  cgtest: -3.410e-01  t[s]:    169.54
LCAOMinimize: 	Step increased F by 8.676620e+01, reducing alpha to 8.069550e-03.
	FillingsUpdate:  mu: +1.112490217  nElectrons: 676.000000
LCAOMinimize: Iter:   4  F: -3862.0923004994551775  |grad|_K:  2.638e-02  alpha:  8.070e-03  linmin: -3.211e-04  cgtest:  9.857e-01  t[s]:    230.11
LCAOMinimize: Encountered beta<0, resetting CG.
LCAOMinimize: 	Wrong curvature in test step, increasing alphaT to 2.420865e-02.
	FillingsUpdate:  mu: +1.047735212  nElectrons: 676.000000
LCAOMinimize: Iter:   5  F: -3868.5385079684697303  |grad|_K:  2.621e-02  alpha: -4.061e-02  linmin: -2.051e-02  cgtest:  9.142e-01  t[s]:    264.47
LCAOMinimize: 	Step increased F by 7.984703e+01, reducing alpha to 2.384363e-02.
	FillingsUpdate:  mu: +1.008428740  nElectrons: 676.000000
LCAOMinimize: Iter:   6  F: -3883.9064834873706786  |grad|_K:  2.006e-02  alpha:  2.384e-02  linmin: -2.237e-02  cgtest:  9.888e-01  t[s]:    326.44
LCAOMinimize: Encountered beta<0, resetting CG.
LCAOMinimize: 	Wrong curvature in test step, increasing alphaT to 7.153088e-02.
	FillingsUpdate:  mu: +0.989153111  nElectrons: 676.000000
LCAOMinimize: Iter:   7  F: -3895.6549087004873400  |grad|_K:  2.045e-02  alpha: -6.886e-02  linmin: -2.098e-02  cgtest:  7.477e-01  t[s]:    363.93
LCAOMinimize: 	Step increased F by 3.658178e+01, reducing alpha to 1.693664e-02.
	FillingsUpdate:  mu: +0.953533132  nElectrons: 676.000000
LCAOMinimize: Iter:   8  F: -3905.1674601679965235  |grad|_K:  1.579e-02  alpha:  1.694e-02  linmin: -2.066e-02  cgtest:  9.055e-01  t[s]:    425.58
LCAOMinimize: Encountered beta<0, resetting CG.
LCAOMinimize: 	Predicted alpha/alphaT>3.000000, increasing alphaT to 5.080992e-02.
LCAOMinimize: 	Predicted alpha/alphaT>3.000000, increasing alphaT to 1.524298e-01.
	FillingsUpdate:  mu: +0.891750552  nElectrons: 676.000000
LCAOMinimize: Iter:   9  F: -3923.2616533922036979  |grad|_K:  1.608e-02  alpha:  1.128e-01  linmin:  5.058e-03  cgtest: -3.123e-01  t[s]:    483.72
	FillingsUpdate:  mu: +0.878482993  nElectrons: 676.000000
LCAOMinimize: Iter:  10  F: -3925.3784884278193203  |grad|_K:  1.633e-02  alpha:  2.119e-02  linmin: -1.075e-03  cgtest:  9.670e-01  t[s]:    520.79
LCAOMinimize: 	Predicted alpha/alphaT>3.000000, increasing alphaT to 6.356549e-02.
	FillingsUpdate:  mu: +0.869120735  nElectrons: 676.000000
LCAOMinimize: Iter:  11  F: -3934.7542260862619514  |grad|_K:  1.748e-02  alpha:  8.231e-02  linmin:  6.297e-03  cgtest: -4.631e-01  t[s]:    567.51
	FillingsUpdate:  mu: +0.880240816  nElectrons: 676.000000
LCAOMinimize: Iter:  12  F: -3935.1418547653765927  |grad|_K:  2.132e-02  alpha:  1.919e-02  linmin:  1.497e-03  cgtest:  9.273e-01  t[s]:    603.45
LCAOMinimize: 	Predicted alpha/alphaT>3.000000, increasing alphaT to 5.757128e-02.
	FillingsUpdate:  mu: +0.829614267  nElectrons: 676.000000
LCAOMinimize: Iter:  13  F: -3947.4959271160382741  |grad|_K:  2.030e-02  alpha:  5.533e-02  linmin:  1.889e-03  cgtest: -2.529e-01  t[s]:    650.64
LCAOMinimize: 	Predicted alpha/alphaT>3.000000, increasing alphaT to 1.659810e-01.
LCAOMinimize: 	Wrong curvature in test step, increasing alphaT to 4.979430e-01.
	FillingsUpdate:  mu: +0.641648251  nElectrons: 676.000000
LCAOMinimize: Iter:  14  F: -4060.1581353363621929  |grad|_K:  1.505e-02  alpha: -8.297e-02  linmin:  2.749e-03  cgtest:  4.779e-02  t[s]:    697.34
LCAOMinimize: 	Step increased F by 9.823340e+01, reducing alpha to 4.979183e-03.
	FillingsUpdate:  mu: +0.644135008  nElectrons: 676.000000
LCAOMinimize: Iter:  15  F: -4061.0684771306414405  |grad|_K:  1.525e-02  alpha:  4.979e-03  linmin: -7.382e-03  cgtest:  9.168e-01  t[s]:    758.99
LCAOMinimize: 	Wrong curvature in test step, increasing alphaT to 1.493755e-02.
	FillingsUpdate:  mu: +0.638393804  nElectrons: 676.000000
LCAOMinimize: Iter:  16  F: -4062.4479981100585064  |grad|_K:  1.539e-02  alpha: -4.046e-02  linmin: -4.887e-02  cgtest:  8.954e-01  t[s]:    792.03
	FillingsUpdate:  mu: +0.553441320  nElectrons: 676.000000
LCAOMinimize: Iter:  17  F: -4064.7717048094518759  |grad|_K:  1.812e-02  alpha:  1.608e-01  linmin:  2.757e-02  cgtest: -6.946e-01  t[s]:    830.88
	FillingsUpdate:  mu: +0.547312768  nElectrons: 676.000000
LCAOMinimize: Iter:  18  F: -4064.9174096923647994  |grad|_K:  1.909e-02  alpha:  2.283e-03  linmin: -3.056e-03  cgtest:  9.420e-01  t[s]:    867.14
LCAOMinimize: 	Predicted alpha/alphaT>3.000000, increasing alphaT to 6.847599e-03.
LCAOMinimize: 	Wrong curvature in test step, increasing alphaT to 2.054280e-02.
	FillingsUpdate:  mu: +0.523845319  nElectrons: 676.000000
LCAOMinimize: Iter:  19  F: -4067.6234913374478310  |grad|_K:  1.880e-02  alpha: -1.415e-01  linmin: -8.627e-02  cgtest:  8.982e-01  t[s]:    912.08
LCAOMinimize: 	Step increased F by 2.526798e+01, reducing alpha to 1.955425e-02.
	FillingsUpdate:  mu: +0.445796511  nElectrons: 676.000000
LCAOMinimize: Iter:  20  F: -4077.5485425422302797  |grad|_K:  1.333e-02  alpha:  1.955e-02  linmin: -1.165e-01  cgtest:  5.385e-01  t[s]:    979.96
	FillingsUpdate:  mu: +0.446371780  nElectrons: 676.000000
LCAOMinimize: Iter:  21  F: -4080.0016734527703193  |grad|_K:  1.374e-02  alpha:  2.483e-02  linmin:  2.936e-02  cgtest: -1.007e-01  t[s]:   1025.81
	FillingsUpdate:  mu: +0.416666808  nElectrons: 676.000000
LCAOMinimize: Iter:  22  F: -4081.2348365939942596  |grad|_K:  1.900e-02  alpha:  2.213e-02  linmin:  5.412e-03  cgtest:  8.768e-01  t[s]:   1074.28
	FillingsUpdate:  mu: +0.416904393  nElectrons: 676.000000
LCAOMinimize: Iter:  23  F: -4084.6757903307934612  |grad|_K:  1.069e-02  alpha:  2.004e-02  linmin: -2.429e-03  cgtest:  5.433e-02  t[s]:   1108.76
	FillingsUpdate:  mu: +0.357337626  nElectrons: 676.000000
LCAOMinimize: Iter:  24  F: -4087.6371793042885656  |grad|_K:  1.301e-02  alpha:  5.455e-02  linmin:  1.066e-03  cgtest: -2.631e-01  t[s]:   1138.23
	FillingsUpdate:  mu: +0.298185478  nElectrons: 676.000000
LCAOMinimize: Iter:  25  F: -4091.5923020444352005  |grad|_K:  1.166e-02  alpha:  1.931e-02  linmin: -4.438e-02  cgtest:  8.242e-01  t[s]:   1168.94
	FillingsUpdate:  mu: +0.196392117  nElectrons: 676.000000
LCAOMinimize: Iter:  26  F: -4096.5574814235023950  |grad|_K:  6.518e-03  alpha:  5.294e-02  linmin: -8.134e-02  cgtest: -6.657e-02  t[s]:   1199.55
	FillingsUpdate:  mu: +0.052995216  nElectrons: 676.000000
LCAOMinimize: Iter:  27  F: -4098.7137770281624398  |grad|_K:  6.595e-03  alpha:  6.986e-02  linmin: -1.342e-02  cgtest:  2.842e-01  t[s]:   1228.01
	FillingsUpdate:  mu: +0.029515023  nElectrons: 676.000000
LCAOMinimize: Iter:  28  F: -4099.8007274898081960  |grad|_K:  4.875e-03  alpha:  3.212e-02  linmin: -3.774e-02  cgtest:  1.344e-01  t[s]:   1258.39
	FillingsUpdate:  mu: +0.043872026  nElectrons: 676.000000
LCAOMinimize: Iter:  29  F: -4100.1563951659336453  |grad|_K:  7.440e-03  alpha:  5.095e-02  linmin:  9.368e-02  cgtest: -6.445e-02  t[s]:   1286.76
LCAOMinimize: 	Bad step direction: g.d > 0.
LCAOMinimize: 	Undoing step.
LCAOMinimize: 	Step failed: resetting search direction.
	FillingsUpdate:  mu: +0.043872026  nElectrons: 676.000000
LCAOMinimize: Iter:  30  F: -4100.1563951659336453  |grad|_K:  7.440e-03  alpha:  0.000e+00
LCAOMinimize: None of the convergence criteria satisfied after 30 iterations.
----- createFluidSolver() ----- (Fluid-side solver setup)
   Initializing fluid molecule 'H2O'
     Initializing site 'O'
       Electron density: proportional to exp(-r/0.36935)*erfc((r-0.51523)/0.36823) with norm 6.826
       Charge density: gaussian nuclear width 0.478731 with net site charge 0.826
       Polarizability: cuspless exponential with width 0.32 and norm 3.73
       Hard sphere radius: 2.57003 bohrs
       Positions in reference frame:
         [ +0.000000 +0.000000 +0.000000 ]
     Initializing site 'H'
       Electron density: proportional to exp(-r/0.34641)*erfc((r-0)/0.390882) with norm 0.587
       Charge density: gaussian nuclear width 0.377945 with net site charge -0.413
       Polarizability: cuspless exponential with width 0.39 and norm 3.3
       Positions in reference frame:
         [ +0.000000 -1.441945 +1.122523 ]
         [ +0.000000 +1.441945 +1.122523 ]
     Net charge: 0   dipole magnitude: 0.927204
     Initializing spherical shell mfKernel with radius 2.61727 Bohr
     deltaS corrections:
       site 'O': -7.54299
       site 'H': -6.83917
   Initializing fluid molecule 'Na+'
     Initializing site 'Na'
       Electron density: proportional to exp(-r/0.19682)*erfc((r-0.71491)/0.41314) with norm 8.1383
       Charge density: gaussian nuclear width 0.365347 with net site charge -1
       Hard sphere radius: 1.86327 bohrs
       Positions in reference frame:
         [ +0.000000 +0.000000 +0.000000 ]
     Net charge: -1   dipole magnitude: 0
     Initializing gaussian mfKernel with width: 1.55004 Bohr
     deltaS corrections:
       site 'Na': -22.3555
   Initializing fluid molecule 'F-'
     Initializing site 'F'
       Electron density: proportional to exp(-r/0.38886)*erfc((r-0)/0.438782) with norm 8
       Charge density: gaussian nuclear width 0.374796 with net site charge 1
       Hard sphere radius: 2.39995 bohrs
       Positions in reference frame:
         [ +0.000000 +0.000000 +0.000000 ]
     Net charge: 1   dipole magnitude: 0
     Initializing gaussian mfKernel with width: 1.59012 Bohr
     deltaS corrections:
       site 'F': -9.04335

Correction to mu due to finite nuclear width = -0.00982427
   Cavity determined by nc: 0.00142 and sigma: 0.707107
   Nonlocal vdW cavity from gaussian model electron density with norm = 8 and sigma = 0.993594 bohr
   Charge asymmetry in cavity with sensitivity pCavity = 36.5 e-bohr/Eh
   Electrostatic cavity expanded by eta = 1.46 bohrs
   Weighted density cavitation model constrained by Nbulk: 0.0049383 bohr^-3, Pvap: 3.14029 kPa, Rvdw: 2.61727 bohr and sigmaBulk: 4.62e-05 Eh/bohr^2 at T: 298 K.
   Weighted density dispersion model using vdW pair potentials with single solvent site with sqrtC6eff: 0.77 SI.


---- Citations for features of the code used in this run ----

   Software package:
      R. Sundararaman, K. Letchworth-Weaver, K.A. Schwarz, D. Gunceler, Y. Ozhabes and T.A. Arias, 'JDFTx: software for joint density-functional theory', SoftwareX 6, 278 (2017)

   gga-PBE exchange-correlation functional:
      J.P. Perdew, K. Burke and M. Ernzerhof, Phys. Rev. Lett. 77, 3865 (1996)

   Pseudopotentials:
      KF Garrity, JW Bennett, KM Rabe and D Vanderbilt, Comput. Mater. Sci. 81, 446 (2014)

   Truncated Coulomb potentials:
      R. Sundararaman and T.A. Arias, Phys. Rev. B 87, 165122 (2013)

   Van der Waals correction pair-potentials:
      S. Grimme, J. Comput. Chem. 27, 1787 (2006)

   Charge-asymmetric nonlocally-determined local-electric (CANDLE) solvation model:
      R. Sundararaman and W.A. Goddard III, J. Chem. Phys. 142, 064107 (2015)

   Total energy minimization with Auxiliary Hamiltonian:
      C. Freysoldt, S. Boeck, and J. Neugebauer, Phys. Rev. B 79, 241103(R) (2009)

This list may not be complete. Please suggest additional citations or
report any other bugs at https://github.com/shankar1729/jdftx/issues

Initialization completed successfully at t[s]:   1315.70

Fluid solver invoked on fresh (partially random / LCAO) wavefunctions
Running a vacuum solve first:

-------- Initial electronic minimization -----------
	FillingsUpdate:  mu: +0.044096440  nElectrons: 676.000000
ElecMinimize: Iter:   0  F: -4100.156395165938193  |grad|_K:  3.983e-04  alpha:  1.000e+00
ElecMinimize: 	Step increased F by 2.634468e+00, reducing alpha to 1.253294e-02.
	FillingsUpdate:  mu: +0.004484933  nElectrons: 676.000000
	SubspaceRotationAdjust: set factor to 1.61
ElecMinimize: Iter:   1  F: -4101.245360197210175  |grad|_K:  2.766e-04  alpha:  1.253e-02  linmin: -1.192e-04  t[s]:   1417.74
	FillingsUpdate:  mu: -0.016990293  nElectrons: 676.000000
	SubspaceRotationAdjust: set factor to 1.09
ElecMinimize: Iter:   2  F: -4102.539106502815230  |grad|_K:  3.117e-04  alpha:  2.985e-02  linmin: -1.188e-05  t[s]:   1464.19
	FillingsUpdate:  mu: -0.060352920  nElectrons: 676.000000
	SubspaceRotationAdjust: set factor to 0.754
ElecMinimize: Iter:   3  F: -4103.672373698564115  |grad|_K:  2.808e-04  alpha:  3.133e-02  linmin: -5.482e-07  t[s]:   1511.37
	FillingsUpdate:  mu: -0.134935970  nElectrons: 676.000000
	SubspaceRotationAdjust: set factor to 1.04
ElecMinimize: Iter:   4  F: -4104.473244680858443  |grad|_K:  2.169e-04  alpha:  3.017e-02  linmin:  1.222e-07  t[s]:   1555.98
	FillingsUpdate:  mu: -0.104131423  nElectrons: 676.000000
	SubspaceRotationAdjust: set factor to 0.932
ElecMinimize: Iter:   5  F: -4105.090741321339010  |grad|_K:  2.336e-04  alpha:  3.932e-02  linmin: -6.581e-07  t[s]:   1603.32
	FillingsUpdate:  mu: -0.023319588  nElectrons: 676.000000
	SubspaceRotationAdjust: set factor to 0.591
ElecMinimize: Iter:   6  F: -4105.844683895822527  |grad|_K:  1.906e-04  alpha:  4.052e-02  linmin:  1.414e-06  t[s]:   1652.89
	FillingsUpdate:  mu: -0.037735718  nElectrons: 676.000000
	SubspaceRotationAdjust: set factor to 0.507
ElecMinimize: Iter:   7  F: -4106.197434909273397  |grad|_K:  1.173e-04  alpha:  3.063e-02  linmin: -3.841e-07  t[s]:   1699.95
	FillingsUpdate:  mu: -0.049434682  nElectrons: 676.000000
	SubspaceRotationAdjust: set factor to 0.423
ElecMinimize: Iter:   8  F: -4106.482796692544980  |grad|_K:  1.054e-04  alpha:  5.818e-02  linmin: -5.506e-06  t[s]:   1745.85
	FillingsUpdate:  mu: -0.070762248  nElectrons: 676.000000
	SubspaceRotationAdjust: set factor to 0.422
ElecMinimize: Iter:   9  F: -4106.912963866613609  |grad|_K:  9.579e-05  alpha:  1.021e-01  linmin: -7.892e-07  t[s]:   1793.65
	FillingsUpdate:  mu: -0.126185855  nElectrons: 676.000000
	SubspaceRotationAdjust: set factor to 0.55
ElecMinimize: Iter:  10  F: -4107.197558535681310  |grad|_K:  7.070e-05  alpha:  9.064e-02  linmin:  4.717e-07  t[s]:   1839.41
	FillingsUpdate:  mu: -0.128642171  nElectrons: 676.000000
	SubspaceRotationAdjust: set factor to 0.588
ElecMinimize: Iter:  11  F: -4107.315985836694381  |grad|_K:  5.618e-05  alpha:  7.206e-02  linmin: -9.453e-09  t[s]:   1884.56
	FillingsUpdate:  mu: -0.128724103  nElectrons: 676.000000
	SubspaceRotationAdjust: set factor to 0.722
ElecMinimize: Iter:  12  F: -4107.401576574052342  |grad|_K:  4.645e-05  alpha:  8.171e-02  linmin:  8.565e-07  t[s]:   1931.50
	FillingsUpdate:  mu: -0.132740220  nElectrons: 676.000000
	SubspaceRotationAdjust: set factor to 0.7
ElecMinimize: Iter:  13  F: -4107.454719696534085  |grad|_K:  4.625e-05  alpha:  7.467e-02  linmin:  2.009e-06  t[s]:   1977.91
	FillingsUpdate:  mu: -0.133703865  nElectrons: 676.000000
	SubspaceRotationAdjust: set factor to 0.681
ElecMinimize: Iter:  14  F: -4107.498888192460072  |grad|_K:  4.522e-05  alpha:  6.456e-02  linmin:  3.177e-07  t[s]:   2022.68
	FillingsUpdate:  mu: -0.140619983  nElectrons: 676.000000
	SubspaceRotationAdjust: set factor to 0.893
ElecMinimize: Iter:  15  F: -4107.539443539310923  |grad|_K:  3.907e-05  alpha:  5.992e-02  linmin: -4.017e-07  t[s]:   2069.94
	FillingsUpdate:  mu: -0.141420928  nElectrons: 676.000000
	SubspaceRotationAdjust: set factor to 0.807
ElecMinimize: Iter:  16  F: -4107.572155454568019  |grad|_K:  3.686e-05  alpha:  6.388e-02  linmin: -2.686e-06  t[s]:   2148.04

*************** JDFTx 1.5.0  ***************

Start date and time: Sat Jul 18 14:39:37 2020
Executable jdftx_gpu with command-line: -i Neutral.in -o Neutral.out
Running on hosts (process indices):  amax (0-5)
Divided in process groups (process indices):  0 (0)  1 (1)  2 (2)  3 (3)  4 (4)  5 (5)
gpuInit: Found compatible cuda device 0 'Tesla K80'
gpuInit: Found compatible cuda device 1 'Tesla K80'
gpuInit: Found compatible cuda device 2 'Tesla K80'
gpuInit: Found compatible cuda device 3 'Tesla K80'
gpuInit: Found compatible cuda device 4 'Tesla K80'
gpuInit: Found compatible cuda device 5 'Tesla K80'
gpuInit: Selected device 0
Resource initialization completed at t[s]:      2.99
Run totals: 6 processes, 24 threads, 6 GPUs


Input parsed successfully to the following command list (including defaults):

basis kpoint-dependent
cache-projectors no
coords-type Lattice
core-overlap-check none
coulomb-interaction Slab 001
coulomb-truncation-embed 0 0 0.5
davidson-band-ratio 1.1
dump End State
dump-name NbTe2.$VAR
elec-cutoff 20 100
elec-eigen-algo Davidson
elec-ex-corr gga-PBE
elec-smearing Gauss 0.0073499
electronic-minimize  \
	dirUpdateScheme      FletcherReeves \
	linminMethod         DirUpdateRecommended \
	nIterations          500 \
	history              15 \
	knormThreshold       0 \
	energyDiffThreshold  1e-08 \
	nEnergyDiff          2 \
	alphaTstart          1 \
	alphaTmin            1e-10 \
	updateTestStepSize   yes \
	alphaTreduceFactor   0.1 \
	alphaTincreaseFactor 3 \
	nAlphaAdjustMax      3 \
	wolfeEnergy          0.0001 \
	wolfeGradient        0.9 \
	fdTest               no
exchange-regularization WignerSeitzTruncated
fluid LinearPCM 298.000000 1.013250
fluid-anion F- 1 MeanFieldLJ \
	epsBulk 1 \
	pMol 0 \
	epsInf 1 \
	Pvap 0 \
	sigmaBulk 0 \
	Rvdw 2.24877 \
	Res 0 \
	tauNuc 343133
fluid-cation Na+ 1 MeanFieldLJ \
	epsBulk 1 \
	pMol 0 \
	epsInf 1 \
	Pvap 0 \
	sigmaBulk 0 \
	Rvdw 2.19208 \
	Res 0 \
	tauNuc 343133
fluid-ex-corr lda-TF lda-PZ
fluid-gummel-loop 10 1.000000e-05
fluid-minimize  \
	dirUpdateScheme      PolakRibiere \
	linminMethod         DirUpdateRecommended \
	nIterations          400 \
	history              15 \
	knormThreshold       1e-11 \
	energyDiffThreshold  0 \
	nEnergyDiff          2 \
	alphaTstart          1 \
	alphaTmin            1e-10 \
	updateTestStepSize   yes \
	alphaTreduceFactor   0.1 \
	alphaTincreaseFactor 3 \
	nAlphaAdjustMax      6 \
	wolfeEnergy          0.0001 \
	wolfeGradient        0.9 \
	fdTest               no
fluid-solvent H2O 55.338 ScalarEOS \
	epsBulk 78.4 \
	pMol 0.92466 \
	epsInf 1.77 \
	Pvap 1.06736e-10 \
	sigmaBulk 4.62e-05 \
	Rvdw 2.61727 \
	Res 1.42 \
	tauNuc 343133 \
	poleEl 15 7 1
forces-output-coords Positions
initial-state NbTe2.$VAR
ion Cu   0.086434804815263   0.497306895845213   0.525699653128359 0
ion Cu   0.153559524409948   0.246847816654632   0.475901102810285 0
ion Cu   0.403567545803278   0.003237207496172   0.476634131278393 0
ion Cu   0.845292225726646   0.255775414995920   0.522999630765256 0
ion Cu   0.593539589611862   0.499924235977698   0.526107997121730 0
ion Cu   0.652575746628760   0.245977330593668   0.473804356318084 0
ion Cu   0.906650053084843   0.002236094869029   0.474530995933220 0
ion Cu   0.341145895519570   0.745000692426276   0.520457551805204 0
ion Cu   0.097451742753224   0.992438154776893   0.527169690804186 0
ion Cu   0.163535987150255   0.740666824596252   0.470443777632453 0
ion Cu   0.401772063461896   0.517821271743831   0.469469319085850 0
ion Cu   0.848024383526779   0.751382484479867   0.529645022889727 0
ion Cu   0.595623926136047   0.993575969396465   0.527223907214513 0
ion Cu   0.656033077290307   0.743973309462323   0.480948793034387 0
ion Cu   0.902503656869880   0.506857145658757   0.468657800037512 0
ion Cu   0.276586742940359   0.104527537417054   0.575963252364881 0
ion Te   0.222066557708107   0.400943079301321   0.427833077354028 0
ion Te   0.471875957453601   0.358167720616340   0.428585032894480 0
ion Te   0.026441984904488   0.145529528615787   0.573752635180670 0
ion Te   0.777211509285674   0.103239887945208   0.572844247432706 0
ion Te   0.720305593903122   0.398585229967445   0.424474638705526 0
ion Te   0.972951437042456   0.354014611280518   0.422373569649646 0
ion Te   0.526131999239253   0.146725732790737   0.574372212592797 0
ion Te   0.224344549038565   0.895629657650912   0.425135513588213 0
ion Te   0.473962376761844   0.850163891634990   0.426861301733683 0
ion Te   0.039828445267625   0.643297608751366   0.577365863279210 0
ion Te   0.780070887827234   0.600653189152553   0.575321615900444 0
ion Te   0.725473660380819   0.894214854405044   0.427496860242206 0
ion Te   0.976116444872739   0.848503862885830   0.427834720135086 0
ion Te   0.517870028881527   0.649964929169406   0.581174727449026 0
ion Te   0.305144356006940   0.065591890727344   0.482171553223211 0
ion O   0.257691780514170   0.306704794464425   0.463762082282229 0
ion O   0.399842280127549   0.175803307601395   0.576523078680461 0
ion O   0.489494770848640   0.051336933762331   0.543193867745536 0
ion O   0.347393552212199   0.429068177526591   0.432423573179196 0
ion O   0.150775691247614   0.074020369609754   0.576790968078738 0
ion O   0.445626795408478   0.318416036635532   0.522538258304335 0
ion O   0.189094270452918   0.441333144106701   0.519761558896236 0
ion O   0.009418952439523   0.450087142808993   0.452028872362929 0
ion O   0.239319680401905   0.199175892562473   0.543281171253214 0
ion O   0.056112620192960   0.183120557760960   0.479755185761652 0
ion O   0.098841240899897   0.325651819807607   0.422648474661945 0
ion O   0.807104225477228   0.063996449156622   0.479483827928601 0
ion O   0.757810420155039   0.303895003727681   0.457724487861706 0
ion O   0.900070121347812   0.174872230158281   0.573550362112908 0
ion O   0.990948769226090   0.050138952220488   0.541709537397508 0
ion O   0.847442617501800   0.426019643545899   0.421045761568506 0
ion O   0.650634242329181   0.074851905894237   0.574846189982884 0
ion O   0.944326664902376   0.317465175816979   0.517053111647085 0
ion O   0.692200389405476   0.436863726136952   0.518552417825961 0
ion O   0.510013530887535   0.452756983208114   0.457705512263902 0
ion O   0.740081276730562   0.197516806487085   0.538737817355774 0
ion O   0.553819746910080   0.183906981707235   0.479762396607318 0
ion O   0.597680368492623   0.326596597831731   0.424007179730193 0
ion O   0.321597715476944   0.581436821530590   0.444650756317528 0
ion O   0.264669796882028   0.798002134767389   0.450886282259680 0
ion O   0.400151129627000   0.685608064844796   0.586900646300124 0
ion O   0.487164995190311   0.555949577671177   0.542039134604833 0
ion O   0.349169333339230   0.924851974875851   0.422238059714652 0
ion O   0.130152231223005   0.568197280283608   0.587117928673106 0
ion O   0.436808902382750   0.811778446554517   0.518543482723764 0
ion O   0.196741987389300   0.930143928686562   0.520781329855931 0
ion O   0.012767205679089   0.943805961349050   0.459261793926712 0
ion O   0.243242928426412   0.687333141219800   0.522020083648195 0
ion O   0.067208634588997   0.679958918452902   0.480525288777602 0
ion O   0.102427991771660   0.819757189727431   0.425120374437585 0
ion O   0.803299450238403   0.566760757794276   0.477729994208912 0
ion O   0.762258592681382   0.800284866902975   0.461746256290931 0
ion O   0.901684503076456   0.670896469191834   0.575875404462176 0
ion O   0.984591728214822   0.554250982580537   0.535025254172047 0
ion O   0.851787304929362   0.922192903777165   0.424842114116256 0
ion O   0.652899698044621   0.574119001371342   0.579411430551854 0
ion O   0.947961599108463   0.811954942789384   0.522525610851245 0
ion O   0.696186393986124   0.933335221785076   0.521004173677378 0
ion O   0.508013868417743   0.944113566336342   0.464089607215044 0
ion O   0.742401809063600   0.697000707547315   0.546589120104142 0
ion O   0.554559151544466   0.686998336256938   0.488147183742053 0
ion O   0.600347796965375   0.822675889616323   0.428387234089922 0
ion-species GBRV/$ID_pbe.uspp
ion-width Ecut
ionic-minimize  \
	dirUpdateScheme      L-BFGS \
	linminMethod         DirUpdateRecommended \
	nIterations          0 \
	history              15 \
	knormThreshold       0.0001 \
	energyDiffThreshold  1e-06 \
	nEnergyDiff          2 \
	alphaTstart          1 \
	alphaTmin            1e-10 \
	updateTestStepSize   yes \
	alphaTreduceFactor   0.1 \
	alphaTincreaseFactor 3 \
	nAlphaAdjustMax      3 \
	wolfeEnergy          0.0001 \
	wolfeGradient        0.9 \
	fdTest               no
kpoint   0.000000000000   0.000000000000   0.000000000000  1.00000000000000
kpoint-folding 3 3 1 
latt-move-scale 1 1 1
latt-scale 1 1 1 
lattice Triclinic 28.6071 35.3613 33.7454 90 90 90
lattice-minimize  \
	dirUpdateScheme      L-BFGS \
	linminMethod         DirUpdateRecommended \
	nIterations          0 \
	history              15 \
	knormThreshold       0 \
	energyDiffThreshold  1e-06 \
	nEnergyDiff          2 \
	alphaTstart          1 \
	alphaTmin            1e-10 \
	updateTestStepSize   yes \
	alphaTreduceFactor   0.1 \
	alphaTincreaseFactor 3 \
	nAlphaAdjustMax      3 \
	wolfeEnergy          0.0001 \
	wolfeGradient        0.9 \
	fdTest               no
lcao-params -1 1e-06 0.0073499
pcm-variant CANDLE
spintype no-spin
subspace-rotation-factor 1 yes
symmetries automatic
symmetry-threshold 0.0001



---------- Setting up symmetries ----------

Found 8 point-group symmetries of the bravais lattice
Found 1 space-group symmetries with basis
Applied RMS atom displacement 0 bohrs to make symmetries exact.

---------- Initializing the Grid ----------
R = 
[    28.6071          0          0  ]
[          0    35.3613          0  ]
[          0          0    33.7454  ]
unit cell volume = 34136.3
G =
[   0.219638          0          0  ]
[          0   0.177685          0  ]
[          0          0   0.186194  ]
Minimum fftbox size, Smin = [  132  160  152  ]
Chosen fftbox size, S = [  140  160  160  ]

---------- Initializing tighter grid for wavefunction operations ----------
R = 
[    28.6071          0          0  ]
[          0    35.3613          0  ]
[          0          0    33.7454  ]
unit cell volume = 34136.3
G =
[   0.219638          0          0  ]
[          0   0.177685          0  ]
[          0          0   0.186194  ]
Minimum fftbox size, Smin = [  116  144  136  ]
Chosen fftbox size, S = [  120  144  140  ]

---------- Exchange Correlation functional ----------
Initalized PBE GGA exchange.
Initalized PBE GGA correlation.

---------- Setting up pseudopotentials ----------
Width of ionic core gaussian charges (only for fluid interactions / plotting) set to 0.397384

Reading pseudopotential file '/home/guoxy/vasp/jdftx-1.5.0/build/pseudopotentials/GBRV/cu_pbe.uspp':
  Title: Cu.  Created by USPP 7.3.6 on 3-2-2014
  Reference state energy: -201.059491.  19 valence electrons in orbitals:
    |300>  occupation: 2  eigenvalue: -5.020764
    |310>  occupation: 6  eigenvalue: -3.445588
    |320>  occupation: 8  eigenvalue: -0.925168
    |400>  occupation: 2  eigenvalue: -0.567638
    |410>  occupation: 0  eigenvalue: -0.326154
  lMax: 2  lLocal: 3  QijEcut: 6
  6 projectors sampled on a log grid with 613 points:
    l: 0  eig: -5.020767  rCut: 1.4
    l: 0  eig: -0.567640  rCut: 1.4
    l: 1  eig: -3.445589  rCut: 1.55
    l: 1  eig: -0.326157  rCut: 1.55
    l: 2  eig: -0.925170  rCut: 1.5
    l: 2  eig: 1.500000  rCut: 1.5
  Partial core density with radius 0.8
  Transforming core density to a uniform radial grid of dG=0.02 with 1290 points.
  Transforming local potential to a uniform radial grid of dG=0.02 with 1290 points.
  Transforming nonlocal projectors to a uniform radial grid of dG=0.02 with 432 points.
  Transforming density augmentations to a uniform radial grid of dG=0.02 with 1290 points.
  Transforming atomic orbitals to a uniform radial grid of dG=0.02 with 432 points.
  Core radius for overlap checks: 1.55 bohrs.

Reading pseudopotential file '/home/guoxy/vasp/jdftx-1.5.0/build/pseudopotentials/GBRV/te_pbe.uspp':
  Title: Te.  Created by USPP 7.3.6 on 14-9-2013
  Reference state energy: -13.134220.  6 valence electrons in orbitals:
    |500>  occupation: 2  eigenvalue: -0.555231
    |510>  occupation: 4  eigenvalue: -0.218781
  lMax: 2  lLocal: 2  QijEcut: 5
  5 projectors sampled on a log grid with 723 points:
    l: 0  eig: -0.555229  rCut: 2.1
    l: 0  eig: 1.000000  rCut: 2.1
    l: 1  eig: -0.218780  rCut: 2.1
    l: 1  eig: 1.000000  rCut: 2.1
    l: 2  eig: 1.000000  rCut: 2.6
  Partial core density with radius 1.8
  Transforming core density to a uniform radial grid of dG=0.02 with 1290 points.
  Transforming local potential to a uniform radial grid of dG=0.02 with 1290 points.
  Transforming nonlocal projectors to a uniform radial grid of dG=0.02 with 432 points.
  Transforming density augmentations to a uniform radial grid of dG=0.02 with 1290 points.
  Transforming atomic orbitals to a uniform radial grid of dG=0.02 with 432 points.
  Core radius for overlap checks: 2.60 bohrs.

Reading pseudopotential file '/home/guoxy/vasp/jdftx-1.5.0/build/pseudopotentials/GBRV/o_pbe.uspp':
  Title: O.  Created by USPP 7.3.6 on 3-2-2014
  Reference state energy: -15.894388.  6 valence electrons in orbitals:
    |200>  occupation: 2  eigenvalue: -0.878823
    |210>  occupation: 4  eigenvalue: -0.332131
  lMax: 2  lLocal: 2  QijEcut: 6
  5 projectors sampled on a log grid with 511 points:
    l: 0  eig: -0.878823  rCut: 1.25
    l: 0  eig: 0.000000  rCut: 1.25
    l: 1  eig: -0.332132  rCut: 1.25
    l: 1  eig: 0.000000  rCut: 1.25
    l: 2  eig: 1.000000  rCut: 1.25
  Partial core density with radius 0.7
  Transforming core density to a uniform radial grid of dG=0.02 with 1290 points.
  Transforming local potential to a uniform radial grid of dG=0.02 with 1290 points.
  Transforming nonlocal projectors to a uniform radial grid of dG=0.02 with 432 points.
  Transforming density augmentations to a uniform radial grid of dG=0.02 with 1290 points.
  Transforming atomic orbitals to a uniform radial grid of dG=0.02 with 432 points.
  Core radius for overlap checks: 1.25 bohrs.

Initialized 3 species with 78 total atoms.

Folded 1 k-points by 3x3x1 to 9 k-points.

---------- Setting up k-points, bands, fillings ----------
Adding inversion symmetry to k-mesh for non-inversion-symmetric unit cell.
Reduced to 5 k-points under symmetry. 
Computing the number of bands and number of electrons
Calculating initial fillings.
nElectrons: 676.000000   nBands: 456   nStates: 5

----- Setting up reduced wavefunction bases (one per k-point) -----
average nbasis = 145806.556 , ideal nbasis = 145832.736

---------- Setting up coulomb interaction ----------
Fluid mode embedding: using embedded box, but periodic Coulomb kernel.
(Fluid response is responsible for (approximate) separation between periodic images.)
Setting up double-sized grid for truncated Coulomb potentials:
R = 
[    28.6071          0          0  ]
[          0    35.3613          0  ]
[          0          0    67.4908  ]
unit cell volume = 68272.5
G =
[   0.219638          0          0  ]
[          0   0.177685          0  ]
[          0          0  0.0930969  ]
Chosen fftbox size, S = [  140  160  320  ]
Integer grid location selected as the embedding center:
   Grid: [  0  0  80  ]
   Lattice: [  0  0  0.5  ]
   Cartesian: [  0  0  16.8727  ]
Constructing Wigner-Seitz cell: 6 faces (6 quadrilaterals, 0 hexagons)
Range-separation parameter for embedded mesh potentials due to point charges: 0.593081 bohrs.

Initializing van der Waals corrections
	NOTE: vdW corrections apply only for interactions with fluid.
	Cu:  C6:  187.33 Eh-a0^6  R0: 2.952 a0
	Te:  C6:  550.54 Eh-a0^6  R0: 3.575 a0
	 O:  C6:   12.14 Eh-a0^6  R0: 2.536 a0

---------- Setting up ewald sum ----------
Optimum gaussian width for ewald sums = 7.888171 bohr.
Real space sum over 567 unit cells with max indices [  4  4  3  ]
Reciprocal space sum over 7395 terms with max indices [  7  8  14  ]

---------- Allocating electronic variables ----------
Initializing wave functions:  linear combination of atomic orbitals
Cu pseudo-atom occupations:   s ( 2 1 )  p ( 6 0 )  d ( 10 )
Te pseudo-atom occupations:   s ( 2 )  p ( 4 )
O pseudo-atom occupations:   s ( 2 )  p ( 4 )
	FillingsUpdate:  mu: +0.114478195  nElectrons: 676.000000
LCAOMinimize: Iter:   0  F: -3591.2440069494946329  |grad|_K:  2.142e-02  alpha:  1.000e+00
	FillingsUpdate:  mu: +2.338026467  nElectrons: 676.000000
LCAOMinimize: Iter:   1  F: -3741.5703360657475969  |grad|_K:  5.151e-02  alpha:  5.907e-01  linmin:  1.106e-02  cgtest: -5.241e-01  t[s]:     94.04
	FillingsUpdate:  mu: +1.774109128  nElectrons: 676.000000
LCAOMinimize: Iter:   2  F: -3762.4072617988986167  |grad|_K:  1.638e-02  alpha:  2.966e-01  linmin:  2.216e-03  cgtest: -4.807e-01  t[s]:    122.17
LCAOMinimize: 	Wrong curvature in test step, increasing alphaT to 8.897229e-01.
	FillingsUpdate:  mu: +1.156860144  nElectrons: 676.000000
LCAOMinimize: Iter:   3  F: -3860.6250023641773623  |grad|_K:  2.723e-02  alpha: -5.202e-01  linmin:  4.502e-03  cgtest: -3.410e-01  t[s]:    150.92
LCAOMinimize: 	Step increased F by 8.676620e+01, reducing alpha to 8.069550e-03.
	FillingsUpdate:  mu: +1.112490217  nElectrons: 676.000000
LCAOMinimize: Iter:   4  F: -3862.0923004994551775  |grad|_K:  2.638e-02  alpha:  8.070e-03  linmin: -3.211e-04  cgtest:  9.857e-01  t[s]:    201.65
LCAOMinimize: Encountered beta<0, resetting CG.
LCAOMinimize: 	Wrong curvature in test step, increasing alphaT to 2.420865e-02.
	FillingsUpdate:  mu: +1.047735212  nElectrons: 676.000000
LCAOMinimize: Iter:   5  F: -3868.5385079684697303  |grad|_K:  2.621e-02  alpha: -4.061e-02  linmin: -2.051e-02  cgtest:  9.142e-01  t[s]:    231.20
LCAOMinimize: 	Step increased F by 7.984703e+01, reducing alpha to 2.384363e-02.
	FillingsUpdate:  mu: +1.008428740  nElectrons: 676.000000
LCAOMinimize: Iter:   6  F: -3883.9064834873706786  |grad|_K:  2.006e-02  alpha:  2.384e-02  linmin: -2.237e-02  cgtest:  9.888e-01  t[s]:    282.24
LCAOMinimize: Encountered beta<0, resetting CG.
LCAOMinimize: 	Wrong curvature in test step, increasing alphaT to 7.153088e-02.
	FillingsUpdate:  mu: +0.989153111  nElectrons: 676.000000
LCAOMinimize: Iter:   7  F: -3895.6549087004873400  |grad|_K:  2.045e-02  alpha: -6.886e-02  linmin: -2.098e-02  cgtest:  7.477e-01  t[s]:    311.17
LCAOMinimize: 	Step increased F by 3.658178e+01, reducing alpha to 1.693664e-02.
	FillingsUpdate:  mu: +0.953533132  nElectrons: 676.000000
LCAOMinimize: Iter:   8  F: -3905.1674601679965235  |grad|_K:  1.579e-02  alpha:  1.694e-02  linmin: -2.066e-02  cgtest:  9.055e-01  t[s]:    362.85
LCAOMinimize: Encountered beta<0, resetting CG.
LCAOMinimize: 	Predicted alpha/alphaT>3.000000, increasing alphaT to 5.080992e-02.
LCAOMinimize: 	Predicted alpha/alphaT>3.000000, increasing alphaT to 1.524298e-01.
	FillingsUpdate:  mu: +0.891750552  nElectrons: 676.000000
LCAOMinimize: Iter:   9  F: -3923.2616533922036979  |grad|_K:  1.608e-02  alpha:  1.128e-01  linmin:  5.058e-03  cgtest: -3.123e-01  t[s]:    410.11
	FillingsUpdate:  mu: +0.878482993  nElectrons: 676.000000
LCAOMinimize: Iter:  10  F: -3925.3784884278193203  |grad|_K:  1.633e-02  alpha:  2.119e-02  linmin: -1.075e-03  cgtest:  9.670e-01  t[s]:    440.79
LCAOMinimize: 	Predicted alpha/alphaT>3.000000, increasing alphaT to 6.356549e-02.
	FillingsUpdate:  mu: +0.869120735  nElectrons: 676.000000
LCAOMinimize: Iter:  11  F: -3934.7542260862619514  |grad|_K:  1.748e-02  alpha:  8.231e-02  linmin:  6.297e-03  cgtest: -4.631e-01  t[s]:    480.04
	FillingsUpdate:  mu: +0.880240816  nElectrons: 676.000000
LCAOMinimize: Iter:  12  F: -3935.1418547653765927  |grad|_K:  2.132e-02  alpha:  1.919e-02  linmin:  1.497e-03  cgtest:  9.273e-01  t[s]:    510.10
LCAOMinimize: 	Predicted alpha/alphaT>3.000000, increasing alphaT to 5.757128e-02.
	FillingsUpdate:  mu: +0.829614267  nElectrons: 676.000000
LCAOMinimize: Iter:  13  F: -3947.4959271160382741  |grad|_K:  2.030e-02  alpha:  5.533e-02  linmin:  1.889e-03  cgtest: -2.529e-01  t[s]:    549.13
LCAOMinimize: 	Predicted alpha/alphaT>3.000000, increasing alphaT to 1.659810e-01.
LCAOMinimize: 	Wrong curvature in test step, increasing alphaT to 4.979430e-01.
	FillingsUpdate:  mu: +0.641648251  nElectrons: 676.000000
LCAOMinimize: Iter:  14  F: -4060.1581353363621929  |grad|_K:  1.505e-02  alpha: -8.297e-02  linmin:  2.749e-03  cgtest:  4.779e-02  t[s]:    588.97
LCAOMinimize: 	Step increased F by 9.823340e+01, reducing alpha to 4.979183e-03.
	FillingsUpdate:  mu: +0.644135008  nElectrons: 676.000000
LCAOMinimize: Iter:  15  F: -4061.0684771306414405  |grad|_K:  1.525e-02  alpha:  4.979e-03  linmin: -7.382e-03  cgtest:  9.168e-01  t[s]:    641.28
LCAOMinimize: 	Wrong curvature in test step, increasing alphaT to 1.493755e-02.
	FillingsUpdate:  mu: +0.638393804  nElectrons: 676.000000
LCAOMinimize: Iter:  16  F: -4062.4479981100585064  |grad|_K:  1.539e-02  alpha: -4.046e-02  linmin: -4.887e-02  cgtest:  8.954e-01  t[s]:    668.99
	FillingsUpdate:  mu: +0.553441320  nElectrons: 676.000000
LCAOMinimize: Iter:  17  F: -4064.7717048094518759  |grad|_K:  1.812e-02  alpha:  1.608e-01  linmin:  2.757e-02  cgtest: -6.946e-01  t[s]:    699.20
	FillingsUpdate:  mu: +0.547312768  nElectrons: 676.000000
LCAOMinimize: Iter:  18  F: -4064.9174096923647994  |grad|_K:  1.909e-02  alpha:  2.283e-03  linmin: -3.056e-03  cgtest:  9.420e-01  t[s]:    730.94
LCAOMinimize: 	Predicted alpha/alphaT>3.000000, increasing alphaT to 6.847599e-03.
LCAOMinimize: 	Wrong curvature in test step, increasing alphaT to 2.054280e-02.
	FillingsUpdate:  mu: +0.523845319  nElectrons: 676.000000
LCAOMinimize: Iter:  19  F: -4067.6234913374478310  |grad|_K:  1.880e-02  alpha: -1.415e-01  linmin: -8.627e-02  cgtest:  8.982e-01  t[s]:    770.61
LCAOMinimize: 	Step increased F by 2.526798e+01, reducing alpha to 1.955425e-02.
	FillingsUpdate:  mu: +0.445796511  nElectrons: 676.000000
LCAOMinimize: Iter:  20  F: -4077.5485425422302797  |grad|_K:  1.333e-02  alpha:  1.955e-02  linmin: -1.165e-01  cgtest:  5.385e-01  t[s]:    824.65
	FillingsUpdate:  mu: +0.446371780  nElectrons: 676.000000
LCAOMinimize: Iter:  21  F: -4080.0016734527703193  |grad|_K:  1.374e-02  alpha:  2.483e-02  linmin:  2.936e-02  cgtest: -1.007e-01  t[s]:    857.25
	FillingsUpdate:  mu: +0.416666808  nElectrons: 676.000000
LCAOMinimize: Iter:  22  F: -4081.2348365939942596  |grad|_K:  1.900e-02  alpha:  2.213e-02  linmin:  5.412e-03  cgtest:  8.768e-01  t[s]:    889.15
	FillingsUpdate:  mu: +0.416904393  nElectrons: 676.000000
LCAOMinimize: Iter:  23  F: -4084.6757903307934612  |grad|_K:  1.069e-02  alpha:  2.004e-02  linmin: -2.429e-03  cgtest:  5.433e-02  t[s]:    922.93
	FillingsUpdate:  mu: +0.357337626  nElectrons: 676.000000
LCAOMinimize: Iter:  24  F: -4087.6371793042885656  |grad|_K:  1.301e-02  alpha:  5.455e-02  linmin:  1.066e-03  cgtest: -2.631e-01  t[s]:    955.57
	FillingsUpdate:  mu: +0.298185478  nElectrons: 676.000000
LCAOMinimize: Iter:  25  F: -4091.5923020444352005  |grad|_K:  1.166e-02  alpha:  1.931e-02  linmin: -4.438e-02  cgtest:  8.242e-01  t[s]:    986.67
	FillingsUpdate:  mu: +0.196392117  nElectrons: 676.000000
LCAOMinimize: Iter:  26  F: -4096.5574814235023950  |grad|_K:  6.518e-03  alpha:  5.294e-02  linmin: -8.134e-02  cgtest: -6.657e-02  t[s]:   1019.39
	FillingsUpdate:  mu: +0.052995216  nElectrons: 676.000000
LCAOMinimize: Iter:  27  F: -4098.7137770281624398  |grad|_K:  6.595e-03  alpha:  6.986e-02  linmin: -1.342e-02  cgtest:  2.842e-01  t[s]:   1051.83
	FillingsUpdate:  mu: +0.029515023  nElectrons: 676.000000
LCAOMinimize: Iter:  28  F: -4099.8007274898081960  |grad|_K:  4.875e-03  alpha:  3.212e-02  linmin: -3.774e-02  cgtest:  1.344e-01  t[s]:   1084.00
	FillingsUpdate:  mu: +0.043872026  nElectrons: 676.000000
LCAOMinimize: Iter:  29  F: -4100.1563951659336453  |grad|_K:  7.440e-03  alpha:  5.095e-02  linmin:  9.368e-02  cgtest: -6.445e-02  t[s]:   1114.06
LCAOMinimize: 	Bad step direction: g.d > 0.
LCAOMinimize: 	Undoing step.
LCAOMinimize: 	Step failed: resetting search direction.
	FillingsUpdate:  mu: +0.043872026  nElectrons: 676.000000
LCAOMinimize: Iter:  30  F: -4100.1563951659336453  |grad|_K:  7.440e-03  alpha:  0.000e+00
LCAOMinimize: None of the convergence criteria satisfied after 30 iterations.
----- createFluidSolver() ----- (Fluid-side solver setup)
   Initializing fluid molecule 'H2O'
     Initializing site 'O'
       Electron density: proportional to exp(-r/0.36935)*erfc((r-0.51523)/0.36823) with norm 6.826
       Charge density: gaussian nuclear width 0.478731 with net site charge 0.826
       Polarizability: cuspless exponential with width 0.32 and norm 3.73
       Hard sphere radius: 2.57003 bohrs
       Positions in reference frame:
         [ +0.000000 +0.000000 +0.000000 ]
     Initializing site 'H'
       Electron density: proportional to exp(-r/0.34641)*erfc((r-0)/0.390882) with norm 0.587
       Charge density: gaussian nuclear width 0.377945 with net site charge -0.413
       Polarizability: cuspless exponential with width 0.39 and norm 3.3
       Positions in reference frame:
         [ +0.000000 -1.441945 +1.122523 ]
         [ +0.000000 +1.441945 +1.122523 ]
     Net charge: 0   dipole magnitude: 0.927204
     Initializing spherical shell mfKernel with radius 2.61727 Bohr
     deltaS corrections:
       site 'O': -7.54299
       site 'H': -6.83917
   Initializing fluid molecule 'Na+'
     Initializing site 'Na'
       Electron density: proportional to exp(-r/0.19682)*erfc((r-0.71491)/0.41314) with norm 8.1383
       Charge density: gaussian nuclear width 0.365347 with net site charge -1
       Hard sphere radius: 1.86327 bohrs
       Positions in reference frame:
         [ +0.000000 +0.000000 +0.000000 ]
     Net charge: -1   dipole magnitude: 0
     Initializing gaussian mfKernel with width: 1.55004 Bohr
     deltaS corrections:
       site 'Na': -22.3555
   Initializing fluid molecule 'F-'
     Initializing site 'F'
       Electron density: proportional to exp(-r/0.38886)*erfc((r-0)/0.438782) with norm 8
       Charge density: gaussian nuclear width 0.374796 with net site charge 1
       Hard sphere radius: 2.39995 bohrs
       Positions in reference frame:
         [ +0.000000 +0.000000 +0.000000 ]
     Net charge: 1   dipole magnitude: 0
     Initializing gaussian mfKernel with width: 1.59012 Bohr
     deltaS corrections:
       site 'F': -9.04335

Correction to mu due to finite nuclear width = -0.00982427
   Cavity determined by nc: 0.00142 and sigma: 0.707107
   Nonlocal vdW cavity from gaussian model electron density with norm = 8 and sigma = 0.993594 bohr
   Charge asymmetry in cavity with sensitivity pCavity = 36.5 e-bohr/Eh
   Electrostatic cavity expanded by eta = 1.46 bohrs
   Weighted density cavitation model constrained by Nbulk: 0.0049383 bohr^-3, Pvap: 3.14029 kPa, Rvdw: 2.61727 bohr and sigmaBulk: 4.62e-05 Eh/bohr^2 at T: 298 K.
   Weighted density dispersion model using vdW pair potentials with single solvent site with sqrtC6eff: 0.77 SI.


---- Citations for features of the code used in this run ----

   Software package:
      R. Sundararaman, K. Letchworth-Weaver, K.A. Schwarz, D. Gunceler, Y. Ozhabes and T.A. Arias, 'JDFTx: software for joint density-functional theory', SoftwareX 6, 278 (2017)

   gga-PBE exchange-correlation functional:
      J.P. Perdew, K. Burke and M. Ernzerhof, Phys. Rev. Lett. 77, 3865 (1996)

   Pseudopotentials:
      KF Garrity, JW Bennett, KM Rabe and D Vanderbilt, Comput. Mater. Sci. 81, 446 (2014)

   Truncated Coulomb potentials:
      R. Sundararaman and T.A. Arias, Phys. Rev. B 87, 165122 (2013)

   Van der Waals correction pair-potentials:
      S. Grimme, J. Comput. Chem. 27, 1787 (2006)

   Charge-asymmetric nonlocally-determined local-electric (CANDLE) solvation model:
      R. Sundararaman and W.A. Goddard III, J. Chem. Phys. 142, 064107 (2015)

   Total energy minimization with Auxiliary Hamiltonian:
      C. Freysoldt, S. Boeck, and J. Neugebauer, Phys. Rev. B 79, 241103(R) (2009)

This list may not be complete. Please suggest additional citations or
report any other bugs at https://github.com/shankar1729/jdftx/issues

Initialization completed successfully at t[s]:   1142.73

Fluid solver invoked on fresh (partially random / LCAO) wavefunctions
Running a vacuum solve first:

-------- Initial electronic minimization -----------
	FillingsUpdate:  mu: +0.044096440  nElectrons: 676.000000
ElecMinimize: Iter:   0  F: -4100.156395165938193  |grad|_K:  3.983e-04  alpha:  1.000e+00
ElecMinimize: 	Step increased F by 2.634468e+00, reducing alpha to 1.253294e-02.
	FillingsUpdate:  mu: +0.004484933  nElectrons: 676.000000
	SubspaceRotationAdjust: set factor to 1.61
ElecMinimize: Iter:   1  F: -4101.245360197210175  |grad|_K:  2.766e-04  alpha:  1.253e-02  linmin: -1.192e-04  t[s]:   1255.00
	FillingsUpdate:  mu: -0.016990293  nElectrons: 676.000000
	SubspaceRotationAdjust: set factor to 1.09
ElecMinimize: Iter:   2  F: -4102.539106502815230  |grad|_K:  3.117e-04  alpha:  2.985e-02  linmin: -1.188e-05  t[s]:   1303.91
	FillingsUpdate:  mu: -0.060352920  nElectrons: 676.000000
	SubspaceRotationAdjust: set factor to 0.754
ElecMinimize: Iter:   3  F: -4103.672373698564115  |grad|_K:  2.808e-04  alpha:  3.133e-02  linmin: -5.482e-07  t[s]:   1352.28
	FillingsUpdate:  mu: -0.134935970  nElectrons: 676.000000
	SubspaceRotationAdjust: set factor to 1.04
ElecMinimize: Iter:   4  F: -4104.473244680858443  |grad|_K:  2.169e-04  alpha:  3.017e-02  linmin:  1.222e-07  t[s]:   1406.54
	FillingsUpdate:  mu: -0.104131423  nElectrons: 676.000000
	SubspaceRotationAdjust: set factor to 0.932
ElecMinimize: Iter:   5  F: -4105.090741321339010  |grad|_K:  2.336e-04  alpha:  3.932e-02  linmin: -6.581e-07  t[s]:   1457.45
	FillingsUpdate:  mu: -0.023319588  nElectrons: 676.000000
	SubspaceRotationAdjust: set factor to 0.591
ElecMinimize: Iter:   6  F: -4105.844683895822527  |grad|_K:  1.906e-04  alpha:  4.052e-02  linmin:  1.414e-06  t[s]:   1506.02
	FillingsUpdate:  mu: -0.037735718  nElectrons: 676.000000
	SubspaceRotationAdjust: set factor to 0.507
ElecMinimize: Iter:   7  F: -4106.197434909273397  |grad|_K:  1.173e-04  alpha:  3.063e-02  linmin: -3.841e-07  t[s]:   1558.81
	FillingsUpdate:  mu: -0.049434682  nElectrons: 676.000000
	SubspaceRotationAdjust: set factor to 0.423
ElecMinimize: Iter:   8  F: -4106.482796692544980  |grad|_K:  1.054e-04  alpha:  5.818e-02  linmin: -5.506e-06  t[s]:   1608.24
	FillingsUpdate:  mu: -0.070762248  nElectrons: 676.000000
	SubspaceRotationAdjust: set factor to 0.422
ElecMinimize: Iter:   9  F: -4106.912963866613609  |grad|_K:  9.579e-05  alpha:  1.021e-01  linmin: -7.892e-07  t[s]:   1662.91
	FillingsUpdate:  mu: -0.126185855  nElectrons: 676.000000
	SubspaceRotationAdjust: set factor to 0.55
ElecMinimize: Iter:  10  F: -4107.197558535681310  |grad|_K:  7.070e-05  alpha:  9.064e-02  linmin:  4.717e-07  t[s]:   1716.57
	FillingsUpdate:  mu: -0.128642171  nElectrons: 676.000000
	SubspaceRotationAdjust: set factor to 0.588
ElecMinimize: Iter:  11  F: -4107.315985836694381  |grad|_K:  5.618e-05  alpha:  7.206e-02  linmin: -9.453e-09  t[s]:   1769.53
	FillingsUpdate:  mu: -0.128724103  nElectrons: 676.000000
	SubspaceRotationAdjust: set factor to 0.722
ElecMinimize: Iter:  12  F: -4107.401576574052342  |grad|_K:  4.645e-05  alpha:  8.171e-02  linmin:  8.565e-07  t[s]:   1821.50
	FillingsUpdate:  mu: -0.132740220  nElectrons: 676.000000
	SubspaceRotationAdjust: set factor to 0.7
ElecMinimize: Iter:  13  F: -4107.454719696534085  |grad|_K:  4.625e-05  alpha:  7.467e-02  linmin:  2.009e-06  t[s]:   1872.95
	FillingsUpdate:  mu: -0.133703865  nElectrons: 676.000000
	SubspaceRotationAdjust: set factor to 0.681
ElecMinimize: Iter:  14  F: -4107.498888192460072  |grad|_K:  4.522e-05  alpha:  6.456e-02  linmin:  3.177e-07  t[s]:   1924.39
	FillingsUpdate:  mu: -0.140619983  nElectrons: 676.000000
	SubspaceRotationAdjust: set factor to 0.893
ElecMinimize: Iter:  15  F: -4107.539443539310923  |grad|_K:  3.907e-05  alpha:  5.992e-02  linmin: -4.017e-07  t[s]:   1976.29
	FillingsUpdate:  mu: -0.141420928  nElectrons: 676.000000
	SubspaceRotationAdjust: set factor to 0.807
ElecMinimize: Iter:  16  F: -4107.572155454568019  |grad|_K:  3.686e-05  alpha:  6.388e-02  linmin: -2.686e-06  t[s]:   2032.06
	FillingsUpdate:  mu: -0.137153402  nElectrons: 676.000000
	SubspaceRotationAdjust: set factor to 0.802
ElecMinimize: Iter:  17  F: -4107.593468354994911  |grad|_K:  2.437e-05  alpha:  4.595e-02  linmin:  2.859e-07  t[s]:   2085.17
	FillingsUpdate:  mu: -0.135971410  nElectrons: 676.000000
	SubspaceRotationAdjust: set factor to 0.914
ElecMinimize: Iter:  18  F: -4107.605195905562141  |grad|_K:  1.994e-05  alpha:  5.934e-02  linmin: -5.275e-07  t[s]:   2136.87
	FillingsUpdate:  mu: -0.135455343  nElectrons: 676.000000
	SubspaceRotationAdjust: set factor to 1
ElecMinimize: Iter:  19  F: -4107.613869737555433  |grad|_K:  1.834e-05  alpha:  6.546e-02  linmin:  2.956e-07  t[s]:   2191.01
	FillingsUpdate:  mu: -0.134599495  nElectrons: 676.000000
	SubspaceRotationAdjust: set factor to 0.959
ElecMinimize: Iter:  20  F: -4107.620073594129281  |grad|_K:  1.674e-05  alpha:  5.557e-02  linmin:  6.883e-09  t[s]:   2240.84
	FillingsUpdate:  mu: -0.141407345  nElectrons: 676.000000
	SubspaceRotationAdjust: set factor to 1.07
ElecMinimize: Iter:  21  F: -4107.625347861197952  |grad|_K:  1.503e-05  alpha:  5.655e-02  linmin:  8.608e-08  t[s]:   2293.56
	FillingsUpdate:  mu: -0.143678563  nElectrons: 676.000000
	SubspaceRotationAdjust: set factor to 1.07
ElecMinimize: Iter:  22  F: -4107.630468709592606  |grad|_K:  1.452e-05  alpha:  6.818e-02  linmin: -9.004e-08  t[s]:   2346.42
	FillingsUpdate:  mu: -0.141517710  nElectrons: 676.000000
	SubspaceRotationAdjust: set factor to 0.947
ElecMinimize: Iter:  23  F: -4107.633833094728288  |grad|_K:  1.134e-05  alpha:  4.785e-02  linmin: -3.474e-09  t[s]:   2397.24
	FillingsUpdate:  mu: -0.141454116  nElectrons: 676.000000
	SubspaceRotationAdjust: set factor to 1.1
ElecMinimize: Iter:  24  F: -4107.635612942686748  |grad|_K:  8.459e-06  alpha:  4.152e-02  linmin:  2.087e-08  t[s]:   2452.42
	FillingsUpdate:  mu: -0.139932802  nElectrons: 676.000000
	SubspaceRotationAdjust: set factor to 1.15
ElecMinimize: Iter:  25  F: -4107.636870887968144  |grad|_K:  7.360e-06  alpha:  5.291e-02  linmin:  1.567e-07  t[s]:   2502.66
	FillingsUpdate:  mu: -0.140133736  nElectrons: 676.000000
	SubspaceRotationAdjust: set factor to 1.06
ElecMinimize: Iter:  26  F: -4107.637994206428630  |grad|_K:  6.733e-06  alpha:  6.261e-02  linmin:  5.567e-08  t[s]:   2553.25
	FillingsUpdate:  mu: -0.141602922  nElectrons: 676.000000
	SubspaceRotationAdjust: set factor to 1.08
ElecMinimize: Iter:  27  F: -4107.638587754463515  |grad|_K:  5.405e-06  alpha:  3.945e-02  linmin:  6.646e-09  t[s]:   2605.05
	FillingsUpdate:  mu: -0.141414889  nElectrons: 676.000000
	SubspaceRotationAdjust: set factor to 0.963
ElecMinimize: Iter:  28  F: -4107.639117667997198  |grad|_K:  5.410e-06  alpha:  5.448e-02  linmin: -2.127e-08  t[s]:   2652.48
	FillingsUpdate:  mu: -0.141649480  nElectrons: 676.000000
	SubspaceRotationAdjust: set factor to 0.989
ElecMinimize: Iter:  29  F: -4107.639689257957798  |grad|_K:  4.505e-06  alpha:  5.864e-02  linmin:  5.322e-08  t[s]:   2705.29
	FillingsUpdate:  mu: -0.141527941  nElectrons: 676.000000
	SubspaceRotationAdjust: set factor to 0.844
ElecMinimize: Iter:  30  F: -4107.640081057588759  |grad|_K:  4.416e-06  alpha:  5.805e-02  linmin:  9.391e-08  t[s]:   2760.77
	FillingsUpdate:  mu: -0.140288279  nElectrons: 676.000000
	SubspaceRotationAdjust: set factor to 0.841
ElecMinimize: Iter:  31  F: -4107.640390210102851  |grad|_K:  3.523e-06  alpha:  4.774e-02  linmin: -2.530e-08  t[s]:   2811.09
	FillingsUpdate:  mu: -0.140445448  nElectrons: 676.000000
	SubspaceRotationAdjust: set factor to 0.762
ElecMinimize: Iter:  32  F: -4107.640633566258657  |grad|_K:  2.842e-06  alpha:  5.886e-02  linmin: -1.204e-07  t[s]:   2861.66
	FillingsUpdate:  mu: -0.141367490  nElectrons: 676.000000
	SubspaceRotationAdjust: set factor to 0.856
ElecMinimize: Iter:  33  F: -4107.640786388056767  |grad|_K:  2.442e-06  alpha:  5.675e-02  linmin: -1.254e-07  t[s]:   2915.62
	FillingsUpdate:  mu: -0.141515093  nElectrons: 676.000000
	SubspaceRotationAdjust: set factor to 0.882
ElecMinimize: Iter:  34  F: -4107.640901236486570  |grad|_K:  2.195e-06  alpha:  5.781e-02  linmin:  5.023e-07  t[s]:   2964.74
	FillingsUpdate:  mu: -0.141529192  nElectrons: 676.000000
	SubspaceRotationAdjust: set factor to 0.896
ElecMinimize: Iter:  35  F: -4107.641005154426239  |grad|_K:  1.918e-06  alpha:  6.487e-02  linmin:  1.739e-08  t[s]:   3016.97
	FillingsUpdate:  mu: -0.141554159  nElectrons: 676.000000
	SubspaceRotationAdjust: set factor to 0.937
ElecMinimize: Iter:  36  F: -4107.641077298266282  |grad|_K:  1.857e-06  alpha:  5.890e-02  linmin: -1.313e-08  t[s]:   3072.96
	FillingsUpdate:  mu: -0.141194971  nElectrons: 676.000000
	SubspaceRotationAdjust: set factor to 0.983
ElecMinimize: Iter:  37  F: -4107.641136696624926  |grad|_K:  1.513e-06  alpha:  5.172e-02  linmin: -3.486e-09  t[s]:   3123.12
	FillingsUpdate:  mu: -0.141314324  nElectrons: 676.000000
	SubspaceRotationAdjust: set factor to 1.08
ElecMinimize: Iter:  38  F: -4107.641178836779545  |grad|_K:  1.212e-06  alpha:  5.526e-02  linmin:  6.927e-09  t[s]:   3174.70
	FillingsUpdate:  mu: -0.141556674  nElectrons: 676.000000
	SubspaceRotationAdjust: set factor to 1.11
ElecMinimize: Iter:  39  F: -4107.641206091595450  |grad|_K:  1.187e-06  alpha:  5.570e-02  linmin:  3.341e-09  t[s]:   3228.46
	FillingsUpdate:  mu: -0.141443125  nElectrons: 676.000000
	SubspaceRotationAdjust: set factor to 0.963
ElecMinimize: Iter:  40  F: -4107.641228771677561  |grad|_K:  1.093e-06  alpha:  4.837e-02  linmin:  2.085e-09  t[s]:   3283.41
	FillingsUpdate:  mu: -0.141554228  nElectrons: 676.000000
	SubspaceRotationAdjust: set factor to 1.35
ElecMinimize: Iter:  41  F: -4107.641247126114649  |grad|_K:  7.428e-07  alpha:  4.617e-02  linmin:  3.637e-09  t[s]:   3334.82
	FillingsUpdate:  mu: -0.141561541  nElectrons: 676.000000
	SubspaceRotationAdjust: set factor to 1.16
ElecMinimize: Iter:  42  F: -4107.641259424917735  |grad|_K:  8.601e-07  alpha:  6.696e-02  linmin:  5.998e-09  t[s]:   3385.71
	FillingsUpdate:  mu: -0.141320997  nElectrons: 676.000000
	SubspaceRotationAdjust: set factor to 0.881
ElecMinimize: Iter:  43  F: -4107.641271066783702  |grad|_K:  8.108e-07  alpha:  4.728e-02  linmin: -4.577e-10  t[s]:   3435.45
	FillingsUpdate:  mu: -0.141387729  nElectrons: 676.000000
	SubspaceRotationAdjust: set factor to 0.981
ElecMinimize: Iter:  44  F: -4107.641279671879602  |grad|_K:  5.786e-07  alpha:  3.931e-02  linmin:  4.096e-11  t[s]:   3485.85
	FillingsUpdate:  mu: -0.141462085  nElectrons: 676.000000
	SubspaceRotationAdjust: set factor to 1.17
ElecMinimize: Iter:  45  F: -4107.641287114387524  |grad|_K:  5.112e-07  alpha:  6.678e-02  linmin:  3.053e-09  t[s]:   3538.53
	FillingsUpdate:  mu: -0.141434624  nElectrons: 676.000000
	SubspaceRotationAdjust: set factor to 0.988
ElecMinimize: Iter:  46  F: -4107.641291669995553  |grad|_K:  5.276e-07  alpha:  5.236e-02  linmin:  5.759e-10  t[s]:   3592.75
	FillingsUpdate:  mu: -0.141519109  nElectrons: 676.000000
	SubspaceRotationAdjust: set factor to 1.05
ElecMinimize: Iter:  47  F: -4107.641295498659019  |grad|_K:  4.096e-07  alpha:  4.131e-02  linmin:  7.447e-10  t[s]:   3644.15
	FillingsUpdate:  mu: -0.141456355  nElectrons: 676.000000
	SubspaceRotationAdjust: set factor to 1.17
ElecMinimize: Iter:  48  F: -4107.641299122242344  |grad|_K:  3.839e-07  alpha:  6.487e-02  linmin:  8.490e-09  t[s]:   3693.83
	FillingsUpdate:  mu: -0.141377806  nElectrons: 676.000000
	SubspaceRotationAdjust: set factor to 0.98
ElecMinimize: Iter:  49  F: -4107.641301880992614  |grad|_K:  3.857e-07  alpha:  5.622e-02  linmin:  1.737e-09  t[s]:   3743.73
	FillingsUpdate:  mu: -0.141453095  nElectrons: 676.000000
	SubspaceRotationAdjust: set factor to 0.958
ElecMinimize: Iter:  50  F: -4107.641303574039739  |grad|_K:  2.659e-07  alpha:  3.418e-02  linmin: -3.330e-09  t[s]:   3799.96
	FillingsUpdate:  mu: -0.141485793  nElectrons: 676.000000
	SubspaceRotationAdjust: set factor to 1.02
ElecMinimize: Iter:  51  F: -4107.641305025494148  |grad|_K:  2.477e-07  alpha:  6.164e-02  linmin:  3.918e-09  t[s]:   3855.77
	FillingsUpdate:  mu: -0.141463705  nElectrons: 676.000000
	SubspaceRotationAdjust: set factor to 0.774
ElecMinimize: Iter:  52  F: -4107.641306363204421  |grad|_K:  2.814e-07  alpha:  6.549e-02  linmin:  4.932e-09  t[s]:   3906.17
	FillingsUpdate:  mu: -0.141508353  nElectrons: 676.000000
	SubspaceRotationAdjust: set factor to 0.89
ElecMinimize: Iter:  53  F: -4107.641307425992636  |grad|_K:  1.916e-07  alpha:  4.031e-02  linmin: -2.137e-09  t[s]:   3959.47
	FillingsUpdate:  mu: -0.141498999  nElectrons: 676.000000
	SubspaceRotationAdjust: set factor to 0.799
ElecMinimize: Iter:  54  F: -4107.641308291202222  |grad|_K:  1.902e-07  alpha:  7.083e-02  linmin:  1.827e-08  t[s]:   4009.76
	FillingsUpdate:  mu: -0.141449395  nElectrons: 676.000000
	SubspaceRotationAdjust: set factor to 0.707
ElecMinimize: Iter:  55  F: -4107.641308891166773  |grad|_K:  1.690e-07  alpha:  4.983e-02  linmin:  1.927e-09  t[s]:   4059.12
	FillingsUpdate:  mu: -0.141459407  nElectrons: 676.000000
	SubspaceRotationAdjust: set factor to 0.889
ElecMinimize: Iter:  56  F: -4107.641309400994942  |grad|_K:  1.243e-07  alpha:  5.359e-02  linmin: -1.303e-09  t[s]:   4109.82
	FillingsUpdate:  mu: -0.141485958  nElectrons: 676.000000
	SubspaceRotationAdjust: set factor to 0.766
ElecMinimize: Iter:  57  F: -4107.641309760702825  |grad|_K:  1.359e-07  alpha:  6.993e-02  linmin: -4.356e-09  t[s]:   4160.17
	FillingsUpdate:  mu: -0.141470401  nElectrons: 676.000000
	SubspaceRotationAdjust: set factor to 0.819
ElecMinimize: Iter:  58  F: -4107.641310041991346  |grad|_K:  1.062e-07  alpha:  4.575e-02  linmin:  1.689e-10  t[s]:   4209.36
	FillingsUpdate:  mu: -0.141467847  nElectrons: 676.000000
	SubspaceRotationAdjust: set factor to 0.865
ElecMinimize: Iter:  59  F: -4107.641310297333803  |grad|_K:  9.352e-08  alpha:  6.797e-02  linmin: -1.162e-08  t[s]:   4262.25
	FillingsUpdate:  mu: -0.141482562  nElectrons: 676.000000
	SubspaceRotationAdjust: set factor to 0.81
ElecMinimize: Iter:  60  F: -4107.641310439726112  |grad|_K:  9.009e-08  alpha:  4.889e-02  linmin: -8.001e-09  t[s]:   4313.99
	FillingsUpdate:  mu: -0.141470887  nElectrons: 676.000000
	SubspaceRotationAdjust: set factor to 0.891
ElecMinimize: Iter:  61  F: -4107.641310614749273  |grad|_K:  8.048e-08  alpha:  6.476e-02  linmin:  1.274e-08  t[s]:   4363.51
	FillingsUpdate:  mu: -0.141463927  nElectrons: 676.000000
	SubspaceRotationAdjust: set factor to 0.742
ElecMinimize: Iter:  62  F: -4107.641310751273522  |grad|_K:  7.803e-08  alpha:  6.332e-02  linmin: -1.020e-08  t[s]:   4415.30
	FillingsUpdate:  mu: -0.141482514  nElectrons: 676.000000
	SubspaceRotationAdjust: set factor to 0.813
ElecMinimize: Iter:  63  F: -4107.641310833913849  |grad|_K:  5.573e-08  alpha:  4.077e-02  linmin:  1.080e-08  t[s]:   4469.03
	FillingsUpdate:  mu: -0.141490391  nElectrons: 676.000000
	SubspaceRotationAdjust: set factor to 0.927
ElecMinimize: Iter:  64  F: -4107.641310907142724  |grad|_K:  5.415e-08  alpha:  7.079e-02  linmin: -1.012e-08  t[s]:   4518.96
	FillingsUpdate:  mu: -0.141480805  nElectrons: 676.000000
	SubspaceRotationAdjust: set factor to 0.797
ElecMinimize: Iter:  65  F: -4107.641310959942530  |grad|_K:  5.602e-08  alpha:  5.403e-02  linmin: -1.545e-08  t[s]:   4571.09
	FillingsUpdate:  mu: -0.141484570  nElectrons: 676.000000
	SubspaceRotationAdjust: set factor to 1.03
ElecMinimize: Iter:  66  F: -4107.641311014827807  |grad|_K:  4.032e-08  alpha:  5.253e-02  linmin: -4.482e-09  t[s]:   4623.34
	FillingsUpdate:  mu: -0.141488338  nElectrons: 676.000000
	SubspaceRotationAdjust: set factor to 0.881
ElecMinimize: Iter:  67  F: -4107.641311047626004  |grad|_K:  4.070e-08  alpha:  6.071e-02  linmin:  4.262e-08  t[s]:   4673.55
	FillingsUpdate:  mu: -0.141480664  nElectrons: 676.000000
	SubspaceRotationAdjust: set factor to 0.858
ElecMinimize: Iter:  68  F: -4107.641311069396579  |grad|_K:  3.309e-08  alpha:  3.957e-02  linmin:  4.820e-09  t[s]:   4725.64
	FillingsUpdate:  mu: -0.141482151  nElectrons: 676.000000
	SubspaceRotationAdjust: set factor to 1.02
ElecMinimize: Iter:  69  F: -4107.641311095285346  |grad|_K:  3.074e-08  alpha:  7.067e-02  linmin: -3.163e-08  t[s]:   4775.48
	FillingsUpdate:  mu: -0.141488359  nElectrons: 676.000000
	SubspaceRotationAdjust: set factor to 0.987
ElecMinimize: Iter:  70  F: -4107.641311110968672  |grad|_K:  2.946e-08  alpha:  4.983e-02  linmin: -2.782e-08  t[s]:   4825.22
	FillingsUpdate:  mu: -0.141483443  nElectrons: 676.000000
	SubspaceRotationAdjust: set factor to 1.02
ElecMinimize: Iter:  71  F: -4107.641311124058120  |grad|_K:  2.351e-08  alpha:  4.524e-02  linmin:  1.832e-09  t[s]:   4877.01
	FillingsUpdate:  mu: -0.141477876  nElectrons: 676.000000
	SubspaceRotationAdjust: set factor to 1.09
ElecMinimize: Iter:  72  F: -4107.641311136530021  |grad|_K:  2.238e-08  alpha:  6.838e-02  linmin:  1.307e-07  t[s]:   4927.55
	FillingsUpdate:  mu: -0.141480270  nElectrons: 676.000000
	SubspaceRotationAdjust: set factor to 0.986
ElecMinimize: Iter:  73  F: -4107.641311143094754  |grad|_K:  2.068e-08  alpha:  4.048e-02  linmin: -3.126e-09  t[s]:   4978.93
	FillingsUpdate:  mu: -0.141478124  nElectrons: 676.000000
	SubspaceRotationAdjust: set factor to 1.26
ElecMinimize: Iter:  74  F: -4107.641311150749971  |grad|_K:  1.569e-08  alpha:  5.338e-02  linmin:  4.441e-08  t[s]:   5029.19
ElecMinimize: Converged (|Delta F|<1.000000e-08 for 2 iters).
Setting wave functions to eigenvectors of Hamiltonian
Vacuum energy after initial minimize, F = -4107.641311150749971

	Linear fluid (dielectric constant: 78.4, screening length: 5.74355 Bohr) occupying 0.800877 of unit cell:	Completed after 24 iterations at t[s]:   5043.62

-------- Electronic minimization -----------
	Linear fluid (dielectric constant: 78.4, screening length: 5.74355 Bohr) occupying 0.800877 of unit cell:	Completed after 0 iterations at t[s]:   5054.55
	FillingsUpdate:  mu: -0.198116204  nElectrons: 676.000000
ElecMinimize: Iter:   0  F: -4107.677719180472195  |grad|_K:  2.087e-05  alpha:  1.000e+00
	Linear fluid (dielectric constant: 78.4, screening length: 5.74355 Bohr) occupying 0.812481 of unit cell:	Completed after 28 iterations at t[s]:   5101.06
	Linear fluid (dielectric constant: 78.4, screening length: 5.74355 Bohr) occupying 0.802549 of unit cell:	Completed after 25 iterations at t[s]:   5122.94
ElecMinimize: 	Step increased F by 3.622773e-03, reducing alpha to 1.143596e-02.
	Linear fluid (dielectric constant: 78.4, screening length: 5.74355 Bohr) occupying 0.800995 of unit cell:	Completed after 19 iterations at t[s]:   5162.56
	FillingsUpdate:  mu: -0.198700060  nElectrons: 676.000000
	SubspaceRotationAdjust: set factor to 0.686
ElecMinimize: Iter:   1  F: -4107.680565353815837  |grad|_K:  1.574e-05  alpha:  1.144e-02  linmin: -3.794e-03  t[s]:   5181.52
	Linear fluid (dielectric constant: 78.4, screening length: 5.74355 Bohr) occupying 0.801169 of unit cell:	Completed after 11 iterations at t[s]:   5201.14
[...]
	FillingsUpdate:  mu: -0.200924949  nElectrons: 676.000000
	SubspaceRotationAdjust: set factor to 0.19
ElecMinimize: Iter:  69  F: -4107.719908894537184  |grad|_K:  5.642e-08  alpha:  5.213e-03  linmin:  4.128e-04  t[s]:   9226.20
	Linear fluid (dielectric constant: 78.4, screening length: 5.74355 Bohr) occupying 0.806592 of unit cell:	Completed after 0 iterations at t[s]:   9241.85
ElecMinimize: 	Predicted alpha/alphaT>3.000000, increasing alphaT to 1.563850e-02.
	Linear fluid (dielectric constant: 78.4, screening length: 5.74355 Bohr) occupying 0.806592 of unit cell:	Completed after 0 iterations at t[s]:   9258.59
ElecMinimize: 	Predicted alpha/alphaT>3.000000, increasing alphaT to 4.691551e-02.
	Linear fluid (dielectric constant: 78.4, screening length: 5.74355 Bohr) occupying 0.806591 of unit cell:	Completed after 0 iterations at t[s]:   9271.79
	Linear fluid (dielectric constant: 78.4, screening length: 5.74355 Bohr) occupying 0.806591 of unit cell:	Completed after 0 iterations at t[s]:   9285.75
	FillingsUpdate:  mu: -0.200924722  nElectrons: 676.000000
	SubspaceRotationAdjust: set factor to 0.283
ElecMinimize: Iter:  70  F: -4107.719908993237368  |grad|_K:  4.726e-08  alpha:  1.162e-01  linmin: -8.891e-07  t[s]:   9307.01
	Linear fluid (dielectric constant: 78.4, screening length: 5.74355 Bohr) occupying 0.806591 of unit cell:	Completed after 2 iterations at t[s]:   9324.22
	Linear fluid (dielectric constant: 78.4, screening length: 5.74355 Bohr) occupying 0.806591 of unit cell:	Completed after 0 iterations at t[s]:   9339.47
ElecMinimize: 	Step increased F by 2.120023e-07, reducing alpha to 1.468271e-03.
	Linear fluid (dielectric constant: 78.4, screening length: 5.74355 Bohr) occupying 0.806591 of unit cell:	Completed after 0 iterations at t[s]:   9372.13
ElecMinimize: 	Step increased F by 1.779235e-07, reducing alpha to 1.468271e-04.
	Linear fluid (dielectric constant: 78.4, screening length: 5.74355 Bohr) occupying 0.806591 of unit cell:	Completed after 0 iterations at t[s]:   9405.82
ElecMinimize: 	Step increased F by 1.745766e-07, reducing alpha to 1.468271e-05.
ElecMinimize: 	Step failed to reduce F after 3 attempts. Quitting step.
ElecMinimize: 	Undoing step.
	Linear fluid (dielectric constant: 78.4, screening length: 5.74355 Bohr) occupying 0.806591 of unit cell:	Completed after 0 iterations at t[s]:   9435.18
ElecMinimize: 	Step failed: resetting search direction.
	FillingsUpdate:  mu: -0.200916603  nElectrons: 676.000000
	SubspaceRotationAdjust: set factor to 0.259
ElecMinimize: Iter:  71  F: -4107.719908818736258  |grad|_K:  1.001e-07  alpha:  1.468e-05
	Linear fluid (dielectric constant: 78.4, screening length: 5.74355 Bohr) occupying 0.806590 of unit cell:	Completed after 3 iterations at t[s]:   9470.73
	Linear fluid (dielectric constant: 78.4, screening length: 5.74355 Bohr) occupying 0.806591 of unit cell:	Completed after 0 iterations at t[s]:   9487.21
	FillingsUpdate:  mu: -0.200939853  nElectrons: 676.000000
	SubspaceRotationAdjust: set factor to 0.201
ElecMinimize: Iter:  72  F: -4107.719908969124845  |grad|_K:  9.278e-08  alpha:  4.043e-02  linmin:  1.244e-03  t[s]:   9503.94
	Linear fluid (dielectric constant: 78.4, screening length: 5.74355 Bohr) occupying 0.806591 of unit cell:	Completed after 0 iterations at t[s]:   9520.50
	Linear fluid (dielectric constant: 78.4, screening length: 5.74355 Bohr) occupying 0.806591 of unit cell:	Completed after 0 iterations at t[s]:   9537.69
	FillingsUpdate:  mu: -0.200939732  nElectrons: 676.000000
	SubspaceRotationAdjust: set factor to 0.256
ElecMinimize: Iter:  73  F: -4107.719909004184046  |grad|_K:  9.036e-08  alpha:  6.665e-02  linmin: -8.647e-07  t[s]:   9556.13
	Linear fluid (dielectric constant: 78.4, screening length: 5.74355 Bohr) occupying 0.806591 of unit cell:	Completed after 1 iterations at t[s]:   9573.95
	Linear fluid (dielectric constant: 78.4, screening length: 5.74355 Bohr) occupying 0.806591 of unit cell:	Completed after 0 iterations at t[s]:   9591.43
ElecMinimize: 	Step increased F by 1.524377e-07, reducing alpha to 1.655634e-03.
	Linear fluid (dielectric constant: 78.4, screening length: 5.74355 Bohr) occupying 0.806591 of unit cell:	Completed after 0 iterations at t[s]:   9624.78
ElecMinimize: 	Step increased F by 1.568851e-07, reducing alpha to 1.655634e-04.
	Linear fluid (dielectric constant: 78.4, screening length: 5.74355 Bohr) occupying 0.806591 of unit cell:	Completed after 0 iterations at t[s]:   9658.83
ElecMinimize: 	Step increased F by 1.523058e-07, reducing alpha to 1.655634e-05.
ElecMinimize: 	Step failed to reduce F after 3 attempts. Quitting step.
ElecMinimize: 	Undoing step.
	Linear fluid (dielectric constant: 78.4, screening length: 5.74355 Bohr) occupying 0.806591 of unit cell:	Completed after 0 iterations at t[s]:   9692.71
ElecMinimize: 	Step failed: resetting search direction.
	FillingsUpdate:  mu: -0.200917853  nElectrons: 676.000000
	SubspaceRotationAdjust: set factor to 0.191
ElecMinimize: Iter:  74  F: -4107.719908851890068  |grad|_K:  5.903e-08  alpha:  1.656e-05
	Linear fluid (dielectric constant: 78.4, screening length: 5.74355 Bohr) occupying 0.806590 of unit cell:	Completed after 0 iterations at t[s]:   9730.12
ElecMinimize: 	Predicted alpha/alphaT>3.000000, increasing alphaT to 1.999481e-01.
	Linear fluid (dielectric constant: 78.4, screening length: 5.74355 Bohr) occupying 0.806590 of unit cell:	Completed after 2 iterations at t[s]:   9747.45
	Linear fluid (dielectric constant: 78.4, screening length: 5.74355 Bohr) occupying 0.806591 of unit cell:	Completed after 0 iterations at t[s]:   9762.26
	FillingsUpdate:  mu: -0.200941376  nElectrons: 676.000000
	SubspaceRotationAdjust: set factor to 0.162
	SubspaceRotationAdjust: resetting CG because factor has changed by 0.129063
	Linear fluid (dielectric constant: 78.4, screening length: 5.74355 Bohr) occupying 0.806591 of unit cell:	Completed after 0 iterations at t[s]:   9787.24
ElecMinimize: 	State modified externally: resetting search direction.
ElecMinimize: Iter:  75  F: -4107.719908940919595  |grad|_K:  1.025e-07  alpha:  4.491e-02
	Linear fluid (dielectric constant: 78.4, screening length: 5.74355 Bohr) occupying 0.806591 of unit cell:	Completed after 1 iterations at t[s]:   9825.12
	Linear fluid (dielectric constant: 78.4, screening length: 5.74355 Bohr) occupying 0.806591 of unit cell:	Completed after 0 iterations at t[s]:   9839.58
ElecMinimize: 	Step increased F by 9.618725e-08, reducing alpha to 1.713955e-03.
	Linear fluid (dielectric constant: 78.4, screening length: 5.74355 Bohr) occupying 0.806591 of unit cell:	Completed after 0 iterations at t[s]:   9874.93
ElecMinimize: 	Step increased F by 1.034196e-07, reducing alpha to 1.713955e-04.
	Linear fluid (dielectric constant: 78.4, screening length: 5.74355 Bohr) occupying 0.806591 of unit cell:	Completed after 0 iterations at t[s]:   9902.70
ElecMinimize: 	Step increased F by 1.044582e-07, reducing alpha to 1.713955e-05.
ElecMinimize: 	Step failed to reduce F after 3 attempts. Quitting step.
ElecMinimize: 	Undoing step.
	Linear fluid (dielectric constant: 78.4, screening length: 5.74355 Bohr) occupying 0.806591 of unit cell:	Completed after 0 iterations at t[s]:   9935.62
ElecMinimize: 	Step failed along negative gradient direction.
ElecMinimize: Probably at roundoff error limit. (Stopping)
Setting wave functions to eigenvectors of Hamiltonian
Single-point solvation energy estimate, DeltaF = -0.078597685793284

# Ionic positions in lattice coordinates:
ion Cu   0.086434804815263   0.497306895845213   0.525699653128359 0
ion Cu   0.153559524409948   0.246847816654632   0.475901102810285 0
ion Cu   0.403567545803278   0.003237207496172   0.476634131278393 0
ion Cu   0.845292225726646   0.255775414995920   0.522999630765256 0
ion Cu   0.593539589611862   0.499924235977698   0.526107997121730 0
ion Cu   0.652575746628760   0.245977330593668   0.473804356318084 0
ion Cu   0.906650053084843   0.002236094869029   0.474530995933220 0
ion Cu   0.341145895519570   0.745000692426276   0.520457551805204 0
ion Cu   0.097451742753224   0.992438154776893   0.527169690804186 0
ion Cu   0.163535987150255   0.740666824596252   0.470443777632453 0
ion Cu   0.401772063461896   0.517821271743831   0.469469319085850 0
ion Cu   0.848024383526779   0.751382484479867   0.529645022889727 0
ion Cu   0.595623926136047   0.993575969396465   0.527223907214513 0
ion Cu   0.656033077290307   0.743973309462323   0.480948793034387 0
ion Cu   0.902503656869880   0.506857145658757   0.468657800037512 0
ion Cu   0.276586742940359   0.104527537417054   0.575963252364881 0
ion Te   0.222066557708107   0.400943079301321   0.427833077354028 0
ion Te   0.471875957453601   0.358167720616340   0.428585032894480 0
ion Te   0.026441984904488   0.145529528615787   0.573752635180670 0
ion Te   0.777211509285674   0.103239887945208   0.572844247432706 0
ion Te   0.720305593903122   0.398585229967445   0.424474638705526 0
ion Te   0.972951437042456   0.354014611280518   0.422373569649646 0
ion Te   0.526131999239253   0.146725732790737   0.574372212592797 0
ion Te   0.224344549038565   0.895629657650912   0.425135513588213 0
ion Te   0.473962376761844   0.850163891634990   0.426861301733683 0
ion Te   0.039828445267625   0.643297608751366   0.577365863279210 0
ion Te   0.780070887827234   0.600653189152553   0.575321615900444 0
ion Te   0.725473660380819   0.894214854405044   0.427496860242206 0
ion Te   0.976116444872739   0.848503862885830   0.427834720135086 0
ion Te   0.517870028881527   0.649964929169406   0.581174727449026 0
ion Te   0.305144356006940   0.065591890727344   0.482171553223211 0
ion O   0.257691780514170   0.306704794464425   0.463762082282229 0
ion O   0.399842280127549   0.175803307601395   0.576523078680461 0
ion O   0.489494770848640   0.051336933762331   0.543193867745536 0
ion O   0.347393552212199   0.429068177526591   0.432423573179196 0
ion O   0.150775691247614   0.074020369609754   0.576790968078738 0
ion O   0.445626795408478   0.318416036635532   0.522538258304335 0
ion O   0.189094270452918   0.441333144106701   0.519761558896236 0
ion O   0.009418952439523   0.450087142808993   0.452028872362929 0
ion O   0.239319680401905   0.199175892562473   0.543281171253214 0
ion O   0.056112620192960   0.183120557760960   0.479755185761652 0
ion O   0.098841240899897   0.325651819807607   0.422648474661945 0
ion O   0.807104225477228   0.063996449156622   0.479483827928601 0
ion O   0.757810420155039   0.303895003727681   0.457724487861706 0
ion O   0.900070121347812   0.174872230158281   0.573550362112908 0
ion O   0.990948769226090   0.050138952220488   0.541709537397508 0
ion O   0.847442617501800   0.426019643545899   0.421045761568506 0
ion O   0.650634242329181   0.074851905894237   0.574846189982884 0
ion O   0.944326664902376   0.317465175816979   0.517053111647085 0
ion O   0.692200389405476   0.436863726136952   0.518552417825961 0
ion O   0.510013530887535   0.452756983208114   0.457705512263902 0
ion O   0.740081276730562   0.197516806487085   0.538737817355774 0
ion O   0.553819746910080   0.183906981707235   0.479762396607318 0
ion O   0.597680368492623   0.326596597831731   0.424007179730193 0
ion O   0.321597715476944   0.581436821530590   0.444650756317528 0
ion O   0.264669796882028   0.798002134767389   0.450886282259680 0
ion O   0.400151129627000   0.685608064844796   0.586900646300124 0
ion O   0.487164995190311   0.555949577671177   0.542039134604833 0
ion O   0.349169333339230   0.924851974875851   0.422238059714652 0
ion O   0.130152231223005   0.568197280283608   0.587117928673106 0
ion O   0.436808902382750   0.811778446554517   0.518543482723764 0
ion O   0.196741987389300   0.930143928686562   0.520781329855931 0
ion O   0.012767205679089   0.943805961349050   0.459261793926712 0
ion O   0.243242928426412   0.687333141219800   0.522020083648195 0
ion O   0.067208634588997   0.679958918452902   0.480525288777602 0
ion O   0.102427991771660   0.819757189727431   0.425120374437585 0
ion O   0.803299450238403   0.566760757794276   0.477729994208912 0
ion O   0.762258592681382   0.800284866902975   0.461746256290931 0
ion O   0.901684503076456   0.670896469191834   0.575875404462176 0
ion O   0.984591728214822   0.554250982580537   0.535025254172047 0
ion O   0.851787304929362   0.922192903777165   0.424842114116256 0
ion O   0.652899698044621   0.574119001371342   0.579411430551854 0
ion O   0.947961599108463   0.811954942789384   0.522525610851245 0
ion O   0.696186393986124   0.933335221785076   0.521004173677378 0
ion O   0.508013868417743   0.944113566336342   0.464089607215044 0
ion O   0.742401809063600   0.697000707547315   0.546589120104142 0
ion O   0.554559151544466   0.686998336256938   0.488147183742053 0
ion O   0.600347796965375   0.822675889616323   0.428387234089922 0


# Forces in Lattice coordinates:
force Cu  -0.067021122845723  -0.112556219459400  -0.134160980583582 0
force Cu   0.869930709946399   0.070973086419222   0.518085461934575 0
force Cu   7.770849505329117  -7.323744019477044  -0.443885224633455 0
force Cu  -0.037707540900918  -0.069842796705404   0.048452222344451 0
force Cu  -0.039989767581677  -0.003327352469352  -0.039412313998465 0
force Cu   0.020706260209899   0.077722908097808  -0.050833069955526 0
force Cu   0.019635266948075  -0.057537788486133  -0.011698515482667 0
force Cu   0.035189800270135   0.073446572805207  -0.040600625960220 0
force Cu  -0.075858772851561   0.369284494179670   0.284284817804750 0
force Cu  -0.073504994047969   0.151352316650105  -0.011016846328069 0
force Cu   0.120486970013037  -0.516875873706958  -0.254683786384432 0
force Cu  -0.007659084292232  -0.028861578743609   0.002075071535138 0
force Cu  -0.016454448301626   0.107856411917670   0.026103177244952 0
force Cu   0.014042218552323   0.108279887333493  -0.047592763670198 0
force Cu   0.011015440959600  -0.094295891412308  -0.037383770047997 0
force Cu  -2.695622550597893   5.981812469359760  10.887006014321129 0
force Te  -0.433876823882710  -0.508973476149459  -1.461220711202170 0
force Te  -0.744890804350440  -0.917492823002473  -0.190942997492215 0
force Te   0.813838954617938  -0.040611966127261   1.463718536679272 0
force Te   0.343989772027358  -0.238491205536629   1.366264022556349 0
force Te  -0.384328956286234   0.161185466795139  -1.395859919241563 0
force Te  -0.372182265644564  -0.197748624160832  -1.346052418771466 0
force Te  -0.468518552801777   0.564785755102436   1.540778876941533 0
force Te  -0.703517504807660  -0.432078446784762  -1.669924183533952 0
force Te  -0.022515791774149  -0.112793038148770  -1.259474644944238 0
force Te  -0.339031077426423   0.569242519293244   0.984510975145986 0
force Te   0.391694358200223  -0.284284910337684   1.199459203173258 0
force Te  -0.363864836678705   0.282491687484544  -1.376673993800798 0
force Te  -0.385598592584602  -0.161694167063324  -1.393784204846766 0
force Te   0.627636293763857   0.041769369707690   1.282940713068566 0
force Te  -5.498737331082663   2.821912041869023 -10.493202825258626 0
force O  -0.269802149511989  -0.329121884047419   0.031656369424654 0
force O  -0.175471286299469  -0.801863266955799   0.055932286263752 0
force O   0.132217059263128  -1.114815591269608  -0.325692003162744 0
force O   0.576064826195971   0.585841913829903   0.119423034190851 0
force O   0.054176019908534  -0.362127633139824  -0.050569212212165 0
force O   0.015984224501596   0.099245225539608   0.200568638456765 0
force O  -0.343788873768363   0.573046781742207   1.242328696696291 0
force O   0.145093226691166   0.782228828436375   0.284512447567359 0
force O  -0.699435627543328  -0.033688103692770  -0.493456555933007 0
force O   0.380995651507798   0.670863194078662  -1.140834211210876 0
force O   0.337223330065097  -0.435209531994992   0.111330430358208 0
force O   0.293381725589962  -0.513405112263208  -1.005465018730519 0
force O   0.133322660084321  -0.800466829019506   0.325877822732029 0
force O  -0.398424884711867   0.392197388849431  -0.141611647629719 0
force O  -0.173689361869285  -0.854036809366924  -0.348618430457844 0
force O   0.423987368957633   0.323680697607898   0.083738255284492 0
force O  -0.435617707557338  -0.474947803312458  -0.132639926849794 0
force O  -0.283443284961162  -0.496987706064136   1.036895151790127 0
force O  -0.292134304573877   0.555745750812468   1.072014151226416 0
force O   0.277605178611912   1.345262139490940   0.370673463822854 0
force O  -0.145184820584678   0.820579434659518  -0.348421035426865 0
force O   0.414978722961274   0.502141601707179  -1.151535854868222 0
force O   0.623711425093378  -0.412636598582518  -0.031622480859562 0
force O   0.089095824988291  -0.027306593052247   0.043787369793771 0
force O   0.150733753576146  -0.516685163758902   0.189839882547212 0
force O  -0.713708368685168   0.369065410851072   0.085926473071089 0
force O  -0.106234315149892  -0.744586020760991  -0.355581237552284 0
force O   0.513409104881916   0.443856161705455   0.130480889258889 0
force O   0.537259015059089  -0.521977974568297   0.134713959621539 0
force O  -0.339038760251416  -0.485487851730415   0.988425344083296 0
force O  -0.174760548612171   0.625017700161386   1.187512822446294 0
force O   0.142069722936211   0.772152894605586   0.280722755966371 0
force O  -0.001515639994001  -0.020759814790267  -0.020657544643520 0
force O   0.179339566364374   0.372596920791254  -0.795070759634633 0
force O   0.470615362091834  -0.243039015426924   0.097798164439787 0
force O   0.195398726477463  -0.397056004688375  -0.958738312221637 0
force O   0.155579839350676  -0.882771984280755   0.370893634628408 0
force O  -0.138082119450101   0.284869358176903  -0.066191565100733 0
force O  -0.195332128954337  -0.491863719196913  -0.218919829246689 0
force O   0.427473595789579   0.306979041479878   0.085639586041707 0
force O  -0.509054671821408  -0.293634494945282  -0.056143825638449 0
force O  -0.276714973196153  -0.518914861422060   1.074816858493151 0
force O  -0.280509278316579   0.511582971721793   1.020218443307627 0
force O   0.423165592797281   0.356553268188438   0.189949042604521 0
force O  -0.169882363517456   0.784065610143385  -0.266066672867710 0
force O   0.308497406928924   0.440526942376861  -0.939248850222327 0
force O   0.415194700276635  -0.408621946684238   0.105848592200423 0

# Energy components:
   A_diel =       -0.2077737328707333
   Eewald =    11574.4416810868897301
       EH =    15235.8349417720382917
     Eloc =   -31764.6783308450139884
      Enl =      649.0013440283240698
      Exc =     -588.7059232578715182
 Exc_core =       78.1332912992220372
       KE =      708.5462618409535480
-------------------------------------
     Etot =    -4107.6345078083268163
       TS =        0.0854010282166085
-------------------------------------
        F =    -4107.7199088365432544

IonicMinimize: Iter:   0  F: -4107.719908836543254  |grad|_K:  0.000e+00  t[s]:   9969.36
IonicMinimize: Converged (|grad|_K<1.000000e-04).

#--- Lowdin population analysis ---
# oxidation-state Cu +0.367 +0.351 -0.034 +0.365 +0.365 +0.362 +0.364 +0.379 +0.355 +0.370 +0.360 +0.363 +0.368 +0.366 +0.365 +0.064
# oxidation-state Te +1.876 +1.862 +1.920 +1.904 +1.896 +1.901 +1.904 +1.884 +1.908 +1.896 +1.908 +1.910 +1.907 +1.921 +1.227
# oxidation-state O -0.627 -0.700 -0.520 -0.689 -0.483 -0.950 -0.660 -0.539 -0.388 -0.641 -0.690 -0.648 -0.532 -0.687 -0.529 -0.689 -0.685 -0.646 -0.646 -0.580 -0.533 -0.661 -0.693 -0.564 -0.514 -0.622 -0.516 -0.674 -0.621 -0.651 -0.630 -0.545 -0.322 -0.616 -0.694 -0.636 -0.544 -0.656 -0.493 -0.687 -0.678 -0.645 -0.646 -0.561 -0.513 -0.641 -0.686


Dumping 'NbTe2.fillings' ... done
Dumping 'NbTe2.wfns' ... done
Dumping 'NbTe2.fluidState' ... done
Dumping 'NbTe2.eigenvals' ... done
End date and time: Sat Jul 18 17:25:59 2020  (Duration: 0-2:46:22.54)
Done!
