
*************** JDFTx 1.5.0  ***************

Start date and time: Mon Dec 28 12:46:31 2020
Executable jdftx_gpu with command-line: -i Charged.in -o Charged.out
Running on hosts (process indices):  amax (0-4)
Divided in process groups (process indices):  0 (0)  1 (1)  2 (2)  3 (3)  4 (4)
gpuInit: Found compatible cuda device 0 'Tesla K80'
gpuInit: Found compatible cuda device 1 'Tesla K80'
gpuInit: Found compatible cuda device 2 'Tesla K80'
gpuInit: Found compatible cuda device 3 'Tesla K80'
gpuInit: Found compatible cuda device 4 'Tesla K80'
gpuInit: Selected device 0
Resource initialization completed at t[s]:      3.15
Run totals: 5 processes, 24 threads, 5 GPUs


Input parsed successfully to the following command list (including defaults):

basis kpoint-dependent
cache-projectors no
coords-type Lattice
core-overlap-check none
coulomb-interaction Slab 001
coulomb-truncation-embed 0.5 0.5 0.5
davidson-band-ratio 1.1
dump End State
dump-name NbTe2.$VAR
elec-cutoff 20
elec-eigen-algo Davidson
elec-ex-corr gga-PBE
elec-initial-charge 1.000000
elec-initial-magnetization 10.000000 no
elec-smearing Gauss 0.0073499
electronic-minimize  \
	dirUpdateScheme      FletcherReeves \
	linminMethod         DirUpdateRecommended \
	nIterations          200 \
	history              15 \
	knormThreshold       0 \
	energyDiffThreshold  1e-08 \
	nEnergyDiff          2 \
	alphaTstart          1 \
	alphaTmin            1e-10 \
	updateTestStepSize   yes \
	alphaTreduceFactor   0.1 \
	alphaTincreaseFactor 3 \
	nAlphaAdjustMax      3 \
	wolfeEnergy          0.0001 \
	wolfeGradient        0.9 \
	fdTest               no
exchange-regularization WignerSeitzTruncated
fluid LinearPCM 298.000000 1.013250
fluid-anion F- 1 MeanFieldLJ \
	epsBulk 1 \
	pMol 0 \
	epsInf 1 \
	Pvap 0 \
	sigmaBulk 0 \
	Rvdw 2.24877 \
	Res 0 \
	tauNuc 343133
fluid-cation Na+ 1 MeanFieldLJ \
	epsBulk 1 \
	pMol 0 \
	epsInf 1 \
	Pvap 0 \
	sigmaBulk 0 \
	Rvdw 2.19208 \
	Res 0 \
	tauNuc 343133
fluid-ex-corr lda-TF lda-PZ
fluid-gummel-loop 10 1.000000e-05
fluid-minimize  \
	dirUpdateScheme      PolakRibiere \
	linminMethod         DirUpdateRecommended \
	nIterations          400 \
	history              15 \
	knormThreshold       1e-11 \
	energyDiffThreshold  0 \
	nEnergyDiff          2 \
	alphaTstart          1 \
	alphaTmin            1e-10 \
	updateTestStepSize   yes \
	alphaTreduceFactor   0.1 \
	alphaTincreaseFactor 3 \
	nAlphaAdjustMax      6 \
	wolfeEnergy          0.0001 \
	wolfeGradient        0.9 \
	fdTest               no
fluid-solvent H2O 55.338 ScalarEOS \
	epsBulk 78.4 \
	pMol 0.92466 \
	epsInf 1.77 \
	Pvap 1.06736e-10 \
	sigmaBulk 4.62e-05 \
	Rvdw 2.61727 \
	Res 1.42 \
	tauNuc 343133 \
	poleEl 15 7 1
forces-output-coords Positions
initial-state NbTe2.$VAR
ion C   0.166666531632309   0.083333455367686   0.566574793810117 1
ion C   0.083333474604824   0.166666526395179   0.433457079445249 1
ion C   0.416666550632307   0.083333455367686   0.566574793810117 1
ion C   0.333333483604822   0.166666526395179   0.433457079445249 1
ion C   0.666666550632307   0.083333455367686   0.566574793810117 1
ion C   0.583333444604822   0.166666526395179   0.433457079445249 1
ion C   0.916666550632307   0.083333455367686   0.566574793810117 1
ion C   0.833333522604821   0.166666526395179   0.433457079445249 1
ion C   0.166666536632313   0.333333465367687   0.566574793810117 1
ion C   0.083333478604825   0.416666536395173   0.433457079445249 1
ion C   0.416666536632313   0.333333465367687   0.566574793810117 1
ion C   0.333333488604825   0.416666536395173   0.433457079445249 1
ion C   0.666666536632313   0.333333465367687   0.566574793810117 1
ion C   0.583333430604821   0.416666536395173   0.433457079445249 1
ion C   0.916666575632313   0.333333465367687   0.566574793810117 1
ion C   0.833333469604820   0.416666536395173   0.433457079445249 1
ion C   0.166666543632310   0.583333440367689   0.566574793810117 1
ion C   0.083333487604822   0.666666534395173   0.433457079445249 1
ion C   0.416666543632310   0.583333440367689   0.566574793810117 1
ion C   0.333333487604822   0.666666534395173   0.433457079445249 1
ion C   0.666666543632310   0.583333440367689   0.566574793810117 1
ion C   0.583333448604822   0.666666534395173   0.433457079445249 1
ion C   0.916666582632310   0.583333440367689   0.566574793810117 1
ion C   0.833333487604822   0.666666534395173   0.433457079445249 1
ion C   0.166666500632310   0.833333394367692   0.566574793810117 1
ion C   0.083333489604822   0.916666578395177   0.433457079445249 1
ion C   0.416666500632310   0.833333394367692   0.566574793810117 1
ion C   0.333333489604822   0.916666578395177   0.433457079445249 1
ion C   0.666666500632310   0.833333394367692   0.566574793810117 1
ion C   0.583333451604826   0.916666578395177   0.433457079445249 1
ion C   0.916666539632310   0.833333394367692   0.566574793810117 1
ion C   0.833333489604822   0.916666578395177   0.433457079445249 1
ion Ti  -0.000000006430495   0.000000006430495   0.500011379352478 1
ion Ti   0.083332914315182   0.166667086684822   0.618894755470309 1
ion Ti   0.166667065878178   0.083332921121817   0.381131957921845 1
ion Ti   0.249999993569505   0.000000006430495   0.500011379352478 1
ion Ti   0.333332923315179   0.166667086684822   0.618894755470309 1
ion Ti   0.416667084878176   0.083332921121817   0.381131957921845 1
ion Ti   0.499999993569505   0.000000006430495   0.500011379352478 1
ion Ti   0.583332884315179   0.166667086684822   0.618894755470309 1
ion Ti   0.666667084878176   0.083332921121817   0.381131957921845 1
ion Ti   0.750000032569505   0.000000006430495   0.500011379352478 1
ion Ti   0.833332962315179   0.166667086684822   0.618894755470309 1
ion Ti   0.916667084878176   0.083332921121817   0.381131957921845 1
ion Ti   0.999999992569509   0.250000004430495   0.500011379352478 1
ion Ti   0.083332918315182   0.416667096684816   0.618894755470309 1
ion Ti   0.166667070878182   0.333332931121818   0.381131957921845 1
ion Ti   0.249999992569509   0.250000004430495   0.500011379352478 1
ion Ti   0.333332928315183   0.416667096684816   0.618894755470309 1
ion Ti   0.416667070878182   0.333332931121818   0.381131957921845 1
ion Ti   0.500000012569503   0.250000004430495   0.500011379352478 1
ion Ti   0.583332870315178   0.416667096684816   0.618894755470309 1
ion Ti   0.666667070878182   0.333332931121818   0.381131957921845 1
ion Ti   0.750000051569503   0.250000004430495   0.500011379352478 1
ion Ti   0.833332909315178   0.416667096684816   0.618894755470309 1
ion Ti   0.916667109878182   0.333332931121818   0.381131957921845 1
ion Ti   0.999999991569505   0.500000003430498   0.500011379352478 1
ion Ti   0.083332927315179   0.666667094684816   0.618894755470309 1
ion Ti   0.166667077878179   0.583332906121820   0.381131957921845 1
ion Ti   0.249999991569505   0.500000003430498   0.500011379352478 1
ion Ti   0.333332927315179   0.666667094684816   0.618894755470309 1
ion Ti   0.416667077878179   0.583332906121820   0.381131957921845 1
ion Ti   0.499999991569505   0.500000003430498   0.500011379352478 1
ion Ti   0.583332888315179   0.666667094684816   0.618894755470309 1
ion Ti   0.666667077878179   0.583332906121820   0.381131957921845 1
ion Ti   0.750000030569505   0.500000003430498   0.500011379352478 1
ion Ti   0.833332927315179   0.666667094684816   0.618894755470309 1
ion Ti   0.916667116878179   0.583332906121820   0.381131957921845 1
ion Ti   0.999999971569503   0.750000001430498   0.500011379352478 1
ion Ti   0.083332929315179   0.916667138684819   0.618894755470309 1
ion Ti   0.166667034878179   0.833332860121823   0.381131957921845 1
ion Ti   0.249999971569503   0.750000001430498   0.500011379352478 1
ion Ti   0.333332929315179   0.916667138684819   0.618894755470309 1
ion Ti   0.416667034878179   0.833332860121823   0.381131957921845 1
ion Ti   0.499999971569503   0.750000001430498   0.500011379352478 1
ion Ti   0.583332891315183   0.916667138684819   0.618894755470309 1
ion Ti   0.666667034878179   0.833332860121823   0.381131957921845 1
ion Ti   0.750000010569503   0.750000001430498   0.500011379352478 1
ion Ti   0.833332929315179   0.916667138684819   0.618894755470309 1
ion Ti   0.916667073878179   0.833332860121823   0.381131957921845 1
ion-species GBRV/$ID_pbe.uspp
ion-width Ecut
ionic-minimize  \
	dirUpdateScheme      L-BFGS \
	linminMethod         DirUpdateRecommended \
	nIterations          500 \
	history              15 \
	knormThreshold       0.0001 \
	energyDiffThreshold  1e-06 \
	nEnergyDiff          2 \
	alphaTstart          1 \
	alphaTmin            1e-10 \
	updateTestStepSize   yes \
	alphaTreduceFactor   0.1 \
	alphaTincreaseFactor 3 \
	nAlphaAdjustMax      3 \
	wolfeEnergy          0.0001 \
	wolfeGradient        0.9 \
	fdTest               no
kpoint   0.000000000000   0.000000000000   0.000000000000  1.00000000000000
kpoint-folding 5 5 1 
latt-move-scale 1 1 1
latt-scale 1.88973 1.88973 1.88973 
lattice Triclinic 12.239 12.239 19.6623 90 90 120
lattice-minimize  \
	dirUpdateScheme      L-BFGS \
	linminMethod         DirUpdateRecommended \
	nIterations          0 \
	history              15 \
	knormThreshold       0 \
	energyDiffThreshold  1e-06 \
	nEnergyDiff          2 \
	alphaTstart          1 \
	alphaTmin            1e-10 \
	updateTestStepSize   yes \
	alphaTreduceFactor   0.1 \
	alphaTincreaseFactor 3 \
	nAlphaAdjustMax      3 \
	wolfeEnergy          0.0001 \
	wolfeGradient        0.9 \
	fdTest               no
lcao-params -1 1e-06 0.0073499
pcm-variant CANDLE
spintype z-spin
subspace-rotation-factor 1 yes
symmetries automatic
symmetry-threshold 0.0001



---------- Setting up symmetries ----------

Found 24 point-group symmetries of the bravais lattice
Found 192 space-group symmetries with basis
Applied RMS atom displacement 6.57349e-05 bohrs to make symmetries exact.

---------- Initializing the Grid ----------
R = 
[    23.1284   -11.5642          0  ]
[          0    20.0297          0  ]
[          0          0    37.1564  ]
unit cell volume = 17212.9
G =
[   0.271666   0.156846         -0  ]
[          0   0.313693          0  ]
[          0         -0   0.169101  ]
Minimum fftbox size, Smin = [  96  96  152  ]
Chosen fftbox size, S = [  96  96  160  ]

---------- Exchange Correlation functional ----------
Initalized PBE GGA exchange.
Initalized PBE GGA correlation.

---------- Setting up pseudopotentials ----------
Width of ionic core gaussian charges (only for fluid interactions / plotting) set to 0.397384

Reading pseudopotential file '/home/guoxy/vasp/jdftx-1.5.0/build/pseudopotentials/GBRV/c_pbe.uspp':
  Title: C.  Created by USPP 7.3.6 on 3-2-2014
  Reference state energy: -5.406344.  4 valence electrons in orbitals:
    |200>  occupation: 2  eigenvalue: -0.504890
    |210>  occupation: 2  eigenvalue: -0.194356
  lMax: 1  lLocal: 2  QijEcut: 5
  4 projectors sampled on a log grid with 503 points:
    l: 0  eig: -0.504890  rCut: 1.3
    l: 0  eig: 0.000000  rCut: 1.3
    l: 1  eig: -0.194357  rCut: 1.3
    l: 1  eig: 0.000000  rCut: 1.3
  Partial core density with radius 1.1
  Transforming core density to a uniform radial grid of dG=0.02 with 1474 points.
  Transforming local potential to a uniform radial grid of dG=0.02 with 1474 points.
  Transforming nonlocal projectors to a uniform radial grid of dG=0.02 with 432 points.
  Transforming density augmentations to a uniform radial grid of dG=0.02 with 1474 points.
  Transforming atomic orbitals to a uniform radial grid of dG=0.02 with 432 points.
  Core radius for overlap checks: 1.30 bohrs.

Reading pseudopotential file '/home/guoxy/vasp/jdftx-1.5.0/build/pseudopotentials/GBRV/ti_pbe.uspp':
  Title: Ti.  Created by USPP 7.3.6 on 31-3-15
  Reference state energy: -59.020943.  12 valence electrons in orbitals:
    |300>  occupation: 2  eigenvalue: -2.777623
    |310>  occupation: 6  eigenvalue: -1.894596
    |400>  occupation: 2  eigenvalue: -0.438610
    |320>  occupation: 1  eigenvalue: -0.583119
  lMax: 2  lLocal: 3  QijEcut: 6
  6 projectors sampled on a log grid with 597 points:
    l: 0  eig: -2.777624  rCut: 1.8
    l: 0  eig: -0.438611  rCut: 1.8
    l: 1  eig: -1.894596  rCut: 1.8
    l: 1  eig: 0.500000  rCut: 1.8
    l: 2  eig: -0.583118  rCut: 1.8
    l: 2  eig: 0.150000  rCut: 1.8
  Partial core density with radius 0.8
  Transforming core density to a uniform radial grid of dG=0.02 with 1474 points.
  Transforming local potential to a uniform radial grid of dG=0.02 with 1474 points.
  Transforming nonlocal projectors to a uniform radial grid of dG=0.02 with 432 points.
  Transforming density augmentations to a uniform radial grid of dG=0.02 with 1474 points.
  Transforming atomic orbitals to a uniform radial grid of dG=0.02 with 432 points.
  Core radius for overlap checks: 1.80 bohrs.

Initialized 2 species with 80 total atoms.

Folded 1 k-points by 5x5x1 to 25 k-points.
Coulomb truncation embedding center is not invariant under symmetry matrix:
[  -1   0   0  ]
[  -1   1   0  ]
[   0   0  -1  ]
[  -0.5  0.25  2.79864e-05  ]
Coulomb truncation embedding center is not invariant under symmetries.
End date and time: Mon Dec 28 12:46:35 2020  (Duration: 0-0:00:04.31)
Failed.

*************** JDFTx 1.5.0  ***************

Start date and time: Sun Jan  3 08:41:18 2021
Executable jdftx_gpu with command-line: -i Charged.in -o Charged.out
Running on hosts (process indices):  amax (0-4)
Divided in process groups (process indices):  0 (0)  1 (1)  2 (2)  3 (3)  4 (4)
gpuInit: Found compatible cuda device 0 'Tesla K80'
gpuInit: Found compatible cuda device 1 'Tesla K80'
gpuInit: Found compatible cuda device 2 'Tesla K80'
gpuInit: Found compatible cuda device 3 'Tesla K80'
gpuInit: Found compatible cuda device 4 'Tesla K80'
gpuInit: Selected device 0
Resource initialization completed at t[s]:      2.61
Run totals: 5 processes, 24 threads, 5 GPUs


Input parsed successfully to the following command list (including defaults):

basis kpoint-dependent
cache-projectors no
coords-type Lattice
core-overlap-check none
coulomb-interaction Slab 001
coulomb-truncation-embed 0.5 0.5 0.5
davidson-band-ratio 1.1
dump End State
dump-name NbTe2.$VAR
elec-cutoff 20
elec-eigen-algo Davidson
elec-ex-corr gga-PBE
elec-initial-charge 1.000000
elec-initial-magnetization 10.000000 no
elec-smearing Gauss 0.0073499
electronic-minimize  \
	dirUpdateScheme      FletcherReeves \
	linminMethod         DirUpdateRecommended \
	nIterations          200 \
	history              15 \
	knormThreshold       0 \
	energyDiffThreshold  1e-08 \
	nEnergyDiff          2 \
	alphaTstart          1 \
	alphaTmin            1e-10 \
	updateTestStepSize   yes \
	alphaTreduceFactor   0.1 \
	alphaTincreaseFactor 3 \
	nAlphaAdjustMax      3 \
	wolfeEnergy          0.0001 \
	wolfeGradient        0.9 \
	fdTest               no
exchange-regularization WignerSeitzTruncated
fluid LinearPCM 298.000000 1.013250
fluid-anion F- 1 MeanFieldLJ \
	epsBulk 1 \
	pMol 0 \
	epsInf 1 \
	Pvap 0 \
	sigmaBulk 0 \
	Rvdw 2.24877 \
	Res 0 \
	tauNuc 343133
fluid-cation Na+ 1 MeanFieldLJ \
	epsBulk 1 \
	pMol 0 \
	epsInf 1 \
	Pvap 0 \
	sigmaBulk 0 \
	Rvdw 2.19208 \
	Res 0 \
	tauNuc 343133
fluid-ex-corr lda-TF lda-PZ
fluid-gummel-loop 10 1.000000e-05
fluid-minimize  \
	dirUpdateScheme      PolakRibiere \
	linminMethod         DirUpdateRecommended \
	nIterations          400 \
	history              15 \
	knormThreshold       1e-11 \
	energyDiffThreshold  0 \
	nEnergyDiff          2 \
	alphaTstart          1 \
	alphaTmin            1e-10 \
	updateTestStepSize   yes \
	alphaTreduceFactor   0.1 \
	alphaTincreaseFactor 3 \
	nAlphaAdjustMax      6 \
	wolfeEnergy          0.0001 \
	wolfeGradient        0.9 \
	fdTest               no
fluid-solvent H2O 55.338 ScalarEOS \
	epsBulk 78.4 \
	pMol 0.92466 \
	epsInf 1.77 \
	Pvap 1.06736e-10 \
	sigmaBulk 4.62e-05 \
	Rvdw 2.61727 \
	Res 1.42 \
	tauNuc 343133 \
	poleEl 15 7 1
forces-output-coords Positions
initial-state NbTe2.$VAR
ion C   0.166666531632309   0.083333455367686   0.566561437114040 1
ion C   0.083333474604824   0.166666526395179   0.433443722749172 1
ion C   0.416666550632307   0.083333455367686   0.566561437114040 1
ion C   0.333333483604822   0.166666526395179   0.433443722749172 1
ion C   0.666666550632307   0.083333455367686   0.566561437114040 1
ion C   0.583333444604822   0.166666526395179   0.433443722749172 1
ion C   0.916666550632307   0.083333455367686   0.566561437114040 1
ion C   0.833333522604821   0.166666526395179   0.433443722749172 1
ion C   0.166666536632313   0.333333465367687   0.566561437114040 1
ion C   0.083333478604825   0.416666536395173   0.433443722749172 1
ion C   0.416666536632313   0.333333465367687   0.566561437114040 1
ion C   0.333333488604825   0.416666536395173   0.433443722749172 1
ion C   0.666666536632313   0.333333465367687   0.566561437114040 1
ion C   0.583333430604821   0.416666536395173   0.433443722749172 1
ion C   0.916666575632313   0.333333465367687   0.566561437114040 1
ion C   0.833333469604820   0.416666536395173   0.433443722749172 1
ion C   0.166666543632310   0.583333440367689   0.566561437114040 1
ion C   0.083333487604822   0.666666534395173   0.433443722749172 1
ion C   0.416666543632310   0.583333440367689   0.566561437114040 1
ion C   0.333333487604822   0.666666534395173   0.433443722749172 1
ion C   0.666666543632310   0.583333440367689   0.566561437114040 1
ion C   0.583333448604822   0.666666534395173   0.433443722749172 1
ion C   0.916666582632310   0.583333440367689   0.566561437114040 1
ion C   0.833333487604822   0.666666534395173   0.433443722749172 1
ion C   0.166666500632310   0.833333394367692   0.566561437114040 1
ion C   0.083333489604822   0.916666578395177   0.433443722749172 1
ion C   0.416666500632310   0.833333394367692   0.566561437114040 1
ion C   0.333333489604822   0.916666578395177   0.433443722749172 1
ion C   0.666666500632310   0.833333394367692   0.566561437114040 1
ion C   0.583333451604826   0.916666578395177   0.433443722749172 1
ion C   0.916666539632310   0.833333394367692   0.566561437114040 1
ion C   0.833333489604822   0.916666578395177   0.433443722749172 1
ion Ti  -0.000000006430495   0.000000006430495   0.499998022656401 1
ion Ti   0.083332914315182   0.166667086684822   0.618881398774232 1
ion Ti   0.166667065878178   0.083332921121817   0.381118601225768 1
ion Ti   0.249999993569505   0.000000006430495   0.499998022656401 1
ion Ti   0.333332923315179   0.166667086684822   0.618881398774232 1
ion Ti   0.416667084878176   0.083332921121817   0.381118601225768 1
ion Ti   0.499999993569505   0.000000006430495   0.499998022656401 1
ion Ti   0.583332884315179   0.166667086684822   0.618881398774232 1
ion Ti   0.666667084878176   0.083332921121817   0.381118601225768 1
ion Ti   0.750000032569505   0.000000006430495   0.499998022656401 1
ion Ti   0.833332962315179   0.166667086684822   0.618881398774232 1
ion Ti   0.916667084878176   0.083332921121817   0.381118601225768 1
ion Ti   0.999999992569509   0.250000004430495   0.499998022656401 1
ion Ti   0.083332918315182   0.416667096684816   0.618881398774232 1
ion Ti   0.166667070878182   0.333332931121818   0.381118601225768 1
ion Ti   0.249999992569509   0.250000004430495   0.499998022656401 1
ion Ti   0.333332928315183   0.416667096684816   0.618881398774232 1
ion Ti   0.416667070878182   0.333332931121818   0.381118601225768 1
ion Ti   0.500000012569503   0.250000004430495   0.499998022656401 1
ion Ti   0.583332870315178   0.416667096684816   0.618881398774232 1
ion Ti   0.666667070878182   0.333332931121818   0.381118601225768 1
ion Ti   0.750000051569503   0.250000004430495   0.499998022656401 1
ion Ti   0.833332909315178   0.416667096684816   0.618881398774232 1
ion Ti   0.916667109878182   0.333332931121818   0.381118601225768 1
ion Ti   0.999999991569505   0.500000003430498   0.499998022656401 1
ion Ti   0.083332927315179   0.666667094684816   0.618881398774232 1
ion Ti   0.166667077878179   0.583332906121820   0.381118601225768 1
ion Ti   0.249999991569505   0.500000003430498   0.499998022656401 1
ion Ti   0.333332927315179   0.666667094684816   0.618881398774232 1
ion Ti   0.416667077878179   0.583332906121820   0.381118601225768 1
ion Ti   0.499999991569505   0.500000003430498   0.499998022656401 1
ion Ti   0.583332888315179   0.666667094684816   0.618881398774232 1
ion Ti   0.666667077878179   0.583332906121820   0.381118601225768 1
ion Ti   0.750000030569505   0.500000003430498   0.499998022656401 1
ion Ti   0.833332927315179   0.666667094684816   0.618881398774232 1
ion Ti   0.916667116878179   0.583332906121820   0.381118601225768 1
ion Ti   0.999999971569503   0.750000001430498   0.499998022656401 1
ion Ti   0.083332929315179   0.916667138684819   0.618881398774232 1
ion Ti   0.166667034878179   0.833332860121823   0.381118601225768 1
ion Ti   0.249999971569503   0.750000001430498   0.499998022656401 1
ion Ti   0.333332929315179   0.916667138684819   0.618881398774232 1
ion Ti   0.416667034878179   0.833332860121823   0.381118601225768 1
ion Ti   0.499999971569503   0.750000001430498   0.499998022656401 1
ion Ti   0.583332891315183   0.916667138684819   0.618881398774232 1
ion Ti   0.666667034878179   0.833332860121823   0.381118601225768 1
ion Ti   0.750000010569503   0.750000001430498   0.499998022656401 1
ion Ti   0.833332929315179   0.916667138684819   0.618881398774232 1
ion Ti   0.916667073878179   0.833332860121823   0.381118601225768 1
ion-species GBRV/$ID_pbe.uspp
ion-width Ecut
ionic-minimize  \
	dirUpdateScheme      L-BFGS \
	linminMethod         DirUpdateRecommended \
	nIterations          500 \
	history              15 \
	knormThreshold       0.0001 \
	energyDiffThreshold  1e-06 \
	nEnergyDiff          2 \
	alphaTstart          1 \
	alphaTmin            1e-10 \
	updateTestStepSize   yes \
	alphaTreduceFactor   0.1 \
	alphaTincreaseFactor 3 \
	nAlphaAdjustMax      3 \
	wolfeEnergy          0.0001 \
	wolfeGradient        0.9 \
	fdTest               no
kpoint   0.000000000000   0.000000000000   0.000000000000  1.00000000000000
kpoint-folding 5 5 1 
latt-move-scale 1 1 1
latt-scale 1.88973 1.88973 1.88973 
lattice Triclinic 12.239 12.239 19.6623 90 90 120
lattice-minimize  \
	dirUpdateScheme      L-BFGS \
	linminMethod         DirUpdateRecommended \
	nIterations          0 \
	history              15 \
	knormThreshold       0 \
	energyDiffThreshold  1e-06 \
	nEnergyDiff          2 \
	alphaTstart          1 \
	alphaTmin            1e-10 \
	updateTestStepSize   yes \
	alphaTreduceFactor   0.1 \
	alphaTincreaseFactor 3 \
	nAlphaAdjustMax      3 \
	wolfeEnergy          0.0001 \
	wolfeGradient        0.9 \
	fdTest               no
lcao-params -1 1e-06 0.0073499
pcm-variant CANDLE
spintype z-spin
subspace-rotation-factor 1 yes
symmetries automatic
symmetry-threshold 0.0001



---------- Setting up symmetries ----------

Found 24 point-group symmetries of the bravais lattice
Found 192 space-group symmetries with basis
Applied RMS atom displacement 6.57349e-05 bohrs to make symmetries exact.

---------- Initializing the Grid ----------
R = 
[    23.1284   -11.5642          0  ]
[          0    20.0297          0  ]
[          0          0    37.1564  ]
unit cell volume = 17212.9
G =
[   0.271666   0.156846         -0  ]
[          0   0.313693          0  ]
[          0         -0   0.169101  ]
Minimum fftbox size, Smin = [  96  96  152  ]
Chosen fftbox size, S = [  96  96  160  ]

---------- Exchange Correlation functional ----------
Initalized PBE GGA exchange.
Initalized PBE GGA correlation.

---------- Setting up pseudopotentials ----------
Width of ionic core gaussian charges (only for fluid interactions / plotting) set to 0.397384

Reading pseudopotential file '/home/guoxy/vasp/jdftx-1.5.0/build/pseudopotentials/GBRV/c_pbe.uspp':
  Title: C.  Created by USPP 7.3.6 on 3-2-2014
  Reference state energy: -5.406344.  4 valence electrons in orbitals:
    |200>  occupation: 2  eigenvalue: -0.504890
    |210>  occupation: 2  eigenvalue: -0.194356
  lMax: 1  lLocal: 2  QijEcut: 5
  4 projectors sampled on a log grid with 503 points:
    l: 0  eig: -0.504890  rCut: 1.3
    l: 0  eig: 0.000000  rCut: 1.3
    l: 1  eig: -0.194357  rCut: 1.3
    l: 1  eig: 0.000000  rCut: 1.3
  Partial core density with radius 1.1
  Transforming core density to a uniform radial grid of dG=0.02 with 1474 points.
  Transforming local potential to a uniform radial grid of dG=0.02 with 1474 points.
  Transforming nonlocal projectors to a uniform radial grid of dG=0.02 with 432 points.
  Transforming density augmentations to a uniform radial grid of dG=0.02 with 1474 points.
  Transforming atomic orbitals to a uniform radial grid of dG=0.02 with 432 points.
  Core radius for overlap checks: 1.30 bohrs.

Reading pseudopotential file '/home/guoxy/vasp/jdftx-1.5.0/build/pseudopotentials/GBRV/ti_pbe.uspp':
  Title: Ti.  Created by USPP 7.3.6 on 31-3-15
  Reference state energy: -59.020943.  12 valence electrons in orbitals:
    |300>  occupation: 2  eigenvalue: -2.777623
    |310>  occupation: 6  eigenvalue: -1.894596
    |400>  occupation: 2  eigenvalue: -0.438610
    |320>  occupation: 1  eigenvalue: -0.583119
  lMax: 2  lLocal: 3  QijEcut: 6
  6 projectors sampled on a log grid with 597 points:
    l: 0  eig: -2.777624  rCut: 1.8
    l: 0  eig: -0.438611  rCut: 1.8
    l: 1  eig: -1.894596  rCut: 1.8
    l: 1  eig: 0.500000  rCut: 1.8
    l: 2  eig: -0.583118  rCut: 1.8
    l: 2  eig: 0.150000  rCut: 1.8
  Partial core density with radius 0.8
  Transforming core density to a uniform radial grid of dG=0.02 with 1474 points.
  Transforming local potential to a uniform radial grid of dG=0.02 with 1474 points.
  Transforming nonlocal projectors to a uniform radial grid of dG=0.02 with 432 points.
  Transforming density augmentations to a uniform radial grid of dG=0.02 with 1474 points.
  Transforming atomic orbitals to a uniform radial grid of dG=0.02 with 432 points.
  Core radius for overlap checks: 1.80 bohrs.

Initialized 2 species with 80 total atoms.

Folded 1 k-points by 5x5x1 to 25 k-points.

---------- Setting up k-points, bands, fillings ----------
Adding inversion symmetry to k-mesh for non-inversion-symmetric unit cell.
Reduced to 5 k-points under symmetry. 
Computing the number of bands and number of electrons
Calculating initial fillings.
nElectrons: 705.000000   nBands: 608   nStates: 10

----- Setting up reduced wavefunction bases (one per k-point) -----
average nbasis = 73534.680 , ideal nbasis = 73534.700

---------- Setting up coulomb interaction ----------
Fluid mode embedding: using embedded box, but periodic Coulomb kernel.
(Fluid response is responsible for (approximate) separation between periodic images.)
Setting up double-sized grid for truncated Coulomb potentials:
R = 
[    23.1284   -11.5642          0  ]
[          0    20.0297          0  ]
[          0          0    74.3127  ]
unit cell volume = 34425.7
G =
[   0.271666   0.156846         -0  ]
[          0   0.313693          0  ]
[          0         -0  0.0845506  ]
Chosen fftbox size, S = [  96  96  320  ]
Integer grid location selected as the embedding center:
   Grid: [  48  48  80  ]
   Lattice: [  0.5  0.5  0.5  ]
   Cartesian: [  5.78209  10.0149  18.5782  ]
Constructing Wigner-Seitz cell: 8 faces (6 quadrilaterals, 2 hexagons)
Range-separation parameter for embedded mesh potentials due to point charges: 0.619223 bohrs.

Initializing van der Waals corrections
	NOTE: vdW corrections apply only for interactions with fluid.
	 C:  C6:   30.35 Eh-a0^6  R0: 2.744 a0
	Ti:  C6:  187.33 Eh-a0^6  R0: 2.952 a0

---------- Setting up ewald sum ----------
Optimum gaussian width for ewald sums = 6.252056 bohr.
Real space sum over 405 unit cells with max indices [  4  4  2  ]
Reciprocal space sum over 8775 terms with max indices [  7  7  19  ]

---------- Allocating electronic variables ----------
Initializing wave functions:  linear combination of atomic orbitals
C pseudo-atom occupations:   s ( 2 )  p ( 2 )
Ti pseudo-atom occupations:   s ( 2 0 )  p ( 6 )  d ( 4 )
	FillingsUpdate:  mu: +0.177248466  nElectrons: 705.000000  magneticMoment: [ Abs: 7.20821  Tot: +7.20799 ]
LCAOMinimize: Iter:   0  F: -2470.8576229318291553  |grad|_K:  9.310e-02  alpha:  1.000e+00
LCAOMinimize: 	Step increased F by 6.420410e+02, reducing alpha to 4.866926e-02.
	FillingsUpdate:  mu: +0.792653321  nElectrons: 705.000000  magneticMoment: [ Abs: 8.13973  Tot: +8.13607 ]
LCAOMinimize: Iter:   1  F: -2696.9770516358298664  |grad|_K:  1.206e-02  alpha:  4.867e-02  linmin: -1.755e-02  cgtest: -3.889e+00  t[s]:    385.63
LCAOMinimize: 	Wrong curvature in test step, increasing alphaT to 1.460078e-01.
	FillingsUpdate:  mu: +0.718707183  nElectrons: 705.000000  magneticMoment: [ Abs: 5.90978  Tot: +5.90920 ]
LCAOMinimize: Iter:   2  F: -2726.5618946625863828  |grad|_K:  1.536e-02  alpha: -7.755e-01  linmin: -1.396e-01  cgtest:  7.287e-01  t[s]:    483.59
LCAOMinimize: 	Step increased F by 2.766982e+02, reducing alpha to 3.711714e-02.
	FillingsUpdate:  mu: +0.642627566  nElectrons: 705.000000  magneticMoment: [ Abs: 5.76399  Tot: +5.75864 ]
LCAOMinimize: Iter:   3  F: -2842.3079204208729607  |grad|_K:  2.826e-02  alpha:  3.712e-02  linmin: -2.746e-01  cgtest:  3.501e-01  t[s]:    652.57
	FillingsUpdate:  mu: -0.493953981  nElectrons: 705.000000  magneticMoment: [ Abs: 3.01325  Tot: +2.87008 ]
LCAOMinimize: Iter:   4  F: -2902.9205306940434639  |grad|_K:  2.244e-02  alpha:  2.165e-02  linmin: -9.042e-02  cgtest: -1.170e+00  t[s]:    751.84
	FillingsUpdate:  mu: +0.109483979  nElectrons: 705.000000  magneticMoment: [ Abs: 3.43908  Tot: +3.43583 ]
LCAOMinimize: Iter:   5  F: -2955.1257755492520118  |grad|_K:  3.499e-03  alpha:  1.438e-02  linmin:  1.311e-01  cgtest:  1.345e+00  t[s]:    852.31
LCAOMinimize: Encountered beta<0, resetting CG.
LCAOMinimize: 	Wrong curvature in test step, increasing alphaT to 4.313267e-02.
	FillingsUpdate:  mu: +0.115050061  nElectrons: 705.000000  magneticMoment: [ Abs: 3.40771  Tot: +3.40420 ]
LCAOMinimize: Iter:   6  F: -2955.7837284087045191  |grad|_K:  3.477e-03  alpha: -8.947e-01  linmin: -1.464e-01  cgtest:  9.769e-01  t[s]:    950.73
	FillingsUpdate:  mu: +0.135864972  nElectrons: 705.000000  magneticMoment: [ Abs: 3.26600  Tot: +3.26098 ]
LCAOMinimize: Iter:   7  F: -2958.3535345167779269  |grad|_K:  3.463e-03  alpha:  5.363e-02  linmin: -1.599e-01  cgtest:  8.894e-01  t[s]:   1051.03
LCAOMinimize: 	Wrong curvature in test step, increasing alphaT to 1.608860e-01.
	FillingsUpdate:  mu: +0.157482132  nElectrons: 705.000000  magneticMoment: [ Abs: 3.07623  Tot: +3.06764 ]
LCAOMinimize: Iter:   8  F: -2961.2611334678372259  |grad|_K:  3.517e-03  alpha: -3.088e-01  linmin: -1.775e-01  cgtest:  8.507e-01  t[s]:   1149.37
	FillingsUpdate:  mu: +0.192267562  nElectrons: 705.000000  magneticMoment: [ Abs: 2.76924  Tot: +2.74695 ]
LCAOMinimize: Iter:   9  F: -2965.3799107270301647  |grad|_K:  3.512e-03  alpha:  6.524e-02  linmin: -2.077e-01  cgtest:  7.794e-01  t[s]:   1248.88
LCAOMinimize: 	Wrong curvature in test step, increasing alphaT to 1.957286e-01.
	FillingsUpdate:  mu: +0.241547697  nElectrons: 705.000000  magneticMoment: [ Abs: 2.41424  Tot: +2.33429 ]
LCAOMinimize: Iter:  10  F: -2969.6597545604477091  |grad|_K:  3.021e-03  alpha: -4.631e-01  linmin: -2.528e-01  cgtest:  7.694e-01  t[s]:   1347.29
	FillingsUpdate:  mu: +0.276626233  nElectrons: 705.000000  magneticMoment: [ Abs: 2.21172  Tot: +2.08605 ]
LCAOMinimize: Iter:  11  F: -2971.9086000858183070  |grad|_K:  2.349e-03  alpha:  6.088e-02  linmin: -3.114e-01  cgtest:  8.725e-01  t[s]:   1447.90
LCAOMinimize: Encountered beta<0, resetting CG.
LCAOMinimize: 	Predicted alpha/alphaT>3.000000, increasing alphaT to 1.826297e-01.
	FillingsUpdate:  mu: +0.387645063  nElectrons: 705.000000  magneticMoment: [ Abs: 1.86270  Tot: +1.65540 ]
LCAOMinimize: Iter:  12  F: -2973.8395308643102908  |grad|_K:  2.809e-03  alpha:  2.457e-01  linmin:  1.412e-01  cgtest: -2.268e-01  t[s]:   1578.31
	FillingsUpdate:  mu: +0.387522164  nElectrons: 705.000000  magneticMoment: [ Abs: 1.84956  Tot: +1.63936 ]
LCAOMinimize: Iter:  13  F: -2973.8637825282430640  |grad|_K:  2.834e-03  alpha:  1.006e-02  linmin: -5.409e-03  cgtest:  9.888e-01  t[s]:   1679.75
LCAOMinimize: 	Predicted alpha/alphaT>3.000000, increasing alphaT to 3.017950e-02.
	FillingsUpdate:  mu: +0.355257901  nElectrons: 705.000000  magneticMoment: [ Abs: 1.90454  Tot: +1.70142 ]
LCAOMinimize: Iter:  14  F: -2974.8078126807631634  |grad|_K:  2.284e-04  alpha:  6.162e-02  linmin: -2.434e-01  cgtest:  6.786e-01  t[s]:   1809.83
LCAOMinimize: Encountered beta<0, resetting CG.
	FillingsUpdate:  mu: +0.342012639  nElectrons: 705.000000  magneticMoment: [ Abs: 1.77939  Tot: +1.57351 ]
LCAOMinimize: Iter:  15  F: -2974.8218657304519184  |grad|_K:  2.196e-04  alpha:  1.457e-01  linmin:  1.574e-03  cgtest: -9.265e-03  t[s]:   1910.10
	FillingsUpdate:  mu: +0.330164076  nElectrons: 705.000000  magneticMoment: [ Abs: 1.19897  Tot: +0.97689 ]
LCAOMinimize: Iter:  16  F: -2974.8505093569915516  |grad|_K:  5.550e-05  alpha:  3.245e-01  linmin:  1.187e-02  cgtest:  5.874e-02  t[s]:   2010.58
	FillingsUpdate:  mu: +0.336857544  nElectrons: 705.000000  magneticMoment: [ Abs: 0.84256  Tot: +0.64702 ]
LCAOMinimize: Iter:  17  F: -2974.8535592868151980  |grad|_K:  5.666e-05  alpha:  5.415e-01  linmin:  1.164e-03  cgtest:  1.339e-02  t[s]:   2111.25
	FillingsUpdate:  mu: +0.336295280  nElectrons: 705.000000  magneticMoment: [ Abs: 0.76269  Tot: +0.57540 ]
LCAOMinimize: Iter:  18  F: -2974.8540057182908640  |grad|_K:  8.966e-06  alpha:  7.363e-02  linmin: -2.372e-02  cgtest:  1.796e-01  t[s]:   2212.48
LCAOMinimize: Encountered beta<0, resetting CG.
LCAOMinimize: 	Predicted alpha/alphaT>3.000000, increasing alphaT to 2.208832e-01.
	FillingsUpdate:  mu: +0.336078158  nElectrons: 705.000000  magneticMoment: [ Abs: 0.60604  Tot: +0.44563 ]
LCAOMinimize: Iter:  19  F: -2974.8540679277234631  |grad|_K:  6.533e-06  alpha:  4.176e-01  linmin:  4.406e-04  cgtest: -1.120e-03  t[s]:   2342.41
	FillingsUpdate:  mu: +0.336104510  nElectrons: 705.000000  magneticMoment: [ Abs: 0.37864  Tot: +0.26027 ]
LCAOMinimize: Iter:  20  F: -2974.8541038454568479  |grad|_K:  1.007e-05  alpha:  4.542e-01  linmin: -3.470e-04  cgtest:  1.286e-03  t[s]:   2443.07
	FillingsUpdate:  mu: +0.335717827  nElectrons: 705.000000  magneticMoment: [ Abs: 0.22411  Tot: +0.13468 ]
LCAOMinimize: Iter:  21  F: -2974.8541251954843574  |grad|_K:  3.136e-06  alpha:  1.129e-01  linmin: -1.456e-03  cgtest: -6.790e-03  t[s]:   2544.33
LCAOMinimize: 	Predicted alpha/alphaT>3.000000, increasing alphaT to 3.386989e-01.
	FillingsUpdate:  mu: +0.336099618  nElectrons: 705.000000  magneticMoment: [ Abs: 0.04068  Tot: -0.01833 ]
LCAOMinimize: Iter:  22  F: -2974.8541398078095881  |grad|_K:  1.331e-06  alpha:  7.993e-01  linmin:  1.177e-03  cgtest:  3.167e-03  t[s]:   2674.46
	FillingsUpdate:  mu: +0.335964128  nElectrons: 705.000000  magneticMoment: [ Abs: 0.04719  Tot: -0.04664 ]
LCAOMinimize: Iter:  23  F: -2974.8541421065601753  |grad|_K:  1.156e-06  alpha:  7.002e-01  linmin:  8.669e-06  cgtest:  2.770e-03  t[s]:   2774.87
	FillingsUpdate:  mu: +0.335985838  nElectrons: 705.000000  magneticMoment: [ Abs: 0.04938  Tot: -0.04856 ]
LCAOMinimize: Iter:  24  F: -2974.8541422928137763  |grad|_K:  3.146e-07  alpha:  7.504e-02  linmin:  3.035e-04  cgtest: -2.106e-03  t[s]:   2875.70
LCAOMinimize: 	Predicted alpha/alphaT>3.000000, increasing alphaT to 2.251285e-01.
	FillingsUpdate:  mu: +0.335984867  nElectrons: 705.000000  magneticMoment: [ Abs: 0.04961  Tot: -0.04692 ]
LCAOMinimize: Iter:  25  F: -2974.8541423783126447  |grad|_K:  2.245e-07  alpha:  4.621e-01  linmin: -3.007e-03  cgtest:  1.214e-02  t[s]:   3003.55
LCAOMinimize: Converged (|Delta F|<1.000000e-06 for 2 iters).
----- createFluidSolver() ----- (Fluid-side solver setup)
   Initializing fluid molecule 'H2O'
     Initializing site 'O'
       Electron density: proportional to exp(-r/0.36935)*erfc((r-0.51523)/0.36823) with norm 6.826
       Charge density: gaussian nuclear width 0.478731 with net site charge 0.826
       Polarizability: cuspless exponential with width 0.32 and norm 3.73
       Hard sphere radius: 2.57003 bohrs
       Positions in reference frame:
         [ +0.000000 +0.000000 +0.000000 ]
     Initializing site 'H'
       Electron density: proportional to exp(-r/0.34641)*erfc((r-0)/0.390882) with norm 0.587
       Charge density: gaussian nuclear width 0.377945 with net site charge -0.413
       Polarizability: cuspless exponential with width 0.39 and norm 3.3
       Positions in reference frame:
         [ +0.000000 -1.441945 +1.122523 ]
         [ +0.000000 +1.441945 +1.122523 ]
     Net charge: 0   dipole magnitude: 0.927204
     Initializing spherical shell mfKernel with radius 2.61727 Bohr
     deltaS corrections:
       site 'O': -7.54299
       site 'H': -6.83917
   Initializing fluid molecule 'Na+'
     Initializing site 'Na'
       Electron density: proportional to exp(-r/0.19682)*erfc((r-0.71491)/0.41314) with norm 8.1383
       Charge density: gaussian nuclear width 0.365347 with net site charge -1
       Hard sphere radius: 1.86327 bohrs
       Positions in reference frame:
         [ +0.000000 +0.000000 +0.000000 ]
     Net charge: -1   dipole magnitude: 0
     Initializing gaussian mfKernel with width: 1.55004 Bohr
     deltaS corrections:
       site 'Na': -22.3555
   Initializing fluid molecule 'F-'
     Initializing site 'F'
       Electron density: proportional to exp(-r/0.38886)*erfc((r-0)/0.438782) with norm 8
       Charge density: gaussian nuclear width 0.374796 with net site charge 1
       Hard sphere radius: 2.39995 bohrs
       Positions in reference frame:
         [ +0.000000 +0.000000 +0.000000 ]
     Net charge: 1   dipole magnitude: 0
     Initializing gaussian mfKernel with width: 1.59012 Bohr
     deltaS corrections:
       site 'F': -9.04335

Correction to mu due to finite nuclear width = -0.0202903
   Cavity determined by nc: 0.00142 and sigma: 0.707107
   Nonlocal vdW cavity from gaussian model electron density with norm = 8 and sigma = 0.993594 bohr
   Charge asymmetry in cavity with sensitivity pCavity = 36.5 e-bohr/Eh
   Electrostatic cavity expanded by eta = 1.46 bohrs
   Weighted density cavitation model constrained by Nbulk: 0.0049383 bohr^-3, Pvap: 3.14029 kPa, Rvdw: 2.61727 bohr and sigmaBulk: 4.62e-05 Eh/bohr^2 at T: 298 K.
   Weighted density dispersion model using vdW pair potentials with single solvent site with sqrtC6eff: 0.77 SI.


---- Citations for features of the code used in this run ----

   Software package:
      R. Sundararaman, K. Letchworth-Weaver, K.A. Schwarz, D. Gunceler, Y. Ozhabes and T.A. Arias, 'JDFTx: software for joint density-functional theory', SoftwareX 6, 278 (2017)

   gga-PBE exchange-correlation functional:
      J.P. Perdew, K. Burke and M. Ernzerhof, Phys. Rev. Lett. 77, 3865 (1996)

   Pseudopotentials:
      KF Garrity, JW Bennett, KM Rabe and D Vanderbilt, Comput. Mater. Sci. 81, 446 (2014)

   Truncated Coulomb potentials:
      R. Sundararaman and T.A. Arias, Phys. Rev. B 87, 165122 (2013)

   Van der Waals correction pair-potentials:
      S. Grimme, J. Comput. Chem. 27, 1787 (2006)

   Charge-asymmetric nonlocally-determined local-electric (CANDLE) solvation model:
      R. Sundararaman and W.A. Goddard III, J. Chem. Phys. 142, 064107 (2015)

   Total energy minimization with Auxiliary Hamiltonian:
      C. Freysoldt, S. Boeck, and J. Neugebauer, Phys. Rev. B 79, 241103(R) (2009)

This list may not be complete. Please suggest additional citations or
report any other bugs at https://github.com/shankar1729/jdftx/issues

Initialization completed successfully at t[s]:   3021.42

Fluid solver invoked on fresh (partially random / LCAO) wavefunctions
Running a vacuum solve first:

-------- Initial electronic minimization -----------
	FillingsUpdate:  mu: +0.335984867  nElectrons: 705.000000  magneticMoment: [ Abs: 0.04961  Tot: -0.04692 ]
ElecMinimize: Iter:   0  F: -2974.854142378316737  |grad|_K:  1.659e-04  alpha:  1.000e+00
	FillingsUpdate:  mu: +0.160685167  nElectrons: 705.000000  magneticMoment: [ Abs: 0.04880  Tot: -0.04558 ]
	SubspaceRotationAdjust: set factor to 1
ElecMinimize: Iter:   1  F: -2979.412962092347698  |grad|_K:  9.589e-05  alpha:  3.746e-01  linmin:  9.387e-05  t[s]:   3259.57
	FillingsUpdate:  mu: +0.162624679  nElectrons: 705.000000  magneticMoment: [ Abs: 0.03375  Tot: -0.02907 ]
	SubspaceRotationAdjust: set factor to 0.796
ElecMinimize: Iter:   2  F: -2981.570626893840654  |grad|_K:  6.424e-05  alpha:  5.275e-01  linmin: -3.912e-04  t[s]:   3407.40
	FillingsUpdate:  mu: +0.150124079  nElectrons: 705.000000  magneticMoment: [ Abs: 0.02455  Tot: -0.01970 ]
	SubspaceRotationAdjust: set factor to 0.513
ElecMinimize: Iter:   3  F: -2982.401716612917426  |grad|_K:  6.815e-05  alpha:  4.419e-01  linmin: -6.413e-05  t[s]:   3556.34
	FillingsUpdate:  mu: +0.091352342  nElectrons: 705.000000  magneticMoment: [ Abs: 0.02129  Tot: -0.01633 ]
	SubspaceRotationAdjust: set factor to 0.325
ElecMinimize: Iter:   4  F: -2982.671755117976318  |grad|_K:  3.602e-05  alpha:  1.421e-01  linmin:  5.279e-04  t[s]:   3704.62
ElecMinimize: 	Predicted alpha/alphaT>3.000000, increasing alphaT to 4.261779e-01.
	FillingsUpdate:  mu: +0.044309872  nElectrons: 705.000000  magneticMoment: [ Abs: 0.01666  Tot: -0.01217 ]
	SubspaceRotationAdjust: set factor to 0.358
ElecMinimize: Iter:   5  F: -2982.944469792282234  |grad|_K:  2.468e-05  alpha:  5.050e-01  linmin:  1.700e-04  t[s]:   3894.84
	FillingsUpdate:  mu: +0.054144688  nElectrons: 705.000000  magneticMoment: [ Abs: 0.01546  Tot: -0.01149 ]
	SubspaceRotationAdjust: set factor to 0.292
ElecMinimize: Iter:   6  F: -2983.037827320972156  |grad|_K:  1.746e-05  alpha:  3.520e-01  linmin:  1.706e-06  t[s]:   4043.37
	FillingsUpdate:  mu: +0.056480061  nElectrons: 705.000000  magneticMoment: [ Abs: 0.01463  Tot: -0.01131 ]
	SubspaceRotationAdjust: set factor to 0.338
ElecMinimize: Iter:   7  F: -2983.097094994870986  |grad|_K:  1.320e-05  alpha:  4.342e-01  linmin:  9.790e-06  t[s]:   4191.77
	FillingsUpdate:  mu: +0.051820470  nElectrons: 705.000000  magneticMoment: [ Abs: 0.01374  Tot: -0.01114 ]
	SubspaceRotationAdjust: set factor to 0.349
ElecMinimize: Iter:   8  F: -2983.135053846990104  |grad|_K:  8.452e-06  alpha:  4.889e-01  linmin:  1.192e-05  t[s]:   4339.57
	FillingsUpdate:  mu: +0.053029281  nElectrons: 705.000000  magneticMoment: [ Abs: 0.01327  Tot: -0.01114 ]
	SubspaceRotationAdjust: set factor to 0.328
ElecMinimize: Iter:   9  F: -2983.148409804891344  |grad|_K:  7.811e-06  alpha:  4.184e-01  linmin:  1.332e-06  t[s]:   4487.81
	FillingsUpdate:  mu: +0.048006898  nElectrons: 705.000000  magneticMoment: [ Abs: 0.01279  Tot: -0.01128 ]
	SubspaceRotationAdjust: set factor to 0.36
ElecMinimize: Iter:  10  F: -2983.160856000221884  |grad|_K:  4.768e-06  alpha:  4.551e-01  linmin:  6.804e-06  t[s]:   4636.77
	FillingsUpdate:  mu: +0.045698416  nElectrons: 705.000000  magneticMoment: [ Abs: 0.01267  Tot: -0.01152 ]
	SubspaceRotationAdjust: set factor to 0.412
ElecMinimize: Iter:  11  F: -2983.165938138174624  |grad|_K:  3.996e-06  alpha:  4.999e-01  linmin:  1.258e-06  t[s]:   4784.98
	FillingsUpdate:  mu: +0.045261411  nElectrons: 705.000000  magneticMoment: [ Abs: 0.01271  Tot: -0.01179 ]
	SubspaceRotationAdjust: set factor to 0.366
ElecMinimize: Iter:  12  F: -2983.168805203994907  |grad|_K:  3.227e-06  alpha:  4.002e-01  linmin:  3.822e-07  t[s]:   4933.98
	FillingsUpdate:  mu: +0.042077220  nElectrons: 705.000000  magneticMoment: [ Abs: 0.01286  Tot: -0.01210 ]
	SubspaceRotationAdjust: set factor to 0.314
ElecMinimize: Iter:  13  F: -2983.170574940878396  |grad|_K:  2.405e-06  alpha:  3.785e-01  linmin:  2.724e-06  t[s]:   5082.14
	FillingsUpdate:  mu: +0.041896378  nElectrons: 705.000000  magneticMoment: [ Abs: 0.01312  Tot: -0.01247 ]
	SubspaceRotationAdjust: set factor to 0.402
ElecMinimize: Iter:  14  F: -2983.171929293730955  |grad|_K:  1.554e-06  alpha:  5.228e-01  linmin:  4.087e-06  t[s]:   5230.43
	FillingsUpdate:  mu: +0.042559289  nElectrons: 705.000000  magneticMoment: [ Abs: 0.01331  Tot: -0.01268 ]
	SubspaceRotationAdjust: set factor to 0.362
ElecMinimize: Iter:  15  F: -2983.172430160994736  |grad|_K:  1.397e-06  alpha:  4.630e-01  linmin:  7.553e-07  t[s]:   5379.26
	FillingsUpdate:  mu: +0.041491960  nElectrons: 705.000000  magneticMoment: [ Abs: 0.01355  Tot: -0.01290 ]
	SubspaceRotationAdjust: set factor to 0.336
ElecMinimize: Iter:  16  F: -2983.172781989955183  |grad|_K:  1.021e-06  alpha:  4.015e-01  linmin:  1.554e-06  t[s]:   5527.65
	FillingsUpdate:  mu: +0.041418101  nElectrons: 705.000000  magneticMoment: [ Abs: 0.01384  Tot: -0.01314 ]
	SubspaceRotationAdjust: set factor to 0.38
ElecMinimize: Iter:  17  F: -2983.173012661396115  |grad|_K:  8.127e-07  alpha:  4.939e-01  linmin:  1.893e-06  t[s]:   5676.40
	FillingsUpdate:  mu: +0.041533258  nElectrons: 705.000000  magneticMoment: [ Abs: 0.01421  Tot: -0.01343 ]
	SubspaceRotationAdjust: set factor to 0.426
ElecMinimize: Iter:  18  F: -2983.173178882442244  |grad|_K:  5.674e-07  alpha:  5.618e-01  linmin:  2.581e-06  t[s]:   5825.51
	FillingsUpdate:  mu: +0.041278523  nElectrons: 705.000000  magneticMoment: [ Abs: 0.01456  Tot: -0.01370 ]
	SubspaceRotationAdjust: set factor to 0.418
ElecMinimize: Iter:  19  F: -2983.173247905726839  |grad|_K:  5.353e-07  alpha:  4.784e-01  linmin:  5.073e-07  t[s]:   5973.39
	FillingsUpdate:  mu: +0.041459097  nElectrons: 705.000000  magneticMoment: [ Abs: 0.01498  Tot: -0.01402 ]
	SubspaceRotationAdjust: set factor to 0.35
ElecMinimize: Iter:  20  F: -2983.173295876165412  |grad|_K:  3.858e-07  alpha:  3.730e-01  linmin:  3.026e-07  t[s]:   6121.35
	FillingsUpdate:  mu: +0.041276876  nElectrons: 705.000000  magneticMoment: [ Abs: 0.01543  Tot: -0.01438 ]
	SubspaceRotationAdjust: set factor to 0.356
ElecMinimize: Iter:  21  F: -2983.173323834480925  |grad|_K:  2.711e-07  alpha:  4.188e-01  linmin:  5.229e-07  t[s]:   6269.01
	FillingsUpdate:  mu: +0.041363444  nElectrons: 705.000000  magneticMoment: [ Abs: 0.01596  Tot: -0.01482 ]
	SubspaceRotationAdjust: set factor to 0.427
ElecMinimize: Iter:  22  F: -2983.173342739622058  |grad|_K:  2.038e-07  alpha:  5.740e-01  linmin:  7.640e-07  t[s]:   6418.43
	FillingsUpdate:  mu: +0.041528252  nElectrons: 705.000000  magneticMoment: [ Abs: 0.01639  Tot: -0.01520 ]
	SubspaceRotationAdjust: set factor to 0.415
ElecMinimize: Iter:  23  F: -2983.173351629987792  |grad|_K:  1.777e-07  alpha:  4.777e-01  linmin:  1.446e-07  t[s]:   6566.90
	FillingsUpdate:  mu: +0.041424042  nElectrons: 705.000000  magneticMoment: [ Abs: 0.01683  Tot: -0.01559 ]
	SubspaceRotationAdjust: set factor to 0.36
ElecMinimize: Iter:  24  F: -2983.173356931589296  |grad|_K:  1.401e-07  alpha:  3.739e-01  linmin:  1.066e-07  t[s]:   6714.51
	FillingsUpdate:  mu: +0.041416532  nElectrons: 705.000000  magneticMoment: [ Abs: 0.01733  Tot: -0.01606 ]
	SubspaceRotationAdjust: set factor to 0.42
ElecMinimize: Iter:  25  F: -2983.173360706648054  |grad|_K:  9.535e-08  alpha:  4.287e-01  linmin:  2.354e-07  t[s]:   6862.14
	FillingsUpdate:  mu: +0.041408665  nElectrons: 705.000000  magneticMoment: [ Abs: 0.01787  Tot: -0.01656 ]
	SubspaceRotationAdjust: set factor to 0.481
ElecMinimize: Iter:  26  F: -2983.173362965400884  |grad|_K:  7.332e-08  alpha:  5.541e-01  linmin:  3.343e-07  t[s]:   7011.27
	FillingsUpdate:  mu: +0.041383294  nElectrons: 705.000000  magneticMoment: [ Abs: 0.01839  Tot: -0.01704 ]
	SubspaceRotationAdjust: set factor to 0.518
ElecMinimize: Iter:  27  F: -2983.173364145566211  |grad|_K:  5.877e-08  alpha:  4.896e-01  linmin:  1.345e-07  t[s]:   7160.13
	FillingsUpdate:  mu: +0.041397259  nElectrons: 705.000000  magneticMoment: [ Abs: 0.01885  Tot: -0.01748 ]
	SubspaceRotationAdjust: set factor to 0.454
ElecMinimize: Iter:  28  F: -2983.173364718514676  |grad|_K:  5.316e-08  alpha:  3.697e-01  linmin:  3.637e-08  t[s]:   7309.30
	FillingsUpdate:  mu: +0.041360002  nElectrons: 705.000000  magneticMoment: [ Abs: 0.01937  Tot: -0.01797 ]
	SubspaceRotationAdjust: set factor to 0.382
ElecMinimize: Iter:  29  F: -2983.173365117493631  |grad|_K:  3.469e-08  alpha:  3.144e-01  linmin:  5.996e-08  t[s]:   7457.59
	FillingsUpdate:  mu: +0.041375310  nElectrons: 705.000000  magneticMoment: [ Abs: 0.02000  Tot: -0.01857 ]
	SubspaceRotationAdjust: set factor to 0.423
ElecMinimize: Iter:  30  F: -2983.173365387333888  |grad|_K:  2.646e-08  alpha:  5.000e-01  linmin:  1.992e-07  t[s]:   7606.05
	FillingsUpdate:  mu: +0.041379797  nElectrons: 705.000000  magneticMoment: [ Abs: 0.02064  Tot: -0.01916 ]
	SubspaceRotationAdjust: set factor to 0.501
ElecMinimize: Iter:  31  F: -2983.173365548037964  |grad|_K:  1.983e-08  alpha:  5.121e-01  linmin:  8.690e-08  t[s]:   7754.89
	FillingsUpdate:  mu: +0.041363418  nElectrons: 705.000000  magneticMoment: [ Abs: 0.02122  Tot: -0.01971 ]
	SubspaceRotationAdjust: set factor to 0.481
ElecMinimize: Iter:  32  F: -2983.173365630038006  |grad|_K:  1.875e-08  alpha:  4.648e-01  linmin:  7.233e-08  t[s]:   7902.90
	FillingsUpdate:  mu: +0.041372331  nElectrons: 705.000000  magneticMoment: [ Abs: 0.02181  Tot: -0.02026 ]
	SubspaceRotationAdjust: set factor to 0.42
ElecMinimize: Iter:  33  F: -2983.173365681222094  |grad|_K:  1.451e-08  alpha:  3.243e-01  linmin: -2.469e-08  t[s]:   8050.96
	FillingsUpdate:  mu: +0.041373054  nElectrons: 705.000000  magneticMoment: [ Abs: 0.02253  Tot: -0.02094 ]
	SubspaceRotationAdjust: set factor to 0.461
ElecMinimize: Iter:  34  F: -2983.173365720159381  |grad|_K:  1.045e-08  alpha:  4.103e-01  linmin: -6.272e-08  t[s]:   8198.57
	FillingsUpdate:  mu: +0.041376147  nElectrons: 705.000000  magneticMoment: [ Abs: 0.02335  Tot: -0.02170 ]
	SubspaceRotationAdjust: set factor to 0.534
ElecMinimize: Iter:  35  F: -2983.173365746456511  |grad|_K:  7.568e-09  alpha:  5.349e-01  linmin: -2.263e-07  t[s]:   8346.21
	FillingsUpdate:  mu: +0.041377883  nElectrons: 705.000000  magneticMoment: [ Abs: 0.02411  Tot: -0.02240 ]
	SubspaceRotationAdjust: set factor to 0.602
ElecMinimize: Iter:  36  F: -2983.173365759419994  |grad|_K:  6.434e-09  alpha:  5.024e-01  linmin:  1.569e-08  t[s]:   8494.58
	FillingsUpdate:  mu: +0.041377357  nElectrons: 705.000000  magneticMoment: [ Abs: 0.02485  Tot: -0.02310 ]
	SubspaceRotationAdjust: set factor to 0.541
ElecMinimize: Iter:  37  F: -2983.173365766588176  |grad|_K:  6.251e-09  alpha:  3.862e-01  linmin:  7.177e-08  t[s]:   8643.14
	FillingsUpdate:  mu: +0.041382546  nElectrons: 705.000000  magneticMoment: [ Abs: 0.02558  Tot: -0.02378 ]
	SubspaceRotationAdjust: set factor to 0.457
ElecMinimize: Iter:  38  F: -2983.173365771237059  |grad|_K:  4.584e-09  alpha:  2.615e-01  linmin: -4.577e-08  t[s]:   8791.64
ElecMinimize: Converged (|Delta F|<1.000000e-08 for 2 iters).
Setting wave functions to eigenvectors of Hamiltonian
Vacuum energy after initial minimize, F = -2983.173365771237059

	Linear fluid (dielectric constant: 78.4, screening length: 5.74355 Bohr) occupying 0.694400 of unit cell:	Completed after 16 iterations at t[s]:   8823.12

-------- Electronic minimization -----------
	Linear fluid (dielectric constant: 78.4, screening length: 5.74355 Bohr) occupying 0.694400 of unit cell:	Completed after 0 iterations at t[s]:   8856.06
	FillingsUpdate:  mu: -0.135132198  nElectrons: 705.000000  magneticMoment: [ Abs: 0.02717  Tot: -0.02531 ]
ElecMinimize: Iter:   0  F: -2983.305395540021891  |grad|_K:  2.412e-06  alpha:  1.000e+00
	Linear fluid (dielectric constant: 78.4, screening length: 5.74355 Bohr) occupying 0.694167 of unit cell:	Completed after 11 iterations at t[s]:   8972.68
	Linear fluid (dielectric constant: 78.4, screening length: 5.74355 Bohr) occupying 0.694359 of unit cell:	Completed after 11 iterations at t[s]:   9021.63
	FillingsUpdate:  mu: -0.138729000  nElectrons: 705.000000  magneticMoment: [ Abs: 0.02731  Tot: -0.02545 ]
	SubspaceRotationAdjust: set factor to 0.337
ElecMinimize: Iter:   1  F: -2983.305864482711058  |grad|_K:  1.148e-06  alpha:  1.808e-01  linmin:  3.357e-06  t[s]:   9083.62
	Linear fluid (dielectric constant: 78.4, screening length: 5.74355 Bohr) occupying 0.694476 of unit cell:	Completed after 6 iterations at t[s]:   9132.40
	Linear fluid (dielectric constant: 78.4, screening length: 5.74355 Bohr) occupying 0.694665 of unit cell:	Completed after 8 iterations at t[s]:   9179.72
	FillingsUpdate:  mu: -0.140814235  nElectrons: 705.000000  magneticMoment: [ Abs: 0.02783  Tot: -0.02586 ]
	SubspaceRotationAdjust: set factor to 0.328
ElecMinimize: Iter:   2  F: -2983.306152899134759  |grad|_K:  8.344e-07  alpha:  4.878e-01  linmin: -5.897e-07  t[s]:   9241.97
	Linear fluid (dielectric constant: 78.4, screening length: 5.74355 Bohr) occupying 0.695157 of unit cell:	Completed after 2 iterations at t[s]:   9290.29
	Linear fluid (dielectric constant: 78.4, screening length: 5.74355 Bohr) occupying 0.695305 of unit cell:	Completed after 2 iterations at t[s]:   9335.81
	FillingsUpdate:  mu: -0.140847129  nElectrons: 705.000000  magneticMoment: [ Abs: 0.02865  Tot: -0.02657 ]
	SubspaceRotationAdjust: set factor to 0.477
ElecMinimize: Iter:   3  F: -2983.306355575439284  |grad|_K:  6.363e-07  alpha:  6.423e-01  linmin: -5.068e-07  t[s]:   9396.58
	Linear fluid (dielectric constant: 78.4, screening length: 5.74355 Bohr) occupying 0.695922 of unit cell:	Completed after 8 iterations at t[s]:   9445.52
	Linear fluid (dielectric constant: 78.4, screening length: 5.74355 Bohr) occupying 0.696028 of unit cell:	Completed after 2 iterations at t[s]:   9492.21
	FillingsUpdate:  mu: -0.140155832  nElectrons: 705.000000  magneticMoment: [ Abs: 0.02972  Tot: -0.02757 ]
	SubspaceRotationAdjust: set factor to 0.632
ElecMinimize: Iter:   4  F: -2983.306495136609556  |grad|_K:  3.663e-07  alpha:  7.568e-01  linmin: -1.414e-06  t[s]:   9552.70
	Linear fluid (dielectric constant: 78.4, screening length: 5.74355 Bohr) occupying 0.696391 of unit cell:	Completed after 8 iterations at t[s]:   9601.72
	Linear fluid (dielectric constant: 78.4, screening length: 5.74355 Bohr) occupying 0.696288 of unit cell:	Completed after 6 iterations at t[s]:   9649.06
	FillingsUpdate:  mu: -0.139464917  nElectrons: 705.000000  magneticMoment: [ Abs: 0.03052  Tot: -0.02837 ]
	SubspaceRotationAdjust: set factor to 0.556
ElecMinimize: Iter:   5  F: -2983.306528120588609  |grad|_K:  2.531e-07  alpha:  5.409e-01  linmin: -4.163e-07  t[s]:   9710.69
	Linear fluid (dielectric constant: 78.4, screening length: 5.74355 Bohr) occupying 0.696384 of unit cell:	Completed after 1 iterations at t[s]:   9758.93
	Linear fluid (dielectric constant: 78.4, screening length: 5.74355 Bohr) occupying 0.696374 of unit cell:	Completed after 2 iterations at t[s]:   9804.95
	FillingsUpdate:  mu: -0.139534130  nElectrons: 705.000000  magneticMoment: [ Abs: 0.03154  Tot: -0.02937 ]
	SubspaceRotationAdjust: set factor to 0.504
ElecMinimize: Iter:   6  F: -2983.306542036799328  |grad|_K:  1.601e-07  alpha:  4.817e-01  linmin:  2.480e-06  t[s]:   9865.70
	Linear fluid (dielectric constant: 78.4, screening length: 5.74355 Bohr) occupying 0.696388 of unit cell:	Completed after 6 iterations at t[s]:   9915.05
	Linear fluid (dielectric constant: 78.4, screening length: 5.74355 Bohr) occupying 0.696385 of unit cell:	Completed after 2 iterations at t[s]:   9962.01
	FillingsUpdate:  mu: -0.139683053  nElectrons: 705.000000  magneticMoment: [ Abs: 0.03230  Tot: -0.03012 ]
	SubspaceRotationAdjust: set factor to 0.368
ElecMinimize: Iter:   7  F: -2983.306546173597781  |grad|_K:  1.691e-07  alpha:  3.630e-01  linmin:  2.740e-06  t[s]:  10022.43
	Linear fluid (dielectric constant: 78.4, screening length: 5.74355 Bohr) occupying 0.696401 of unit cell:	Completed after 3 iterations at t[s]:  10071.16
	Linear fluid (dielectric constant: 78.4, screening length: 5.74355 Bohr) occupying 0.696401 of unit cell:	Completed after 0 iterations at t[s]:  10116.33
	FillingsUpdate:  mu: -0.139591066  nElectrons: 705.000000  magneticMoment: [ Abs: 0.03350  Tot: -0.03128 ]
	SubspaceRotationAdjust: set factor to 0.309
ElecMinimize: Iter:   8  F: -2983.306550541882643  |grad|_K:  9.107e-08  alpha:  3.430e-01  linmin:  2.301e-06  t[s]:  10176.64
	Linear fluid (dielectric constant: 78.4, screening length: 5.74355 Bohr) occupying 0.696402 of unit cell:	Completed after 2 iterations at t[s]:  10224.31
	Linear fluid (dielectric constant: 78.4, screening length: 5.74355 Bohr) occupying 0.696403 of unit cell:	Completed after 0 iterations at t[s]:  10269.55
	FillingsUpdate:  mu: -0.139561106  nElectrons: 705.000000  magneticMoment: [ Abs: 0.03452  Tot: -0.03224 ]
	SubspaceRotationAdjust: set factor to 0.344
ElecMinimize: Iter:   9  F: -2983.306552659370936  |grad|_K:  5.989e-08  alpha:  5.369e-01  linmin: -1.578e-05  t[s]:  10329.90
	Linear fluid (dielectric constant: 78.4, screening length: 5.74355 Bohr) occupying 0.696399 of unit cell:	Completed after 2 iterations at t[s]:  10378.24
	Linear fluid (dielectric constant: 78.4, screening length: 5.74355 Bohr) occupying 0.696398 of unit cell:	Completed after 0 iterations at t[s]:  10423.87
	FillingsUpdate:  mu: -0.139554129  nElectrons: 705.000000  magneticMoment: [ Abs: 0.03549  Tot: -0.03312 ]
	SubspaceRotationAdjust: set factor to 0.357
ElecMinimize: Iter:  10  F: -2983.306553789227564  |grad|_K:  4.672e-08  alpha:  6.091e-01  linmin: -1.460e-06  t[s]:  10484.28
	Linear fluid (dielectric constant: 78.4, screening length: 5.74355 Bohr) occupying 0.696389 of unit cell:	Completed after 2 iterations at t[s]:  10532.13
	Linear fluid (dielectric constant: 78.4, screening length: 5.74355 Bohr) occupying 0.696390 of unit cell:	Completed after 0 iterations at t[s]:  10578.23
	FillingsUpdate:  mu: -0.139575877  nElectrons: 705.000000  magneticMoment: [ Abs: 0.03650  Tot: -0.03404 ]
	SubspaceRotationAdjust: set factor to 0.396
ElecMinimize: Iter:  11  F: -2983.306554345628683  |grad|_K:  3.609e-08  alpha:  5.590e-01  linmin: -6.485e-07  t[s]:  10638.31
	Linear fluid (dielectric constant: 78.4, screening length: 5.74355 Bohr) occupying 0.696381 of unit cell:	Completed after 2 iterations at t[s]:  10686.10
	Linear fluid (dielectric constant: 78.4, screening length: 5.74355 Bohr) occupying 0.696383 of unit cell:	Completed after 0 iterations at t[s]:  10732.00
	FillingsUpdate:  mu: -0.139596271  nElectrons: 705.000000  magneticMoment: [ Abs: 0.03735  Tot: -0.03480 ]
	SubspaceRotationAdjust: set factor to 0.336
ElecMinimize: Iter:  12  F: -2983.306554602794677  |grad|_K:  2.296e-08  alpha:  4.318e-01  linmin:  7.911e-06  t[s]:  10792.02
	Linear fluid (dielectric constant: 78.4, screening length: 5.74355 Bohr) occupying 0.696381 of unit cell:	Completed after 1 iterations at t[s]:  10840.40
	Linear fluid (dielectric constant: 78.4, screening length: 5.74355 Bohr) occupying 0.696381 of unit cell:	Completed after 0 iterations at t[s]:  10885.86
	FillingsUpdate:  mu: -0.139602655  nElectrons: 705.000000  magneticMoment: [ Abs: 0.03793  Tot: -0.03533 ]
	SubspaceRotationAdjust: set factor to 0.285
ElecMinimize: Iter:  13  F: -2983.306554670018613  |grad|_K:  1.483e-08  alpha:  3.285e-01  linmin: -1.080e-05  t[s]:  10945.79
	Linear fluid (dielectric constant: 78.4, screening length: 5.74355 Bohr) occupying 0.696381 of unit cell:	Completed after 0 iterations at t[s]:  10993.36
	Linear fluid (dielectric constant: 78.4, screening length: 5.74355 Bohr) occupying 0.696380 of unit cell:	Completed after 0 iterations at t[s]:  11038.27
	FillingsUpdate:  mu: -0.139602359  nElectrons: 705.000000  magneticMoment: [ Abs: 0.03880  Tot: -0.03612 ]
	SubspaceRotationAdjust: set factor to 0.375
ElecMinimize: Iter:  14  F: -2983.306554726957984  |grad|_K:  9.719e-09  alpha:  5.471e-01  linmin:  1.297e-06  t[s]:  11098.58
	Linear fluid (dielectric constant: 78.4, screening length: 5.74355 Bohr) occupying 0.696380 of unit cell:	Completed after 0 iterations at t[s]:  11146.35
	Linear fluid (dielectric constant: 78.4, screening length: 5.74355 Bohr) occupying 0.696380 of unit cell:	Completed after 0 iterations at t[s]:  11191.35
	FillingsUpdate:  mu: -0.139599733  nElectrons: 705.000000  magneticMoment: [ Abs: 0.03940  Tot: -0.03666 ]
	SubspaceRotationAdjust: set factor to 0.491
ElecMinimize: Iter:  15  F: -2983.306554740879164  |grad|_K:  7.338e-09  alpha:  4.229e-01  linmin: -4.437e-05  t[s]:  11251.86
	Linear fluid (dielectric constant: 78.4, screening length: 5.74355 Bohr) occupying 0.696381 of unit cell:	Completed after 0 iterations at t[s]:  11300.03
	Linear fluid (dielectric constant: 78.4, screening length: 5.74355 Bohr) occupying 0.696381 of unit cell:	Completed after 2 iterations at t[s]:  11345.10
ElecMinimize: 	Step increased F by 6.224082e-08, reducing alpha to 6.396493e-02.
	Linear fluid (dielectric constant: 78.4, screening length: 5.74355 Bohr) occupying 0.696380 of unit cell:	Completed after 0 iterations at t[s]:  11442.98
ElecMinimize: 	Step increased F by 1.897206e-09, reducing alpha to 6.396493e-03.
	Linear fluid (dielectric constant: 78.4, screening length: 5.74355 Bohr) occupying 0.696380 of unit cell:	Completed after 0 iterations at t[s]:  11541.06
	FillingsUpdate:  mu: -0.139585790  nElectrons: 705.000000  magneticMoment: [ Abs: 0.03941  Tot: -0.03667 ]
	SubspaceRotationAdjust: set factor to 0.321
ElecMinimize: Iter:  16  F: -2983.306554743194738  |grad|_K:  3.054e-08  alpha:  6.396e-03  linmin:  3.639e-05  t[s]:  11601.81
ElecMinimize: 	Bad step direction: g.d > 0.
ElecMinimize: 	Undoing step.
	Linear fluid (dielectric constant: 78.4, screening length: 5.74355 Bohr) occupying 0.696380 of unit cell:	Completed after 0 iterations at t[s]:  11650.19
ElecMinimize: 	Step failed: resetting search direction.
	FillingsUpdate:  mu: -0.139585790  nElectrons: 705.000000  magneticMoment: [ Abs: 0.03941  Tot: -0.03667 ]
	SubspaceRotationAdjust: set factor to 0.235
ElecMinimize: Iter:  17  F: -2983.306554743209290  |grad|_K:  2.617e-08  alpha:  0.000e+00
ElecMinimize: Converged (|Delta F|<1.000000e-08 for 2 iters).
Setting wave functions to eigenvectors of Hamiltonian
Single-point solvation energy estimate, DeltaF = -0.133188971972231

# Ionic positions in lattice coordinates:
ion C   0.166666667591666   0.083333332433333   0.566559493686356 1
ion C   0.083333334258333   0.166666665766666   0.433441779321489 1
ion C   0.416666667591666   0.083333332433333   0.566559493686356 1
ion C   0.333333334258333   0.166666665766666   0.433441779321489 1
ion C   0.666666667591666   0.083333332433333   0.566559493686356 1
ion C   0.583333334258333   0.166666665766666   0.433441779321489 1
ion C   0.916666667591666   0.083333332433333   0.566559493686356 1
ion C   0.833333334258333   0.166666665766666   0.433441779321489 1
ion C   0.166666667591666   0.333333332433333   0.566559493686356 1
ion C   0.083333334258333   0.416666665766666   0.433441779321489 1
ion C   0.416666667591666   0.333333332433333   0.566559493686356 1
ion C   0.333333334258333   0.416666665766666   0.433441779321489 1
ion C   0.666666667591666   0.333333332433333   0.566559493686356 1
ion C   0.583333334258333   0.416666665766666   0.433441779321489 1
ion C   0.916666667591666   0.333333332433333   0.566559493686356 1
ion C   0.833333334258333   0.416666665766666   0.433441779321489 1
ion C   0.166666667591666   0.583333332433333   0.566559493686356 1
ion C   0.083333334258333   0.666666665766666   0.433441779321489 1
ion C   0.416666667591666   0.583333332433333   0.566559493686356 1
ion C   0.333333334258333   0.666666665766666   0.433441779321489 1
ion C   0.666666667591666   0.583333332433333   0.566559493686356 1
ion C   0.583333334258333   0.666666665766666   0.433441779321489 1
ion C   0.916666667591666   0.583333332433333   0.566559493686356 1
ion C   0.833333334258333   0.666666665766666   0.433441779321489 1
ion C   0.166666667591666   0.833333332433333   0.566559493686356 1
ion C   0.083333334258333   0.916666665766666   0.433441779321489 1
ion C   0.416666667591666   0.833333332433333   0.566559493686356 1
ion C   0.333333334258333   0.916666665766666   0.433441779321489 1
ion C   0.666666667591666   0.833333332433333   0.566559493686356 1
ion C   0.583333334258333   0.916666665766666   0.433441779321489 1
ion C   0.916666667591666   0.833333332433333   0.566559493686356 1
ion C   0.833333334258333   0.916666665766666   0.433441779321489 1
ion Ti   0.000000000924999  -0.000000000900000   0.500000636503923 1
ion Ti   0.083333334258333   0.166666665766666   0.618882035278155 1
ion Ti   0.166666667591666   0.083333332433333   0.381119237729690 1
ion Ti   0.250000000924999  -0.000000000900000   0.500000636503923 1
ion Ti   0.333333334258333   0.166666665766666   0.618882035278155 1
ion Ti   0.416666667591666   0.083333332433333   0.381119237729690 1
ion Ti   0.500000000924999  -0.000000000900000   0.500000636503923 1
ion Ti   0.583333334258333   0.166666665766666   0.618882035278155 1
ion Ti   0.666666667591666   0.083333332433333   0.381119237729690 1
ion Ti   0.750000000924999  -0.000000000900000   0.500000636503923 1
ion Ti   0.833333334258333   0.166666665766666   0.618882035278155 1
ion Ti   0.916666667591666   0.083333332433333   0.381119237729690 1
ion Ti   1.000000000924999   0.249999999100000   0.500000636503923 1
ion Ti   0.083333334258333   0.416666665766666   0.618882035278155 1
ion Ti   0.166666667591666   0.333333332433333   0.381119237729690 1
ion Ti   0.250000000924999   0.249999999100000   0.500000636503923 1
ion Ti   0.333333334258333   0.416666665766666   0.618882035278155 1
ion Ti   0.416666667591666   0.333333332433333   0.381119237729690 1
ion Ti   0.500000000924999   0.249999999100000   0.500000636503923 1
ion Ti   0.583333334258333   0.416666665766666   0.618882035278155 1
ion Ti   0.666666667591666   0.333333332433333   0.381119237729690 1
ion Ti   0.750000000924999   0.249999999100000   0.500000636503923 1
ion Ti   0.833333334258333   0.416666665766666   0.618882035278155 1
ion Ti   0.916666667591666   0.333333332433333   0.381119237729690 1
ion Ti   1.000000000924999   0.499999999100000   0.500000636503923 1
ion Ti   0.083333334258333   0.666666665766666   0.618882035278155 1
ion Ti   0.166666667591666   0.583333332433333   0.381119237729690 1
ion Ti   0.250000000924999   0.499999999100000   0.500000636503923 1
ion Ti   0.333333334258333   0.666666665766666   0.618882035278155 1
ion Ti   0.416666667591666   0.583333332433333   0.381119237729690 1
ion Ti   0.500000000924999   0.499999999100000   0.500000636503923 1
ion Ti   0.583333334258333   0.666666665766666   0.618882035278155 1
ion Ti   0.666666667591666   0.583333332433333   0.381119237729690 1
ion Ti   0.750000000924999   0.499999999100000   0.500000636503923 1
ion Ti   0.833333334258333   0.666666665766666   0.618882035278155 1
ion Ti   0.916666667591666   0.583333332433333   0.381119237729690 1
ion Ti   1.000000000924999   0.749999999100000   0.500000636503923 1
ion Ti   0.083333334258333   0.916666665766666   0.618882035278155 1
ion Ti   0.166666667591666   0.833333332433333   0.381119237729690 1
ion Ti   0.250000000924999   0.749999999100000   0.500000636503923 1
ion Ti   0.333333334258333   0.916666665766666   0.618882035278155 1
ion Ti   0.416666667591666   0.833333332433333   0.381119237729690 1
ion Ti   0.500000000924999   0.749999999100000   0.500000636503923 1
ion Ti   0.583333334258333   0.916666665766666   0.618882035278155 1
ion Ti   0.666666667591666   0.833333332433333   0.381119237729690 1
ion Ti   0.750000000924999   0.749999999100000   0.500000636503923 1
ion Ti   0.833333334258333   0.916666665766666   0.618882035278155 1
ion Ti   0.916666667591666   0.833333332433333   0.381119237729690 1


# Forces in Lattice coordinates:
force C   0.000000000000000  -0.000000000000000   0.027514420095466 1
force C  -0.000000000000000   0.000000000000000  -0.027514420095068 1
force C   0.000000000000000  -0.000000000000000   0.027514420095466 1
force C   0.000000000000000  -0.000000000000000  -0.027514420095068 1
force C  -0.000000000000000  -0.000000000000000   0.027514420095466 1
force C   0.000000000000000  -0.000000000000000  -0.027514420095011 1
force C   0.000000000000000  -0.000000000000000   0.027514420095466 1
force C   0.000000000000000   0.000000000000000  -0.027514420095068 1
force C   0.000000000000000  -0.000000000000000   0.027514420095466 1
force C   0.000000000000000  -0.000000000000000  -0.027514420095068 1
force C   0.000000000000000  -0.000000000000000   0.027514420095466 1
force C  -0.000000000000000   0.000000000000000  -0.027514420095068 1
force C  -0.000000000000000  -0.000000000000000   0.027514420095466 1
force C  -0.000000000000000  -0.000000000000000  -0.027514420095011 1
force C   0.000000000000000   0.000000000000000   0.027514420095466 1
force C  -0.000000000000000  -0.000000000000000  -0.027514420095011 1
force C  -0.000000000000000  -0.000000000000000   0.027514420095466 1
force C  -0.000000000000000  -0.000000000000000  -0.027514420095011 1
force C  -0.000000000000000  -0.000000000000000   0.027514420095466 1
force C   0.000000000000000  -0.000000000000000  -0.027514420095068 1
force C   0.000000000000000  -0.000000000000000   0.027514420095466 1
force C  -0.000000000000000  -0.000000000000000  -0.027514420095068 1
force C  -0.000000000000000   0.000000000000000   0.027514420095353 1
force C  -0.000000000000000   0.000000000000000  -0.027514420095011 1
force C  -0.000000000000000   0.000000000000000   0.027514420095466 1
force C  -0.000000000000000   0.000000000000000  -0.027514420095068 1
force C  -0.000000000000000   0.000000000000000   0.027514420095466 1
force C  -0.000000000000000   0.000000000000000  -0.027514420095011 1
force C   0.000000000000000  -0.000000000000000   0.027514420095466 1
force C  -0.000000000000000   0.000000000000000  -0.027514420095125 1
force C   0.000000000000000  -0.000000000000000   0.027514420095466 1
force C  -0.000000000000000   0.000000000000000  -0.027514420095068 1
force Ti   0.000000000000000   0.000000000000000   0.000000000000000 1
force Ti   0.000000000000000   0.000000000000000   0.053876926450840 1
force Ti   0.000000000000000   0.000000000000000  -0.053876926459935 1
force Ti  -0.000000000000000   0.000000000000000  -0.000000000000000 1
force Ti   0.000000000000000   0.000000000000000   0.053876926451295 1
force Ti  -0.000000000000000   0.000000000000000  -0.053876926460390 1
force Ti  -0.000000000000000   0.000000000000000   0.000000000000000 1
force Ti  -0.000000000000000  -0.000000000000000   0.053876926450840 1
force Ti  -0.000000000000000  -0.000000000000000  -0.053876926459481 1
force Ti  -0.000000000000000  -0.000000000000000   0.000000000000000 1
force Ti   0.000000000000000  -0.000000000000000   0.053876926450840 1
force Ti  -0.000000000000000  -0.000000000000000  -0.053876926459935 1
force Ti  -0.000000000000000  -0.000000000000000   0.000000000000000 1
force Ti   0.000000000000000  -0.000000000000000   0.053876926450840 1
force Ti   0.000000000000000   0.000000000000000  -0.053876926459481 1
force Ti   0.000000000000000  -0.000000000000000   0.000000000000000 1
force Ti   0.000000000000000  -0.000000000000000   0.053876926450840 1
force Ti  -0.000000000000000   0.000000000000000  -0.053876926459481 1
force Ti  -0.000000000000000   0.000000000000000  -0.000000000000000 1
force Ti  -0.000000000000000  -0.000000000000000   0.053876926450840 1
force Ti  -0.000000000000000   0.000000000000000  -0.053876926459481 1
force Ti  -0.000000000000000   0.000000000000000   0.000000000000000 1
force Ti   0.000000000000000  -0.000000000000000   0.053876926450840 1
force Ti  -0.000000000000000   0.000000000000000  -0.053876926459935 1
force Ti  -0.000000000000000  -0.000000000000000   0.000000000000000 1
force Ti   0.000000000000000  -0.000000000000000   0.053876926450840 1
force Ti  -0.000000000000000   0.000000000000000  -0.053876926459481 1
force Ti  -0.000000000000000   0.000000000000000   0.000000000000000 1
force Ti   0.000000000000000   0.000000000000000   0.053876926450840 1
force Ti  -0.000000000000000  -0.000000000000000  -0.053876926459481 1
force Ti  -0.000000000000000  -0.000000000000000  -0.000000000000000 1
force Ti   0.000000000000000  -0.000000000000000   0.053876926450840 1
force Ti  -0.000000000000000  -0.000000000000000  -0.053876926459481 1
force Ti  -0.000000000000000  -0.000000000000000  -0.000000000000000 1
force Ti   0.000000000000000  -0.000000000000000   0.053876926450840 1
force Ti   0.000000000000000   0.000000000000000  -0.053876926459481 1
force Ti  -0.000000000000000  -0.000000000000000  -0.000000000000000 1
force Ti   0.000000000000000  -0.000000000000000   0.053876926450840 1
force Ti   0.000000000000000  -0.000000000000000  -0.053876926459481 1
force Ti  -0.000000000000000   0.000000000000000   0.000000000000000 1
force Ti  -0.000000000000000   0.000000000000000   0.053876926450840 1
force Ti  -0.000000000000000   0.000000000000000  -0.053876926459935 1
force Ti  -0.000000000000000  -0.000000000000000  -0.000000000000000 1
force Ti  -0.000000000000000   0.000000000000000   0.053876926450840 1
force Ti  -0.000000000000000   0.000000000000000  -0.053876926459481 1
force Ti  -0.000000000000000  -0.000000000000000  -0.000000000000000 1
force Ti   0.000000000000000  -0.000000000000000   0.053876926450840 1
force Ti   0.000000000000000  -0.000000000000000  -0.053876926459935 1

# Energy components:
   A_diel =       -0.1140106392512759
   Eewald =    27007.0763048521403107
       EH =    29533.3417618806306564
     Eloc =   -60091.5320857189144590
      Enl =      286.5064501560640338
      Exc =     -491.9797610336968319
 Exc_core =       63.9311056479802602
       KE =      709.7054142955735188
  MuShift =       -0.0202903213514452
-------------------------------------
     Etot =    -2983.0851108808260506
       TS =        0.2214438623833275
-------------------------------------
        F =    -2983.3065547432092899

IonicMinimize: Iter:   0  F: -2983.306554743209290  |grad|_K:  5.945e-04  t[s]:  11740.30

#--- Lowdin population analysis ---
# oxidation-state C -1.109 -1.109 -1.109 -1.109 -1.109 -1.109 -1.109 -1.109 -1.109 -1.109 -1.109 -1.109 -1.109 -1.109 -1.109 -1.109 -1.109 -1.109 -1.109 -1.109 -1.109 -1.109 -1.109 -1.109 -1.109 -1.109 -1.109 -1.109 -1.109 -1.109 -1.109 -1.109
# magnetic-moments C +0.000 +0.000 +0.000 +0.000 +0.000 +0.000 +0.000 +0.000 +0.000 +0.000 +0.000 +0.000 +0.000 +0.000 +0.000 +0.000 +0.000 +0.000 +0.000 +0.000 +0.000 +0.000 +0.000 +0.000 +0.000 +0.000 +0.000 +0.000 +0.000 +0.000 +0.000 +0.000
# oxidation-state Ti +1.083 +0.858 +0.858 +1.083 +0.858 +0.858 +1.083 +0.858 +0.858 +1.083 +0.858 +0.858 +1.083 +0.858 +0.858 +1.083 +0.858 +0.858 +1.083 +0.858 +0.858 +1.083 +0.858 +0.858 +1.083 +0.858 +0.858 +1.083 +0.858 +0.858 +1.083 +0.858 +0.858 +1.083 +0.858 +0.858 +1.083 +0.858 +0.858 +1.083 +0.858 +0.858 +1.083 +0.858 +0.858 +1.083 +0.858 +0.858
# magnetic-moments Ti -0.000 -0.001 -0.001 -0.000 -0.001 -0.001 -0.000 -0.001 -0.001 -0.000 -0.001 -0.001 -0.000 -0.001 -0.001 -0.000 -0.001 -0.001 -0.000 -0.001 -0.001 -0.000 -0.001 -0.001 -0.000 -0.001 -0.001 -0.000 -0.001 -0.001 -0.000 -0.001 -0.001 -0.000 -0.001 -0.001 -0.000 -0.001 -0.001 -0.000 -0.001 -0.001 -0.000 -0.001 -0.001 -0.000 -0.001 -0.001

	Linear fluid (dielectric constant: 78.4, screening length: 5.74355 Bohr) occupying 0.696376 of unit cell:	Completed after 4 iterations at t[s]:  11791.23

-------- Electronic minimization -----------
	Linear fluid (dielectric constant: 78.4, screening length: 5.74355 Bohr) occupying 0.696376 of unit cell:	Completed after 0 iterations at t[s]:  11822.96
	FillingsUpdate:  mu: -0.139579171  nElectrons: 705.000000  magneticMoment: [ Abs: 0.04191  Tot: -0.03901 ]
ElecMinimize: Iter:   0  F: -2983.306620586994995  |grad|_K:  2.733e-07  alpha:  1.000e+00
	Linear fluid (dielectric constant: 78.4, screening length: 5.74355 Bohr) occupying 0.696379 of unit cell:	Completed after 9 iterations at t[s]:  11939.47
	Linear fluid (dielectric constant: 78.4, screening length: 5.74355 Bohr) occupying 0.696377 of unit cell:	Completed after 8 iterations at t[s]:  11987.78
	FillingsUpdate:  mu: -0.139416019  nElectrons: 705.000000  magneticMoment: [ Abs: 0.04213  Tot: -0.03920 ]
	SubspaceRotationAdjust: set factor to 0.167
ElecMinimize: Iter:   1  F: -2983.306631963019754  |grad|_K:  1.345e-07  alpha:  3.348e-01  linmin: -1.009e-04  t[s]:  12050.46
	Linear fluid (dielectric constant: 78.4, screening length: 5.74355 Bohr) occupying 0.696370 of unit cell:	Completed after 3 iterations at t[s]:  12098.93
	Linear fluid (dielectric constant: 78.4, screening length: 5.74355 Bohr) occupying 0.696366 of unit cell:	Completed after 2 iterations at t[s]:  12145.05
	FillingsUpdate:  mu: -0.139493666  nElectrons: 705.000000  magneticMoment: [ Abs: 0.04256  Tot: -0.03959 ]
	SubspaceRotationAdjust: set factor to 0.239
ElecMinimize: Iter:   2  F: -2983.306636328783952  |grad|_K:  7.375e-08  alpha:  5.361e-01  linmin: -5.357e-05  t[s]:  12205.83
	Linear fluid (dielectric constant: 78.4, screening length: 5.74355 Bohr) occupying 0.696358 of unit cell:	Completed after 2 iterations at t[s]:  12253.98
	Linear fluid (dielectric constant: 78.4, screening length: 5.74355 Bohr) occupying 0.696358 of unit cell:	Completed after 0 iterations at t[s]:  12300.18
	FillingsUpdate:  mu: -0.139569225  nElectrons: 705.000000  magneticMoment: [ Abs: 0.04294  Tot: -0.03992 ]
	SubspaceRotationAdjust: set factor to 0.286
ElecMinimize: Iter:   3  F: -2983.306637593239429  |grad|_K:  5.662e-08  alpha:  5.176e-01  linmin: -2.167e-04  t[s]:  12360.64
	Linear fluid (dielectric constant: 78.4, screening length: 5.74355 Bohr) occupying 0.696352 of unit cell:	Completed after 3 iterations at t[s]:  12408.93
	Linear fluid (dielectric constant: 78.4, screening length: 5.74355 Bohr) occupying 0.696349 of unit cell:	Completed after 0 iterations at t[s]:  12454.68
	FillingsUpdate:  mu: -0.139618758  nElectrons: 705.000000  magneticMoment: [ Abs: 0.04377  Tot: -0.04067 ]
	SubspaceRotationAdjust: set factor to 0.293
ElecMinimize: Iter:   4  F: -2983.306638822091827  |grad|_K:  4.821e-08  alpha:  7.560e-01  linmin: -4.903e-04  t[s]:  12515.00
	Linear fluid (dielectric constant: 78.4, screening length: 5.74355 Bohr) occupying 0.696345 of unit cell:	Completed after 2 iterations at t[s]:  12563.44
	Linear fluid (dielectric constant: 78.4, screening length: 5.74355 Bohr) occupying 0.696346 of unit cell:	Completed after 0 iterations at t[s]:  12608.86
	FillingsUpdate:  mu: -0.139609067  nElectrons: 705.000000  magneticMoment: [ Abs: 0.04482  Tot: -0.04163 ]
	SubspaceRotationAdjust: set factor to 0.223
ElecMinimize: Iter:   5  F: -2983.306639638774868  |grad|_K:  5.084e-08  alpha:  6.478e-01  linmin:  8.910e-05  t[s]:  12669.49
	Linear fluid (dielectric constant: 78.4, screening length: 5.74355 Bohr) occupying 0.696341 of unit cell:	Completed after 2 iterations at t[s]:  12717.49
	Linear fluid (dielectric constant: 78.4, screening length: 5.74355 Bohr) occupying 0.696343 of unit cell:	Completed after 1 iterations at t[s]:  12762.94
	FillingsUpdate:  mu: -0.139619656  nElectrons: 705.000000  magneticMoment: [ Abs: 0.04579  Tot: -0.04253 ]
	SubspaceRotationAdjust: set factor to 0.193
ElecMinimize: Iter:   6  F: -2983.306640011194304  |grad|_K:  2.649e-08  alpha:  3.698e-01  linmin:  3.533e-05  t[s]:  12823.52
	Linear fluid (dielectric constant: 78.4, screening length: 5.74355 Bohr) occupying 0.696342 of unit cell:	Completed after 1 iterations at t[s]:  12871.70
	Linear fluid (dielectric constant: 78.4, screening length: 5.74355 Bohr) occupying 0.696342 of unit cell:	Completed after 0 iterations at t[s]:  12916.91
	FillingsUpdate:  mu: -0.139616553  nElectrons: 705.000000  magneticMoment: [ Abs: 0.04629  Tot: -0.04299 ]
	SubspaceRotationAdjust: set factor to 0.215
ElecMinimize: Iter:   7  F: -2983.306640119419626  |grad|_K:  1.394e-08  alpha:  3.628e-01  linmin: -9.423e-05  t[s]:  12977.71
[...]
ElecMinimize: 	Step failed: resetting search direction.
	FillingsUpdate:  mu: -0.139608495  nElectrons: 705.000000  magneticMoment: [ Abs: 0.14274  Tot: -0.13248 ]
	SubspaceRotationAdjust: set factor to 0.0634
ElecMinimize: Iter:  22  F: -2983.307071268927302  |grad|_K:  1.151e-08  alpha:  3.774e-04
	Linear fluid (dielectric constant: 78.4, screening length: 5.74355 Bohr) occupying 0.696009 of unit cell:	Completed after 0 iterations at t[s]:  32701.83
	Linear fluid (dielectric constant: 78.4, screening length: 5.74355 Bohr) occupying 0.696009 of unit cell:	Completed after 0 iterations at t[s]:  32746.78
	FillingsUpdate:  mu: -0.139608975  nElectrons: 705.000000  magneticMoment: [ Abs: 0.14292  Tot: -0.13264 ]
	SubspaceRotationAdjust: set factor to 0.0444
ElecMinimize: Iter:  23  F: -2983.307071286986684  |grad|_K:  8.417e-09  alpha:  2.897e-01  linmin: -5.595e-03  t[s]:  32806.73
	Linear fluid (dielectric constant: 78.4, screening length: 5.74355 Bohr) occupying 0.696009 of unit cell:	Completed after 2 iterations at t[s]:  32854.91
	Linear fluid (dielectric constant: 78.4, screening length: 5.74355 Bohr) occupying 0.696009 of unit cell:	Completed after 0 iterations at t[s]:  32900.73
ElecMinimize: 	Step increased F by 4.749518e-08, reducing alpha to 3.985146e-03.
	Linear fluid (dielectric constant: 78.4, screening length: 5.74355 Bohr) occupying 0.696009 of unit cell:	Completed after 0 iterations at t[s]:  32998.13
ElecMinimize: 	Step increased F by 4.305321e-08, reducing alpha to 3.985146e-04.
	Linear fluid (dielectric constant: 78.4, screening length: 5.74355 Bohr) occupying 0.696009 of unit cell:	Completed after 0 iterations at t[s]:  33095.63
ElecMinimize: 	Step increased F by 4.258663e-08, reducing alpha to 3.985146e-05.
ElecMinimize: 	Step failed to reduce F after 3 attempts. Quitting step.
ElecMinimize: 	Undoing step.
	Linear fluid (dielectric constant: 78.4, screening length: 5.74355 Bohr) occupying 0.696009 of unit cell:	Completed after 0 iterations at t[s]:  33193.48
ElecMinimize: 	Step failed: resetting search direction.
	FillingsUpdate:  mu: -0.139616329  nElectrons: 705.000000  magneticMoment: [ Abs: 0.14292  Tot: -0.13264 ]
	SubspaceRotationAdjust: set factor to 0.0326
	SubspaceRotationAdjust: resetting CG because factor has changed by 0.121562
	Linear fluid (dielectric constant: 78.4, screening length: 5.74355 Bohr) occupying 0.696009 of unit cell:	Completed after 0 iterations at t[s]:  33278.29
ElecMinimize: 	State modified externally: resetting search direction.
ElecMinimize: Iter:  24  F: -2983.307071244465533  |grad|_K:  1.079e-08  alpha:  3.985e-05
	Linear fluid (dielectric constant: 78.4, screening length: 5.74355 Bohr) occupying 0.696009 of unit cell:	Completed after 0 iterations at t[s]:  33385.76
	Linear fluid (dielectric constant: 78.4, screening length: 5.74355 Bohr) occupying 0.696009 of unit cell:	Completed after 0 iterations at t[s]:  33430.83
	FillingsUpdate:  mu: -0.139615953  nElectrons: 705.000000  magneticMoment: [ Abs: 0.14319  Tot: -0.13286 ]
	SubspaceRotationAdjust: set factor to 0.0206
ElecMinimize: Iter:  25  F: -2983.307071286293649  |grad|_K:  8.818e-09  alpha:  7.958e-01  linmin: -3.341e-05  t[s]:  33490.73
	Linear fluid (dielectric constant: 78.4, screening length: 5.74355 Bohr) occupying 0.696009 of unit cell:	Completed after 2 iterations at t[s]:  33539.23
	Linear fluid (dielectric constant: 78.4, screening length: 5.74355 Bohr) occupying 0.696009 of unit cell:	Completed after 0 iterations at t[s]:  33584.57
ElecMinimize: 	Step increased F by 7.744302e-08, reducing alpha to 9.725207e-03.
	Linear fluid (dielectric constant: 78.4, screening length: 5.74355 Bohr) occupying 0.696009 of unit cell:	Completed after 0 iterations at t[s]:  33682.77
ElecMinimize: 	Step increased F by 6.775826e-08, reducing alpha to 9.725207e-04.
	Linear fluid (dielectric constant: 78.4, screening length: 5.74355 Bohr) occupying 0.696009 of unit cell:	Completed after 0 iterations at t[s]:  33781.20
ElecMinimize: 	Step increased F by 6.672644e-08, reducing alpha to 9.725207e-05.
ElecMinimize: 	Step failed to reduce F after 3 attempts. Quitting step.
ElecMinimize: 	Undoing step.
	Linear fluid (dielectric constant: 78.4, screening length: 5.74355 Bohr) occupying 0.696009 of unit cell:	Completed after 0 iterations at t[s]:  33878.68
ElecMinimize: 	Step failed: resetting search direction.
	FillingsUpdate:  mu: -0.139612121  nElectrons: 705.000000  magneticMoment: [ Abs: 0.14319  Tot: -0.13286 ]
	SubspaceRotationAdjust: set factor to 0.0193
ElecMinimize: Iter:  26  F: -2983.307071219652698  |grad|_K:  2.414e-08  alpha:  9.725e-05
	Linear fluid (dielectric constant: 78.4, screening length: 5.74355 Bohr) occupying 0.696009 of unit cell:	Completed after 1 iterations at t[s]:  33986.88
	Linear fluid (dielectric constant: 78.4, screening length: 5.74355 Bohr) occupying 0.696009 of unit cell:	Completed after 2 iterations at t[s]:  34032.07
	FillingsUpdate:  mu: -0.139613029  nElectrons: 705.000000  magneticMoment: [ Abs: 0.14325  Tot: -0.13291 ]
	SubspaceRotationAdjust: set factor to 0.0201
ElecMinimize: Iter:  27  F: -2983.307071242095390  |grad|_K:  4.115e-09  alpha:  2.581e-01  linmin:  3.874e-03  t[s]:  34093.06
	Linear fluid (dielectric constant: 78.4, screening length: 5.74355 Bohr) occupying 0.696009 of unit cell:	Completed after 0 iterations at t[s]:  34140.94
	Linear fluid (dielectric constant: 78.4, screening length: 5.74355 Bohr) occupying 0.696009 of unit cell:	Completed after 0 iterations at t[s]:  34185.92
	FillingsUpdate:  mu: -0.139613087  nElectrons: 705.000000  magneticMoment: [ Abs: 0.14336  Tot: -0.13300 ]
	SubspaceRotationAdjust: set factor to 0.0259
ElecMinimize: Iter:  28  F: -2983.307071245608313  |grad|_K:  1.706e-09  alpha:  5.434e-01  linmin:  1.923e-04  t[s]:  34246.46
	Linear fluid (dielectric constant: 78.4, screening length: 5.74355 Bohr) occupying 0.696009 of unit cell:	Completed after 0 iterations at t[s]:  34294.54
	Linear fluid (dielectric constant: 78.4, screening length: 5.74355 Bohr) occupying 0.696009 of unit cell:	Completed after 0 iterations at t[s]:  34338.85
	FillingsUpdate:  mu: -0.139613093  nElectrons: 705.000000  magneticMoment: [ Abs: 0.14356  Tot: -0.13317 ]
	SubspaceRotationAdjust: set factor to 0.0324
ElecMinimize: Iter:  29  F: -2983.307071246508713  |grad|_K:  2.222e-09  alpha:  8.363e-01  linmin:  2.836e-05  t[s]:  34399.00
ElecMinimize: Converged (|Delta F|<1.000000e-08 for 2 iters).
Setting wave functions to eigenvectors of Hamiltonian

# Ionic positions in lattice coordinates:
ion C   0.166666667591666   0.083333332433333   0.566874598983037 1
ion C   0.083333334258333   0.166666665766666   0.433126674024808 1
ion C   0.416666667591666   0.083333332433333   0.566874598983037 1
ion C   0.333333334258333   0.166666665766666   0.433126674024808 1
ion C   0.666666667591666   0.083333332433333   0.566874598983037 1
ion C   0.583333334258333   0.166666665766666   0.433126674024808 1
ion C   0.916666667591666   0.083333332433333   0.566874598983037 1
ion C   0.833333334258333   0.166666665766666   0.433126674024808 1
ion C   0.166666667591666   0.333333332433333   0.566874598983037 1
ion C   0.083333334258333   0.416666665766666   0.433126674024808 1
ion C   0.416666667591666   0.333333332433333   0.566874598983037 1
ion C   0.333333334258333   0.416666665766666   0.433126674024808 1
ion C   0.666666667591666   0.333333332433333   0.566874598983037 1
ion C   0.583333334258333   0.416666665766666   0.433126674024808 1
ion C   0.916666667591666   0.333333332433333   0.566874598983037 1
ion C   0.833333334258333   0.416666665766666   0.433126674024808 1
ion C   0.166666667591666   0.583333332433333   0.566874598983037 1
ion C   0.083333334258333   0.666666665766666   0.433126674024808 1
ion C   0.416666667591666   0.583333332433333   0.566874598983037 1
ion C   0.333333334258333   0.666666665766666   0.433126674024808 1
ion C   0.666666667591666   0.583333332433333   0.566874598983037 1
ion C   0.583333334258333   0.666666665766666   0.433126674024808 1
ion C   0.916666667591666   0.583333332433333   0.566874598983037 1
ion C   0.833333334258333   0.666666665766666   0.433126674024808 1
ion C   0.166666667591666   0.833333332433333   0.566874598983037 1
ion C   0.083333334258333   0.916666665766666   0.433126674024808 1
ion C   0.416666667591666   0.833333332433333   0.566874598983037 1
ion C   0.333333334258333   0.916666665766666   0.433126674024808 1
ion C   0.666666667591666   0.833333332433333   0.566874598983037 1
ion C   0.583333334258333   0.916666665766666   0.433126674024808 1
ion C   0.916666667591666   0.833333332433333   0.566874598983037 1
ion C   0.833333334258333   0.916666665766666   0.433126674024808 1
ion Ti   0.000000000924999  -0.000000000900000   0.500000636503923 1
ion Ti   0.083333334258333   0.166666665766666   0.619292825186694 1
ion Ti   0.166666667591666   0.083333332433333   0.380708447821151 1
ion Ti   0.250000000924999  -0.000000000900000   0.500000636503923 1
ion Ti   0.333333334258333   0.166666665766666   0.619292825186694 1
ion Ti   0.416666667591666   0.083333332433333   0.380708447821151 1
ion Ti   0.500000000924999  -0.000000000900000   0.500000636503923 1
ion Ti   0.583333334258333   0.166666665766666   0.619292825186694 1
ion Ti   0.666666667591666   0.083333332433333   0.380708447821151 1
ion Ti   0.750000000924999  -0.000000000900000   0.500000636503923 1
ion Ti   0.833333334258333   0.166666665766666   0.619292825186694 1
ion Ti   0.916666667591666   0.083333332433333   0.380708447821151 1
ion Ti   1.000000000924999   0.249999999100000   0.500000636503923 1
ion Ti   0.083333334258333   0.416666665766666   0.619292825186694 1
ion Ti   0.166666667591666   0.333333332433333   0.380708447821151 1
ion Ti   0.250000000924999   0.249999999100000   0.500000636503923 1
ion Ti   0.333333334258333   0.416666665766666   0.619292825186694 1
ion Ti   0.416666667591666   0.333333332433333   0.380708447821151 1
ion Ti   0.500000000924999   0.249999999100000   0.500000636503923 1
ion Ti   0.583333334258333   0.416666665766666   0.619292825186694 1
ion Ti   0.666666667591666   0.333333332433333   0.380708447821151 1
ion Ti   0.750000000924999   0.249999999100000   0.500000636503923 1
ion Ti   0.833333334258333   0.416666665766666   0.619292825186694 1
ion Ti   0.916666667591666   0.333333332433333   0.380708447821151 1
ion Ti   1.000000000924999   0.499999999100000   0.500000636503923 1
ion Ti   0.083333334258333   0.666666665766666   0.619292825186694 1
ion Ti   0.166666667591666   0.583333332433333   0.380708447821151 1
ion Ti   0.250000000924999   0.499999999100000   0.500000636503923 1
ion Ti   0.333333334258333   0.666666665766666   0.619292825186694 1
ion Ti   0.416666667591666   0.583333332433333   0.380708447821151 1
ion Ti   0.500000000924999   0.499999999100000   0.500000636503923 1
ion Ti   0.583333334258333   0.666666665766666   0.619292825186694 1
ion Ti   0.666666667591666   0.583333332433333   0.380708447821151 1
ion Ti   0.750000000924999   0.499999999100000   0.500000636503923 1
ion Ti   0.833333334258333   0.666666665766666   0.619292825186694 1
ion Ti   0.916666667591666   0.583333332433333   0.380708447821151 1
ion Ti   1.000000000924999   0.749999999100000   0.500000636503923 1
ion Ti   0.083333334258333   0.916666665766666   0.619292825186694 1
ion Ti   0.166666667591666   0.833333332433333   0.380708447821151 1
ion Ti   0.250000000924999   0.749999999100000   0.500000636503923 1
ion Ti   0.333333334258333   0.916666665766666   0.619292825186694 1
ion Ti   0.416666667591666   0.833333332433333   0.380708447821151 1
ion Ti   0.500000000924999   0.749999999100000   0.500000636503923 1
ion Ti   0.583333334258333   0.916666665766666   0.619292825186694 1
ion Ti   0.666666667591666   0.833333332433333   0.380708447821151 1
ion Ti   0.750000000924999   0.749999999100000   0.500000636503923 1
ion Ti   0.833333334258333   0.916666665766666   0.619292825186694 1
ion Ti   0.916666667591666   0.833333332433333   0.380708447821151 1


# Forces in Lattice coordinates:
force C   0.000000000000000   0.000000000000000   0.000059856632992 1
force C   0.000000000000000   0.000000000000000  -0.000059856632366 1
force C  -0.000000000000000  -0.000000000000000   0.000059856632991 1
force C   0.000000000000000   0.000000000000000  -0.000059856632480 1
force C   0.000000000000000  -0.000000000000000   0.000059856632878 1
force C   0.000000000000000   0.000000000000000  -0.000059856632593 1
force C  -0.000000000000000   0.000000000000000   0.000059856632935 1
force C  -0.000000000000000  -0.000000000000000  -0.000059856632423 1
force C   0.000000000000000   0.000000000000000   0.000059856632992 1
force C  -0.000000000000000  -0.000000000000000  -0.000059856632366 1
force C   0.000000000000000   0.000000000000000   0.000059856633049 1
force C  -0.000000000000000   0.000000000000000  -0.000059856632423 1
force C   0.000000000000000  -0.000000000000000   0.000059856632992 1
force C   0.000000000000000   0.000000000000000  -0.000059856632537 1
force C  -0.000000000000000   0.000000000000000   0.000059856632821 1
force C  -0.000000000000000   0.000000000000000  -0.000059856632423 1
force C  -0.000000000000000  -0.000000000000000   0.000059856632935 1
force C  -0.000000000000000   0.000000000000000  -0.000059856632480 1
force C  -0.000000000000000   0.000000000000000   0.000059856632992 1
force C   0.000000000000000  -0.000000000000000  -0.000059856632480 1
force C  -0.000000000000000  -0.000000000000000   0.000059856632991 1
force C  -0.000000000000000  -0.000000000000000  -0.000059856632593 1
force C  -0.000000000000000  -0.000000000000000   0.000059856632935 1
force C   0.000000000000000  -0.000000000000000  -0.000059856632537 1
force C   0.000000000000000   0.000000000000000   0.000059856632992 1
force C  -0.000000000000000   0.000000000000000  -0.000059856632366 1
force C  -0.000000000000000  -0.000000000000000   0.000059856632935 1
force C   0.000000000000000  -0.000000000000000  -0.000059856632423 1
force C  -0.000000000000000   0.000000000000000   0.000059856632991 1
force C  -0.000000000000000   0.000000000000000  -0.000059856632593 1
force C  -0.000000000000000   0.000000000000000   0.000059856632935 1
force C  -0.000000000000000  -0.000000000000000  -0.000059856632423 1
force Ti  -0.000000000000000   0.000000000000000   0.000000000000000 1
force Ti  -0.000000000000000  -0.000000000000000   0.000550929243513 1
force Ti   0.000000000000000   0.000000000000000  -0.000550929241239 1
force Ti   0.000000000000000   0.000000000000000   0.000000000000000 1
force Ti  -0.000000000000000  -0.000000000000000   0.000550929244422 1
force Ti  -0.000000000000000   0.000000000000000  -0.000550929241239 1
force Ti   0.000000000000000  -0.000000000000000   0.000000000000000 1
force Ti   0.000000000000000  -0.000000000000000   0.000550929243967 1
force Ti  -0.000000000000000   0.000000000000000  -0.000550929241239 1
force Ti   0.000000000000000  -0.000000000000000   0.000000000000000 1
force Ti   0.000000000000000  -0.000000000000000   0.000550929243513 1
force Ti  -0.000000000000000   0.000000000000000  -0.000550929241693 1
force Ti   0.000000000000000   0.000000000000000   0.000000000000000 1
force Ti   0.000000000000000  -0.000000000000000   0.000550929243058 1
force Ti  -0.000000000000000  -0.000000000000000  -0.000550929241693 1
force Ti  -0.000000000000000  -0.000000000000000   0.000000000000000 1
force Ti   0.000000000000000   0.000000000000000   0.000550929243513 1
force Ti  -0.000000000000000  -0.000000000000000  -0.000550929241694 1
force Ti   0.000000000000000   0.000000000000000   0.000000000000000 1
force Ti   0.000000000000000  -0.000000000000000   0.000550929243967 1
force Ti   0.000000000000000   0.000000000000000  -0.000550929241693 1
force Ti   0.000000000000000  -0.000000000000000  -0.000000000000000 1
force Ti   0.000000000000000  -0.000000000000000   0.000550929243967 1
force Ti  -0.000000000000000   0.000000000000000  -0.000550929241693 1
force Ti  -0.000000000000000   0.000000000000000   0.000000000000000 1
force Ti   0.000000000000000  -0.000000000000000   0.000550929243967 1
force Ti  -0.000000000000000  -0.000000000000000  -0.000550929241693 1
force Ti  -0.000000000000000  -0.000000000000000   0.000000000000000 1
force Ti   0.000000000000000  -0.000000000000000   0.000550929243058 1
force Ti  -0.000000000000000   0.000000000000000  -0.000550929242148 1
force Ti  -0.000000000000000   0.000000000000000   0.000000000000000 1
force Ti   0.000000000000000  -0.000000000000000   0.000550929243513 1
force Ti  -0.000000000000000   0.000000000000000  -0.000550929241693 1
force Ti  -0.000000000000000   0.000000000000000  -0.000000000000000 1
force Ti   0.000000000000000  -0.000000000000000   0.000550929243967 1
force Ti  -0.000000000000000   0.000000000000000  -0.000550929241694 1
force Ti  -0.000000000000000  -0.000000000000000  -0.000000000000000 1
force Ti   0.000000000000000  -0.000000000000000   0.000550929243967 1
force Ti  -0.000000000000000   0.000000000000000  -0.000550929242148 1
force Ti   0.000000000000000  -0.000000000000000   0.000000000000000 1
force Ti   0.000000000000000   0.000000000000000   0.000550929243967 1
force Ti   0.000000000000000   0.000000000000000  -0.000550929242148 1
force Ti   0.000000000000000  -0.000000000000000  -0.000000000000000 1
force Ti   0.000000000000000  -0.000000000000000   0.000550929243967 1
force Ti   0.000000000000000   0.000000000000000  -0.000550929242148 1
force Ti  -0.000000000000000   0.000000000000000  -0.000000000000000 1
force Ti  -0.000000000000000  -0.000000000000000   0.000550929243513 1
force Ti   0.000000000000000   0.000000000000000  -0.000550929241693 1

# Energy components:
   A_diel =       -0.1140008260156117
   Eewald =    26969.6425988333394343
       EH =    29495.7698043795571721
     Eloc =   -60016.3457412208081223
      Enl =      286.4816944374831564
      Exc =     -491.8889740570982099
 Exc_core =       63.9312571553196207
       KE =      709.4586901264895005
  MuShift =       -0.0202903213514452
-------------------------------------
     Etot =    -2983.0849614930875759
       TS =        0.2221097534210011
-------------------------------------
        F =    -2983.3070712465087126

IonicMinimize: Iter:   4  F: -2983.307071246508713  |grad|_K:  5.446e-06  alpha:  1.000e+00  linmin:  8.090e-01  t[s]:  34428.52
IonicMinimize: Converged (|grad|_K<1.000000e-04).

#--- Lowdin population analysis ---
# oxidation-state C -1.110 -1.110 -1.110 -1.110 -1.110 -1.110 -1.110 -1.110 -1.110 -1.110 -1.110 -1.110 -1.110 -1.110 -1.110 -1.110 -1.110 -1.110 -1.110 -1.110 -1.110 -1.110 -1.110 -1.110 -1.110 -1.110 -1.110 -1.110 -1.110 -1.110 -1.110 -1.110
# magnetic-moments C +0.000 +0.000 +0.000 +0.000 +0.000 +0.000 +0.000 +0.000 +0.000 +0.000 +0.000 +0.000 +0.000 +0.000 +0.000 +0.000 +0.000 +0.000 +0.000 +0.000 +0.000 +0.000 +0.000 +0.000 +0.000 +0.000 +0.000 +0.000 +0.000 +0.000 +0.000 +0.000
# oxidation-state Ti +1.085 +0.859 +0.859 +1.085 +0.859 +0.859 +1.085 +0.859 +0.859 +1.085 +0.859 +0.859 +1.085 +0.859 +0.859 +1.085 +0.859 +0.859 +1.085 +0.859 +0.859 +1.085 +0.859 +0.859 +1.085 +0.859 +0.859 +1.085 +0.859 +0.859 +1.085 +0.859 +0.859 +1.085 +0.859 +0.859 +1.085 +0.859 +0.859 +1.085 +0.859 +0.859 +1.085 +0.859 +0.859 +1.085 +0.859 +0.859
# magnetic-moments Ti -0.000 -0.003 -0.003 -0.000 -0.003 -0.003 -0.000 -0.003 -0.003 -0.000 -0.003 -0.003 -0.000 -0.003 -0.003 -0.000 -0.003 -0.003 -0.000 -0.003 -0.003 -0.000 -0.003 -0.003 -0.000 -0.003 -0.003 -0.000 -0.003 -0.003 -0.000 -0.003 -0.003 -0.000 -0.003 -0.003 -0.000 -0.003 -0.003 -0.000 -0.003 -0.003 -0.000 -0.003 -0.003 -0.000 -0.003 -0.003


Dumping 'NbTe2.fillings' ... done
Dumping 'NbTe2.wfns' ... done
Dumping 'NbTe2.fluidState' ... done
Dumping 'NbTe2.ionpos' ... done
Dumping 'NbTe2.eigenvals' ... done
End date and time: Sun Jan  3 18:15:29 2021  (Duration: 0-9:34:10.89)
Done!
