
*************** JDFTx 1.5.0  ***************

Start date and time: Sat Jul 18 10:32:35 2020
Executable jdftx_gpu with command-line: -i Charged.in -o Charged.out
Running on hosts (process indices):  amax (0-5)
Divided in process groups (process indices):  0 (0)  1 (1)  2 (2)  3 (3)  4 (4)  5 (5)
gpuInit: Found compatible cuda device 0 'Tesla K80'
gpuInit: Found compatible cuda device 1 'Tesla K80'
gpuInit: Found compatible cuda device 2 'Tesla K80'
gpuInit: Found compatible cuda device 3 'Tesla K80'
gpuInit: Found compatible cuda device 4 'Tesla K80'
gpuInit: Found compatible cuda device 5 'Tesla K80'
gpuInit: Selected device 0
Resource initialization completed at t[s]:      4.70
Run totals: 6 processes, 24 threads, 6 GPUs


Input parsed successfully to the following command list (including defaults):

basis kpoint-dependent
cache-projectors no
coords-type Lattice
core-overlap-check none
coulomb-interaction Slab 001
coulomb-truncation-embed 0 0 0.5
davidson-band-ratio 1.1
dump End State
dump-name NbTe2.$VAR
elec-cutoff 20 100
elec-eigen-algo Davidson
elec-ex-corr gga-PBE
elec-smearing Gauss 0.0073499
electronic-minimize  \
	dirUpdateScheme      FletcherReeves \
	linminMethod         DirUpdateRecommended \
	nIterations          500 \
	history              15 \
	knormThreshold       0 \
	energyDiffThreshold  1e-08 \
	nEnergyDiff          2 \
	alphaTstart          1 \
	alphaTmin            1e-10 \
	updateTestStepSize   yes \
	alphaTreduceFactor   0.1 \
	alphaTincreaseFactor 3 \
	nAlphaAdjustMax      3 \
	wolfeEnergy          0.0001 \
	wolfeGradient        0.9 \
	fdTest               no
exchange-regularization WignerSeitzTruncated
fluid LinearPCM 298.000000 1.013250
fluid-anion F- 1 MeanFieldLJ \
	epsBulk 1 \
	pMol 0 \
	epsInf 1 \
	Pvap 0 \
	sigmaBulk 0 \
	Rvdw 2.24877 \
	Res 0 \
	tauNuc 343133
fluid-cation Na+ 1 MeanFieldLJ \
	epsBulk 1 \
	pMol 0 \
	epsInf 1 \
	Pvap 0 \
	sigmaBulk 0 \
	Rvdw 2.19208 \
	Res 0 \
	tauNuc 343133
fluid-ex-corr lda-TF lda-PZ
fluid-gummel-loop 10 1.000000e-05
fluid-minimize  \
	dirUpdateScheme      PolakRibiere \
	linminMethod         DirUpdateRecommended \
	nIterations          400 \
	history              15 \
	knormThreshold       1e-11 \
	energyDiffThreshold  0 \
	nEnergyDiff          2 \
	alphaTstart          1 \
	alphaTmin            1e-10 \
	updateTestStepSize   yes \
	alphaTreduceFactor   0.1 \
	alphaTincreaseFactor 3 \
	nAlphaAdjustMax      6 \
	wolfeEnergy          0.0001 \
	wolfeGradient        0.9 \
	fdTest               no
fluid-solvent H2O 55.338 ScalarEOS \
	epsBulk 78.4 \
	pMol 0.92466 \
	epsInf 1.77 \
	Pvap 1.06736e-10 \
	sigmaBulk 4.62e-05 \
	Rvdw 2.61727 \
	Res 1.42 \
	tauNuc 343133 \
	poleEl 15 7 1
forces-output-coords Positions
initial-state NbTe2.$VAR
ion Sc   0.749845517559356   0.535711137695579   0.552893177251682 0
ion Sc   0.415990705659878   0.683938525959875   0.446172173950895 0
ion Sc   0.930434014457292   0.338369646053942   0.493744033820237 0
ion Sc   0.249065962984179   0.870431449330988   0.516150605951713 0
ion Sc   0.692262998819754   0.336686962678945   0.597376419899231 0
ion Sc   0.472025311353502   0.885213340009330   0.395540608593030 0
ion Sc   0.429533078819882   0.424768338482634   0.518566935081030 0
ion Sc   0.729557508149469   0.794607339417606   0.490832438409040 0
ion Sc   0.667059146381918   0.429208198487971   0.415333829667104 0
ion Sc   0.617251095993434   0.230389459714450   0.462380074925993 0
ion Sc   0.551422442744179   0.986151608101921   0.544386320885555 0
ion C   0.473993367986514   0.799719841900739   0.478053174527668 0
ion C   0.696818677607403   0.422818728527388   0.517186560776573 0
ion C   0.505412508663737   0.872435489744245   0.501655537813844 0
ion C   0.661960013033081   0.345265631068169   0.495234173238838 0
ion I   0.762402901243525   0.475597530105102   0.670583295341582 0
ion I   0.407172818728904   0.741121327679028   0.326961454561121 0
ion I   0.067640003829976   0.487492552294048   0.534189186363781 0
ion I   0.107199908899613   0.725053822366054   0.464282226762301 0
ion I   0.431708069488225   0.598202366478605   0.563151430955704 0
ion I   0.735612640937968   0.612953023717861   0.429864162445777 0
ion I   0.544138927971933   0.057743077941017   0.416879904224375 0
ion I   0.621764878254952   0.160028095702181   0.581986686498393 0
ion I   0.924250035924453   0.172873415878685   0.444727575993163 0
ion I   0.241527941701412   0.042727813814101   0.555237944365483 0
ion I   0.290410344664694   0.281602400532888   0.476513961365243 0
ion I   0.874703553398680   0.935107195085265   0.524642981263949 0
ion I   0.776288278185913   0.840522200974908   0.366829181560187 0
ion I   0.393640878374725   0.373023536696853   0.637204723339625 0
ion I   0.173672653778217   0.947872286920436   0.393711037579616 0
ion I   0.991164010170154   0.266330170636535   0.608345775865981 0
ion I   0.802530249290338   0.703980383718901   0.595272468164028 0
ion I   0.363763952403339   0.506975572542121   0.402051566387688 0
ion I   0.218882069022667   0.806446937375769   0.624906458755927 0
ion I   0.960649912377381   0.401904586506312   0.374292925379495 0
ion I   0.584152243052766   0.930057302121160   0.656382238167615 0
ion I   0.585826226086606   0.295609887738380   0.342818653866540 0
ion-species GBRV/$ID_pbe.uspp
ion-width Ecut
ionic-minimize  \
	dirUpdateScheme      L-BFGS \
	linminMethod         DirUpdateRecommended \
	nIterations          0 \
	history              15 \
	knormThreshold       0.0001 \
	energyDiffThreshold  1e-06 \
	nEnergyDiff          2 \
	alphaTstart          1 \
	alphaTmin            1e-10 \
	updateTestStepSize   yes \
	alphaTreduceFactor   0.1 \
	alphaTincreaseFactor 3 \
	nAlphaAdjustMax      3 \
	wolfeEnergy          0.0001 \
	wolfeGradient        0.9 \
	fdTest               no
kpoint   0.000000000000   0.000000000000   0.000000000000  1.00000000000000
kpoint-folding 4 2 1 
latt-move-scale 1 1 1
latt-scale 1 1 1 
lattice Triclinic 17.0941 30.5336 42.9804 90 90 83.1108
lattice-minimize  \
	dirUpdateScheme      L-BFGS \
	linminMethod         DirUpdateRecommended \
	nIterations          0 \
	history              15 \
	knormThreshold       0 \
	energyDiffThreshold  1e-06 \
	nEnergyDiff          2 \
	alphaTstart          1 \
	alphaTmin            1e-10 \
	updateTestStepSize   yes \
	alphaTreduceFactor   0.1 \
	alphaTincreaseFactor 3 \
	nAlphaAdjustMax      3 \
	wolfeEnergy          0.0001 \
	wolfeGradient        0.9 \
	fdTest               no
lcao-params -1 1e-06 0.0073499
pcm-variant CANDLE
spintype no-spin
subspace-rotation-factor 1 yes
symmetries automatic
symmetry-threshold 0.0001
target-mu -0.171252 no




---------- Setting up symmetries ----------

Found 4 point-group symmetries of the bravais lattice
Found 1 space-group symmetries with basis
Applied RMS atom displacement 0 bohrs to make symmetries exact.

---------- Initializing the Grid ----------
R = 
[    17.0941    3.66249          0  ]
[          0    30.3131          0  ]
[          0          0    42.9804  ]
unit cell volume = 22271.4
G =
[   0.367565 -0.0444099          0  ]
[          0   0.207276          0  ]
[          0          0   0.146187  ]
Minimum fftbox size, Smin = [  80  140  196  ]
Chosen fftbox size, S = [  80  140  196  ]

---------- Initializing tighter grid for wavefunction operations ----------
R = 
[    17.0941    3.66249          0  ]
[          0    30.3131          0  ]
[          0          0    42.9804  ]
unit cell volume = 22271.4
G =
[   0.367565 -0.0444099          0  ]
[          0   0.207276          0  ]
[          0          0   0.146187  ]
Minimum fftbox size, Smin = [  72  124  176  ]
Chosen fftbox size, S = [  72  126  180  ]

---------- Exchange Correlation functional ----------
Initalized PBE GGA exchange.
Initalized PBE GGA correlation.

---------- Setting up pseudopotentials ----------
Width of ionic core gaussian charges (only for fluid interactions / plotting) set to 0.397384

Reading pseudopotential file '/home/guoxy/vasp/jdftx-1.5.0/build/pseudopotentials/GBRV/sc_pbe.uspp':
  Title: Sc.  Created by USPP 7.3.6 on 14-9-2013
  Reference state energy: -46.994501.  11 valence electrons in orbitals:
    |300>  occupation: 2  eigenvalue: -2.022603
    |310>  occupation: 6  eigenvalue: -1.235690
    |400>  occupation: 2  eigenvalue: -0.153725
    |320>  occupation: 1  eigenvalue: -0.118830
    |410>  occupation: 0  eigenvalue: -0.053919
  lMax: 2  lLocal: 3  QijEcut: 5
  6 projectors sampled on a log grid with 593 points:
    l: 0  eig: -2.022603  rCut: 2.2
    l: 0  eig: -0.153726  rCut: 2.2
    l: 1  eig: -1.235690  rCut: 2.2
    l: 1  eig: -0.053919  rCut: 2.2
    l: 2  eig: -0.118830  rCut: 2.2
    l: 2  eig: 0.150000  rCut: 2.2
  Partial core density with radius 1
  Transforming core density to a uniform radial grid of dG=0.02 with 1316 points.
  Transforming local potential to a uniform radial grid of dG=0.02 with 1316 points.
  Transforming nonlocal projectors to a uniform radial grid of dG=0.02 with 432 points.
  Transforming density augmentations to a uniform radial grid of dG=0.02 with 1316 points.
  Transforming atomic orbitals to a uniform radial grid of dG=0.02 with 432 points.
  Core radius for overlap checks: 2.20 bohrs.

Reading pseudopotential file '/home/guoxy/vasp/jdftx-1.5.0/build/pseudopotentials/GBRV/c_pbe.uspp':
  Title: C.  Created by USPP 7.3.6 on 3-2-2014
  Reference state energy: -5.406344.  4 valence electrons in orbitals:
    |200>  occupation: 2  eigenvalue: -0.504890
    |210>  occupation: 2  eigenvalue: -0.194356
  lMax: 1  lLocal: 2  QijEcut: 5
  4 projectors sampled on a log grid with 503 points:
    l: 0  eig: -0.504890  rCut: 1.3
    l: 0  eig: 0.000000  rCut: 1.3
    l: 1  eig: -0.194357  rCut: 1.3
    l: 1  eig: 0.000000  rCut: 1.3
  Partial core density with radius 1.1
  Transforming core density to a uniform radial grid of dG=0.02 with 1316 points.
  Transforming local potential to a uniform radial grid of dG=0.02 with 1316 points.
  Transforming nonlocal projectors to a uniform radial grid of dG=0.02 with 432 points.
  Transforming density augmentations to a uniform radial grid of dG=0.02 with 1316 points.
  Transforming atomic orbitals to a uniform radial grid of dG=0.02 with 432 points.

*************** JDFTx 1.5.0  ***************

Start date and time: Sat Jul 18 10:35:05 2020
Executable jdftx_gpu with command-line: -i Charged.in -o Charged.out
Running on hosts (process indices):  amax (0-5)
Divided in process groups (process indices):  0 (0)  1 (1)  2 (2)  3 (3)  4 (4)  5 (5)
gpuInit: Found compatible cuda device 0 'Tesla K80'
gpuInit: Found compatible cuda device 1 'Tesla K80'
gpuInit: Found compatible cuda device 2 'Tesla K80'
gpuInit: Found compatible cuda device 3 'Tesla K80'
gpuInit: Found compatible cuda device 4 'Tesla K80'
gpuInit: Found compatible cuda device 5 'Tesla K80'
gpuInit: Selected device 0
Resource initialization completed at t[s]:      5.43
Run totals: 6 processes, 24 threads, 6 GPUs


Input parsed successfully to the following command list (including defaults):

basis kpoint-dependent
cache-projectors no
coords-type Lattice
core-overlap-check none
coulomb-interaction Slab 001
coulomb-truncation-embed 0 0 0.5
davidson-band-ratio 1.1
dump End State
dump-name NbTe2.$VAR
elec-cutoff 20 100
elec-eigen-algo Davidson
elec-ex-corr gga-PBE
elec-smearing Gauss 0.0073499
electronic-minimize  \
	dirUpdateScheme      FletcherReeves \
	linminMethod         DirUpdateRecommended \
	nIterations          500 \
	history              15 \
	knormThreshold       0 \
	energyDiffThreshold  1e-08 \
	nEnergyDiff          2 \
	alphaTstart          1 \
	alphaTmin            1e-10 \
	updateTestStepSize   yes \
	alphaTreduceFactor   0.1 \
	alphaTincreaseFactor 3 \
	nAlphaAdjustMax      3 \
	wolfeEnergy          0.0001 \
	wolfeGradient        0.9 \
	fdTest               no
exchange-regularization WignerSeitzTruncated
fluid LinearPCM 298.000000 1.013250
fluid-anion F- 1 MeanFieldLJ \
	epsBulk 1 \
	pMol 0 \
	epsInf 1 \
	Pvap 0 \
	sigmaBulk 0 \
	Rvdw 2.24877 \
	Res 0 \
	tauNuc 343133
fluid-cation Na+ 1 MeanFieldLJ \
	epsBulk 1 \
	pMol 0 \
	epsInf 1 \
	Pvap 0 \
	sigmaBulk 0 \
	Rvdw 2.19208 \
	Res 0 \
	tauNuc 343133
fluid-ex-corr lda-TF lda-PZ
fluid-gummel-loop 10 1.000000e-05
fluid-minimize  \
	dirUpdateScheme      PolakRibiere \
	linminMethod         DirUpdateRecommended \
	nIterations          400 \
	history              15 \
	knormThreshold       1e-11 \
	energyDiffThreshold  0 \
	nEnergyDiff          2 \
	alphaTstart          1 \
	alphaTmin            1e-10 \
	updateTestStepSize   yes \
	alphaTreduceFactor   0.1 \
	alphaTincreaseFactor 3 \
	nAlphaAdjustMax      6 \
	wolfeEnergy          0.0001 \
	wolfeGradient        0.9 \
	fdTest               no
fluid-solvent H2O 55.338 ScalarEOS \
	epsBulk 78.4 \
	pMol 0.92466 \
	epsInf 1.77 \
	Pvap 1.06736e-10 \
	sigmaBulk 4.62e-05 \
	Rvdw 2.61727 \
	Res 1.42 \
	tauNuc 343133 \
	poleEl 15 7 1
forces-output-coords Positions
initial-state NbTe2.$VAR
ion Sc   0.749845517559356   0.535711137695579   0.552893177251682 0
ion Sc   0.415990705659878   0.683938525959875   0.446172173950895 0
ion Sc   0.930434014457292   0.338369646053942   0.493744033820237 0
ion Sc   0.249065962984179   0.870431449330988   0.516150605951713 0
ion Sc   0.692262998819754   0.336686962678945   0.597376419899231 0
ion Sc   0.472025311353502   0.885213340009330   0.395540608593030 0
ion Sc   0.429533078819882   0.424768338482634   0.518566935081030 0
ion Sc   0.729557508149469   0.794607339417606   0.490832438409040 0
ion Sc   0.667059146381918   0.429208198487971   0.415333829667104 0
ion Sc   0.617251095993434   0.230389459714450   0.462380074925993 0
ion Sc   0.551422442744179   0.986151608101921   0.544386320885555 0
ion C   0.473993367986514   0.799719841900739   0.478053174527668 0
ion C   0.696818677607403   0.422818728527388   0.517186560776573 0
ion C   0.505412508663737   0.872435489744245   0.501655537813844 0
ion C   0.661960013033081   0.345265631068169   0.495234173238838 0
ion I   0.762402901243525   0.475597530105102   0.670583295341582 0
ion I   0.407172818728904   0.741121327679028   0.326961454561121 0
ion I   0.067640003829976   0.487492552294048   0.534189186363781 0
ion I   0.107199908899613   0.725053822366054   0.464282226762301 0
ion I   0.431708069488225   0.598202366478605   0.563151430955704 0
ion I   0.735612640937968   0.612953023717861   0.429864162445777 0
ion I   0.544138927971933   0.057743077941017   0.416879904224375 0
ion I   0.621764878254952   0.160028095702181   0.581986686498393 0
ion I   0.924250035924453   0.172873415878685   0.444727575993163 0
ion I   0.241527941701412   0.042727813814101   0.555237944365483 0
ion I   0.290410344664694   0.281602400532888   0.476513961365243 0
ion I   0.874703553398680   0.935107195085265   0.524642981263949 0
ion I   0.776288278185913   0.840522200974908   0.366829181560187 0
ion I   0.393640878374725   0.373023536696853   0.637204723339625 0
ion I   0.173672653778217   0.947872286920436   0.393711037579616 0
ion I   0.991164010170154   0.266330170636535   0.608345775865981 0
ion I   0.802530249290338   0.703980383718901   0.595272468164028 0
ion I   0.363763952403339   0.506975572542121   0.402051566387688 0
ion I   0.218882069022667   0.806446937375769   0.624906458755927 0
ion I   0.960649912377381   0.401904586506312   0.374292925379495 0
ion I   0.584152243052766   0.930057302121160   0.656382238167615 0
ion I   0.585826226086606   0.295609887738380   0.342818653866540 0
ion-species GBRV/$ID_pbe.uspp
ion-width Ecut
ionic-minimize  \
	dirUpdateScheme      L-BFGS \
	linminMethod         DirUpdateRecommended \
	nIterations          0 \
	history              15 \
	knormThreshold       0.0001 \
	energyDiffThreshold  1e-06 \
	nEnergyDiff          2 \
	alphaTstart          1 \
	alphaTmin            1e-10 \
	updateTestStepSize   yes \
	alphaTreduceFactor   0.1 \
	alphaTincreaseFactor 3 \
	nAlphaAdjustMax      3 \
	wolfeEnergy          0.0001 \
	wolfeGradient        0.9 \
	fdTest               no
kpoint   0.000000000000   0.000000000000   0.000000000000  1.00000000000000
kpoint-folding 4 2 1 
latt-move-scale 1 1 1
latt-scale 1 1 1 
lattice Triclinic 17.0941 30.5336 42.9804 90 90 83.1108
lattice-minimize  \
	dirUpdateScheme      L-BFGS \
	linminMethod         DirUpdateRecommended \
	nIterations          0 \
	history              15 \
	knormThreshold       0 \
	energyDiffThreshold  1e-06 \
	nEnergyDiff          2 \
	alphaTstart          1 \
	alphaTmin            1e-10 \
	updateTestStepSize   yes \
	alphaTreduceFactor   0.1 \
	alphaTincreaseFactor 3 \
	nAlphaAdjustMax      3 \
	wolfeEnergy          0.0001 \
	wolfeGradient        0.9 \
	fdTest               no
lcao-params -1 1e-06 0.0073499
pcm-variant CANDLE
spintype no-spin
subspace-rotation-factor 1 yes
symmetries automatic
symmetry-threshold 0.0001
target-mu -0.24475 no




---------- Setting up symmetries ----------

Found 4 point-group symmetries of the bravais lattice
Found 1 space-group symmetries with basis
Applied RMS atom displacement 0 bohrs to make symmetries exact.

---------- Initializing the Grid ----------
R = 
[    17.0941    3.66249          0  ]
[          0    30.3131          0  ]
[          0          0    42.9804  ]
unit cell volume = 22271.4
G =
[   0.367565 -0.0444099          0  ]
[          0   0.207276          0  ]
[          0          0   0.146187  ]
Minimum fftbox size, Smin = [  80  140  196  ]
Chosen fftbox size, S = [  80  140  196  ]

---------- Initializing tighter grid for wavefunction operations ----------
R = 
[    17.0941    3.66249          0  ]
[          0    30.3131          0  ]
[          0          0    42.9804  ]
unit cell volume = 22271.4
G =
[   0.367565 -0.0444099          0  ]
[          0   0.207276          0  ]
[          0          0   0.146187  ]
Minimum fftbox size, Smin = [  72  124  176  ]
Chosen fftbox size, S = [  72  126  180  ]

---------- Exchange Correlation functional ----------
Initalized PBE GGA exchange.
Initalized PBE GGA correlation.

---------- Setting up pseudopotentials ----------
Width of ionic core gaussian charges (only for fluid interactions / plotting) set to 0.397384

Reading pseudopotential file '/home/guoxy/vasp/jdftx-1.5.0/build/pseudopotentials/GBRV/sc_pbe.uspp':
  Title: Sc.  Created by USPP 7.3.6 on 14-9-2013
  Reference state energy: -46.994501.  11 valence electrons in orbitals:
    |300>  occupation: 2  eigenvalue: -2.022603
    |310>  occupation: 6  eigenvalue: -1.235690
    |400>  occupation: 2  eigenvalue: -0.153725
    |320>  occupation: 1  eigenvalue: -0.118830
    |410>  occupation: 0  eigenvalue: -0.053919
  lMax: 2  lLocal: 3  QijEcut: 5
  6 projectors sampled on a log grid with 593 points:
    l: 0  eig: -2.022603  rCut: 2.2
    l: 0  eig: -0.153726  rCut: 2.2
    l: 1  eig: -1.235690  rCut: 2.2
    l: 1  eig: -0.053919  rCut: 2.2
    l: 2  eig: -0.118830  rCut: 2.2
    l: 2  eig: 0.150000  rCut: 2.2
  Partial core density with radius 1
  Transforming core density to a uniform radial grid of dG=0.02 with 1316 points.
  Transforming local potential to a uniform radial grid of dG=0.02 with 1316 points.
  Transforming nonlocal projectors to a uniform radial grid of dG=0.02 with 432 points.
  Transforming density augmentations to a uniform radial grid of dG=0.02 with 1316 points.
  Transforming atomic orbitals to a uniform radial grid of dG=0.02 with 432 points.
  Core radius for overlap checks: 2.20 bohrs.

Reading pseudopotential file '/home/guoxy/vasp/jdftx-1.5.0/build/pseudopotentials/GBRV/c_pbe.uspp':
  Title: C.  Created by USPP 7.3.6 on 3-2-2014
  Reference state energy: -5.406344.  4 valence electrons in orbitals:
    |200>  occupation: 2  eigenvalue: -0.504890
    |210>  occupation: 2  eigenvalue: -0.194356
  lMax: 1  lLocal: 2  QijEcut: 5
  4 projectors sampled on a log grid with 503 points:
    l: 0  eig: -0.504890  rCut: 1.3
    l: 0  eig: 0.000000  rCut: 1.3
    l: 1  eig: -0.194357  rCut: 1.3
    l: 1  eig: 0.000000  rCut: 1.3
  Partial core density with radius 1.1
  Transforming core density to a uniform radial grid of dG=0.02 with 1316 points.
  Transforming local potential to a uniform radial grid of dG=0.02 with 1316 points.
  Transforming nonlocal projectors to a uniform radial grid of dG=0.02 with 432 points.
  Transforming density augmentations to a uniform radial grid of dG=0.02 with 1316 points.
  Transforming atomic orbitals to a uniform radial grid of dG=0.02 with 432 points.
  Core radius for overlap checks: 1.30 bohrs.

Reading pseudopotential file '/home/guoxy/vasp/jdftx-1.5.0/build/pseudopotentials/GBRV/i_pbe.uspp':
  Title: I.  Created by USPP 7.3.6 on 14-9-2013
  Reference state energy: -32.770235.  7 valence electrons in orbitals:
    |500>  occupation: 2  eigenvalue: -0.639712
    |510>  occupation: 5  eigenvalue: -0.260406
  lMax: 2  lLocal: 3  QijEcut: 5
  6 projectors sampled on a log grid with 725 points:
    l: 0  eig: -0.639710  rCut: 1.9
    l: 0  eig: 0.000000  rCut: 1.9
    l: 1  eig: -0.260404  rCut: 2
    l: 1  eig: 0.000000  rCut: 2
    l: 2  eig: -0.500000  rCut: 2.45
    l: 2  eig: 0.500000  rCut: 2.45
  Partial core density with radius 1.3
  Transforming core density to a uniform radial grid of dG=0.02 with 1316 points.
  Transforming local potential to a uniform radial grid of dG=0.02 with 1316 points.
  Transforming nonlocal projectors to a uniform radial grid of dG=0.02 with 432 points.
  Transforming density augmentations to a uniform radial grid of dG=0.02 with 1316 points.
  Transforming atomic orbitals to a uniform radial grid of dG=0.02 with 432 points.
  Core radius for overlap checks: 2.45 bohrs.

Initialized 3 species with 37 total atoms.

Folded 1 k-points by 4x2x1 to 8 k-points.

---------- Setting up k-points, bands, fillings ----------
Adding inversion symmetry to k-mesh for non-inversion-symmetric unit cell.
Reduced to 6 k-points under symmetry. 
Computing the number of bands and number of electrons
Reading initial fillings from file NbTe2.fillings.
nElectrons: 291.000000   nBands: 247   nStates: 6

----- Setting up reduced wavefunction bases (one per k-point) -----
average nbasis = 95156.125 , ideal nbasis = 95144.912

---------- Setting up coulomb interaction ----------
Fluid mode embedding: using embedded box, but periodic Coulomb kernel.
(Fluid response is responsible for (approximate) separation between periodic images.)
Setting up double-sized grid for truncated Coulomb potentials:
R = 
[    17.0941    3.66249          0  ]
[          0    30.3131          0  ]
[          0          0    85.9608  ]
unit cell volume = 44542.7
G =
[   0.367565 -0.0444099          0  ]
[          0   0.207276          0  ]
[          0          0  0.0730936  ]
Chosen fftbox size, S = [  80  140  392  ]
Integer grid location selected as the embedding center:
   Grid: [  0  0  98  ]
   Lattice: [  0  0  0.5  ]
   Cartesian: [  0  0  21.4902  ]
Constructing Wigner-Seitz cell: 8 faces (6 quadrilaterals, 2 hexagons)
Range-separation parameter for embedded mesh potentials due to point charges: 0.590768 bohrs.

Initializing van der Waals corrections
	NOTE: vdW corrections apply only for interactions with fluid.
	Sc:  C6:  187.33 Eh-a0^6  R0: 2.952 a0
	 C:  C6:   30.35 Eh-a0^6  R0: 2.744 a0
	 I:  C6:  546.38 Eh-a0^6  R0: 3.575 a0

---------- Setting up ewald sum ----------
Optimum gaussian width for ewald sums = 7.747031 bohr.
Real space sum over 585 unit cells with max indices [  6  4  2  ]
Reciprocal space sum over 6105 terms with max indices [  5  7  18  ]

---------- Allocating electronic variables ----------
Initializing wave functions:  reading from 'NbTe2.wfns'
----- createFluidSolver() ----- (Fluid-side solver setup)
   Initializing fluid molecule 'H2O'
     Initializing site 'O'
       Electron density: proportional to exp(-r/0.36935)*erfc((r-0.51523)/0.36823) with norm 6.826
       Charge density: gaussian nuclear width 0.478731 with net site charge 0.826
       Polarizability: cuspless exponential with width 0.32 and norm 3.73
       Hard sphere radius: 2.57003 bohrs
       Positions in reference frame:
         [ +0.000000 +0.000000 +0.000000 ]
     Initializing site 'H'
       Electron density: proportional to exp(-r/0.34641)*erfc((r-0)/0.390882) with norm 0.587
       Charge density: gaussian nuclear width 0.377945 with net site charge -0.413
       Polarizability: cuspless exponential with width 0.39 and norm 3.3
       Positions in reference frame:
         [ +0.000000 -1.441945 +1.122523 ]
         [ +0.000000 +1.441945 +1.122523 ]
     Net charge: 0   dipole magnitude: 0.927204
     Initializing spherical shell mfKernel with radius 2.61727 Bohr
     deltaS corrections:
       site 'O': -7.54299
       site 'H': -6.83917
   Initializing fluid molecule 'Na+'
     Initializing site 'Na'
       Electron density: proportional to exp(-r/0.19682)*erfc((r-0.71491)/0.41314) with norm 8.1383
       Charge density: gaussian nuclear width 0.365347 with net site charge -1
       Hard sphere radius: 1.86327 bohrs
       Positions in reference frame:
         [ +0.000000 +0.000000 +0.000000 ]
     Net charge: -1   dipole magnitude: 0
     Initializing gaussian mfKernel with width: 1.55004 Bohr
     deltaS corrections:
       site 'Na': -22.3555
   Initializing fluid molecule 'F-'
     Initializing site 'F'
       Electron density: proportional to exp(-r/0.38886)*erfc((r-0)/0.438782) with norm 8
       Charge density: gaussian nuclear width 0.374796 with net site charge 1
       Hard sphere radius: 2.39995 bohrs
       Positions in reference frame:
         [ +0.000000 +0.000000 +0.000000 ]
     Net charge: 1   dipole magnitude: 0
     Initializing gaussian mfKernel with width: 1.59012 Bohr
     deltaS corrections:
       site 'F': -9.04335

Correction to mu due to finite nuclear width = -0.0064821
   Cavity determined by nc: 0.00142 and sigma: 0.707107
   Nonlocal vdW cavity from gaussian model electron density with norm = 8 and sigma = 0.993594 bohr
   Charge asymmetry in cavity with sensitivity pCavity = 36.5 e-bohr/Eh
   Electrostatic cavity expanded by eta = 1.46 bohrs
   Weighted density cavitation model constrained by Nbulk: 0.0049383 bohr^-3, Pvap: 3.14029 kPa, Rvdw: 2.61727 bohr and sigmaBulk: 4.62e-05 Eh/bohr^2 at T: 298 K.
   Weighted density dispersion model using vdW pair potentials with single solvent site with sqrtC6eff: 0.77 SI.
Reading fluid state from 'NbTe2.fluidState'


---- Citations for features of the code used in this run ----

   Software package:
      R. Sundararaman, K. Letchworth-Weaver, K.A. Schwarz, D. Gunceler, Y. Ozhabes and T.A. Arias, 'JDFTx: software for joint density-functional theory', SoftwareX 6, 278 (2017)

   gga-PBE exchange-correlation functional:
      J.P. Perdew, K. Burke and M. Ernzerhof, Phys. Rev. Lett. 77, 3865 (1996)

   Pseudopotentials:
      KF Garrity, JW Bennett, KM Rabe and D Vanderbilt, Comput. Mater. Sci. 81, 446 (2014)

   Truncated Coulomb potentials:
      R. Sundararaman and T.A. Arias, Phys. Rev. B 87, 165122 (2013)

   Van der Waals correction pair-potentials:
      S. Grimme, J. Comput. Chem. 27, 1787 (2006)

   Charge-asymmetric nonlocally-determined local-electric (CANDLE) solvation model:
      R. Sundararaman and W.A. Goddard III, J. Chem. Phys. 142, 064107 (2015)

   Total energy minimization with Auxiliary Hamiltonian:
      C. Freysoldt, S. Boeck, and J. Neugebauer, Phys. Rev. B 79, 241103(R) (2009)

   Grand-canonical (fixed-potential) DFT:
      R. Sundararaman, W. A. Goddard III and T. A. Arias, J. Chem. Phys. 146, 114104 (2017)

This list may not be complete. Please suggest additional citations or
report any other bugs at https://github.com/shankar1729/jdftx/issues

Initialization completed successfully at t[s]:     17.01

Shifting auxilliary hamiltonian by -0.061333 to set nElectrons=291.000000
	Linear fluid (dielectric constant: 78.4, screening length: 5.74355 Bohr) occupying 0.754337 of unit cell:	Completed after 3 iterations at t[s]:     30.95

-------- Electronic minimization -----------
	Linear fluid (dielectric constant: 78.4, screening length: 5.74355 Bohr) occupying 0.754337 of unit cell:	Completed after 0 iterations at t[s]:     44.81
	FillingsUpdate:  mu: -0.244750400  nElectrons: 291.000000
ElecMinimize: Iter:   0  G: -724.899698775107481  |grad|_K:  4.784e-05  alpha:  1.000e+00
	Linear fluid (dielectric constant: 78.4, screening length: 5.74355 Bohr) occupying 0.759165 of unit cell:	Completed after 31 iterations at t[s]:     90.92
	Linear fluid (dielectric constant: 78.4, screening length: 5.74355 Bohr) occupying 0.754219 of unit cell:	Completed after 30 iterations at t[s]:    121.18
	FillingsUpdate:  mu: -0.244750400  nElectrons: 290.835416
	SubspaceRotationAdjust: set factor to 0.501
ElecMinimize: Iter:   1  G: -724.908676511529961  |grad|_K:  3.773e-05  alpha:  1.558e-02  linmin: -5.696e-02  t[s]:    138.95
	Linear fluid (dielectric constant: 78.4, screening length: 5.74355 Bohr) occupying 0.754145 of unit cell:	Completed after 16 iterations at t[s]:    157.61
	Linear fluid (dielectric constant: 78.4, screening length: 5.74355 Bohr) occupying 0.754157 of unit cell:	Completed after 17 iterations at t[s]:    181.98
	FillingsUpdate:  mu: -0.244750400  nElectrons: 290.166904
	SubspaceRotationAdjust: set factor to 0.301
ElecMinimize: Iter:   2  G: -724.924362125232051  |grad|_K:  1.843e-05  alpha:  4.399e-02  linmin:  2.056e-04  t[s]:    199.49
	Linear fluid (dielectric constant: 78.4, screening length: 5.74355 Bohr) occupying 0.754247 of unit cell:	Completed after 15 iterations at t[s]:    219.34
ElecMinimize: 	Predicted alpha/alphaT>3.000000, increasing alphaT to 1.319739e-01.
	Linear fluid (dielectric constant: 78.4, screening length: 5.74355 Bohr) occupying 0.754435 of unit cell:	Completed after 17 iterations at t[s]:    245.45
	Linear fluid (dielectric constant: 78.4, screening length: 5.74355 Bohr) occupying 0.754676 of unit cell:	Completed after 20 iterations at t[s]:    267.61
	FillingsUpdate:  mu: -0.244750400  nElectrons: 289.098480
	SubspaceRotationAdjust: set factor to 0.176
ElecMinimize: Iter:   3  G: -724.930899969434563  |grad|_K:  2.946e-05  alpha:  2.371e-01  linmin:  4.114e-03  t[s]:    282.98
	Linear fluid (dielectric constant: 78.4, screening length: 5.74355 Bohr) occupying 0.757311 of unit cell:	Completed after 27 iterations at t[s]:    306.94
	Linear fluid (dielectric constant: 78.4, screening length: 5.74355 Bohr) occupying 0.754676 of unit cell:	Completed after 27 iterations at t[s]:    333.94
	FillingsUpdate:  mu: -0.244750400  nElectrons: 289.097297
	SubspaceRotationAdjust: set factor to 0.113
	SubspaceRotationAdjust: resetting CG because factor has changed by 0.112623
	Linear fluid (dielectric constant: 78.4, screening length: 5.74355 Bohr) occupying 0.754676 of unit cell:	Completed after 0 iterations at t[s]:    361.43
ElecMinimize: 	State modified externally: resetting search direction.
ElecMinimize: Iter:   4  G: -724.930900283439541  |grad|_K:  2.004e-05  alpha:  9.673e-05
	Linear fluid (dielectric constant: 78.4, screening length: 5.74355 Bohr) occupying 0.754676 of unit cell:	Completed after 0 iterations at t[s]:    389.34
ElecMinimize: 	Predicted alpha/alphaT>3.000000, increasing alphaT to 2.901863e-04.
	Linear fluid (dielectric constant: 78.4, screening length: 5.74355 Bohr) occupying 0.754677 of unit cell:	Completed after 0 iterations at t[s]:    404.90
ElecMinimize: 	Predicted alpha/alphaT>3.000000, increasing alphaT to 8.705590e-04.
	Linear fluid (dielectric constant: 78.4, screening length: 5.74355 Bohr) occupying 0.754677 of unit cell:	Completed after 0 iterations at t[s]:    422.33
ElecMinimize: 	Predicted alpha/alphaT>3.000000, increasing alphaT to 2.611677e-03.
	Linear fluid (dielectric constant: 78.4, screening length: 5.74355 Bohr) occupying 0.770353 of unit cell:	Completed after 29 iterations at t[s]:    449.05
ElecMinimize: 	Step increased G by 1.352626e+00, reducing alpha to 4.196317e-01.
	Linear fluid (dielectric constant: 78.4, screening length: 5.74355 Bohr) occupying 0.755098 of unit cell:	Completed after 24 iterations at t[s]:    485.65
	FillingsUpdate:  mu: -0.244750400  nElectrons: 289.569207
	SubspaceRotationAdjust: set factor to 0.0483
ElecMinimize: Iter:   5  G: -724.954175880747130  |grad|_K:  5.732e-06  alpha:  4.196e-01  linmin:  3.166e-04  t[s]:    501.15
	Linear fluid (dielectric constant: 78.4, screening length: 5.74355 Bohr) occupying 0.755399 of unit cell:	Completed after 10 iterations at t[s]:    516.92
ElecMinimize: 	Predicted alpha/alphaT>3.000000, increasing alphaT to 1.258895e+00.
	Linear fluid (dielectric constant: 78.4, screening length: 5.74355 Bohr) occupying 0.755999 of unit cell:	Completed after 13 iterations at t[s]:    536.76
	Linear fluid (dielectric constant: 78.4, screening length: 5.74355 Bohr) occupying 0.756094 of unit cell:	Completed after 7 iterations at t[s]:    555.01
	FillingsUpdate:  mu: -0.244750400  nElectrons: 289.303128
	SubspaceRotationAdjust: set factor to 0.062
ElecMinimize: Iter:   6  G: -724.960616427907325  |grad|_K:  6.433e-06  alpha:  1.392e+00  linmin: -4.989e-05  t[s]:    570.66
	Linear fluid (dielectric constant: 78.4, screening length: 5.74355 Bohr) occupying 0.757776 of unit cell:	Completed after 16 iterations at t[s]:    591.98
	Linear fluid (dielectric constant: 78.4, screening length: 5.74355 Bohr) occupying 0.757235 of unit cell:	Completed after 13 iterations at t[s]:    612.25
	FillingsUpdate:  mu: -0.244750400  nElectrons: 288.944936
	SubspaceRotationAdjust: set factor to 0.0774
ElecMinimize: Iter:   7  G: -724.966211838360664  |grad|_K:  5.199e-06  alpha:  9.416e-01  linmin: -1.309e-05  t[s]:    627.75
	Linear fluid (dielectric constant: 78.4, screening length: 5.74355 Bohr) occupying 0.758074 of unit cell:	Completed after 17 iterations at t[s]:    649.02
	Linear fluid (dielectric constant: 78.4, screening length: 5.74355 Bohr) occupying 0.758027 of unit cell:	Completed after 9 iterations at t[s]:    669.08
	FillingsUpdate:  mu: -0.244750400  nElectrons: 288.594694
	SubspaceRotationAdjust: set factor to 0.0889
ElecMinimize: Iter:   8  G: -724.969626450624901  |grad|_K:  3.616e-06  alpha:  8.885e-01  linmin:  2.586e-04  t[s]:    683.82
	Linear fluid (dielectric constant: 78.4, screening length: 5.74355 Bohr) occupying 0.758431 of unit cell:	Completed after 15 iterations at t[s]:    703.78
	Linear fluid (dielectric constant: 78.4, screening length: 5.74355 Bohr) occupying 0.758301 of unit cell:	Completed after 11 iterations at t[s]:    722.36
	FillingsUpdate:  mu: -0.244750400  nElectrons: 288.496744
	SubspaceRotationAdjust: set factor to 0.115
ElecMinimize: Iter:   9  G: -724.970695394463064  |grad|_K:  3.020e-06  alpha:  5.983e-01  linmin:  9.713e-08  t[s]:    737.53
	Linear fluid (dielectric constant: 78.4, screening length: 5.74355 Bohr) occupying 0.758509 of unit cell:	Completed after 13 iterations at t[s]:    756.08
	Linear fluid (dielectric constant: 78.4, screening length: 5.74355 Bohr) occupying 0.758588 of unit cell:	Completed after 9 iterations at t[s]:    773.51
	FillingsUpdate:  mu: -0.244750400  nElectrons: 288.460052
	SubspaceRotationAdjust: set factor to 0.133
ElecMinimize: Iter:  10  G: -724.971770624612873  |grad|_K:  2.551e-06  alpha:  8.332e-01  linmin: -2.657e-05  t[s]:    789.87
	Linear fluid (dielectric constant: 78.4, screening length: 5.74355 Bohr) occupying 0.758820 of unit cell:	Completed after 10 iterations at t[s]:    804.16
	Linear fluid (dielectric constant: 78.4, screening length: 5.74355 Bohr) occupying 0.758839 of unit cell:	Completed after 3 iterations at t[s]:    822.53
	FillingsUpdate:  mu: -0.244750400  nElectrons: 288.423053
	SubspaceRotationAdjust: set factor to 0.159
ElecMinimize: Iter:  11  G: -724.972607452183183  |grad|_K:  2.404e-06  alpha:  9.071e-01  linmin: -9.608e-06  t[s]:    838.05
	Linear fluid (dielectric constant: 78.4, screening length: 5.74355 Bohr) occupying 0.759085 of unit cell:	Completed after 10 iterations at t[s]:    853.87
	Linear fluid (dielectric constant: 78.4, screening length: 5.74355 Bohr) occupying 0.759000 of unit cell:	Completed after 8 iterations at t[s]:    872.64
	FillingsUpdate:  mu: -0.244750400  nElectrons: 288.409097
	SubspaceRotationAdjust: set factor to 0.2
ElecMinimize: Iter:  12  G: -724.973084288846167  |grad|_K:  1.615e-06  alpha:  5.841e-01  linmin:  1.581e-06  t[s]:    888.90
	Linear fluid (dielectric constant: 78.4, screening length: 5.74355 Bohr) occupying 0.759091 of unit cell:	Completed after 11 iterations at t[s]:    905.86
	Linear fluid (dielectric constant: 78.4, screening length: 5.74355 Bohr) occupying 0.759104 of unit cell:	Completed after 3 iterations at t[s]:    923.99
	FillingsUpdate:  mu: -0.244750400  nElectrons: 288.430933
	SubspaceRotationAdjust: set factor to 0.227
ElecMinimize: Iter:  13  G: -724.973331415814755  |grad|_K:  1.413e-06  alpha:  6.711e-01  linmin: -2.956e-05  t[s]:    940.33
	Linear fluid (dielectric constant: 78.4, screening length: 5.74355 Bohr) occupying 0.759184 of unit cell:	Completed after 9 iterations at t[s]:    956.44
	Linear fluid (dielectric constant: 78.4, screening length: 5.74355 Bohr) occupying 0.759181 of unit cell:	Completed after 0 iterations at t[s]:    972.72
	FillingsUpdate:  mu: -0.244750400  nElectrons: 288.423898
	SubspaceRotationAdjust: set factor to 0.261
ElecMinimize: Iter:  14  G: -724.973514371394572  |grad|_K:  9.993e-07  alpha:  6.449e-01  linmin:  4.078e-05  t[s]:    987.99
	Linear fluid (dielectric constant: 78.4, screening length: 5.74355 Bohr) occupying 0.759213 of unit cell:	Completed after 5 iterations at t[s]:    996.46
	Linear fluid (dielectric constant: 78.4, screening length: 5.74355 Bohr) occupying 0.759213 of unit cell:	Completed after 0 iterations at t[s]:   1004.47
	FillingsUpdate:  mu: -0.244750400  nElectrons: 288.420195
	SubspaceRotationAdjust: set factor to 0.279
ElecMinimize: Iter:  15  G: -724.973605662633872  |grad|_K:  7.904e-07  alpha:  6.528e-01  linmin: -1.147e-05  t[s]:   1012.57
	Linear fluid (dielectric constant: 78.4, screening length: 5.74355 Bohr) occupying 0.759228 of unit cell:	Completed after 5 iterations at t[s]:   1019.74
	Linear fluid (dielectric constant: 78.4, screening length: 5.74355 Bohr) occupying 0.759227 of unit cell:	Completed after 3 iterations at t[s]:   1029.02
	FillingsUpdate:  mu: -0.244750400  nElectrons: 288.417461
	SubspaceRotationAdjust: set factor to 0.284
ElecMinimize: Iter:  16  G: -724.973656015456072  |grad|_K:  4.885e-07  alpha:  5.703e-01  linmin:  1.460e-07  t[s]:   1036.85
	Linear fluid (dielectric constant: 78.4, screening length: 5.74355 Bohr) occupying 0.759230 of unit cell:	Completed after 8 iterations at t[s]:   1044.56
	Linear fluid (dielectric constant: 78.4, screening length: 5.74355 Bohr) occupying 0.759229 of unit cell:	Completed after 0 iterations at t[s]:   1051.99
	FillingsUpdate:  mu: -0.244750400  nElectrons: 288.407754
	SubspaceRotationAdjust: set factor to 0.242
ElecMinimize: Iter:  17  G: -724.973673055574864  |grad|_K:  3.895e-07  alpha:  5.025e-01  linmin:  3.061e-04  t[s]:   1060.68
	Linear fluid (dielectric constant: 78.4, screening length: 5.74355 Bohr) occupying 0.759233 of unit cell:	Completed after 9 iterations at t[s]:   1068.47
	Linear fluid (dielectric constant: 78.4, screening length: 5.74355 Bohr) occupying 0.759232 of unit cell:	Completed after 3 iterations at t[s]:   1077.47
	FillingsUpdate:  mu: -0.244750400  nElectrons: 288.413048
	SubspaceRotationAdjust: set factor to 0.174
ElecMinimize: Iter:  18  G: -724.973680382577641  |grad|_K:  2.974e-07  alpha:  3.674e-01  linmin: -5.973e-05  t[s]:   1086.25
	Linear fluid (dielectric constant: 78.4, screening length: 5.74355 Bohr) occupying 0.759234 of unit cell:	Completed after 3 iterations at t[s]:   1092.66
	Linear fluid (dielectric constant: 78.4, screening length: 5.74355 Bohr) occupying 0.759234 of unit cell:	Completed after 0 iterations at t[s]:   1100.18
	FillingsUpdate:  mu: -0.244750400  nElectrons: 288.407231
	SubspaceRotationAdjust: set factor to 0.247
ElecMinimize: Iter:  19  G: -724.973686074209809  |grad|_K:  1.837e-07  alpha:  4.458e-01  linmin: -2.816e-04  t[s]:   1107.95
	Linear fluid (dielectric constant: 78.4, screening length: 5.74355 Bohr) occupying 0.759236 of unit cell:	Completed after 7 iterations at t[s]:   1115.29
	Linear fluid (dielectric constant: 78.4, screening length: 5.74355 Bohr) occupying 0.759235 of unit cell:	Completed after 0 iterations at t[s]:   1123.23
	FillingsUpdate:  mu: -0.244750400  nElectrons: 288.404249
	SubspaceRotationAdjust: set factor to 0.177
ElecMinimize: Iter:  20  G: -724.973687633706049  |grad|_K:  2.147e-07  alpha:  3.441e-01  linmin: -5.128e-04  t[s]:   1131.33
	Linear fluid (dielectric constant: 78.4, screening length: 5.74355 Bohr) occupying 0.759239 of unit cell:	Completed after 3 iterations at t[s]:   1139.37
	Linear fluid (dielectric constant: 78.4, screening length: 5.74355 Bohr) occupying 0.759238 of unit cell:	Completed after 0 iterations at t[s]:   1147.37
	FillingsUpdate:  mu: -0.244750400  nElectrons: 288.407410
	SubspaceRotationAdjust: set factor to 0.239
ElecMinimize: Iter:  21  G: -724.973689487526599  |grad|_K:  1.264e-07  alpha:  2.629e-01  linmin:  8.650e-05  t[s]:   1155.59
	Linear fluid (dielectric constant: 78.4, screening length: 5.74355 Bohr) occupying 0.759239 of unit cell:	Completed after 3 iterations at t[s]:   1162.09
	Linear fluid (dielectric constant: 78.4, screening length: 5.74355 Bohr) occupying 0.759240 of unit cell:	Completed after 0 iterations at t[s]:   1169.98
	FillingsUpdate:  mu: -0.244750400  nElectrons: 288.409824
	SubspaceRotationAdjust: set factor to 0.286
ElecMinimize: Iter:  22  G: -724.973690305139030  |grad|_K:  7.964e-08  alpha:  3.343e-01  linmin: -1.055e-03  t[s]:   1178.29
	Linear fluid (dielectric constant: 78.4, screening length: 5.74355 Bohr) occupying 0.759240 of unit cell:	Completed after 0 iterations at t[s]:   1185.01
	Linear fluid (dielectric constant: 78.4, screening length: 5.74355 Bohr) occupying 0.759240 of unit cell:	Completed after 0 iterations at t[s]:   1193.04
	FillingsUpdate:  mu: -0.244750400  nElectrons: 288.410975
	SubspaceRotationAdjust: set factor to 0.374
ElecMinimize: Iter:  23  G: -724.973690892380773  |grad|_K:  7.132e-08  alpha:  4.706e-01  linmin: -3.080e-04  t[s]:   1200.53
	Linear fluid (dielectric constant: 78.4, screening length: 5.74355 Bohr) occupying 0.759239 of unit cell:	Completed after 2 iterations at t[s]:   1207.26
	Linear fluid (dielectric constant: 78.4, screening length: 5.74355 Bohr) occupying 0.759239 of unit cell:	Completed after 0 iterations at t[s]:   1214.50
	FillingsUpdate:  mu: -0.244750400  nElectrons: 288.410786
	SubspaceRotationAdjust: set factor to 0.453
ElecMinimize: Iter:  24  G: -724.973691197633343  |grad|_K:  6.569e-08  alpha:  3.910e-01  linmin: -2.014e-04  t[s]:   1222.94
	Linear fluid (dielectric constant: 78.4, screening length: 5.74355 Bohr) occupying 0.759236 of unit cell:	Completed after 0 iterations at t[s]:   1229.05
	Linear fluid (dielectric constant: 78.4, screening length: 5.74355 Bohr) occupying 0.759236 of unit cell:	Completed after 0 iterations at t[s]:   1237.63
	FillingsUpdate:  mu: -0.244750400  nElectrons: 288.409370
	SubspaceRotationAdjust: set factor to 0.604
ElecMinimize: Iter:  25  G: -724.973691504715589  |grad|_K:  6.597e-08  alpha:  4.343e-01  linmin:  2.013e-07  t[s]:   1246.80
	Linear fluid (dielectric constant: 78.4, screening length: 5.74355 Bohr) occupying 0.759231 of unit cell:	Completed after 3 iterations at t[s]:   1253.09
	Linear fluid (dielectric constant: 78.4, screening length: 5.74355 Bohr) occupying 0.759235 of unit cell:	Completed after 1 iterations at t[s]:   1260.18
ElecMinimize: 	Step increased G by 5.471236e-08, reducing alpha to 1.060241e-02.
	Linear fluid (dielectric constant: 78.4, screening length: 5.74355 Bohr) occupying 0.759236 of unit cell:	Completed after 0 iterations at t[s]:   1272.45
	FillingsUpdate:  mu: -0.244750400  nElectrons: 288.409302
	SubspaceRotationAdjust: set factor to 0.385
ElecMinimize: Iter:  26  G: -724.973691522278159  |grad|_K:  1.268e-07  alpha:  1.060e-02  linmin:  2.705e-04  t[s]:   1280.46
	Linear fluid (dielectric constant: 78.4, screening length: 5.74355 Bohr) occupying 0.759235 of unit cell:	Completed after 0 iterations at t[s]:   1286.85
ElecMinimize: 	Predicted alpha/alphaT>3.000000, increasing alphaT to 3.180722e-02.
	Linear fluid (dielectric constant: 78.4, screening length: 5.74355 Bohr) occupying 0.759234 of unit cell:	Completed after 0 iterations at t[s]:   1294.95
	Linear fluid (dielectric constant: 78.4, screening length: 5.74355 Bohr) occupying 0.759234 of unit cell:	Completed after 0 iterations at t[s]:   1302.88
	FillingsUpdate:  mu: -0.244750400  nElectrons: 288.409190
	SubspaceRotationAdjust: set factor to 0.254
ElecMinimize: Iter:  27  G: -724.973691577085106  |grad|_K:  1.026e-07  alpha:  4.803e-02  linmin:  7.113e-08  t[s]:   1310.32
	Linear fluid (dielectric constant: 78.4, screening length: 5.74355 Bohr) occupying 0.759232 of unit cell:	Completed after 1 iterations at t[s]:   1316.33
	Linear fluid (dielectric constant: 78.4, screening length: 5.74355 Bohr) occupying 0.759233 of unit cell:	Completed after 0 iterations at t[s]:   1324.05
	FillingsUpdate:  mu: -0.244750400  nElectrons: 288.409562
	SubspaceRotationAdjust: set factor to 0.215
ElecMinimize: Iter:  28  G: -724.973691588785528  |grad|_K:  6.805e-08  alpha:  3.097e-02  linmin: -3.205e-04  t[s]:   1332.94
	Linear fluid (dielectric constant: 78.4, screening length: 5.74355 Bohr) occupying 0.759232 of unit cell:	Completed after 0 iterations at t[s]:   1339.26
ElecMinimize: 	Predicted alpha/alphaT>3.000000, increasing alphaT to 9.290624e-02.
	Linear fluid (dielectric constant: 78.4, screening length: 5.74355 Bohr) occupying 0.759231 of unit cell:	Completed after 2 iterations at t[s]:   1348.89
	Linear fluid (dielectric constant: 78.4, screening length: 5.74355 Bohr) occupying 0.759232 of unit cell:	Completed after 0 iterations at t[s]:   1355.87
	FillingsUpdate:  mu: -0.244750400  nElectrons: 288.410185
	SubspaceRotationAdjust: set factor to 0.298
ElecMinimize: Iter:  29  G: -724.973691605571048  |grad|_K:  4.070e-08  alpha:  5.272e-02  linmin: -1.414e-04  t[s]:   1362.87
	Linear fluid (dielectric constant: 78.4, screening length: 5.74355 Bohr) occupying 0.759231 of unit cell:	Completed after 0 iterations at t[s]:   1368.87
ElecMinimize: 	Predicted alpha/alphaT>3.000000, increasing alphaT to 1.581712e-01.
	Linear fluid (dielectric constant: 78.4, screening length: 5.74355 Bohr) occupying 0.759231 of unit cell:	Completed after 0 iterations at t[s]:   1376.75
	Linear fluid (dielectric constant: 78.4, screening length: 5.74355 Bohr) occupying 0.759230 of unit cell:	Completed after 0 iterations at t[s]:   1384.51
	FillingsUpdate:  mu: -0.244750400  nElectrons: 288.411720
	SubspaceRotationAdjust: set factor to 0.38
ElecMinimize: Iter:  30  G: -724.973691687474684  |grad|_K:  3.813e-08  alpha:  2.946e-01  linmin:  1.997e-07  t[s]:   1392.14
	Linear fluid (dielectric constant: 78.4, screening length: 5.74355 Bohr) occupying 0.759227 of unit cell:	Completed after 3 iterations at t[s]:   1399.81
	Linear fluid (dielectric constant: 78.4, screening length: 5.74355 Bohr) occupying 0.759229 of unit cell:	Completed after 0 iterations at t[s]:   1408.87
ElecMinimize: 	Step increased G by 5.060099e-08, reducing alpha to 4.268246e-03.
	Linear fluid (dielectric constant: 78.4, screening length: 5.74355 Bohr) occupying 0.759229 of unit cell:	Completed after 0 iterations at t[s]:   1421.19
ElecMinimize: 	Step increased G by 1.999490e-08, reducing alpha to 4.268246e-04.
	Linear fluid (dielectric constant: 78.4, screening length: 5.74355 Bohr) occupying 0.759230 of unit cell:	Completed after 0 iterations at t[s]:   1434.52
ElecMinimize: 	Step increased G by 1.703006e-08, reducing alpha to 4.268246e-05.
ElecMinimize: 	Step failed to reduce G after 3 attempts. Quitting step.
ElecMinimize: 	Undoing step.
	Linear fluid (dielectric constant: 78.4, screening length: 5.74355 Bohr) occupying 0.759230 of unit cell:	Completed after 0 iterations at t[s]:   1449.08
ElecMinimize: 	Step failed: resetting search direction.
	FillingsUpdate:  mu: -0.244750400  nElectrons: 288.411722
	SubspaceRotationAdjust: set factor to 0.223
ElecMinimize: Iter:  31  G: -724.973691670475205  |grad|_K:  1.068e-07  alpha:  4.268e-05
	Linear fluid (dielectric constant: 78.4, screening length: 5.74355 Bohr) occupying 0.759229 of unit cell:	Completed after 3 iterations at t[s]:   1465.34
	Linear fluid (dielectric constant: 78.4, screening length: 5.74355 Bohr) occupying 0.759229 of unit cell:	Completed after 2 iterations at t[s]:   1473.16
	FillingsUpdate:  mu: -0.244750400  nElectrons: 288.410204
	SubspaceRotationAdjust: set factor to 0.0897
ElecMinimize: Iter:  32  G: -724.973691701429402  |grad|_K:  3.871e-08  alpha:  1.139e-01  linmin:  4.657e-03  t[s]:   1481.19
	Linear fluid (dielectric constant: 78.4, screening length: 5.74355 Bohr) occupying 0.759229 of unit cell:	Completed after 0 iterations at t[s]:   1487.82
ElecMinimize: 	Predicted alpha/alphaT>3.000000, increasing alphaT to 3.417927e-01.
	Linear fluid (dielectric constant: 78.4, screening length: 5.74355 Bohr) occupying 0.759229 of unit cell:	Completed after 0 iterations at t[s]:   1495.46
	Linear fluid (dielectric constant: 78.4, screening length: 5.74355 Bohr) occupying 0.759228 of unit cell:	Completed after 2 iterations at t[s]:   1504.50
	FillingsUpdate:  mu: -0.244750400  nElectrons: 288.411101
	SubspaceRotationAdjust: set factor to 0.0852
ElecMinimize: Iter:  33  G: -724.973691715809309  |grad|_K:  3.860e-08  alpha:  8.555e-01  linmin:  8.090e-04  t[s]:   1513.27
	Linear fluid (dielectric constant: 78.4, screening length: 5.74355 Bohr) occupying 0.759226 of unit cell:	Completed after 0 iterations at t[s]:   1519.34
	Linear fluid (dielectric constant: 78.4, screening length: 5.74355 Bohr) occupying 0.759227 of unit cell:	Completed after 0 iterations at t[s]:   1526.65
	FillingsUpdate:  mu: -0.244750400  nElectrons: 288.411650
	SubspaceRotationAdjust: set factor to 0.102
ElecMinimize: Iter:  34  G: -724.973691778893794  |grad|_K:  1.540e-08  alpha:  4.581e-01  linmin: -2.833e-08  t[s]:   1534.72
	Linear fluid (dielectric constant: 78.4, screening length: 5.74355 Bohr) occupying 0.759227 of unit cell:	Completed after 0 iterations at t[s]:   1541.13
	Linear fluid (dielectric constant: 78.4, screening length: 5.74355 Bohr) occupying 0.759227 of unit cell:	Completed after 0 iterations at t[s]:   1549.57
	FillingsUpdate:  mu: -0.244750400  nElectrons: 288.411872
	SubspaceRotationAdjust: set factor to 0.129
ElecMinimize: Iter:  35  G: -724.973691803146608  |grad|_K:  1.269e-08  alpha:  7.245e-01  linmin:  8.278e-07  t[s]:   1558.88
	Linear fluid (dielectric constant: 78.4, screening length: 5.74355 Bohr) occupying 0.759226 of unit cell:	Completed after 0 iterations at t[s]:   1565.65
	Linear fluid (dielectric constant: 78.4, screening length: 5.74355 Bohr) occupying 0.759226 of unit cell:	Completed after 0 iterations at t[s]:   1572.87
	FillingsUpdate:  mu: -0.244750400  nElectrons: 288.412155
	SubspaceRotationAdjust: set factor to 0.155
ElecMinimize: Iter:  36  G: -724.973691822499745  |grad|_K:  1.470e-08  alpha:  8.510e-01  linmin: -5.827e-07  t[s]:   1581.67
	Linear fluid (dielectric constant: 78.4, screening length: 5.74355 Bohr) occupying 0.759226 of unit cell:	Completed after 1 iterations at t[s]:   1588.20
	Linear fluid (dielectric constant: 78.4, screening length: 5.74355 Bohr) occupying 0.759226 of unit cell:	Completed after 0 iterations at t[s]:   1596.58
ElecMinimize: 	Step increased G by 3.142532e-08, reducing alpha to 1.541892e-02.
	Linear fluid (dielectric constant: 78.4, screening length: 5.74355 Bohr) occupying 0.759226 of unit cell:	Completed after 0 iterations at t[s]:   1610.01
ElecMinimize: 	Step increased G by 4.707795e-08, reducing alpha to 1.541892e-03.
	Linear fluid (dielectric constant: 78.4, screening length: 5.74355 Bohr) occupying 0.759226 of unit cell:	Completed after 0 iterations at t[s]:   1624.85
ElecMinimize: 	Step increased G by 4.653327e-08, reducing alpha to 1.541892e-04.
ElecMinimize: 	Step failed to reduce G after 3 attempts. Quitting step.
ElecMinimize: 	Undoing step.
	Linear fluid (dielectric constant: 78.4, screening length: 5.74355 Bohr) occupying 0.759226 of unit cell:	Completed after 0 iterations at t[s]:   1638.18
ElecMinimize: 	Step failed: resetting search direction.
	FillingsUpdate:  mu: -0.244750400  nElectrons: 288.412156
	SubspaceRotationAdjust: set factor to 0.139
ElecMinimize: Iter:  37  G: -724.973691775977954  |grad|_K:  2.431e-08  alpha:  1.542e-04
	Linear fluid (dielectric constant: 78.4, screening length: 5.74355 Bohr) occupying 0.759226 of unit cell:	Completed after 0 iterations at t[s]:   1651.78
	Linear fluid (dielectric constant: 78.4, screening length: 5.74355 Bohr) occupying 0.759226 of unit cell:	Completed after 0 iterations at t[s]:   1660.42
	FillingsUpdate:  mu: -0.244750400  nElectrons: 288.411312
	SubspaceRotationAdjust: set factor to 0.204
ElecMinimize: Iter:  38  G: -724.973691823745526  |grad|_K:  1.809e-08  alpha:  6.348e-01  linmin: -2.893e-04  t[s]:   1667.69
	Linear fluid (dielectric constant: 78.4, screening length: 5.74355 Bohr) occupying 0.759226 of unit cell:	Completed after 1 iterations at t[s]:   1674.75
	Linear fluid (dielectric constant: 78.4, screening length: 5.74355 Bohr) occupying 0.759226 of unit cell:	Completed after 0 iterations at t[s]:   1682.78
ElecMinimize: 	Step increased G by 5.256561e-08, reducing alpha to 1.263947e-02.
	Linear fluid (dielectric constant: 78.4, screening length: 5.74355 Bohr) occupying 0.759226 of unit cell:	Completed after 0 iterations at t[s]:   1695.59
ElecMinimize: 	Step increased G by 4.086621e-08, reducing alpha to 1.263947e-03.
	Linear fluid (dielectric constant: 78.4, screening length: 5.74355 Bohr) occupying 0.759226 of unit cell:	Completed after 0 iterations at t[s]:   1709.12
ElecMinimize: 	Step increased G by 3.977232e-08, reducing alpha to 1.263947e-04.
ElecMinimize: 	Step failed to reduce G after 3 attempts. Quitting step.
ElecMinimize: 	Undoing step.
	Linear fluid (dielectric constant: 78.4, screening length: 5.74355 Bohr) occupying 0.759226 of unit cell:	Completed after 0 iterations at t[s]:   1723.30
ElecMinimize: 	Step failed: resetting search direction.
	FillingsUpdate:  mu: -0.244750400  nElectrons: 288.411310
	SubspaceRotationAdjust: set factor to 0.154
ElecMinimize: Iter:  39  G: -724.973691783996742  |grad|_K:  3.223e-08  alpha:  1.264e-04
	Linear fluid (dielectric constant: 78.4, screening length: 5.74355 Bohr) occupying 0.759226 of unit cell:	Completed after 0 iterations at t[s]:   1738.51
	Linear fluid (dielectric constant: 78.4, screening length: 5.74355 Bohr) occupying 0.759226 of unit cell:	Completed after 3 iterations at t[s]:   1746.24
ElecMinimize: 	Step increased G by 3.847845e-07, reducing alpha to 1.096478e-01.
	Linear fluid (dielectric constant: 78.4, screening length: 5.74355 Bohr) occupying 0.759226 of unit cell:	Completed after 1 iterations at t[s]:   1760.06
	FillingsUpdate:  mu: -0.244750400  nElectrons: 288.411429
	SubspaceRotationAdjust: set factor to 0.0807
ElecMinimize: Iter:  40  G: -724.973691835456407  |grad|_K:  1.730e-08  alpha:  1.096e-01  linmin:  8.157e-04  t[s]:   1767.91
	Linear fluid (dielectric constant: 78.4, screening length: 5.74355 Bohr) occupying 0.759226 of unit cell:	Completed after 0 iterations at t[s]:   1773.97
ElecMinimize: 	Predicted alpha/alphaT>3.000000, increasing alphaT to 3.289434e-01.
	Linear fluid (dielectric constant: 78.4, screening length: 5.74355 Bohr) occupying 0.759226 of unit cell:	Completed after 0 iterations at t[s]:   1781.60
	Linear fluid (dielectric constant: 78.4, screening length: 5.74355 Bohr) occupying 0.759226 of unit cell:	Completed after 0 iterations at t[s]:   1790.38
	FillingsUpdate:  mu: -0.244750400  nElectrons: 288.410980
	SubspaceRotationAdjust: set factor to 0.104
ElecMinimize: Iter:  41  G: -724.973691850979776  |grad|_K:  1.565e-08  alpha:  4.266e-01  linmin:  1.555e-07  t[s]:   1798.06
	Linear fluid (dielectric constant: 78.4, screening length: 5.74355 Bohr) occupying 0.759226 of unit cell:	Completed after 0 iterations at t[s]:   1803.98
ElecMinimize: 	Predicted alpha/alphaT>3.000000, increasing alphaT to 1.279770e+00.
	Linear fluid (dielectric constant: 78.4, screening length: 5.74355 Bohr) occupying 0.759225 of unit cell:	Completed after 3 iterations at t[s]:   1812.33
	Linear fluid (dielectric constant: 78.4, screening length: 5.74355 Bohr) occupying 0.759226 of unit cell:	Completed after 0 iterations at t[s]:   1820.33
	FillingsUpdate:  mu: -0.244750400  nElectrons: 288.410712
	SubspaceRotationAdjust: set factor to 0.0754
ElecMinimize: Iter:  42  G: -724.973691892905549  |grad|_K:  4.805e-08  alpha:  1.719e-01  linmin:  1.773e-03  t[s]:   1828.37
ElecMinimize: 	Bad step direction: g.d > 0.
ElecMinimize: 	Undoing step.
	Linear fluid (dielectric constant: 78.4, screening length: 5.74355 Bohr) occupying 0.759226 of unit cell:	Completed after 0 iterations at t[s]:   1834.00
ElecMinimize: 	Step failed: resetting search direction.
	FillingsUpdate:  mu: -0.244750400  nElectrons: 288.410712
	SubspaceRotationAdjust: set factor to 0.0611
ElecMinimize: Iter:  43  G: -724.973691892919874  |grad|_K:  4.327e-08  alpha:  0.000e+00
	Linear fluid (dielectric constant: 78.4, screening length: 5.74355 Bohr) occupying 0.759226 of unit cell:	Completed after 1 iterations at t[s]:   1848.39
	Linear fluid (dielectric constant: 78.4, screening length: 5.74355 Bohr) occupying 0.759226 of unit cell:	Completed after 0 iterations at t[s]:   1855.90
ElecMinimize: 	Step increased G by 7.442429e-08, reducing alpha to 5.453074e-03.
	Linear fluid (dielectric constant: 78.4, screening length: 5.74355 Bohr) occupying 0.759226 of unit cell:	Completed after 0 iterations at t[s]:   1867.96
ElecMinimize: 	Step increased G by 8.476798e-08, reducing alpha to 5.453074e-04.
	Linear fluid (dielectric constant: 78.4, screening length: 5.74355 Bohr) occupying 0.759226 of unit cell:	Completed after 0 iterations at t[s]:   1880.62
ElecMinimize: 	Step increased G by 8.583163e-08, reducing alpha to 5.453074e-05.
ElecMinimize: 	Step failed to reduce G after 3 attempts. Quitting step.
ElecMinimize: 	Undoing step.
	Linear fluid (dielectric constant: 78.4, screening length: 5.74355 Bohr) occupying 0.759226 of unit cell:	Completed after 0 iterations at t[s]:   1893.82
ElecMinimize: 	Step failed along negative gradient direction.
ElecMinimize: Probably at roundoff error limit. (Stopping)
Setting wave functions to eigenvectors of Hamiltonian

# Ionic positions in lattice coordinates:
ion Sc   0.749845517559356   0.535711137695579   0.552893177251682 0
ion Sc   0.415990705659878   0.683938525959875   0.446172173950895 0
ion Sc   0.930434014457292   0.338369646053942   0.493744033820237 0
ion Sc   0.249065962984179   0.870431449330988   0.516150605951713 0
ion Sc   0.692262998819754   0.336686962678945   0.597376419899231 0
ion Sc   0.472025311353502   0.885213340009330   0.395540608593030 0
ion Sc   0.429533078819882   0.424768338482634   0.518566935081030 0
ion Sc   0.729557508149469   0.794607339417606   0.490832438409040 0
ion Sc   0.667059146381918   0.429208198487971   0.415333829667104 0
ion Sc   0.617251095993434   0.230389459714450   0.462380074925993 0
ion Sc   0.551422442744179   0.986151608101921   0.544386320885555 0
ion C   0.473993367986514   0.799719841900739   0.478053174527668 0
ion C   0.696818677607403   0.422818728527388   0.517186560776573 0
ion C   0.505412508663737   0.872435489744245   0.501655537813844 0
ion C   0.661960013033081   0.345265631068169   0.495234173238838 0
ion I   0.762402901243525   0.475597530105102   0.670583295341582 0
ion I   0.407172818728904   0.741121327679028   0.326961454561121 0
ion I   0.067640003829976   0.487492552294048   0.534189186363781 0
ion I   0.107199908899613   0.725053822366054   0.464282226762301 0
ion I   0.431708069488225   0.598202366478605   0.563151430955704 0
ion I   0.735612640937968   0.612953023717861   0.429864162445777 0
ion I   0.544138927971933   0.057743077941017   0.416879904224375 0
ion I   0.621764878254952   0.160028095702181   0.581986686498393 0
ion I   0.924250035924453   0.172873415878685   0.444727575993163 0
ion I   0.241527941701412   0.042727813814101   0.555237944365483 0
ion I   0.290410344664694   0.281602400532888   0.476513961365243 0
ion I   0.874703553398680   0.935107195085265   0.524642981263949 0
ion I   0.776288278185913   0.840522200974908   0.366829181560187 0
ion I   0.393640878374725   0.373023536696853   0.637204723339625 0
ion I   0.173672653778217   0.947872286920436   0.393711037579616 0
ion I   0.991164010170154   0.266330170636535   0.608345775865981 0
ion I   0.802530249290338   0.703980383718901   0.595272468164028 0
ion I   0.363763952403339   0.506975572542121   0.402051566387688 0
ion I   0.218882069022667   0.806446937375769   0.624906458755927 0
ion I   0.960649912377381   0.401904586506312   0.374292925379495 0
ion I   0.584152243052766   0.930057302121160   0.656382238167615 0
ion I   0.585826226086606   0.295609887738380   0.342818653866540 0


# Forces in Lattice coordinates:
force Sc   0.047441827219772   0.151443040163576   0.279737105670040 0
force Sc  -0.059332950589090  -0.424982247187241  -0.460072850936641 0
force Sc   0.163389915107313  -0.050885112448968  -0.132107049467500 0
force Sc  -0.123914287303150   0.100155329751161  -0.132343131831105 0
force Sc   0.011609093518068  -0.079420756586027   0.824223344980798 0
force Sc   0.007256337855151   0.230087725716631  -1.193866675599843 0
force Sc  -0.161772963653526   0.013910246271995   0.141871646845889 0
force Sc   0.169240136599163  -0.112709443163203  -0.172429077570697 0
force Sc   0.021015306873912   0.056932985097781  -0.839036232597206 0
force Sc  -0.049408010321516  -0.204870678661932  -0.307737783836058 0
force Sc   0.060010233807274   0.397989722157431   0.033240177958822 0
force C   0.136658101815543   0.713799824313798   0.615312133148033 0
force C  -0.070974707640677  -0.305541326313669  -0.184790563953920 0
force C  -0.146728551057803  -0.659380902187580  -0.201194012842416 0
force C   0.055382216533785   0.321449520655648   0.213388256984004 0
force I  -0.016781830617157  -0.005264816414462  -0.301363948974025 0
force I   0.019292194887527   0.029341812521685   0.443362099104017 0
force I  -0.008831330683899  -0.028970393938612  -0.004178917441390 0
force I   0.026978578644587   0.072376411031726   0.074245338753931 0
force I  -0.005476821812099   0.000450286666193   0.032740123467871 0
force I  -0.002959610785772   0.082209638396378   0.086241047625254 0
force I   0.000905942816473  -0.052592934494849   0.250103054136388 0
force I  -0.021348505609227  -0.087494818935255  -0.095564022797237 0
force I  -0.003051116208707   0.052038360226966   0.004471869956545 0
force I   0.011404038900782  -0.103335134308206   0.041445544749962 0
force I   0.006028698968641   0.043461917018709  -0.021979011640450 0
force I  -0.015325927612305  -0.023989007193421   0.068392129357145 0
force I  -0.031107810021426  -0.085028201159866   0.352543110218230 0
force I   0.037842758032871   0.072793426637067  -0.272381046540882 0
force I  -0.002176631903024  -0.074605321218418   0.300078017370704 0
force I  -0.015631008921312   0.059392727980330  -0.174427493836935 0
force I  -0.003450439145341   0.027387733793618  -0.024612508082748 0
force I   0.012796405949612  -0.007600020747407   0.157030679987198 0
force I   0.015644166809519   0.035690446763489   0.049653931929028 0
force I  -0.052303587526612  -0.070871614171871   0.276726731580059 0
force I  -0.034840161222734  -0.077358871230396  -0.065402936522607 0
force I   0.023911166056122  -0.011745851918142   0.326524759388361 0

# Energy components:
   A_diel =       -0.1451398122638373
   Eewald =     4868.6534565348538308
       EH =     5440.7311405621085214
     Eloc =   -11242.2570785566877021
      Enl =      130.1036240954447010
      Exc =     -612.5807401428410230
 Exc_core =      469.2664339681997490
       KE =      150.6858280175909499
  MuShift =        0.0167840279342068
-------------------------------------
     Etot =     -795.5256913056601888
       TS =        0.0366378842175944
-------------------------------------
        F =     -795.5623291898778007
      muN =      -70.5886373828015223
-------------------------------------
        G =     -724.9736918070763068

IonicMinimize: Iter:   0  G: -724.973691807076307  |grad|_K:  0.000e+00  t[s]:   1910.15
IonicMinimize: Converged (|grad|_K<1.000000e-04).

#--- Lowdin population analysis ---
# oxidation-state Sc -0.326 -0.310 -0.268 -0.280 -0.069 -0.001 -0.249 -0.213 -0.065 -0.329 -0.373
# oxidation-state C -0.219 -0.285 -0.191 -0.279
# oxidation-state I +0.336 +0.363 +0.278 +0.276 +0.417 +0.413 +0.298 +0.331 +0.266 +0.265 +0.295 +0.313 +0.305 +0.361 +0.264 +0.326 +0.253 +0.393 +0.172 +0.338 +0.251 +0.320


Dumping 'NbTe2.fillings' ... done
Dumping 'NbTe2.wfns' ... done
Dumping 'NbTe2.fluidState' ... done
Dumping 'NbTe2.eigenvals' ... done
End date and time: Sat Jul 18 11:07:02 2020  (Duration: 0-0:31:56.50)
Done!
