
*************** JDFTx 1.5.0  ***************

Start date and time: Tue Jul 14 09:13:49 2020
Executable jdftx_gpu with command-line: -i Charged.in -o Charged.out
Running on hosts (process indices):  amax (0-3)
Divided in process groups (process indices):  0 (0)  1 (1)  2 (2)  3 (3)
gpuInit: Found compatible cuda device 0 'Tesla K80'
gpuInit: Found compatible cuda device 1 'Tesla K80'
gpuInit: Found compatible cuda device 2 'Tesla K80'
gpuInit: Found compatible cuda device 3 'Tesla K80'
gpuInit: Selected device 0
Resource initialization completed at t[s]:     15.79
Run totals: 4 processes, 24 threads, 4 GPUs


Input parsed successfully to the following command list (including defaults):

basis kpoint-dependent
cache-projectors no
coords-type Lattice
core-overlap-check none
coulomb-interaction Slab 001
coulomb-truncation-embed 0 0 0.5
davidson-band-ratio 1.1
dump End State
dump-name NbTe2.$VAR
elec-cutoff 20 100
elec-eigen-algo Davidson
elec-ex-corr gga-PBE
elec-smearing Gauss 0.0073499
electronic-minimize  \
	dirUpdateScheme      FletcherReeves \
	linminMethod         DirUpdateRecommended \
	nIterations          500 \
	history              15 \
	knormThreshold       0 \
	energyDiffThreshold  1e-08 \
	nEnergyDiff          2 \
	alphaTstart          1 \
	alphaTmin            1e-10 \
	updateTestStepSize   yes \
	alphaTreduceFactor   0.1 \
	alphaTincreaseFactor 3 \
	nAlphaAdjustMax      3 \
	wolfeEnergy          0.0001 \
	wolfeGradient        0.9 \
	fdTest               no
exchange-regularization WignerSeitzTruncated
fluid LinearPCM 298.000000 1.013250
fluid-anion F- 1 MeanFieldLJ \
	epsBulk 1 \
	pMol 0 \
	epsInf 1 \
	Pvap 0 \
	sigmaBulk 0 \
	Rvdw 2.24877 \
	Res 0 \
	tauNuc 343133
fluid-cation Na+ 1 MeanFieldLJ \
	epsBulk 1 \
	pMol 0 \
	epsInf 1 \
	Pvap 0 \
	sigmaBulk 0 \
	Rvdw 2.19208 \
	Res 0 \
	tauNuc 343133
fluid-ex-corr lda-TF lda-PZ
fluid-gummel-loop 10 1.000000e-05
fluid-minimize  \
	dirUpdateScheme      PolakRibiere \
	linminMethod         DirUpdateRecommended \
	nIterations          400 \
	history              15 \
	knormThreshold       1e-11 \
	energyDiffThreshold  0 \
	nEnergyDiff          2 \
	alphaTstart          1 \
	alphaTmin            1e-10 \
	updateTestStepSize   yes \
	alphaTreduceFactor   0.1 \
	alphaTincreaseFactor 3 \
	nAlphaAdjustMax      6 \
	wolfeEnergy          0.0001 \
	wolfeGradient        0.9 \
	fdTest               no
fluid-solvent H2O 55.338 ScalarEOS \
	epsBulk 78.4 \
	pMol 0.92466 \
	epsInf 1.77 \
	Pvap 1.06736e-10 \
	sigmaBulk 4.62e-05 \
	Rvdw 2.61727 \
	Res 1.42 \
	tauNuc 343133 \
	poleEl 15 7 1
forces-output-coords Positions
initial-state NbTe2.$VAR
ion Bi   0.000000000000000   0.000000000000000   0.500040009000003 0
ion Bi   0.111109995000000   0.111110007999997   0.354752182604108 0
ion Bi   0.222219989999999   0.222220016999998   0.645277777395892 0
ion Bi   0.333329996000003  -0.000000000000000   0.500040009000003 0
ion Bi   0.444440008999997   0.111110007999997   0.354752182604108 0
ion Bi   0.555559961000000   0.222220016999998   0.645277777395892 0
ion Bi   0.666670041000003  -0.000000000000000   0.500040009000003 0
ion Bi   0.777779981000002   0.111110007999997   0.354752182604108 0
ion Bi   0.888890068000002   0.222220016999998   0.645277777395892 0
ion Bi   0.999999994000000   0.333330013999998   0.500040009000003 0
ion Bi   0.111109984000002   0.444440032999999   0.354752182604108 0
ion Bi   0.222220010000001   0.555559993000003   0.645277777395892 0
ion Bi   0.333329972000001   0.333330013999998   0.500040009000003 0
ion Bi   0.444439979999999   0.444440032999999   0.354752182604108 0
ion Bi   0.555560018000001   0.555559993000003   0.645277777395892 0
ion Bi   0.666670054000001   0.333330013999998   0.500040009000003 0
ion Bi   0.777779987999999   0.444440032999999   0.354752182604108 0
ion Bi   0.888890050999997   0.555559993000003   0.645277777395892 0
ion Bi   0.000000000999996   0.666670054000001   0.500040009000003 0
ion Bi   0.111110013999998   0.777779987999999   0.354752182604108 0
ion Bi   0.222220000999997   0.888890050000001   0.645277777395892 0
ion Bi   0.333329996000003   0.666670054000001   0.500040009000003 0
ion Bi   0.444439973000001   0.777779987999999   0.354752182604108 0
ion Bi   0.555560008999997   0.888890050000001   0.645277777395892 0
ion Bi   0.666670005000000   0.666670054000001   0.500040009000003 0
ion Bi   0.777779981999998   0.777779987999999   0.354752182604108 0
ion Bi   0.888890042000000   0.888890050000001   0.645277777395892 0
ion Se  -0.000000000000000  -0.000000000000000   0.298369594358410 0
ion Se   0.000000000000000   0.000000000000000   0.701610476641586 0
ion Se   0.111109995000000   0.111110007999997   0.565832902216775 0
ion Se   0.222219989999999   0.222220016999998   0.434127088783222 0
ion Se   0.333329996000003  -0.000000000000000   0.298369594358410 0
ion Se   0.333329996000003   0.000000000000000   0.701610476641586 0
ion Se   0.444440008999997   0.111110007999997   0.565832902216775 0
ion Se   0.555559961000000   0.222220016999998   0.434127088783222 0
ion Se   0.666670041000003  -0.000000000000000   0.298369594358410 0
ion Se   0.666670041000003   0.000000000000000   0.701610476641586 0
ion Se   0.777779981000002   0.111110007999997   0.565832902216775 0
ion Se   0.888890068000002   0.222220016999998   0.434127088783222 0
ion Se   0.999999994000000   0.333330013999998   0.298369594358410 0
ion Se   0.999999994000000   0.333330013999998   0.701610476641586 0
ion Se   0.111109984000002   0.444440032999999   0.565832902216775 0
ion Se   0.222220010000001   0.555559993000003   0.434127088783222 0
ion Se   0.333329972000001   0.333330013999998   0.298369594358410 0
ion Se   0.333329972000001   0.333330013999998   0.701610476641586 0
ion Se   0.444439979999999   0.444440032999999   0.565832902216775 0
ion Se   0.555560018000001   0.555559993000003   0.434127088783222 0
ion Se   0.666670054000001   0.333330013999998   0.298369594358410 0
ion Se   0.666670054000001   0.333330013999998   0.701610476641586 0
ion Se   0.777779987999999   0.444440032999999   0.565832902216775 0
ion Se   0.888890050999997   0.555559993000003   0.434127088783222 0
ion Se   0.000000000999996   0.666670054000001   0.298369594358410 0
ion Se   0.000000000999996   0.666670054000001   0.701610476641586 0
ion Se   0.111110013999998   0.777779987999999   0.565832902216775 0
ion Se   0.222220000999997   0.888890050000001   0.434127088783222 0
ion Se   0.333329996000003   0.666670054000001   0.298369594358410 0
ion Se   0.333329996000003   0.666670054000001   0.701610476641586 0
ion Se   0.444439973000001   0.777779987999999   0.565832902216775 0
ion Se   0.555560008999997   0.888890050000001   0.434127088783222 0
ion Se   0.666670005000000   0.666670054000001   0.298369594358410 0
ion Se   0.666670005000000   0.666670054000001   0.701610476641586 0
ion Se   0.777779981999998   0.777779987999999   0.565832902216775 0
ion Se   0.888890042000000   0.888890050000001   0.434127088783222 0
ion-species GBRV/$ID_pbe.uspp
ion-width Ecut
ionic-minimize  \
	dirUpdateScheme      L-BFGS \
	linminMethod         DirUpdateRecommended \
	nIterations          0 \
	history              15 \
	knormThreshold       0.0001 \
	energyDiffThreshold  1e-06 \
	nEnergyDiff          2 \
	alphaTstart          1 \
	alphaTmin            1e-10 \
	updateTestStepSize   yes \
	alphaTreduceFactor   0.1 \
	alphaTincreaseFactor 3 \
	nAlphaAdjustMax      3 \
	wolfeEnergy          0.0001 \
	wolfeGradient        0.9 \
	fdTest               no
kpoint   0.000000000000   0.000000000000   0.000000000000  1.00000000000000
kpoint-folding 3 3 1 
latt-move-scale 1 1 1
latt-scale 1 1 1 
lattice Triclinic 24.3894 24.3896 47.7024 90 90 60.0003
lattice-minimize  \
	dirUpdateScheme      L-BFGS \
	linminMethod         DirUpdateRecommended \
	nIterations          0 \
	history              15 \
	knormThreshold       0 \
	energyDiffThreshold  1e-06 \
	nEnergyDiff          2 \
	alphaTstart          1 \
	alphaTmin            1e-10 \
	updateTestStepSize   yes \
	alphaTreduceFactor   0.1 \
	alphaTincreaseFactor 3 \
	nAlphaAdjustMax      3 \
	wolfeEnergy          0.0001 \
	wolfeGradient        0.9 \
	fdTest               no
lcao-params -1 1e-06 0.0073499
pcm-variant CANDLE
spintype no-spin
subspace-rotation-factor 1 yes
symmetries automatic
symmetry-threshold 0.0001
target-mu -0.24475 no




---------- Setting up symmetries ----------

Found 24 point-group symmetries of the bravais lattice
Found 54 space-group symmetries with basis
Applied RMS atom displacement 0.000100577 bohrs to make symmetries exact.

---------- Initializing the Grid ----------
R = 
[    24.3894    12.1947          0  ]
[          0     21.122          0  ]
[          0          0    47.7024  ]
unit cell volume = 24574
G =
[    0.25762  -0.148735          0  ]
[          0   0.297471          0  ]
[          0          0   0.131716  ]
Minimum fftbox size, Smin = [  112  112  216  ]
Chosen fftbox size, S = [  112  112  216  ]

---------- Initializing tighter grid for wavefunction operations ----------
R = 
[    24.3894    12.1947          0  ]
[          0     21.122          0  ]
[          0          0    47.7024  ]
unit cell volume = 24574
G =
[    0.25762  -0.148735          0  ]
[          0   0.297471          0  ]
[          0          0   0.131716  ]
Minimum fftbox size, Smin = [  100  100  196  ]
Chosen fftbox size, S = [  100  100  196  ]

---------- Exchange Correlation functional ----------
Initalized PBE GGA exchange.
Initalized PBE GGA correlation.

---------- Setting up pseudopotentials ----------
Width of ionic core gaussian charges (only for fluid interactions / plotting) set to 0.397384

Reading pseudopotential file '/home/guoxy/vasp/jdftx-1.5.0/build/pseudopotentials/GBRV/bi_pbe.uspp':
  Title: Bi.  Created by USPP 7.3.6 on 14-9-2013
  Reference state energy: -92.204004.  15 valence electrons in orbitals:
    |520>  occupation: 10  eigenvalue: -1.293263
    |600>  occupation: 2  eigenvalue: -0.812524
    |610>  occupation: 2  eigenvalue: -0.420386
  lMax: 2  lLocal: 3  QijEcut: 5
  6 projectors sampled on a log grid with 747 points:
    l: 0  eig: -0.812524  rCut: 2.5
    l: 0  eig: 0.500000  rCut: 2.5
    l: 1  eig: -0.420386  rCut: 2.5
    l: 1  eig: 1.000000  rCut: 2.5
    l: 2  eig: -1.293263  rCut: 2.3
    l: 2  eig: -0.500000  rCut: 2.3
  Partial core density with radius 1
  Transforming core density to a uniform radial grid of dG=0.02 with 1614 points.
  Transforming local potential to a uniform radial grid of dG=0.02 with 1614 points.
  Transforming nonlocal projectors to a uniform radial grid of dG=0.02 with 432 points.
  Transforming density augmentations to a uniform radial grid of dG=0.02 with 1614 points.
  Transforming atomic orbitals to a uniform radial grid of dG=0.02 with 432 points.
  Core radius for overlap checks: 2.50 bohrs.

Reading pseudopotential file '/home/guoxy/vasp/jdftx-1.5.0/build/pseudopotentials/GBRV/se_pbe.uspp':
  Title: Se.  Created by USPP 7.3.6 on 14-9-2013
  Reference state energy: -21.672887.  6 valence electrons in orbitals:
    |400>  occupation: 2  eigenvalue: -0.635284
    |410>  occupation: 4  eigenvalue: -0.239295
  lMax: 2  lLocal: 3  QijEcut: 5
  6 projectors sampled on a log grid with 625 points:
    l: 0  eig: -0.635278  rCut: 1.5
    l: 0  eig: 0.500000  rCut: 1.5
    l: 1  eig: -0.239295  rCut: 1.5
    l: 1  eig: 0.500000  rCut: 1.5
    l: 2  eig: 0.000000  rCut: 1.8
    l: 2  eig: 1.000000  rCut: 1.8
  Partial core density with radius 1.2
  Transforming core density to a uniform radial grid of dG=0.02 with 1614 points.
  Transforming local potential to a uniform radial grid of dG=0.02 with 1614 points.
  Transforming nonlocal projectors to a uniform radial grid of dG=0.02 with 432 points.
  Transforming density augmentations to a uniform radial grid of dG=0.02 with 1614 points.
  Transforming atomic orbitals to a uniform radial grid of dG=0.02 with 432 points.
  Core radius for overlap checks: 1.80 bohrs.

Initialized 2 species with 63 total atoms.

Folded 1 k-points by 3x3x1 to 9 k-points.

---------- Setting up k-points, bands, fillings ----------
Adding inversion symmetry to k-mesh for non-inversion-symmetric unit cell.
Reduced to 3 k-points under symmetry. 
Computing the number of bands and number of electrons
Reading initial fillings from file NbTe2.fillings.
nElectrons: 620.485845   nBands: 387   nStates: 3

----- Setting up reduced wavefunction bases (one per k-point) -----
average nbasis = 104963.444 , ideal nbasis = 104982.107

---------- Setting up coulomb interaction ----------
Fluid mode embedding: using embedded box, but periodic Coulomb kernel.
(Fluid response is responsible for (approximate) separation between periodic images.)
Setting up double-sized grid for truncated Coulomb potentials:
R = 
[    24.3894    12.1947          0  ]
[          0     21.122          0  ]
[          0          0    95.4047  ]
unit cell volume = 49148
G =
[    0.25762  -0.148735          0  ]
[          0   0.297471          0  ]
[          0          0  0.0658582  ]
Chosen fftbox size, S = [  112  112  432  ]
Integer grid location selected as the embedding center:
   Grid: [  0  0  108  ]
   Lattice: [  0  0  0.5  ]
   Cartesian: [  0  0  23.8512  ]
Constructing Wigner-Seitz cell: 8 faces (6 quadrilaterals, 2 hexagons)
Range-separation parameter for embedded mesh potentials due to point charges: 0.592861 bohrs.

Initializing van der Waals corrections
	NOTE: vdW corrections apply only for interactions with fluid.
	Bi:  C6:  893.28 Eh-a0^6  R0: 3.555 a0 (WARNING: beyond Grimme's data set)
	Se:  C6:  219.24 Eh-a0^6  R0: 3.347 a0

---------- Setting up ewald sum ----------
Optimum gaussian width for ewald sums = 7.325806 bohr.
Real space sum over 605 unit cells with max indices [  5  5  2  ]
Reciprocal space sum over 9675 terms with max indices [  7  7  21  ]

---------- Allocating electronic variables ----------
Initializing wave functions:  reading from 'NbTe2.wfns'
----- createFluidSolver() ----- (Fluid-side solver setup)
   Initializing fluid molecule 'H2O'
     Initializing site 'O'
       Electron density: proportional to exp(-r/0.36935)*erfc((r-0.51523)/0.36823) with norm 6.826
       Charge density: gaussian nuclear width 0.478731 with net site charge 0.826
       Polarizability: cuspless exponential with width 0.32 and norm 3.73
       Hard sphere radius: 2.57003 bohrs
       Positions in reference frame:
         [ +0.000000 +0.000000 +0.000000 ]
     Initializing site 'H'
       Electron density: proportional to exp(-r/0.34641)*erfc((r-0)/0.390882) with norm 0.587
       Charge density: gaussian nuclear width 0.377945 with net site charge -0.413
       Polarizability: cuspless exponential with width 0.39 and norm 3.3
       Positions in reference frame:
         [ +0.000000 -1.441945 +1.122523 ]
         [ +0.000000 +1.441945 +1.122523 ]
     Net charge: 0   dipole magnitude: 0.927204
     Initializing spherical shell mfKernel with radius 2.61727 Bohr
     deltaS corrections:
       site 'O': -7.54299
       site 'H': -6.83917
   Initializing fluid molecule 'Na+'
     Initializing site 'Na'
       Electron density: proportional to exp(-r/0.19682)*erfc((r-0.71491)/0.41314) with norm 8.1383
       Charge density: gaussian nuclear width 0.365347 with net site charge -1
       Hard sphere radius: 1.86327 bohrs
       Positions in reference frame:
         [ +0.000000 +0.000000 +0.000000 ]
     Net charge: -1   dipole magnitude: 0
     Initializing gaussian mfKernel with width: 1.55004 Bohr
     deltaS corrections:
       site 'Na': -22.3555
   Initializing fluid molecule 'F-'
     Initializing site 'F'
       Electron density: proportional to exp(-r/0.38886)*erfc((r-0)/0.438782) with norm 8
       Charge density: gaussian nuclear width 0.374796 with net site charge 1
       Hard sphere radius: 2.39995 bohrs
       Positions in reference frame:
         [ +0.000000 +0.000000 +0.000000 ]
     Net charge: 1   dipole magnitude: 0
     Initializing gaussian mfKernel with width: 1.59012 Bohr
     deltaS corrections:
       site 'F': -9.04335

Correction to mu due to finite nuclear width = -0.0125367
   Cavity determined by nc: 0.00142 and sigma: 0.707107
   Nonlocal vdW cavity from gaussian model electron density with norm = 8 and sigma = 0.993594 bohr
   Charge asymmetry in cavity with sensitivity pCavity = 36.5 e-bohr/Eh
   Electrostatic cavity expanded by eta = 1.46 bohrs
   Weighted density cavitation model constrained by Nbulk: 0.0049383 bohr^-3, Pvap: 3.14029 kPa, Rvdw: 2.61727 bohr and sigmaBulk: 4.62e-05 Eh/bohr^2 at T: 298 K.
   Weighted density dispersion model using vdW pair potentials with single solvent site with sqrtC6eff: 0.77 SI.
Reading fluid state from 'NbTe2.fluidState'


---- Citations for features of the code used in this run ----

   Software package:
      R. Sundararaman, K. Letchworth-Weaver, K.A. Schwarz, D. Gunceler, Y. Ozhabes and T.A. Arias, 'JDFTx: software for joint density-functional theory', SoftwareX 6, 278 (2017)

   gga-PBE exchange-correlation functional:
      J.P. Perdew, K. Burke and M. Ernzerhof, Phys. Rev. Lett. 77, 3865 (1996)

   Pseudopotentials:
      KF Garrity, JW Bennett, KM Rabe and D Vanderbilt, Comput. Mater. Sci. 81, 446 (2014)

   Truncated Coulomb potentials:
      R. Sundararaman and T.A. Arias, Phys. Rev. B 87, 165122 (2013)

   Van der Waals correction pair-potentials:
      S. Grimme, J. Comput. Chem. 27, 1787 (2006)

   Charge-asymmetric nonlocally-determined local-electric (CANDLE) solvation model:
      R. Sundararaman and W.A. Goddard III, J. Chem. Phys. 142, 064107 (2015)

   Total energy minimization with Auxiliary Hamiltonian:
      C. Freysoldt, S. Boeck, and J. Neugebauer, Phys. Rev. B 79, 241103(R) (2009)

   Grand-canonical (fixed-potential) DFT:
      R. Sundararaman, W. A. Goddard III and T. A. Arias, J. Chem. Phys. 146, 114104 (2017)

This list may not be complete. Please suggest additional citations or
report any other bugs at https://github.com/shankar1729/jdftx/issues

Initialization completed successfully at t[s]:     24.63

Shifting auxilliary hamiltonian by -0.073586 to set nElectrons=620.485845
	Linear fluid (dielectric constant: 78.4, screening length: 5.74355 Bohr) occupying 0.689483 of unit cell:	Completed after 3 iterations at t[s]:     29.27

-------- Electronic minimization -----------
	Linear fluid (dielectric constant: 78.4, screening length: 5.74355 Bohr) occupying 0.689483 of unit cell:	Completed after 0 iterations at t[s]:     33.56
	FillingsUpdate:  mu: -0.244750400  nElectrons: 620.485845
ElecMinimize: Iter:   0  G: -2133.718088973621889  |grad|_K:  1.120e-04  alpha:  1.000e+00
	Linear fluid (dielectric constant: 78.4, screening length: 5.74355 Bohr) occupying 0.693965 of unit cell:	Completed after 21 iterations at t[s]:     52.85
	Linear fluid (dielectric constant: 78.4, screening length: 5.74355 Bohr) occupying 0.689609 of unit cell:	Completed after 21 iterations at t[s]:     62.28
	FillingsUpdate:  mu: -0.244750400  nElectrons: 618.978384
	SubspaceRotationAdjust: set factor to 0.524
ElecMinimize: Iter:   1  G: -2133.750728763212464  |grad|_K:  7.215e-05  alpha:  3.878e-02  linmin:  8.774e-03  t[s]:     70.75
	Linear fluid (dielectric constant: 78.4, screening length: 5.74355 Bohr) occupying 0.689795 of unit cell:	Completed after 15 iterations at t[s]:     80.05
	Linear fluid (dielectric constant: 78.4, screening length: 5.74355 Bohr) occupying 0.690093 of unit cell:	Completed after 16 iterations at t[s]:     88.81
	FillingsUpdate:  mu: -0.244750400  nElectrons: 618.975079
	SubspaceRotationAdjust: set factor to 0.21
ElecMinimize: Iter:   2  G: -2133.791310601098758  |grad|_K:  2.831e-05  alpha:  1.005e-01  linmin:  1.318e-03  t[s]:     97.41
	Linear fluid (dielectric constant: 78.4, screening length: 5.74355 Bohr) occupying 0.690343 of unit cell:	Completed after 15 iterations at t[s]:    106.85
	Linear fluid (dielectric constant: 78.4, screening length: 5.74355 Bohr) occupying 0.690333 of unit cell:	Completed after 10 iterations at t[s]:    114.88
	FillingsUpdate:  mu: -0.244750400  nElectrons: 618.363267
	SubspaceRotationAdjust: set factor to 0.107
	SubspaceRotationAdjust: resetting CG because factor has changed by 0.106635
	Linear fluid (dielectric constant: 78.4, screening length: 5.74355 Bohr) occupying 0.690333 of unit cell:	Completed after 0 iterations at t[s]:    126.68
ElecMinimize: 	State modified externally: resetting search direction.
ElecMinimize: Iter:   3  G: -2133.800477963487538  |grad|_K:  1.417e-05  alpha:  9.642e-02
	Linear fluid (dielectric constant: 78.4, screening length: 5.74355 Bohr) occupying 0.690497 of unit cell:	Completed after 13 iterations at t[s]:    144.24
ElecMinimize: 	Predicted alpha/alphaT>3.000000, increasing alphaT to 2.892625e-01.
	Linear fluid (dielectric constant: 78.4, screening length: 5.74355 Bohr) occupying 0.690826 of unit cell:	Completed after 15 iterations at t[s]:    152.93
	Linear fluid (dielectric constant: 78.4, screening length: 5.74355 Bohr) occupying 0.691215 of unit cell:	Completed after 14 iterations at t[s]:    161.38
	FillingsUpdate:  mu: -0.244750400  nElectrons: 618.584477
	SubspaceRotationAdjust: set factor to 0.0639
ElecMinimize: Iter:   4  G: -2133.813104725481480  |grad|_K:  1.434e-05  alpha:  5.161e-01  linmin:  2.794e-04  t[s]:    169.85
	Linear fluid (dielectric constant: 78.4, screening length: 5.74355 Bohr) occupying 0.692662 of unit cell:	Completed after 16 iterations at t[s]:    179.27
	Linear fluid (dielectric constant: 78.4, screening length: 5.74355 Bohr) occupying 0.693682 of unit cell:	Completed after 15 iterations at t[s]:    187.85
	FillingsUpdate:  mu: -0.244750400  nElectrons: 617.767743
	SubspaceRotationAdjust: set factor to 0.0907
ElecMinimize: Iter:   5  G: -2133.835605427898372  |grad|_K:  7.318e-06  alpha:  8.812e-01  linmin: -1.665e-03  t[s]:    196.28
	Linear fluid (dielectric constant: 78.4, screening length: 5.74355 Bohr) occupying 0.694635 of unit cell:	Completed after 16 iterations at t[s]:    205.79
	Linear fluid (dielectric constant: 78.4, screening length: 5.74355 Bohr) occupying 0.695159 of unit cell:	Completed after 15 iterations at t[s]:    214.41
	FillingsUpdate:  mu: -0.244750400  nElectrons: 617.195126
	SubspaceRotationAdjust: set factor to 0.11
ElecMinimize: Iter:   6  G: -2133.845175520832527  |grad|_K:  6.016e-06  alpha:  1.390e+00  linmin: -2.255e-04  t[s]:    222.87
	Linear fluid (dielectric constant: 78.4, screening length: 5.74355 Bohr) occupying 0.696193 of unit cell:	Completed after 16 iterations at t[s]:    232.26
	Linear fluid (dielectric constant: 78.4, screening length: 5.74355 Bohr) occupying 0.695610 of unit cell:	Completed after 15 iterations at t[s]:    240.93
	FillingsUpdate:  mu: -0.244750400  nElectrons: 617.088882
	SubspaceRotationAdjust: set factor to 0.123
ElecMinimize: Iter:   7  G: -2133.847835092171863  |grad|_K:  4.119e-06  alpha:  5.881e-01  linmin: -4.878e-05  t[s]:    249.38
	Linear fluid (dielectric constant: 78.4, screening length: 5.74355 Bohr) occupying 0.695799 of unit cell:	Completed after 12 iterations at t[s]:    258.46
	Linear fluid (dielectric constant: 78.4, screening length: 5.74355 Bohr) occupying 0.695869 of unit cell:	Completed after 10 iterations at t[s]:    266.51
	FillingsUpdate:  mu: -0.244750400  nElectrons: 616.917294
	SubspaceRotationAdjust: set factor to 0.137
ElecMinimize: Iter:   8  G: -2133.849524250382274  |grad|_K:  2.990e-06  alpha:  8.121e-01  linmin: -4.974e-05  t[s]:    274.97
	Linear fluid (dielectric constant: 78.4, screening length: 5.74355 Bohr) occupying 0.696024 of unit cell:	Completed after 13 iterations at t[s]:    283.96
	Linear fluid (dielectric constant: 78.4, screening length: 5.74355 Bohr) occupying 0.696061 of unit cell:	Completed after 12 iterations at t[s]:    292.31
	FillingsUpdate:  mu: -0.244750400  nElectrons: 616.870914
	SubspaceRotationAdjust: set factor to 0.124
ElecMinimize: Iter:   9  G: -2133.850631664993671  |grad|_K:  2.898e-06  alpha:  1.011e+00  linmin:  1.799e-05  t[s]:    300.91
	Linear fluid (dielectric constant: 78.4, screening length: 5.74355 Bohr) occupying 0.696229 of unit cell:	Completed after 15 iterations at t[s]:    310.39
	Linear fluid (dielectric constant: 78.4, screening length: 5.74355 Bohr) occupying 0.696129 of unit cell:	Completed after 13 iterations at t[s]:    318.78
	FillingsUpdate:  mu: -0.244750400  nElectrons: 616.777138
	SubspaceRotationAdjust: set factor to 0.089
ElecMinimize: Iter:  10  G: -2133.851041320687273  |grad|_K:  1.746e-06  alpha:  4.048e-01  linmin:  1.261e-04  t[s]:    327.28
	Linear fluid (dielectric constant: 78.4, screening length: 5.74355 Bohr) occupying 0.696173 of unit cell:	Completed after 10 iterations at t[s]:    336.04
	Linear fluid (dielectric constant: 78.4, screening length: 5.74355 Bohr) occupying 0.696230 of unit cell:	Completed after 11 iterations at t[s]:    344.19
	FillingsUpdate:  mu: -0.244750400  nElectrons: 616.772983
	SubspaceRotationAdjust: set factor to 0.0927
ElecMinimize: Iter:  11  G: -2133.851385575433596  |grad|_K:  1.362e-06  alpha:  9.330e-01  linmin:  1.148e-05  t[s]:    352.62
	Linear fluid (dielectric constant: 78.4, screening length: 5.74355 Bohr) occupying 0.696274 of unit cell:	Completed after 10 iterations at t[s]:    361.56
	Linear fluid (dielectric constant: 78.4, screening length: 5.74355 Bohr) occupying 0.696261 of unit cell:	Completed after 4 iterations at t[s]:    368.89
	FillingsUpdate:  mu: -0.244750400  nElectrons: 616.761649
	SubspaceRotationAdjust: set factor to 0.106
ElecMinimize: Iter:  12  G: -2133.851534206844917  |grad|_K:  9.449e-07  alpha:  6.570e-01  linmin:  3.323e-05  t[s]:    377.29
	Linear fluid (dielectric constant: 78.4, screening length: 5.74355 Bohr) occupying 0.696259 of unit cell:	Completed after 3 iterations at t[s]:    385.24
	Linear fluid (dielectric constant: 78.4, screening length: 5.74355 Bohr) occupying 0.696259 of unit cell:	Completed after 2 iterations at t[s]:    392.32
	FillingsUpdate:  mu: -0.244750400  nElectrons: 616.763753
	SubspaceRotationAdjust: set factor to 0.127
ElecMinimize: Iter:  13  G: -2133.851614917010920  |grad|_K:  7.166e-07  alpha:  7.427e-01  linmin:  3.163e-05  t[s]:    400.73
	Linear fluid (dielectric constant: 78.4, screening length: 5.74355 Bohr) occupying 0.696240 of unit cell:	Completed after 8 iterations at t[s]:    409.29
	Linear fluid (dielectric constant: 78.4, screening length: 5.74355 Bohr) occupying 0.696233 of unit cell:	Completed after 3 iterations at t[s]:    416.42
	FillingsUpdate:  mu: -0.244750400  nElectrons: 616.779288
	SubspaceRotationAdjust: set factor to 0.141
ElecMinimize: Iter:  14  G: -2133.851678137211366  |grad|_K:  5.510e-07  alpha:  1.008e+00  linmin: -1.519e-04  t[s]:    424.89
	Linear fluid (dielectric constant: 78.4, screening length: 5.74355 Bohr) occupying 0.696203 of unit cell:	Completed after 12 iterations at t[s]:    433.87
	Linear fluid (dielectric constant: 78.4, screening length: 5.74355 Bohr) occupying 0.696212 of unit cell:	Completed after 8 iterations at t[s]:    441.74
	FillingsUpdate:  mu: -0.244750400  nElectrons: 616.770828
	SubspaceRotationAdjust: set factor to 0.111
ElecMinimize: Iter:  15  G: -2133.851705533247241  |grad|_K:  5.360e-07  alpha:  7.100e-01  linmin:  3.014e-04  t[s]:    450.32
	Linear fluid (dielectric constant: 78.4, screening length: 5.74355 Bohr) occupying 0.696196 of unit cell:	Completed after 11 iterations at t[s]:    473.53
	Linear fluid (dielectric constant: 78.4, screening length: 5.74355 Bohr) occupying 0.696200 of unit cell:	Completed after 4 iterations at t[s]:    480.98
	FillingsUpdate:  mu: -0.244750400  nElectrons: 616.786589
	SubspaceRotationAdjust: set factor to 0.0694
ElecMinimize: Iter:  16  G: -2133.851723455244155  |grad|_K:  3.111e-07  alpha:  5.251e-01  linmin:  2.276e-04  t[s]:    489.44
	Linear fluid (dielectric constant: 78.4, screening length: 5.74355 Bohr) occupying 0.696193 of unit cell:	Completed after 8 iterations at t[s]:    498.11
	Linear fluid (dielectric constant: 78.4, screening length: 5.74355 Bohr) occupying 0.696191 of unit cell:	Completed after 0 iterations at t[s]:    504.95
	FillingsUpdate:  mu: -0.244750400  nElectrons: 616.785032
	SubspaceRotationAdjust: set factor to 0.0587
ElecMinimize: Iter:  17  G: -2133.851731366039076  |grad|_K:  1.887e-07  alpha:  6.578e-01  linmin: -1.768e-03  t[s]:    513.44
	Linear fluid (dielectric constant: 78.4, screening length: 5.74355 Bohr) occupying 0.696189 of unit cell:	Completed after 2 iterations at t[s]:    521.35
	Linear fluid (dielectric constant: 78.4, screening length: 5.74355 Bohr) occupying 0.696189 of unit cell:	Completed after 0 iterations at t[s]:    528.16
	FillingsUpdate:  mu: -0.244750400  nElectrons: 616.786729
	SubspaceRotationAdjust: set factor to 0.0659
ElecMinimize: Iter:  18  G: -2133.851734980658875  |grad|_K:  1.332e-07  alpha:  7.256e-01  linmin: -2.104e-04  t[s]:    536.70
	Linear fluid (dielectric constant: 78.4, screening length: 5.74355 Bohr) occupying 0.696189 of unit cell:	Completed after 3 iterations at t[s]:    544.90
	Linear fluid (dielectric constant: 78.4, screening length: 5.74355 Bohr) occupying 0.696189 of unit cell:	Completed after 0 iterations at t[s]:    551.69
	FillingsUpdate:  mu: -0.244750400  nElectrons: 616.789019
	SubspaceRotationAdjust: set factor to 0.0615
ElecMinimize: Iter:  19  G: -2133.851736567664830  |grad|_K:  9.090e-08  alpha:  7.203e-01  linmin: -6.198e-04  t[s]:    560.14
	Linear fluid (dielectric constant: 78.4, screening length: 5.74355 Bohr) occupying 0.696192 of unit cell:	Completed after 0 iterations at t[s]:    567.53
	Linear fluid (dielectric constant: 78.4, screening length: 5.74355 Bohr) occupying 0.696192 of unit cell:	Completed after 2 iterations at t[s]:    574.72
	FillingsUpdate:  mu: -0.244750400  nElectrons: 616.788585
	SubspaceRotationAdjust: set factor to 0.0776
ElecMinimize: Iter:  20  G: -2133.851737407259407  |grad|_K:  7.415e-08  alpha:  9.954e-01  linmin:  1.119e-03  t[s]:    583.22
	Linear fluid (dielectric constant: 78.4, screening length: 5.74355 Bohr) occupying 0.696195 of unit cell:	Completed after 3 iterations at t[s]:    591.32
	Linear fluid (dielectric constant: 78.4, screening length: 5.74355 Bohr) occupying 0.696194 of unit cell:	Completed after 0 iterations at t[s]:    598.11
	FillingsUpdate:  mu: -0.244750400  nElectrons: 616.787352
	SubspaceRotationAdjust: set factor to 0.0722
ElecMinimize: Iter:  21  G: -2133.851737765783128  |grad|_K:  6.624e-08  alpha:  5.763e-01  linmin:  1.151e-03  t[s]:    606.59
	Linear fluid (dielectric constant: 78.4, screening length: 5.74355 Bohr) occupying 0.696195 of unit cell:	Completed after 0 iterations at t[s]:    614.12
	Linear fluid (dielectric constant: 78.4, screening length: 5.74355 Bohr) occupying 0.696195 of unit cell:	Completed after 0 iterations at t[s]:    620.95
	FillingsUpdate:  mu: -0.244750400  nElectrons: 616.786871
	SubspaceRotationAdjust: set factor to 0.0907
ElecMinimize: Iter:  22  G: -2133.851738026519797  |grad|_K:  5.547e-08  alpha:  5.902e-01  linmin: -4.959e-07  t[s]:    629.51
	Linear fluid (dielectric constant: 78.4, screening length: 5.74355 Bohr) occupying 0.696195 of unit cell:	Completed after 2 iterations at t[s]:    637.48
	Linear fluid (dielectric constant: 78.4, screening length: 5.74355 Bohr) occupying 0.696195 of unit cell:	Completed after 0 iterations at t[s]:    644.37
ElecMinimize: 	Step increased G by 7.234894e-08, reducing alpha to 2.085742e-02.
	Linear fluid (dielectric constant: 78.4, screening length: 5.74355 Bohr) occupying 0.696195 of unit cell:	Completed after 0 iterations at t[s]:    658.59
ElecMinimize: 	Step increased G by 5.903030e-08, reducing alpha to 2.085742e-03.
	Linear fluid (dielectric constant: 78.4, screening length: 5.74355 Bohr) occupying 0.696195 of unit cell:	Completed after 0 iterations at t[s]:    672.68
ElecMinimize: 	Step increased G by 5.951597e-08, reducing alpha to 2.085742e-04.
ElecMinimize: 	Step failed to reduce G after 3 attempts. Quitting step.
ElecMinimize: 	Undoing step.
	Linear fluid (dielectric constant: 78.4, screening length: 5.74355 Bohr) occupying 0.696195 of unit cell:	Completed after 0 iterations at t[s]:    686.90
ElecMinimize: 	Step failed: resetting search direction.
	FillingsUpdate:  mu: -0.244750400  nElectrons: 616.786871
	SubspaceRotationAdjust: set factor to 0.0919
ElecMinimize: Iter:  23  G: -2133.851737967035206  |grad|_K:  5.341e-08  alpha:  2.086e-04
	Linear fluid (dielectric constant: 78.4, screening length: 5.74355 Bohr) occupying 0.696195 of unit cell:	Completed after 1 iterations at t[s]:    703.12
	Linear fluid (dielectric constant: 78.4, screening length: 5.74355 Bohr) occupying 0.696195 of unit cell:	Completed after 0 iterations at t[s]:    709.92
	FillingsUpdate:  mu: -0.244750400  nElectrons: 616.786787
	SubspaceRotationAdjust: set factor to 0.0993
ElecMinimize: Iter:  24  G: -2133.851738009627297  |grad|_K:  3.529e-08  alpha:  3.006e-01  linmin: -7.173e-04  t[s]:    718.42
	Linear fluid (dielectric constant: 78.4, screening length: 5.74355 Bohr) occupying 0.696195 of unit cell:	Completed after 0 iterations at t[s]:    726.09
	Linear fluid (dielectric constant: 78.4, screening length: 5.74355 Bohr) occupying 0.696195 of unit cell:	Completed after 0 iterations at t[s]:    732.90
	FillingsUpdate:  mu: -0.244750400  nElectrons: 616.786603
	SubspaceRotationAdjust: set factor to 0.117
ElecMinimize: Iter:  25  G: -2133.851738121310063  |grad|_K:  3.089e-08  alpha:  6.929e-01  linmin: -2.762e-06  t[s]:    741.45
	Linear fluid (dielectric constant: 78.4, screening length: 5.74355 Bohr) occupying 0.696194 of unit cell:	Completed after 0 iterations at t[s]:    749.23
	Linear fluid (dielectric constant: 78.4, screening length: 5.74355 Bohr) occupying 0.696194 of unit cell:	Completed after 0 iterations at t[s]:    756.07
	FillingsUpdate:  mu: -0.244750400  nElectrons: 616.786445
	SubspaceRotationAdjust: set factor to 0.145
ElecMinimize: Iter:  26  G: -2133.851738156078227  |grad|_K:  2.500e-08  alpha:  4.623e-01  linmin: -6.347e-04  t[s]:    764.61
	Linear fluid (dielectric constant: 78.4, screening length: 5.74355 Bohr) occupying 0.696195 of unit cell:	Completed after 0 iterations at t[s]:    772.33
	Linear fluid (dielectric constant: 78.4, screening length: 5.74355 Bohr) occupying 0.696195 of unit cell:	Completed after 0 iterations at t[s]:    779.15
	FillingsUpdate:  mu: -0.244750400  nElectrons: 616.786349
	SubspaceRotationAdjust: set factor to 0.186
ElecMinimize: Iter:  27  G: -2133.851738216673311  |grad|_K:  2.138e-08  alpha:  6.283e-01  linmin: -2.589e-06  t[s]:    787.73
	Linear fluid (dielectric constant: 78.4, screening length: 5.74355 Bohr) occupying 0.696195 of unit cell:	Completed after 0 iterations at t[s]:    795.46
	Linear fluid (dielectric constant: 78.4, screening length: 5.74355 Bohr) occupying 0.696195 of unit cell:	Completed after 0 iterations at t[s]:    802.31
	FillingsUpdate:  mu: -0.244750400  nElectrons: 616.786341
	SubspaceRotationAdjust: set factor to 0.238
ElecMinimize: Iter:  28  G: -2133.851738229479906  |grad|_K:  1.959e-08  alpha:  4.272e-01  linmin: -3.943e-04  t[s]:    810.83
	Linear fluid (dielectric constant: 78.4, screening length: 5.74355 Bohr) occupying 0.696195 of unit cell:	Completed after 0 iterations at t[s]:    818.45
	Linear fluid (dielectric constant: 78.4, screening length: 5.74355 Bohr) occupying 0.696195 of unit cell:	Completed after 0 iterations at t[s]:    825.31
	FillingsUpdate:  mu: -0.244750400  nElectrons: 616.786338
	SubspaceRotationAdjust: set factor to 0.295
ElecMinimize: Iter:  29  G: -2133.851738268752342  |grad|_K:  1.783e-08  alpha:  6.042e-01  linmin:  1.245e-06  t[s]:    833.92
	Linear fluid (dielectric constant: 78.4, screening length: 5.74355 Bohr) occupying 0.696196 of unit cell:	Completed after 2 iterations at t[s]:    842.06
	Linear fluid (dielectric constant: 78.4, screening length: 5.74355 Bohr) occupying 0.696195 of unit cell:	Completed after 0 iterations at t[s]:    848.94
ElecMinimize: 	Step increased G by 1.398366e-07, reducing alpha to 5.318034e-03.
	Linear fluid (dielectric constant: 78.4, screening length: 5.74355 Bohr) occupying 0.696195 of unit cell:	Completed after 0 iterations at t[s]:    863.37
ElecMinimize: 	Step increased G by 1.345388e-07, reducing alpha to 5.318034e-04.
	Linear fluid (dielectric constant: 78.4, screening length: 5.74355 Bohr) occupying 0.696195 of unit cell:	Completed after 0 iterations at t[s]:    877.87
ElecMinimize: 	Step increased G by 1.340327e-07, reducing alpha to 5.318034e-05.
ElecMinimize: 	Step failed to reduce G after 3 attempts. Quitting step.
ElecMinimize: 	Undoing step.
	Linear fluid (dielectric constant: 78.4, screening length: 5.74355 Bohr) occupying 0.696195 of unit cell:	Completed after 0 iterations at t[s]:    892.15
ElecMinimize: 	Step failed: resetting search direction.
	FillingsUpdate:  mu: -0.244750400  nElectrons: 616.786338
	SubspaceRotationAdjust: set factor to 0.232
ElecMinimize: Iter:  30  G: -2133.851738134746029  |grad|_K:  5.953e-08  alpha:  5.318e-05
	Linear fluid (dielectric constant: 78.4, screening length: 5.74355 Bohr) occupying 0.696195 of unit cell:	Completed after 3 iterations at t[s]:    908.73
	Linear fluid (dielectric constant: 78.4, screening length: 5.74355 Bohr) occupying 0.696195 of unit cell:	Completed after 0 iterations at t[s]:    915.54
	FillingsUpdate:  mu: -0.244750400  nElectrons: 616.785415
	SubspaceRotationAdjust: set factor to 0.127
ElecMinimize: Iter:  31  G: -2133.851738459926310  |grad|_K:  1.006e-07  alpha:  2.155e-01  linmin:  1.348e-02  t[s]:    924.22
ElecMinimize: 	Bad step direction: g.d > 0.
ElecMinimize: 	Undoing step.
	Linear fluid (dielectric constant: 78.4, screening length: 5.74355 Bohr) occupying 0.696195 of unit cell:	Completed after 0 iterations at t[s]:    931.99
ElecMinimize: 	Step failed: resetting search direction.
	FillingsUpdate:  mu: -0.244750400  nElectrons: 616.785415
	SubspaceRotationAdjust: set factor to 0.0751
ElecMinimize: Iter:  32  G: -2133.851738459910848  |grad|_K:  7.730e-08  alpha:  0.000e+00
	Linear fluid (dielectric constant: 78.4, screening length: 5.74355 Bohr) occupying 0.696196 of unit cell:	Completed after 3 iterations at t[s]:    948.71
	Linear fluid (dielectric constant: 78.4, screening length: 5.74355 Bohr) occupying 0.696195 of unit cell:	Completed after 0 iterations at t[s]:    955.53
ElecMinimize: 	Step increased G by 2.141951e-07, reducing alpha to 5.773921e-03.
	Linear fluid (dielectric constant: 78.4, screening length: 5.74355 Bohr) occupying 0.696195 of unit cell:	Completed after 0 iterations at t[s]:    969.93
ElecMinimize: 	Step increased G by 1.964745e-07, reducing alpha to 5.773921e-04.
	Linear fluid (dielectric constant: 78.4, screening length: 5.74355 Bohr) occupying 0.696195 of unit cell:	Completed after 0 iterations at t[s]:    984.27
ElecMinimize: 	Step increased G by 1.947278e-07, reducing alpha to 5.773921e-05.
ElecMinimize: 	Step failed to reduce G after 3 attempts. Quitting step.
ElecMinimize: 	Undoing step.
	Linear fluid (dielectric constant: 78.4, screening length: 5.74355 Bohr) occupying 0.696195 of unit cell:	Completed after 0 iterations at t[s]:    998.65
ElecMinimize: 	Step failed along negative gradient direction.
ElecMinimize: Probably at roundoff error limit. (Stopping)
Setting wave functions to eigenvectors of Hamiltonian

# Ionic positions in lattice coordinates:
ion Bi   0.000000004587302   0.000000018190476   0.500040009000003 0
ion Bi   0.111111115698413   0.111111129301587   0.354752182604108 0
ion Bi   0.222222226809524   0.222222240412698   0.645277777395892 0
ion Bi   0.333333337920635   0.000000018190476   0.500040009000003 0
ion Bi   0.444444449031746   0.111111129301587   0.354752182604108 0
ion Bi   0.555555560142857   0.222222240412698   0.645277777395892 0
ion Bi   0.666666671253968   0.000000018190476   0.500040009000003 0
ion Bi   0.777777782365079   0.111111129301587   0.354752182604108 0
ion Bi   0.888888893476191   0.222222240412698   0.645277777395892 0
ion Bi   1.000000004587302   0.333333351523809   0.500040009000003 0
ion Bi   0.111111115698413   0.444444462634920   0.354752182604108 0
ion Bi   0.222222226809524   0.555555573746031   0.645277777395892 0
ion Bi   0.333333337920635   0.333333351523809   0.500040009000003 0
ion Bi   0.444444449031746   0.444444462634920   0.354752182604108 0
ion Bi   0.555555560142857   0.555555573746031   0.645277777395892 0
ion Bi   0.666666671253968   0.333333351523809   0.500040009000003 0
ion Bi   0.777777782365079   0.444444462634920   0.354752182604108 0
ion Bi   0.888888893476191   0.555555573746031   0.645277777395892 0
ion Bi   0.000000004587302   0.666666684857142   0.500040009000003 0
ion Bi   0.111111115698413   0.777777795968253   0.354752182604108 0
ion Bi   0.222222226809524   0.888888907079365   0.645277777395892 0
ion Bi   0.333333337920635   0.666666684857142   0.500040009000003 0
ion Bi   0.444444449031746   0.777777795968253   0.354752182604108 0
ion Bi   0.555555560142857   0.888888907079365   0.645277777395892 0
ion Bi   0.666666671253968   0.666666684857142   0.500040009000003 0
ion Bi   0.777777782365079   0.777777795968253   0.354752182604108 0
ion Bi   0.888888893476191   0.888888907079365   0.645277777395892 0
ion Se   0.000000004587302   0.000000018190476   0.298369594358410 0
ion Se   0.000000004587302   0.000000018190476   0.701610476641586 0
ion Se   0.111111115698413   0.111111129301587   0.565832902216775 0
ion Se   0.222222226809524   0.222222240412698   0.434127088783222 0
ion Se   0.333333337920635   0.000000018190476   0.298369594358410 0
ion Se   0.333333337920635   0.000000018190476   0.701610476641586 0
ion Se   0.444444449031746   0.111111129301587   0.565832902216775 0
ion Se   0.555555560142857   0.222222240412698   0.434127088783222 0
ion Se   0.666666671253968   0.000000018190476   0.298369594358410 0
ion Se   0.666666671253968   0.000000018190476   0.701610476641586 0
ion Se   0.777777782365079   0.111111129301587   0.565832902216775 0
ion Se   0.888888893476191   0.222222240412698   0.434127088783222 0
ion Se   1.000000004587302   0.333333351523809   0.298369594358410 0
ion Se   1.000000004587302   0.333333351523809   0.701610476641586 0
ion Se   0.111111115698413   0.444444462634920   0.565832902216775 0
ion Se   0.222222226809524   0.555555573746031   0.434127088783222 0
ion Se   0.333333337920635   0.333333351523809   0.298369594358410 0
ion Se   0.333333337920635   0.333333351523809   0.701610476641586 0
ion Se   0.444444449031746   0.444444462634920   0.565832902216775 0
ion Se   0.555555560142857   0.555555573746031   0.434127088783222 0
ion Se   0.666666671253968   0.333333351523809   0.298369594358410 0
ion Se   0.666666671253968   0.333333351523809   0.701610476641586 0
ion Se   0.777777782365079   0.444444462634920   0.565832902216775 0
ion Se   0.888888893476191   0.555555573746031   0.434127088783222 0
ion Se   0.000000004587302   0.666666684857142   0.298369594358410 0
ion Se   0.000000004587302   0.666666684857142   0.701610476641586 0
ion Se   0.111111115698413   0.777777795968253   0.565832902216775 0
ion Se   0.222222226809524   0.888888907079365   0.434127088783222 0
ion Se   0.333333337920635   0.666666684857142   0.298369594358410 0
ion Se   0.333333337920635   0.666666684857142   0.701610476641586 0
ion Se   0.444444449031746   0.777777795968253   0.565832902216775 0
ion Se   0.555555560142857   0.888888907079365   0.434127088783222 0
ion Se   0.666666671253968   0.666666684857142   0.298369594358410 0
ion Se   0.666666671253968   0.666666684857142   0.701610476641586 0
ion Se   0.777777782365079   0.777777795968253   0.565832902216775 0
ion Se   0.888888893476191   0.888888907079365   0.434127088783222 0


# Forces in Lattice coordinates:
force Bi   0.000000000000000  -0.000000000000000  -0.008554666279083 0
force Bi   0.000000000000000   0.000000000000000  -0.276630306565586 0
force Bi   0.000000000000000  -0.000000000000000   0.271976045029834 0
force Bi  -0.000000000000000  -0.000000000000000  -0.008554666279083 0
force Bi   0.000000000000000   0.000000000000000  -0.276630306565586 0
force Bi   0.000000000000000   0.000000000000000   0.271976045030740 0
force Bi  -0.000000000000000   0.000000000000000  -0.008554666279083 0
force Bi  -0.000000000000000  -0.000000000000000  -0.276630306565129 0
force Bi   0.000000000000000   0.000000000000000   0.271976045030741 0
force Bi   0.000000000000000   0.000000000000000  -0.008554666279083 0
force Bi   0.000000000000000  -0.000000000000000  -0.276630306564676 0
force Bi  -0.000000000000000   0.000000000000000   0.271976045031195 0
force Bi   0.000000000000000  -0.000000000000000  -0.008554666279083 0
force Bi   0.000000000000000   0.000000000000000  -0.276630306566041 0
force Bi  -0.000000000000000  -0.000000000000000   0.271976045030740 0
force Bi  -0.000000000000000   0.000000000000000  -0.008554666279083 0
force Bi  -0.000000000000000   0.000000000000000  -0.276630306566041 0
force Bi   0.000000000000000  -0.000000000000000   0.271976045031196 0
force Bi   0.000000000000000  -0.000000000000000  -0.008554666279083 0
force Bi  -0.000000000000000   0.000000000000000  -0.276630306565586 0
force Bi  -0.000000000000000   0.000000000000000   0.271976045031196 0
force Bi   0.000000000000000  -0.000000000000000  -0.008554666279083 0
force Bi  -0.000000000000000   0.000000000000000  -0.276630306566040 0
force Bi   0.000000000000000   0.000000000000000   0.271976045031651 0
force Bi  -0.000000000000000  -0.000000000000000  -0.008554666279083 0
force Bi  -0.000000000000000   0.000000000000000  -0.276630306566041 0
force Bi  -0.000000000000000  -0.000000000000000   0.271976045031651 0
force Se   0.000000000000000  -0.000000000000000   0.046464131460477 0
force Se   0.000000000000000   0.000000000000000  -0.042624917806149 0
force Se  -0.000000000000000  -0.000000000000000  -0.166582384881836 0
force Se  -0.000000000000000  -0.000000000000000   0.175200848362791 0
force Se  -0.000000000000000  -0.000000000000000   0.046464131460249 0
force Se  -0.000000000000000  -0.000000000000000  -0.042624917805695 0
force Se  -0.000000000000000  -0.000000000000000  -0.166582384881779 0
force Se  -0.000000000000000  -0.000000000000000   0.175200848362791 0
force Se  -0.000000000000000  -0.000000000000000   0.046464131460247 0
force Se   0.000000000000000  -0.000000000000000  -0.042624917805467 0
force Se   0.000000000000000  -0.000000000000000  -0.166582384882063 0
force Se   0.000000000000000  -0.000000000000000   0.175200848362735 0
force Se   0.000000000000000   0.000000000000000   0.046464131460022 0
force Se   0.000000000000000   0.000000000000000  -0.042624917806149 0
force Se   0.000000000000000   0.000000000000000  -0.166582384882006 0
force Se  -0.000000000000000  -0.000000000000000   0.175200848362791 0
force Se   0.000000000000000  -0.000000000000000   0.046464131460022 0
force Se  -0.000000000000000  -0.000000000000000  -0.042624917806604 0
force Se   0.000000000000000  -0.000000000000000  -0.166582384881665 0
force Se   0.000000000000000  -0.000000000000000   0.175200848362791 0
force Se   0.000000000000000   0.000000000000000   0.046464131460249 0
force Se   0.000000000000000  -0.000000000000000  -0.042624917805922 0
force Se  -0.000000000000000   0.000000000000000  -0.166582384881892 0
force Se  -0.000000000000000  -0.000000000000000   0.175200848362791 0
force Se  -0.000000000000000   0.000000000000000   0.046464131460247 0
force Se  -0.000000000000000  -0.000000000000000  -0.042624917806604 0
force Se   0.000000000000000  -0.000000000000000  -0.166582384881836 0
force Se  -0.000000000000000  -0.000000000000000   0.175200848362791 0
force Se   0.000000000000000  -0.000000000000000   0.046464131460249 0
force Se  -0.000000000000000  -0.000000000000000  -0.042624917805922 0
force Se   0.000000000000000  -0.000000000000000  -0.166582384881722 0
force Se   0.000000000000000  -0.000000000000000   0.175200848362848 0
force Se   0.000000000000000  -0.000000000000000   0.046464131460475 0
force Se  -0.000000000000000  -0.000000000000000  -0.042624917805922 0
force Se   0.000000000000000  -0.000000000000000  -0.166582384881949 0
force Se   0.000000000000000   0.000000000000000   0.175200848362791 0

# Energy components:
   A_diel =       -0.1839840624961834
   Eewald =    20699.8639317034212581
       EH =    22489.9546843166135659
     Eloc =   -46076.6240516673206002
      Enl =      704.9358718206657386
      Exc =    -1405.2214080651847325
 Exc_core =     1001.0986171605914024
       KE =      301.3537889774627274
  MuShift =        0.0528371527700056
-------------------------------------
     Etot =    -2284.7697126634766391
       TS =        0.0405033881053572
-------------------------------------
        F =    -2284.8102160515818468
      muN =     -150.9584777864008913
-------------------------------------
        G =    -2133.8517382651807566

IonicMinimize: Iter:   0  G: -2133.851738265180757  |grad|_K:  0.000e+00  t[s]:   1013.68
IonicMinimize: Converged (|grad|_K<1.000000e-04).

#--- Lowdin population analysis ---
# oxidation-state Bi +0.646 +0.661 +0.661 +0.646 +0.661 +0.661 +0.646 +0.661 +0.661 +0.646 +0.661 +0.661 +0.646 +0.661 +0.661 +0.646 +0.661 +0.661 +0.646 +0.661 +0.661 +0.646 +0.661 +0.661 +0.646 +0.661 +0.661
# oxidation-state Se -0.129 -0.129 -0.494 -0.495 -0.129 -0.129 -0.494 -0.495 -0.129 -0.129 -0.494 -0.495 -0.129 -0.129 -0.494 -0.495 -0.129 -0.129 -0.494 -0.495 -0.129 -0.129 -0.494 -0.495 -0.129 -0.129 -0.494 -0.495 -0.129 -0.129 -0.494 -0.495 -0.129 -0.129 -0.494 -0.495


Dumping 'NbTe2.fillings' ... done
Dumping 'NbTe2.wfns' ... done
Dumping 'NbTe2.fluidState' ... done
Dumping 'NbTe2.eigenvals' ... done
End date and time: Tue Jul 14 09:30:47 2020  (Duration: 0-0:16:57.36)
Done!
