
*************** JDFTx 1.5.0  ***************

Start date and time: Mon Jul 13 22:56:52 2020
Executable jdftx_gpu with command-line: -i Neutral.in -o Neutral.out
Running on hosts (process indices):  amax (0-3)
Divided in process groups (process indices):  0 (0)  1 (1)  2 (2)  3 (3)
gpuInit: Found compatible cuda device 0 'Tesla K80'
gpuInit: Found compatible cuda device 1 'Tesla K80'
gpuInit: Found compatible cuda device 2 'Tesla K80'
gpuInit: Found compatible cuda device 3 'Tesla K80'
gpuInit: Selected device 0
Resource initialization completed at t[s]:      6.57
Run totals: 4 processes, 24 threads, 4 GPUs


Input parsed successfully to the following command list (including defaults):

basis kpoint-dependent
cache-projectors no
coords-type Lattice
core-overlap-check none
coulomb-interaction Slab 001
coulomb-truncation-embed 0 0 0.5
davidson-band-ratio 1.1
dump End State
dump-name NbTe2.$VAR
elec-cutoff 20 100
elec-eigen-algo Davidson
elec-ex-corr gga-PBE
elec-smearing Gauss 0.0073499
electronic-minimize  \
	dirUpdateScheme      FletcherReeves \
	linminMethod         DirUpdateRecommended \
	nIterations          500 \
	history              15 \
	knormThreshold       0 \
	energyDiffThreshold  1e-08 \
	nEnergyDiff          2 \
	alphaTstart          1 \
	alphaTmin            1e-10 \
	updateTestStepSize   yes \
	alphaTreduceFactor   0.1 \
	alphaTincreaseFactor 3 \
	nAlphaAdjustMax      3 \
	wolfeEnergy          0.0001 \
	wolfeGradient        0.9 \
	fdTest               no
exchange-regularization WignerSeitzTruncated
fluid LinearPCM 298.000000 1.013250
fluid-anion F- 1 MeanFieldLJ \
	epsBulk 1 \
	pMol 0 \
	epsInf 1 \
	Pvap 0 \
	sigmaBulk 0 \
	Rvdw 2.24877 \
	Res 0 \
	tauNuc 343133
fluid-cation Na+ 1 MeanFieldLJ \
	epsBulk 1 \
	pMol 0 \
	epsInf 1 \
	Pvap 0 \
	sigmaBulk 0 \
	Rvdw 2.19208 \
	Res 0 \
	tauNuc 343133
fluid-ex-corr lda-TF lda-PZ
fluid-gummel-loop 10 1.000000e-05
fluid-minimize  \
	dirUpdateScheme      PolakRibiere \
	linminMethod         DirUpdateRecommended \
	nIterations          400 \
	history              15 \
	knormThreshold       1e-11 \
	energyDiffThreshold  0 \
	nEnergyDiff          2 \
	alphaTstart          1 \
	alphaTmin            1e-10 \
	updateTestStepSize   yes \
	alphaTreduceFactor   0.1 \
	alphaTincreaseFactor 3 \
	nAlphaAdjustMax      6 \
	wolfeEnergy          0.0001 \
	wolfeGradient        0.9 \
	fdTest               no
fluid-solvent H2O 55.338 ScalarEOS \
	epsBulk 78.4 \
	pMol 0.92466 \
	epsInf 1.77 \
	Pvap 1.06736e-10 \
	sigmaBulk 4.62e-05 \
	Rvdw 2.61727 \
	Res 1.42 \
	tauNuc 343133 \
	poleEl 15 7 1
forces-output-coords Positions
initial-state NbTe2.$VAR
ion Bi   0.000000000000000   0.000000000000000   0.500040009000003 0
ion Bi   0.111109995000000   0.111110007999997   0.354752182604108 0
ion Bi   0.222219989999999   0.222220016999998   0.645277777395892 0
ion Bi   0.333329996000003  -0.000000000000000   0.500040009000003 0
ion Bi   0.444440008999997   0.111110007999997   0.354752182604108 0
ion Bi   0.555559961000000   0.222220016999998   0.645277777395892 0
ion Bi   0.666670041000003  -0.000000000000000   0.500040009000003 0
ion Bi   0.777779981000002   0.111110007999997   0.354752182604108 0
ion Bi   0.888890068000002   0.222220016999998   0.645277777395892 0
ion Bi   0.999999994000000   0.333330013999998   0.500040009000003 0
ion Bi   0.111109984000002   0.444440032999999   0.354752182604108 0
ion Bi   0.222220010000001   0.555559993000003   0.645277777395892 0
ion Bi   0.333329972000001   0.333330013999998   0.500040009000003 0
ion Bi   0.444439979999999   0.444440032999999   0.354752182604108 0
ion Bi   0.555560018000001   0.555559993000003   0.645277777395892 0
ion Bi   0.666670054000001   0.333330013999998   0.500040009000003 0
ion Bi   0.777779987999999   0.444440032999999   0.354752182604108 0
ion Bi   0.888890050999997   0.555559993000003   0.645277777395892 0
ion Bi   0.000000000999996   0.666670054000001   0.500040009000003 0
ion Bi   0.111110013999998   0.777779987999999   0.354752182604108 0
ion Bi   0.222220000999997   0.888890050000001   0.645277777395892 0
ion Bi   0.333329996000003   0.666670054000001   0.500040009000003 0
ion Bi   0.444439973000001   0.777779987999999   0.354752182604108 0
ion Bi   0.555560008999997   0.888890050000001   0.645277777395892 0
ion Bi   0.666670005000000   0.666670054000001   0.500040009000003 0
ion Bi   0.777779981999998   0.777779987999999   0.354752182604108 0
ion Bi   0.888890042000000   0.888890050000001   0.645277777395892 0
ion Se  -0.000000000000000  -0.000000000000000   0.298369594358410 0
ion Se   0.000000000000000   0.000000000000000   0.701610476641586 0
ion Se   0.111109995000000   0.111110007999997   0.565832902216775 0
ion Se   0.222219989999999   0.222220016999998   0.434127088783222 0
ion Se   0.333329996000003  -0.000000000000000   0.298369594358410 0
ion Se   0.333329996000003   0.000000000000000   0.701610476641586 0
ion Se   0.444440008999997   0.111110007999997   0.565832902216775 0
ion Se   0.555559961000000   0.222220016999998   0.434127088783222 0
ion Se   0.666670041000003  -0.000000000000000   0.298369594358410 0
ion Se   0.666670041000003   0.000000000000000   0.701610476641586 0
ion Se   0.777779981000002   0.111110007999997   0.565832902216775 0
ion Se   0.888890068000002   0.222220016999998   0.434127088783222 0
ion Se   0.999999994000000   0.333330013999998   0.298369594358410 0
ion Se   0.999999994000000   0.333330013999998   0.701610476641586 0
ion Se   0.111109984000002   0.444440032999999   0.565832902216775 0
ion Se   0.222220010000001   0.555559993000003   0.434127088783222 0
ion Se   0.333329972000001   0.333330013999998   0.298369594358410 0
ion Se   0.333329972000001   0.333330013999998   0.701610476641586 0
ion Se   0.444439979999999   0.444440032999999   0.565832902216775 0
ion Se   0.555560018000001   0.555559993000003   0.434127088783222 0
ion Se   0.666670054000001   0.333330013999998   0.298369594358410 0
ion Se   0.666670054000001   0.333330013999998   0.701610476641586 0
ion Se   0.777779987999999   0.444440032999999   0.565832902216775 0
ion Se   0.888890050999997   0.555559993000003   0.434127088783222 0
ion Se   0.000000000999996   0.666670054000001   0.298369594358410 0
ion Se   0.000000000999996   0.666670054000001   0.701610476641586 0
ion Se   0.111110013999998   0.777779987999999   0.565832902216775 0
ion Se   0.222220000999997   0.888890050000001   0.434127088783222 0
ion Se   0.333329996000003   0.666670054000001   0.298369594358410 0
ion Se   0.333329996000003   0.666670054000001   0.701610476641586 0
ion Se   0.444439973000001   0.777779987999999   0.565832902216775 0
ion Se   0.555560008999997   0.888890050000001   0.434127088783222 0
ion Se   0.666670005000000   0.666670054000001   0.298369594358410 0
ion Se   0.666670005000000   0.666670054000001   0.701610476641586 0
ion Se   0.777779981999998   0.777779987999999   0.565832902216775 0
ion Se   0.888890042000000   0.888890050000001   0.434127088783222 0
ion-species GBRV/$ID_pbe.uspp
ion-width Ecut
ionic-minimize  \
	dirUpdateScheme      L-BFGS \
	linminMethod         DirUpdateRecommended \
	nIterations          0 \
	history              15 \
	knormThreshold       0.0001 \
	energyDiffThreshold  1e-06 \
	nEnergyDiff          2 \
	alphaTstart          1 \
	alphaTmin            1e-10 \
	updateTestStepSize   yes \
	alphaTreduceFactor   0.1 \
	alphaTincreaseFactor 3 \
	nAlphaAdjustMax      3 \
	wolfeEnergy          0.0001 \
	wolfeGradient        0.9 \
	fdTest               no
kpoint   0.000000000000   0.000000000000   0.000000000000  1.00000000000000
kpoint-folding 3 3 1 
latt-move-scale 1 1 1
latt-scale 1 1 1 
lattice Triclinic 24.3894 24.3896 47.7024 90 90 60.0003
lattice-minimize  \
	dirUpdateScheme      L-BFGS \
	linminMethod         DirUpdateRecommended \
	nIterations          0 \
	history              15 \
	knormThreshold       0 \
	energyDiffThreshold  1e-06 \
	nEnergyDiff          2 \
	alphaTstart          1 \
	alphaTmin            1e-10 \
	updateTestStepSize   yes \
	alphaTreduceFactor   0.1 \
	alphaTincreaseFactor 3 \
	nAlphaAdjustMax      3 \
	wolfeEnergy          0.0001 \
	wolfeGradient        0.9 \
	fdTest               no
lcao-params -1 1e-06 0.0073499
pcm-variant CANDLE
spintype no-spin
subspace-rotation-factor 1 yes
symmetries automatic
symmetry-threshold 0.0001
target-mu -0.171252 no




---------- Setting up symmetries ----------

Found 24 point-group symmetries of the bravais lattice
Found 54 space-group symmetries with basis
Applied RMS atom displacement 0.000100577 bohrs to make symmetries exact.

---------- Initializing the Grid ----------
R = 
[    24.3894    12.1947          0  ]
[          0     21.122          0  ]
[          0          0    47.7024  ]
unit cell volume = 24574
G =
[    0.25762  -0.148735          0  ]
[          0   0.297471          0  ]
[          0          0   0.131716  ]
Minimum fftbox size, Smin = [  112  112  216  ]
Chosen fftbox size, S = [  112  112  216  ]

---------- Initializing tighter grid for wavefunction operations ----------
R = 
[    24.3894    12.1947          0  ]
[          0     21.122          0  ]
[          0          0    47.7024  ]
unit cell volume = 24574
G =
[    0.25762  -0.148735          0  ]
[          0   0.297471          0  ]
[          0          0   0.131716  ]
Minimum fftbox size, Smin = [  100  100  196  ]
Chosen fftbox size, S = [  100  100  196  ]

---------- Exchange Correlation functional ----------
Initalized PBE GGA exchange.
Initalized PBE GGA correlation.

---------- Setting up pseudopotentials ----------
Width of ionic core gaussian charges (only for fluid interactions / plotting) set to 0.397384

Reading pseudopotential file '/home/guoxy/vasp/jdftx-1.5.0/build/pseudopotentials/GBRV/bi_pbe.uspp':
  Title: Bi.  Created by USPP 7.3.6 on 14-9-2013
  Reference state energy: -92.204004.  15 valence electrons in orbitals:
    |520>  occupation: 10  eigenvalue: -1.293263
    |600>  occupation: 2  eigenvalue: -0.812524
    |610>  occupation: 2  eigenvalue: -0.420386
  lMax: 2  lLocal: 3  QijEcut: 5
  6 projectors sampled on a log grid with 747 points:
    l: 0  eig: -0.812524  rCut: 2.5
    l: 0  eig: 0.500000  rCut: 2.5
    l: 1  eig: -0.420386  rCut: 2.5
    l: 1  eig: 1.000000  rCut: 2.5
    l: 2  eig: -1.293263  rCut: 2.3
    l: 2  eig: -0.500000  rCut: 2.3
  Partial core density with radius 1
  Transforming core density to a uniform radial grid of dG=0.02 with 1614 points.
  Transforming local potential to a uniform radial grid of dG=0.02 with 1614 points.
  Transforming nonlocal projectors to a uniform radial grid of dG=0.02 with 432 points.
  Transforming density augmentations to a uniform radial grid of dG=0.02 with 1614 points.
  Transforming atomic orbitals to a uniform radial grid of dG=0.02 with 432 points.
  Core radius for overlap checks: 2.50 bohrs.

Reading pseudopotential file '/home/guoxy/vasp/jdftx-1.5.0/build/pseudopotentials/GBRV/se_pbe.uspp':
  Title: Se.  Created by USPP 7.3.6 on 14-9-2013
  Reference state energy: -21.672887.  6 valence electrons in orbitals:
    |400>  occupation: 2  eigenvalue: -0.635284
    |410>  occupation: 4  eigenvalue: -0.239295
  lMax: 2  lLocal: 3  QijEcut: 5
  6 projectors sampled on a log grid with 625 points:
    l: 0  eig: -0.635278  rCut: 1.5
    l: 0  eig: 0.500000  rCut: 1.5
    l: 1  eig: -0.239295  rCut: 1.5
    l: 1  eig: 0.500000  rCut: 1.5
    l: 2  eig: 0.000000  rCut: 1.8
    l: 2  eig: 1.000000  rCut: 1.8
  Partial core density with radius 1.2
  Transforming core density to a uniform radial grid of dG=0.02 with 1614 points.
  Transforming local potential to a uniform radial grid of dG=0.02 with 1614 points.
  Transforming nonlocal projectors to a uniform radial grid of dG=0.02 with 432 points.
  Transforming density augmentations to a uniform radial grid of dG=0.02 with 1614 points.
  Transforming atomic orbitals to a uniform radial grid of dG=0.02 with 432 points.
  Core radius for overlap checks: 1.80 bohrs.

Initialized 2 species with 63 total atoms.

Folded 1 k-points by 3x3x1 to 9 k-points.

---------- Setting up k-points, bands, fillings ----------
Adding inversion symmetry to k-mesh for non-inversion-symmetric unit cell.
Reduced to 3 k-points under symmetry. 
Computing the number of bands and number of electrons
Calculating initial fillings.
nElectrons: 621.000000   nBands: 387   nStates: 3

----- Setting up reduced wavefunction bases (one per k-point) -----
average nbasis = 104963.444 , ideal nbasis = 104982.107

---------- Setting up coulomb interaction ----------
Fluid mode embedding: using embedded box, but periodic Coulomb kernel.
(Fluid response is responsible for (approximate) separation between periodic images.)
Setting up double-sized grid for truncated Coulomb potentials:
R = 
[    24.3894    12.1947          0  ]
[          0     21.122          0  ]
[          0          0    95.4047  ]
unit cell volume = 49148
G =
[    0.25762  -0.148735          0  ]
[          0   0.297471          0  ]
[          0          0  0.0658582  ]
Chosen fftbox size, S = [  112  112  432  ]
Integer grid location selected as the embedding center:
   Grid: [  0  0  108  ]
   Lattice: [  0  0  0.5  ]
   Cartesian: [  0  0  23.8512  ]
Constructing Wigner-Seitz cell: 8 faces (6 quadrilaterals, 2 hexagons)
Range-separation parameter for embedded mesh potentials due to point charges: 0.592861 bohrs.

Initializing van der Waals corrections
	NOTE: vdW corrections apply only for interactions with fluid.
	Bi:  C6:  893.28 Eh-a0^6  R0: 3.555 a0 (WARNING: beyond Grimme's data set)
	Se:  C6:  219.24 Eh-a0^6  R0: 3.347 a0

---------- Setting up ewald sum ----------
Optimum gaussian width for ewald sums = 7.325806 bohr.
Real space sum over 605 unit cells with max indices [  5  5  2  ]
Reciprocal space sum over 9675 terms with max indices [  7  7  21  ]

---------- Allocating electronic variables ----------
Initializing wave functions:  linear combination of atomic orbitals
Bi pseudo-atom occupations:   s ( 2 )  p ( 3 )  d ( 10 )
Se pseudo-atom occupations:   s ( 2 )  p ( 4 )
	FillingsUpdate:  mu: -0.171251800  nElectrons: 621.000000
LCAOMinimize: Iter:   0  G: -2175.0292326729627348  |grad|_K:  6.959e-03  alpha:  1.000e+00
	FillingsUpdate:  mu: -0.171251800  nElectrons: 621.000000
LCAOMinimize: Iter:   1  G: -2176.3122415373468357  |grad|_K:  5.013e-03  alpha:  6.794e-02  linmin: -3.187e-01  cgtest:  8.846e-01  t[s]:     89.27
LCAOMinimize: Encountered beta<0, resetting CG.
LCAOMinimize: 	Predicted alpha/alphaT>3.000000, increasing alphaT to 2.038052e-01.
	FillingsUpdate:  mu: -0.171251800  nElectrons: 621.000000
LCAOMinimize: Iter:   2  G: -2177.4875868548197104  |grad|_K:  3.527e-03  alpha:  2.101e-01  linmin:  9.667e-02  cgtest: -1.924e-01  t[s]:    115.91
	FillingsUpdate:  mu: -0.171251800  nElectrons: 621.000000
LCAOMinimize: Iter:   3  G: -2177.8565647178807012  |grad|_K:  3.054e-03  alpha:  1.899e-01  linmin:  6.808e-03  cgtest:  7.009e-01  t[s]:    134.70
	FillingsUpdate:  mu: -0.171251800  nElectrons: 621.000000
LCAOMinimize: Iter:   4  G: -2178.0483757103875178  |grad|_K:  6.259e-04  alpha:  9.317e-02  linmin: -8.530e-03  cgtest:  1.899e-01  t[s]:    155.08
LCAOMinimize: 	Predicted alpha/alphaT>3.000000, increasing alphaT to 2.794975e-01.
	FillingsUpdate:  mu: -0.171251800  nElectrons: 621.000000
LCAOMinimize: Iter:   5  G: -2178.0717324121706042  |grad|_K:  3.514e-04  alpha:  2.633e-01  linmin:  1.232e-02  cgtest: -8.528e-02  t[s]:    182.14
	FillingsUpdate:  mu: -0.171251800  nElectrons: 621.000000
LCAOMinimize: Iter:   6  G: -2178.0729308306586063  |grad|_K:  8.703e-05  alpha:  4.438e-02  linmin:  4.100e-02  cgtest:  3.595e-02  t[s]:    202.29
LCAOMinimize: 	Predicted alpha/alphaT>3.000000, increasing alphaT to 1.331453e-01.
	FillingsUpdate:  mu: -0.171251800  nElectrons: 621.000000
LCAOMinimize: Iter:   7  G: -2178.0732036633212374  |grad|_K:  7.173e-05  alpha:  1.808e-01  linmin:  9.735e-02  cgtest: -3.156e-01  t[s]:    226.69
LCAOMinimize: 	Wrong curvature in test step, increasing alphaT to 5.424811e-01.
	FillingsUpdate:  mu: -0.171251800  nElectrons: 621.000000
LCAOMinimize: Iter:   8  G: -2178.0735226326587508  |grad|_K:  6.695e-05  alpha: -3.079e-01  linmin: -8.480e-03  cgtest:  8.410e-01  t[s]:    246.75
	FillingsUpdate:  mu: -0.171251800  nElectrons: 621.000000
LCAOMinimize: Iter:   9  G: -2178.0736553138567615  |grad|_K:  2.775e-05  alpha:  9.606e-02  linmin:  1.937e-02  cgtest: -1.016e-01  t[s]:    268.21
	FillingsUpdate:  mu: -0.171251800  nElectrons: 621.000000
LCAOMinimize: Iter:  10  G: -2178.0736660136208229  |grad|_K:  1.626e-05  alpha:  6.084e-02  linmin:  3.886e-02  cgtest: -8.182e-02  t[s]:    287.08
	FillingsUpdate:  mu: -0.171251800  nElectrons: 621.000000
LCAOMinimize: Iter:  11  G: -2178.0736663985376254  |grad|_K:  1.508e-05  alpha:  3.267e-02  linmin: -1.920e-01  cgtest:  9.974e-01  t[s]:    307.27
LCAOMinimize: Encountered beta<0, resetting CG.
	FillingsUpdate:  mu: -0.171251800  nElectrons: 621.000000
LCAOMinimize: Iter:  12  G: -2178.0736665451800036  |grad|_K:  1.273e-05  alpha:  1.636e-02  linmin: -3.012e-01  cgtest:  9.808e-01  t[s]:    327.26
LCAOMinimize: Encountered beta<0, resetting CG.
LCAOMinimize: Converged (|Delta G|<1.000000e-06 for 2 iters).
----- createFluidSolver() ----- (Fluid-side solver setup)
   Initializing fluid molecule 'H2O'
     Initializing site 'O'
       Electron density: proportional to exp(-r/0.36935)*erfc((r-0.51523)/0.36823) with norm 6.826
       Charge density: gaussian nuclear width 0.478731 with net site charge 0.826
       Polarizability: cuspless exponential with width 0.32 and norm 3.73
       Hard sphere radius: 2.57003 bohrs
       Positions in reference frame:
         [ +0.000000 +0.000000 +0.000000 ]
     Initializing site 'H'
       Electron density: proportional to exp(-r/0.34641)*erfc((r-0)/0.390882) with norm 0.587
       Charge density: gaussian nuclear width 0.377945 with net site charge -0.413
       Polarizability: cuspless exponential with width 0.39 and norm 3.3
       Positions in reference frame:
         [ +0.000000 -1.441945 +1.122523 ]
         [ +0.000000 +1.441945 +1.122523 ]
     Net charge: 0   dipole magnitude: 0.927204
     Initializing spherical shell mfKernel with radius 2.61727 Bohr
     deltaS corrections:
       site 'O': -7.54299
       site 'H': -6.83917
   Initializing fluid molecule 'Na+'
     Initializing site 'Na'
       Electron density: proportional to exp(-r/0.19682)*erfc((r-0.71491)/0.41314) with norm 8.1383
       Charge density: gaussian nuclear width 0.365347 with net site charge -1
       Hard sphere radius: 1.86327 bohrs
       Positions in reference frame:
         [ +0.000000 +0.000000 +0.000000 ]
     Net charge: -1   dipole magnitude: 0
     Initializing gaussian mfKernel with width: 1.55004 Bohr
     deltaS corrections:
       site 'Na': -22.3555
   Initializing fluid molecule 'F-'
     Initializing site 'F'
       Electron density: proportional to exp(-r/0.38886)*erfc((r-0)/0.438782) with norm 8
       Charge density: gaussian nuclear width 0.374796 with net site charge 1
       Hard sphere radius: 2.39995 bohrs
       Positions in reference frame:
         [ +0.000000 +0.000000 +0.000000 ]
     Net charge: 1   dipole magnitude: 0
     Initializing gaussian mfKernel with width: 1.59012 Bohr
     deltaS corrections:
       site 'F': -9.04335

Correction to mu due to finite nuclear width = -0.0125367
   Cavity determined by nc: 0.00142 and sigma: 0.707107
   Nonlocal vdW cavity from gaussian model electron density with norm = 8 and sigma = 0.993594 bohr
   Charge asymmetry in cavity with sensitivity pCavity = 36.5 e-bohr/Eh
   Electrostatic cavity expanded by eta = 1.46 bohrs
   Weighted density cavitation model constrained by Nbulk: 0.0049383 bohr^-3, Pvap: 3.14029 kPa, Rvdw: 2.61727 bohr and sigmaBulk: 4.62e-05 Eh/bohr^2 at T: 298 K.
   Weighted density dispersion model using vdW pair potentials with single solvent site with sqrtC6eff: 0.77 SI.


---- Citations for features of the code used in this run ----

   Software package:
      R. Sundararaman, K. Letchworth-Weaver, K.A. Schwarz, D. Gunceler, Y. Ozhabes and T.A. Arias, 'JDFTx: software for joint density-functional theory', SoftwareX 6, 278 (2017)

   gga-PBE exchange-correlation functional:
      J.P. Perdew, K. Burke and M. Ernzerhof, Phys. Rev. Lett. 77, 3865 (1996)

   Pseudopotentials:
      KF Garrity, JW Bennett, KM Rabe and D Vanderbilt, Comput. Mater. Sci. 81, 446 (2014)

   Truncated Coulomb potentials:
      R. Sundararaman and T.A. Arias, Phys. Rev. B 87, 165122 (2013)

   Van der Waals correction pair-potentials:
      S. Grimme, J. Comput. Chem. 27, 1787 (2006)

   Charge-asymmetric nonlocally-determined local-electric (CANDLE) solvation model:
      R. Sundararaman and W.A. Goddard III, J. Chem. Phys. 142, 064107 (2015)

   Total energy minimization with Auxiliary Hamiltonian:
      C. Freysoldt, S. Boeck, and J. Neugebauer, Phys. Rev. B 79, 241103(R) (2009)

   Grand-canonical (fixed-potential) DFT:
      R. Sundararaman, W. A. Goddard III and T. A. Arias, J. Chem. Phys. 146, 114104 (2017)

This list may not be complete. Please suggest additional citations or
report any other bugs at https://github.com/shankar1729/jdftx/issues

Initialization completed successfully at t[s]:    332.70

Fluid solver invoked on fresh (partially random / LCAO) wavefunctions
Running a vacuum solve first:

-------- Initial electronic minimization -----------
	FillingsUpdate:  mu: -0.060939199  nElectrons: 621.000000
ElecMinimize: Iter:   0  G: -2178.017737330249929  |grad|_K:  8.677e-05  alpha:  1.000e+00
	FillingsUpdate:  mu: -0.028697967  nElectrons: 621.000000
	SubspaceRotationAdjust: set factor to 1
ElecMinimize: Iter:   1  G: -2178.907388597631780  |grad|_K:  7.138e-05  alpha:  9.675e-01  linmin:  3.036e-06  t[s]:    384.57
	FillingsUpdate:  mu: -0.072076121  nElectrons: 621.000000
	SubspaceRotationAdjust: set factor to 0.606
ElecMinimize: Iter:   2  G: -2179.155153263196553  |grad|_K:  7.107e-05  alpha:  4.074e-01  linmin:  1.011e-04  t[s]:    417.24
	FillingsUpdate:  mu: -0.056938867  nElectrons: 621.000000
	SubspaceRotationAdjust: set factor to 0.378
ElecMinimize: Iter:   3  G: -2179.200531199036504  |grad|_K:  4.841e-05  alpha:  8.846e-02  linmin:  7.497e-04  t[s]:    450.82
	FillingsUpdate:  mu: -0.023042026  nElectrons: 621.000000
	SubspaceRotationAdjust: set factor to 0.332
ElecMinimize: Iter:   4  G: -2179.242316176645545  |grad|_K:  2.986e-05  alpha:  1.674e-01  linmin: -8.515e-05  t[s]:    484.84
	FillingsUpdate:  mu: -0.041318621  nElectrons: 621.000000
	SubspaceRotationAdjust: set factor to 0.208
ElecMinimize: Iter:   5  G: -2179.281429203366770  |grad|_K:  2.984e-05  alpha:  3.544e-01  linmin: -6.878e-07  t[s]:    519.51
	FillingsUpdate:  mu: -0.044600396  nElectrons: 621.000000
	SubspaceRotationAdjust: set factor to 0.246
ElecMinimize: Iter:   6  G: -2179.301701351175325  |grad|_K:  1.504e-05  alpha:  1.843e-01  linmin: -1.243e-05  t[s]:    554.62
	FillingsUpdate:  mu: -0.055683881  nElectrons: 621.000000
	SubspaceRotationAdjust: set factor to 0.176
ElecMinimize: Iter:   7  G: -2179.312942971315351  |grad|_K:  1.545e-05  alpha:  4.070e-01  linmin:  3.419e-05  t[s]:    589.07
	FillingsUpdate:  mu: -0.053330391  nElectrons: 621.000000
	SubspaceRotationAdjust: set factor to 0.218
ElecMinimize: Iter:   8  G: -2179.320222663121967  |grad|_K:  9.596e-06  alpha:  2.510e-01  linmin: -3.402e-06  t[s]:    624.05
	FillingsUpdate:  mu: -0.048592588  nElectrons: 621.000000
	SubspaceRotationAdjust: set factor to 0.162
ElecMinimize: Iter:   9  G: -2179.324920602663042  |grad|_K:  9.064e-06  alpha:  4.181e-01  linmin:  2.037e-05  t[s]:    658.58
	FillingsUpdate:  mu: -0.044061133  nElectrons: 621.000000
	SubspaceRotationAdjust: set factor to 0.196
ElecMinimize: Iter:  10  G: -2179.327325394459876  |grad|_K:  5.153e-06  alpha:  2.399e-01  linmin: -3.659e-06  t[s]:    690.76
	FillingsUpdate:  mu: -0.045854905  nElectrons: 621.000000
	SubspaceRotationAdjust: set factor to 0.132
	SubspaceRotationAdjust: resetting CG because factor has changed by 0.132087
ElecMinimize: 	State modified externally: resetting search direction.
ElecMinimize: Iter:  11  G: -2179.328965554923798  |grad|_K:  5.262e-06  alpha:  5.071e-01
	FillingsUpdate:  mu: -0.046114461  nElectrons: 621.000000
	SubspaceRotationAdjust: set factor to 0.192
ElecMinimize: Iter:  12  G: -2179.330039048807976  |grad|_K:  2.229e-06  alpha:  3.170e-01  linmin: -5.627e-06  t[s]:    776.32
ElecMinimize: 	Predicted alpha/alphaT>3.000000, increasing alphaT to 9.510662e-01.
	FillingsUpdate:  mu: -0.048445751  nElectrons: 621.000000
	SubspaceRotationAdjust: set factor to 0.191
ElecMinimize: Iter:  13  G: -2179.330824044864130  |grad|_K:  2.057e-06  alpha:  1.294e+00  linmin:  1.145e-05  t[s]:    818.27
	FillingsUpdate:  mu: -0.046126050  nElectrons: 621.000000
	SubspaceRotationAdjust: set factor to 0.181
ElecMinimize: Iter:  14  G: -2179.331242949055650  |grad|_K:  1.502e-06  alpha:  8.104e-01  linmin: -2.333e-06  t[s]:    851.61
	FillingsUpdate:  mu: -0.046134869  nElectrons: 621.000000
	SubspaceRotationAdjust: set factor to 0.175
ElecMinimize: Iter:  15  G: -2179.331456815027195  |grad|_K:  1.378e-06  alpha:  7.763e-01  linmin:  8.030e-06  t[s]:    885.80
	FillingsUpdate:  mu: -0.046817191  nElectrons: 621.000000
	SubspaceRotationAdjust: set factor to 0.114
ElecMinimize: Iter:  16  G: -2179.331570438647759  |grad|_K:  1.058e-06  alpha:  4.895e-01  linmin: -2.031e-06  t[s]:    916.76
	FillingsUpdate:  mu: -0.047066491  nElectrons: 621.000000
	SubspaceRotationAdjust: set factor to 0.0943
ElecMinimize: Iter:  17  G: -2179.331649070029471  |grad|_K:  7.319e-07  alpha:  5.754e-01  linmin:  6.726e-06  t[s]:    948.24
	FillingsUpdate:  mu: -0.046652155  nElectrons: 621.000000
	SubspaceRotationAdjust: set factor to 0.106
ElecMinimize: Iter:  18  G: -2179.331697444272322  |grad|_K:  5.687e-07  alpha:  7.407e-01  linmin:  2.083e-06  t[s]:    983.18
	FillingsUpdate:  mu: -0.046497832  nElectrons: 621.000000
	SubspaceRotationAdjust: set factor to 0.0955
ElecMinimize: Iter:  19  G: -2179.331741423359745  |grad|_K:  5.917e-07  alpha:  1.115e+00  linmin:  5.792e-06  t[s]:   1017.53
	FillingsUpdate:  mu: -0.046649125  nElectrons: 621.000000
	SubspaceRotationAdjust: set factor to 0.0729
ElecMinimize: Iter:  20  G: -2179.331772065587757  |grad|_K:  4.338e-07  alpha:  7.170e-01  linmin: -2.505e-07  t[s]:   1049.83
	FillingsUpdate:  mu: -0.046784743  nElectrons: 621.000000
	SubspaceRotationAdjust: set factor to 0.0783
ElecMinimize: Iter:  21  G: -2179.331803505994230  |grad|_K:  4.901e-07  alpha:  1.368e+00  linmin: -6.867e-07  t[s]:   1085.01
	FillingsUpdate:  mu: -0.046790215  nElectrons: 621.000000
	SubspaceRotationAdjust: set factor to 0.0814
ElecMinimize: Iter:  22  G: -2179.331823867692037  |grad|_K:  3.946e-07  alpha:  6.943e-01  linmin:  3.079e-08  t[s]:   1120.09
	FillingsUpdate:  mu: -0.046625487  nElectrons: 621.000000
	SubspaceRotationAdjust: set factor to 0.0802
ElecMinimize: Iter:  23  G: -2179.331844378362803  |grad|_K:  2.472e-07  alpha:  1.079e+00  linmin:  5.862e-08  t[s]:   1152.14
	FillingsUpdate:  mu: -0.046685752  nElectrons: 621.000000
	SubspaceRotationAdjust: set factor to 0.0879
ElecMinimize: Iter:  24  G: -2179.331851215451934  |grad|_K:  1.841e-07  alpha:  9.164e-01  linmin: -3.994e-08  t[s]:   1186.13
	FillingsUpdate:  mu: -0.046722045  nElectrons: 621.000000
	SubspaceRotationAdjust: set factor to 0.102
ElecMinimize: Iter:  25  G: -2179.331854506499440  |grad|_K:  1.645e-07  alpha:  7.949e-01  linmin:  6.291e-09  t[s]:   1219.88
	FillingsUpdate:  mu: -0.046687014  nElectrons: 621.000000
	SubspaceRotationAdjust: set factor to 0.123
ElecMinimize: Iter:  26  G: -2179.331857307354767  |grad|_K:  1.362e-07  alpha:  8.479e-01  linmin: -2.247e-07  t[s]:   1252.25
	FillingsUpdate:  mu: -0.046678193  nElectrons: 621.000000
	SubspaceRotationAdjust: set factor to 0.121
ElecMinimize: Iter:  27  G: -2179.331859796657227  |grad|_K:  1.278e-07  alpha:  1.099e+00  linmin: -8.556e-07  t[s]:   1285.64
	FillingsUpdate:  mu: -0.046699848  nElectrons: 621.000000
	SubspaceRotationAdjust: set factor to 0.1
ElecMinimize: Iter:  28  G: -2179.331861061815744  |grad|_K:  9.687e-08  alpha:  6.348e-01  linmin:  2.355e-07  t[s]:   1317.44
	FillingsUpdate:  mu: -0.046707589  nElectrons: 621.000000
	SubspaceRotationAdjust: set factor to 0.113
ElecMinimize: Iter:  29  G: -2179.331861989942354  |grad|_K:  6.531e-08  alpha:  8.101e-01  linmin: -2.149e-07  t[s]:   1349.95
	FillingsUpdate:  mu: -0.046705487  nElectrons: 621.000000
	SubspaceRotationAdjust: set factor to 0.119
ElecMinimize: Iter:  30  G: -2179.331862494287179  |grad|_K:  4.934e-08  alpha:  9.683e-01  linmin: -1.672e-07  t[s]:   1382.87
	FillingsUpdate:  mu: -0.046706035  nElectrons: 621.000000
	SubspaceRotationAdjust: set factor to 0.0943
ElecMinimize: Iter:  31  G: -2179.331862692105915  |grad|_K:  3.817e-08  alpha:  6.655e-01  linmin: -2.265e-08  t[s]:   1414.67
	FillingsUpdate:  mu: -0.046708235  nElectrons: 621.000000
	SubspaceRotationAdjust: set factor to 0.0761
ElecMinimize: Iter:  32  G: -2179.331862834561889  |grad|_K:  2.588e-08  alpha:  8.007e-01  linmin: -9.220e-07  t[s]:   1447.19
	FillingsUpdate:  mu: -0.046702522  nElectrons: 621.000000
	SubspaceRotationAdjust: set factor to 0.076
ElecMinimize: Iter:  33  G: -2179.331862920317235  |grad|_K:  2.447e-08  alpha:  1.049e+00  linmin:  2.514e-08  t[s]:   1478.07
	FillingsUpdate:  mu: -0.046700560  nElectrons: 621.000000
	SubspaceRotationAdjust: set factor to 0.0779
ElecMinimize: Iter:  34  G: -2179.331862970182556  |grad|_K:  1.965e-08  alpha:  6.821e-01  linmin:  1.784e-07  t[s]:   1512.90
	FillingsUpdate:  mu: -0.046708448  nElectrons: 621.000000
	SubspaceRotationAdjust: set factor to 0.0774
ElecMinimize: Iter:  35  G: -2179.331863022601738  |grad|_K:  1.423e-08  alpha:  1.110e+00  linmin: -2.274e-06  t[s]:   1545.60
	FillingsUpdate:  mu: -0.046704947  nElectrons: 621.000000
	SubspaceRotationAdjust: set factor to 0.0765
ElecMinimize: Iter:  36  G: -2179.331863052768767  |grad|_K:  1.484e-08  alpha:  1.220e+00  linmin: -9.036e-07  t[s]:   1575.54
	FillingsUpdate:  mu: -0.046700678  nElectrons: 621.000000
	SubspaceRotationAdjust: set factor to 0.0801
ElecMinimize: Iter:  37  G: -2179.331863076845821  |grad|_K:  1.453e-08  alpha:  8.939e-01  linmin: -8.761e-07  t[s]:   1610.57
	FillingsUpdate:  mu: -0.046702423  nElectrons: 621.000000
	SubspaceRotationAdjust: set factor to 0.0845
ElecMinimize: Iter:  38  G: -2179.331863099767361  |grad|_K:  1.192e-08  alpha:  8.899e-01  linmin: -1.545e-06  t[s]:   1645.53
	FillingsUpdate:  mu: -0.046705432  nElectrons: 621.000000
	SubspaceRotationAdjust: set factor to 0.0775
ElecMinimize: Iter:  39  G: -2179.331863118966339  |grad|_K:  9.276e-09  alpha:  1.107e+00  linmin:  6.860e-06  t[s]:   1676.87
	FillingsUpdate:  mu: -0.046703597  nElectrons: 621.000000
	SubspaceRotationAdjust: set factor to 0.073
ElecMinimize: Iter:  40  G: -2179.331863127710221  |grad|_K:  7.429e-09  alpha:  8.382e-01  linmin: -6.508e-07  t[s]:   1711.85
	FillingsUpdate:  mu: -0.046703086  nElectrons: 621.000000
	SubspaceRotationAdjust: set factor to 0.0861
ElecMinimize: Iter:  41  G: -2179.331863132798389  |grad|_K:  5.796e-09  alpha:  7.530e-01  linmin: -3.728e-07  t[s]:   1747.34
ElecMinimize: Converged (|Delta G|<1.000000e-08 for 2 iters).
Setting wave functions to eigenvectors of Hamiltonian
Vacuum energy after initial minimize, F = -2179.331863132798389

Shifting auxilliary hamiltonian by -0.124549 to set nElectrons=621.000000
	Linear fluid (dielectric constant: 78.4, screening length: 5.74355 Bohr) occupying 0.687978 of unit cell:	Completed after 18 iterations at t[s]:   1757.06

-------- Electronic minimization -----------
	Linear fluid (dielectric constant: 78.4, screening length: 5.74355 Bohr) occupying 0.687978 of unit cell:	Completed after 0 iterations at t[s]:   1763.58
	FillingsUpdate:  mu: -0.171251800  nElectrons: 621.000000
ElecMinimize: Iter:   0  G: -2179.319973839929389  |grad|_K:  4.588e-06  alpha:  1.000e+00
	Linear fluid (dielectric constant: 78.4, screening length: 5.74355 Bohr) occupying 0.688217 of unit cell:	Completed after 15 iterations at t[s]:   1793.34
	Linear fluid (dielectric constant: 78.4, screening length: 5.74355 Bohr) occupying 0.688052 of unit cell:	Completed after 15 iterations at t[s]:   1807.17
	FillingsUpdate:  mu: -0.171251800  nElectrons: 620.844648
	SubspaceRotationAdjust: set factor to 0.0726
ElecMinimize: Iter:   1  G: -2179.320743544039487  |grad|_K:  2.596e-06  alpha:  3.081e-01  linmin:  7.600e-04  t[s]:   1822.58
	Linear fluid (dielectric constant: 78.4, screening length: 5.74355 Bohr) occupying 0.688171 of unit cell:	Completed after 7 iterations at t[s]:   1835.76
ElecMinimize: 	Predicted alpha/alphaT>3.000000, increasing alphaT to 9.242828e-01.
	Linear fluid (dielectric constant: 78.4, screening length: 5.74355 Bohr) occupying 0.688406 of unit cell:	Completed after 8 iterations at t[s]:   1848.52
	Linear fluid (dielectric constant: 78.4, screening length: 5.74355 Bohr) occupying 0.688691 of unit cell:	Completed after 7 iterations at t[s]:   1859.19
	FillingsUpdate:  mu: -0.171251800  nElectrons: 620.629965
	SubspaceRotationAdjust: set factor to 0.0717
ElecMinimize: Iter:   2  G: -2179.322089974917162  |grad|_K:  2.144e-06  alpha:  1.674e+00  linmin: -2.550e-05  t[s]:   1872.28
	Linear fluid (dielectric constant: 78.4, screening length: 5.74355 Bohr) occupying 0.689403 of unit cell:	Completed after 13 iterations at t[s]:   1885.86
	Linear fluid (dielectric constant: 78.4, screening length: 5.74355 Bohr) occupying 0.689046 of unit cell:	Completed after 11 iterations at t[s]:   1898.61
	FillingsUpdate:  mu: -0.171251800  nElectrons: 620.526933
	SubspaceRotationAdjust: set factor to 0.0664
ElecMinimize: Iter:   3  G: -2179.322555759888473  |grad|_K:  1.573e-06  alpha:  8.311e-01  linmin:  3.888e-05  t[s]:   1912.41
	Linear fluid (dielectric constant: 78.4, screening length: 5.74355 Bohr) occupying 0.689322 of unit cell:	Completed after 13 iterations at t[s]:   1925.43
	Linear fluid (dielectric constant: 78.4, screening length: 5.74355 Bohr) occupying 0.689224 of unit cell:	Completed after 11 iterations at t[s]:   1937.90
	FillingsUpdate:  mu: -0.171251800  nElectrons: 620.530892
	SubspaceRotationAdjust: set factor to 0.0549
ElecMinimize: Iter:   4  G: -2179.322718040300970  |grad|_K:  8.962e-07  alpha:  5.377e-01  linmin:  3.999e-05  t[s]:   1950.86
	Linear fluid (dielectric constant: 78.4, screening length: 5.74355 Bohr) occupying 0.689300 of unit cell:	Completed after 8 iterations at t[s]:   1964.27
	Linear fluid (dielectric constant: 78.4, screening length: 5.74355 Bohr) occupying 0.689374 of unit cell:	Completed after 8 iterations at t[s]:   1975.74
	FillingsUpdate:  mu: -0.171251800  nElectrons: 620.502997
	SubspaceRotationAdjust: set factor to 0.0529
ElecMinimize: Iter:   5  G: -2179.322821868556730  |grad|_K:  5.424e-07  alpha:  1.064e+00  linmin:  2.301e-04  t[s]:   1989.50
	Linear fluid (dielectric constant: 78.4, screening length: 5.74355 Bohr) occupying 0.689432 of unit cell:	Completed after 9 iterations at t[s]:   2002.97
	Linear fluid (dielectric constant: 78.4, screening length: 5.74355 Bohr) occupying 0.689446 of unit cell:	Completed after 3 iterations at t[s]:   2015.16
	FillingsUpdate:  mu: -0.171251800  nElectrons: 620.509296
	SubspaceRotationAdjust: set factor to 0.047
ElecMinimize: Iter:   6  G: -2179.322869381499459  |grad|_K:  4.224e-07  alpha:  1.326e+00  linmin: -6.206e-04  t[s]:   2028.69
	Linear fluid (dielectric constant: 78.4, screening length: 5.74355 Bohr) occupying 0.689467 of unit cell:	Completed after 11 iterations at t[s]:   2042.26
	Linear fluid (dielectric constant: 78.4, screening length: 5.74355 Bohr) occupying 0.689460 of unit cell:	Completed after 8 iterations at t[s]:   2056.22
	FillingsUpdate:  mu: -0.171251800  nElectrons: 620.495915
	SubspaceRotationAdjust: set factor to 0.0417
ElecMinimize: Iter:   7  G: -2179.322889211988695  |grad|_K:  3.088e-07  alpha:  8.580e-01  linmin:  7.073e-04  t[s]:   2071.38
	Linear fluid (dielectric constant: 78.4, screening length: 5.74355 Bohr) occupying 0.689461 of unit cell:	Completed after 8 iterations at t[s]:   2084.18
	Linear fluid (dielectric constant: 78.4, screening length: 5.74355 Bohr) occupying 0.689462 of unit cell:	Completed after 0 iterations at t[s]:   2094.96
	FillingsUpdate:  mu: -0.171251800  nElectrons: 620.497406
	SubspaceRotationAdjust: set factor to 0.0513
ElecMinimize: Iter:   8  G: -2179.322902329239696  |grad|_K:  2.380e-07  alpha:  1.135e+00  linmin: -1.144e-03  t[s]:   2108.01
	Linear fluid (dielectric constant: 78.4, screening length: 5.74355 Bohr) occupying 0.689460 of unit cell:	Completed after 7 iterations at t[s]:   2118.61
	Linear fluid (dielectric constant: 78.4, screening length: 5.74355 Bohr) occupying 0.689460 of unit cell:	Completed after 2 iterations at t[s]:   2131.55
	FillingsUpdate:  mu: -0.171251800  nElectrons: 620.497446
	SubspaceRotationAdjust: set factor to 0.0583
ElecMinimize: Iter:   9  G: -2179.322908461345833  |grad|_K:  2.611e-07  alpha:  8.453e-01  linmin: -1.700e-05  t[s]:   2146.55
	Linear fluid (dielectric constant: 78.4, screening length: 5.74355 Bohr) occupying 0.689457 of unit cell:	Completed after 8 iterations at t[s]:   2158.50
	Linear fluid (dielectric constant: 78.4, screening length: 5.74355 Bohr) occupying 0.689457 of unit cell:	Completed after 0 iterations at t[s]:   2169.31
	FillingsUpdate:  mu: -0.171251800  nElectrons: 620.488812
	SubspaceRotationAdjust: set factor to 0.0526
ElecMinimize: Iter:  10  G: -2179.322915020421988  |grad|_K:  2.481e-07  alpha:  7.873e-01  linmin:  1.233e-04  t[s]:   2183.47
	Linear fluid (dielectric constant: 78.4, screening length: 5.74355 Bohr) occupying 0.689458 of unit cell:	Completed after 3 iterations at t[s]:   2194.96
	Linear fluid (dielectric constant: 78.4, screening length: 5.74355 Bohr) occupying 0.689458 of unit cell:	Completed after 0 iterations at t[s]:   2204.79
	FillingsUpdate:  mu: -0.171251800  nElectrons: 620.487607
	SubspaceRotationAdjust: set factor to 0.0618
ElecMinimize: Iter:  11  G: -2179.322919884770272  |grad|_K:  2.525e-07  alpha:  6.550e-01  linmin:  2.069e-04  t[s]:   2219.40
	Linear fluid (dielectric constant: 78.4, screening length: 5.74355 Bohr) occupying 0.689464 of unit cell:	Completed after 7 iterations at t[s]:   2232.45
	Linear fluid (dielectric constant: 78.4, screening length: 5.74355 Bohr) occupying 0.689463 of unit cell:	Completed after 0 iterations at t[s]:   2244.49
	FillingsUpdate:  mu: -0.171251800  nElectrons: 620.489032
	SubspaceRotationAdjust: set factor to 0.0575
ElecMinimize: Iter:  12  G: -2179.322923741506202  |grad|_K:  2.101e-07  alpha:  5.259e-01  linmin:  9.695e-05  t[s]:   2258.24
	Linear fluid (dielectric constant: 78.4, screening length: 5.74355 Bohr) occupying 0.689469 of unit cell:	Completed after 3 iterations at t[s]:   2271.22
	Linear fluid (dielectric constant: 78.4, screening length: 5.74355 Bohr) occupying 0.689469 of unit cell:	Completed after 0 iterations at t[s]:   2281.89
	FillingsUpdate:  mu: -0.171251800  nElectrons: 620.484535
	SubspaceRotationAdjust: set factor to 0.0725
ElecMinimize: Iter:  13  G: -2179.322926712035951  |grad|_K:  1.826e-07  alpha:  5.531e-01  linmin: -4.731e-04  t[s]:   2295.43
	Linear fluid (dielectric constant: 78.4, screening length: 5.74355 Bohr) occupying 0.689475 of unit cell:	Completed after 8 iterations at t[s]:   2308.24
	Linear fluid (dielectric constant: 78.4, screening length: 5.74355 Bohr) occupying 0.689472 of unit cell:	Completed after 0 iterations at t[s]:   2318.19
	FillingsUpdate:  mu: -0.171251800  nElectrons: 620.481614
	SubspaceRotationAdjust: set factor to 0.0531
ElecMinimize: Iter:  14  G: -2179.322928003165998  |grad|_K:  2.349e-07  alpha:  3.293e-01  linmin:  1.105e-03  t[s]:   2331.31
	Linear fluid (dielectric constant: 78.4, screening length: 5.74355 Bohr) occupying 0.689480 of unit cell:	Completed after 6 iterations at t[s]:   2344.18
	Linear fluid (dielectric constant: 78.4, screening length: 5.74355 Bohr) occupying 0.689478 of unit cell:	Completed after 0 iterations at t[s]:   2356.02
	FillingsUpdate:  mu: -0.171251800  nElectrons: 620.482386
	SubspaceRotationAdjust: set factor to 0.0882
ElecMinimize: Iter:  15  G: -2179.322929194371682  |grad|_K:  1.500e-07  alpha:  2.233e-01  linmin:  4.117e-05  t[s]:   2370.78
	Linear fluid (dielectric constant: 78.4, screening length: 5.74355 Bohr) occupying 0.689481 of unit cell:	Completed after 2 iterations at t[s]:   2383.50
	Linear fluid (dielectric constant: 78.4, screening length: 5.74355 Bohr) occupying 0.689483 of unit cell:	Completed after 3 iterations at t[s]:   2395.47
	FillingsUpdate:  mu: -0.171251800  nElectrons: 620.484987
	SubspaceRotationAdjust: set factor to 0.0936
ElecMinimize: Iter:  16  G: -2179.322930382834784  |grad|_K:  8.068e-08  alpha:  4.169e-01  linmin: -1.206e-03  t[s]:   2408.45
	Linear fluid (dielectric constant: 78.4, screening length: 5.74355 Bohr) occupying 0.689485 of unit cell:	Completed after 0 iterations at t[s]:   2420.79
	Linear fluid (dielectric constant: 78.4, screening length: 5.74355 Bohr) occupying 0.689487 of unit cell:	Completed after 2 iterations at t[s]:   2432.53
	FillingsUpdate:  mu: -0.171251800  nElectrons: 620.486370
	SubspaceRotationAdjust: set factor to 0.109
ElecMinimize: Iter:  17  G: -2179.322931057627557  |grad|_K:  8.386e-08  alpha:  9.207e-01  linmin:  3.445e-04  t[s]:   2447.54
	Linear fluid (dielectric constant: 78.4, screening length: 5.74355 Bohr) occupying 0.689491 of unit cell:	Completed after 2 iterations at t[s]:   2460.21
	Linear fluid (dielectric constant: 78.4, screening length: 5.74355 Bohr) occupying 0.689490 of unit cell:	Completed after 0 iterations at t[s]:   2471.64
	FillingsUpdate:  mu: -0.171251800  nElectrons: 620.485625
	SubspaceRotationAdjust: set factor to 0.125
ElecMinimize: Iter:  18  G: -2179.322931528388381  |grad|_K:  6.460e-08  alpha:  6.417e-01  linmin:  6.518e-05  t[s]:   2486.56
	Linear fluid (dielectric constant: 78.4, screening length: 5.74355 Bohr) occupying 0.689490 of unit cell:	Completed after 0 iterations at t[s]:   2497.86
	Linear fluid (dielectric constant: 78.4, screening length: 5.74355 Bohr) occupying 0.689490 of unit cell:	Completed after 0 iterations at t[s]:   2508.18
	FillingsUpdate:  mu: -0.171251800  nElectrons: 620.484376
	SubspaceRotationAdjust: set factor to 0.144
ElecMinimize: Iter:  19  G: -2179.322931848870212  |grad|_K:  4.685e-08  alpha:  6.492e-01  linmin:  2.741e-08  t[s]:   2522.61
	Linear fluid (dielectric constant: 78.4, screening length: 5.74355 Bohr) occupying 0.689490 of unit cell:	Completed after 3 iterations at t[s]:   2534.60
	Linear fluid (dielectric constant: 78.4, screening length: 5.74355 Bohr) occupying 0.689490 of unit cell:	Completed after 0 iterations at t[s]:   2546.00
	FillingsUpdate:  mu: -0.171251800  nElectrons: 620.483715
	SubspaceRotationAdjust: set factor to 0.108
ElecMinimize: Iter:  20  G: -2179.322931850972054  |grad|_K:  7.385e-08  alpha:  2.831e-01  linmin:  5.695e-05  t[s]:   2560.60
	Linear fluid (dielectric constant: 78.4, screening length: 5.74355 Bohr) occupying 0.689489 of unit cell:	Completed after 0 iterations at t[s]:   2572.70
	Linear fluid (dielectric constant: 78.4, screening length: 5.74355 Bohr) occupying 0.689489 of unit cell:	Completed after 0 iterations at t[s]:   2583.45
	FillingsUpdate:  mu: -0.171251800  nElectrons: 620.484121
	SubspaceRotationAdjust: set factor to 0.092
ElecMinimize: Iter:  21  G: -2179.322932014681555  |grad|_K:  6.731e-08  alpha:  2.596e-01  linmin:  6.177e-08  t[s]:   2596.69
	Linear fluid (dielectric constant: 78.4, screening length: 5.74355 Bohr) occupying 0.689488 of unit cell:	Completed after 3 iterations at t[s]:   2609.29
	Linear fluid (dielectric constant: 78.4, screening length: 5.74355 Bohr) occupying 0.689488 of unit cell:	Completed after 0 iterations at t[s]:   2620.23
	FillingsUpdate:  mu: -0.171251800  nElectrons: 620.484672
	SubspaceRotationAdjust: set factor to 0.058
ElecMinimize: Iter:  22  G: -2179.322932055162710  |grad|_K:  5.116e-08  alpha:  8.114e-02  linmin:  5.635e-04  t[s]:   2634.77
	Linear fluid (dielectric constant: 78.4, screening length: 5.74355 Bohr) occupying 0.689488 of unit cell:	Completed after 0 iterations at t[s]:   2646.92
	Linear fluid (dielectric constant: 78.4, screening length: 5.74355 Bohr) occupying 0.689488 of unit cell:	Completed after 0 iterations at t[s]:   2657.81
	FillingsUpdate:  mu: -0.171251800  nElectrons: 620.484864
	SubspaceRotationAdjust: set factor to 0.0766
ElecMinimize: Iter:  23  G: -2179.322932060430958  |grad|_K:  4.683e-08  alpha:  1.103e-01  linmin: -1.257e-07  t[s]:   2672.43
	Linear fluid (dielectric constant: 78.4, screening length: 5.74355 Bohr) occupying 0.689488 of unit cell:	Completed after 0 iterations at t[s]:   2683.78
ElecMinimize: 	Predicted alpha/alphaT>3.000000, increasing alphaT to 3.307636e-01.
	Linear fluid (dielectric constant: 78.4, screening length: 5.74355 Bohr) occupying 0.689487 of unit cell:	Completed after 0 iterations at t[s]:   2693.69
	Linear fluid (dielectric constant: 78.4, screening length: 5.74355 Bohr) occupying 0.689487 of unit cell:	Completed after 0 iterations at t[s]:   2705.04
	FillingsUpdate:  mu: -0.171251800  nElectrons: 620.484890
	SubspaceRotationAdjust: set factor to 0.0999
ElecMinimize: Iter:  24  G: -2179.322932164362101  |grad|_K:  3.833e-08  alpha:  3.878e-01  linmin: -5.056e-07  t[s]:   2719.31
	Linear fluid (dielectric constant: 78.4, screening length: 5.74355 Bohr) occupying 0.689486 of unit cell:	Completed after 0 iterations at t[s]:   2731.42
	Linear fluid (dielectric constant: 78.4, screening length: 5.74355 Bohr) occupying 0.689486 of unit cell:	Completed after 2 iterations at t[s]:   2742.45
ElecMinimize: 	Step increased G by 2.097049e-07, reducing alpha to 5.146930e-02.
	Linear fluid (dielectric constant: 78.4, screening length: 5.74355 Bohr) occupying 0.689487 of unit cell:	Completed after 0 iterations at t[s]:   2764.51
ElecMinimize: 	Step increased G by 3.793821e-08, reducing alpha to 5.146930e-03.
	Linear fluid (dielectric constant: 78.4, screening length: 5.74355 Bohr) occupying 0.689487 of unit cell:	Completed after 0 iterations at t[s]:   2786.76
ElecMinimize: 	Step increased G by 2.902971e-08, reducing alpha to 5.146930e-04.
ElecMinimize: 	Step failed to reduce G after 3 attempts. Quitting step.
ElecMinimize: 	Undoing step.
	Linear fluid (dielectric constant: 78.4, screening length: 5.74355 Bohr) occupying 0.689487 of unit cell:	Completed after 0 iterations at t[s]:   2808.47
ElecMinimize: 	Step failed: resetting search direction.
	FillingsUpdate:  mu: -0.171251800  nElectrons: 620.484882
	SubspaceRotationAdjust: set factor to 0.0743
ElecMinimize: Iter:  25  G: -2179.322932135479732  |grad|_K:  3.454e-08  alpha:  5.147e-04
	Linear fluid (dielectric constant: 78.4, screening length: 5.74355 Bohr) occupying 0.689487 of unit cell:	Completed after 0 iterations at t[s]:   2833.07
	Linear fluid (dielectric constant: 78.4, screening length: 5.74355 Bohr) occupying 0.689487 of unit cell:	Completed after 0 iterations at t[s]:   2843.84
	FillingsUpdate:  mu: -0.171251800  nElectrons: 620.485642
	SubspaceRotationAdjust: set factor to 0.0754
ElecMinimize: Iter:  26  G: -2179.322932195630528  |grad|_K:  1.861e-08  alpha:  4.732e-01  linmin: -3.426e-03  t[s]:   2856.81
	Linear fluid (dielectric constant: 78.4, screening length: 5.74355 Bohr) occupying 0.689487 of unit cell:	Completed after 0 iterations at t[s]:   2868.29
ElecMinimize: 	Predicted alpha/alphaT>3.000000, increasing alphaT to 1.419749e+00.
	Linear fluid (dielectric constant: 78.4, screening length: 5.74355 Bohr) occupying 0.689486 of unit cell:	Completed after 3 iterations at t[s]:   2878.71
	Linear fluid (dielectric constant: 78.4, screening length: 5.74355 Bohr) occupying 0.689487 of unit cell:	Completed after 0 iterations at t[s]:   2888.16
	FillingsUpdate:  mu: -0.171251800  nElectrons: 620.485848
	SubspaceRotationAdjust: set factor to 0.0559
ElecMinimize: Iter:  27  G: -2179.322932251567636  |grad|_K:  1.072e-07  alpha:  1.519e-01  linmin:  2.704e-03  t[s]:   2902.68
ElecMinimize: 	Bad step direction: g.d > 0.
ElecMinimize: 	Undoing step.
	Linear fluid (dielectric constant: 78.4, screening length: 5.74355 Bohr) occupying 0.689487 of unit cell:	Completed after 0 iterations at t[s]:   2914.60
ElecMinimize: 	Step failed: resetting search direction.
	FillingsUpdate:  mu: -0.171251800  nElectrons: 620.485848
	SubspaceRotationAdjust: set factor to 0.0462
ElecMinimize: Iter:  28  G: -2179.322932251552174  |grad|_K:  9.739e-08  alpha:  0.000e+00
	Linear fluid (dielectric constant: 78.4, screening length: 5.74355 Bohr) occupying 0.689487 of unit cell:	Completed after 2 iterations at t[s]:   2941.51
	Linear fluid (dielectric constant: 78.4, screening length: 5.74355 Bohr) occupying 0.689487 of unit cell:	Completed after 0 iterations at t[s]:   2952.76
ElecMinimize: 	Step increased G by 1.347921e-07, reducing alpha to 6.421012e-03.
	Linear fluid (dielectric constant: 78.4, screening length: 5.74355 Bohr) occupying 0.689487 of unit cell:	Completed after 0 iterations at t[s]:   2974.61
ElecMinimize: 	Step increased G by 1.838757e-07, reducing alpha to 6.421012e-04.
	Linear fluid (dielectric constant: 78.4, screening length: 5.74355 Bohr) occupying 0.689487 of unit cell:	Completed after 0 iterations at t[s]:   2997.93
ElecMinimize: 	Step increased G by 1.889221e-07, reducing alpha to 6.421012e-05.
ElecMinimize: 	Step failed to reduce G after 3 attempts. Quitting step.
ElecMinimize: 	Undoing step.
	Linear fluid (dielectric constant: 78.4, screening length: 5.74355 Bohr) occupying 0.689487 of unit cell:	Completed after 0 iterations at t[s]:   3019.96
ElecMinimize: 	Step failed along negative gradient direction.
ElecMinimize: Probably at roundoff error limit. (Stopping)
Setting wave functions to eigenvectors of Hamiltonian
Single-point solvation energy estimate, DeltaG = +0.008931070180097

# Ionic positions in lattice coordinates:
ion Bi   0.000000004587302   0.000000018190476   0.500040009000003 0
ion Bi   0.111111115698413   0.111111129301587   0.354752182604108 0
ion Bi   0.222222226809524   0.222222240412698   0.645277777395892 0
ion Bi   0.333333337920635   0.000000018190476   0.500040009000003 0
ion Bi   0.444444449031746   0.111111129301587   0.354752182604108 0
ion Bi   0.555555560142857   0.222222240412698   0.645277777395892 0
ion Bi   0.666666671253968   0.000000018190476   0.500040009000003 0
ion Bi   0.777777782365079   0.111111129301587   0.354752182604108 0
ion Bi   0.888888893476191   0.222222240412698   0.645277777395892 0
ion Bi   1.000000004587302   0.333333351523809   0.500040009000003 0
ion Bi   0.111111115698413   0.444444462634920   0.354752182604108 0
ion Bi   0.222222226809524   0.555555573746031   0.645277777395892 0
ion Bi   0.333333337920635   0.333333351523809   0.500040009000003 0
ion Bi   0.444444449031746   0.444444462634920   0.354752182604108 0
ion Bi   0.555555560142857   0.555555573746031   0.645277777395892 0
ion Bi   0.666666671253968   0.333333351523809   0.500040009000003 0
ion Bi   0.777777782365079   0.444444462634920   0.354752182604108 0
ion Bi   0.888888893476191   0.555555573746031   0.645277777395892 0
ion Bi   0.000000004587302   0.666666684857142   0.500040009000003 0
ion Bi   0.111111115698413   0.777777795968253   0.354752182604108 0
ion Bi   0.222222226809524   0.888888907079365   0.645277777395892 0
ion Bi   0.333333337920635   0.666666684857142   0.500040009000003 0
ion Bi   0.444444449031746   0.777777795968253   0.354752182604108 0
ion Bi   0.555555560142857   0.888888907079365   0.645277777395892 0
ion Bi   0.666666671253968   0.666666684857142   0.500040009000003 0
ion Bi   0.777777782365079   0.777777795968253   0.354752182604108 0
ion Bi   0.888888893476191   0.888888907079365   0.645277777395892 0
ion Se   0.000000004587302   0.000000018190476   0.298369594358410 0
ion Se   0.000000004587302   0.000000018190476   0.701610476641586 0
ion Se   0.111111115698413   0.111111129301587   0.565832902216775 0
ion Se   0.222222226809524   0.222222240412698   0.434127088783222 0
ion Se   0.333333337920635   0.000000018190476   0.298369594358410 0
ion Se   0.333333337920635   0.000000018190476   0.701610476641586 0
ion Se   0.444444449031746   0.111111129301587   0.565832902216775 0
ion Se   0.555555560142857   0.222222240412698   0.434127088783222 0
ion Se   0.666666671253968   0.000000018190476   0.298369594358410 0
ion Se   0.666666671253968   0.000000018190476   0.701610476641586 0
ion Se   0.777777782365079   0.111111129301587   0.565832902216775 0
ion Se   0.888888893476191   0.222222240412698   0.434127088783222 0
ion Se   1.000000004587302   0.333333351523809   0.298369594358410 0
ion Se   1.000000004587302   0.333333351523809   0.701610476641586 0
ion Se   0.111111115698413   0.444444462634920   0.565832902216775 0
ion Se   0.222222226809524   0.555555573746031   0.434127088783222 0
ion Se   0.333333337920635   0.333333351523809   0.298369594358410 0
ion Se   0.333333337920635   0.333333351523809   0.701610476641586 0
ion Se   0.444444449031746   0.444444462634920   0.565832902216775 0
ion Se   0.555555560142857   0.555555573746031   0.434127088783222 0
ion Se   0.666666671253968   0.333333351523809   0.298369594358410 0
ion Se   0.666666671253968   0.333333351523809   0.701610476641586 0
ion Se   0.777777782365079   0.444444462634920   0.565832902216775 0
ion Se   0.888888893476191   0.555555573746031   0.434127088783222 0
ion Se   0.000000004587302   0.666666684857142   0.298369594358410 0
ion Se   0.000000004587302   0.666666684857142   0.701610476641586 0
ion Se   0.111111115698413   0.777777795968253   0.565832902216775 0
ion Se   0.222222226809524   0.888888907079365   0.434127088783222 0
ion Se   0.333333337920635   0.666666684857142   0.298369594358410 0
ion Se   0.333333337920635   0.666666684857142   0.701610476641586 0
ion Se   0.444444449031746   0.777777795968253   0.565832902216775 0
ion Se   0.555555560142857   0.888888907079365   0.434127088783222 0
ion Se   0.666666671253968   0.666666684857142   0.298369594358410 0
ion Se   0.666666671253968   0.666666684857142   0.701610476641586 0
ion Se   0.777777782365079   0.777777795968253   0.565832902216775 0
ion Se   0.888888893476191   0.888888907079365   0.434127088783222 0


# Forces in Lattice coordinates:
force Bi   0.000000000000000  -0.000000000000000  -0.007099559134829 0
force Bi   0.000000000000000   0.000000000000000  -0.047154594201038 0
force Bi  -0.000000000000000  -0.000000000000000   0.044063544771059 0
force Bi  -0.000000000000000   0.000000000000000  -0.007099559134829 0
force Bi   0.000000000000000  -0.000000000000000  -0.047154594200583 0
force Bi   0.000000000000000   0.000000000000000   0.044063544771514 0
force Bi   0.000000000000000  -0.000000000000000  -0.007099559134829 0
force Bi  -0.000000000000000  -0.000000000000000  -0.047154594201038 0
force Bi  -0.000000000000000  -0.000000000000000   0.044063544771060 0
force Bi   0.000000000000000   0.000000000000000  -0.007099559134829 0
force Bi   0.000000000000000  -0.000000000000000  -0.047154594201491 0
force Bi   0.000000000000000   0.000000000000000   0.044063544770604 0
force Bi   0.000000000000000  -0.000000000000000  -0.007099559134829 0
force Bi   0.000000000000000  -0.000000000000000  -0.047154594201491 0
force Bi  -0.000000000000000  -0.000000000000000   0.044063544771059 0
force Bi  -0.000000000000000  -0.000000000000000  -0.007099559134829 0
force Bi  -0.000000000000000  -0.000000000000000  -0.047154594201948 0
force Bi   0.000000000000000   0.000000000000000   0.044063544771060 0
force Bi   0.000000000000000  -0.000000000000000  -0.007099559134829 0
force Bi  -0.000000000000000   0.000000000000000  -0.047154594200581 0
force Bi  -0.000000000000000  -0.000000000000000   0.044063544771059 0
force Bi   0.000000000000000   0.000000000000000  -0.007099559134829 0
force Bi  -0.000000000000000  -0.000000000000000  -0.047154594200583 0
force Bi   0.000000000000000   0.000000000000000   0.044063544770604 0
force Bi  -0.000000000000000   0.000000000000000  -0.007099559134829 0
force Bi  -0.000000000000000   0.000000000000000  -0.047154594201038 0
force Bi  -0.000000000000000  -0.000000000000000   0.044063544771059 0
force Se  -0.000000000000000   0.000000000000000  -0.020845947019391 0
force Se   0.000000000000000  -0.000000000000000   0.024008025038637 0
force Se   0.000000000000000  -0.000000000000000   0.018133402593626 0
force Se  -0.000000000000000   0.000000000000000  -0.011750587487268 0
force Se  -0.000000000000000  -0.000000000000000  -0.020845947019391 0
force Se   0.000000000000000  -0.000000000000000   0.024008025039318 0
force Se  -0.000000000000000   0.000000000000000   0.018133402593740 0
force Se   0.000000000000000   0.000000000000000  -0.011750587487211 0
force Se  -0.000000000000000  -0.000000000000000  -0.020845947019164 0
force Se   0.000000000000000  -0.000000000000000   0.024008025039090 0
force Se  -0.000000000000000  -0.000000000000000   0.018133402593456 0
force Se  -0.000000000000000   0.000000000000000  -0.011750587487211 0
force Se   0.000000000000000  -0.000000000000000  -0.020845947019619 0
force Se  -0.000000000000000   0.000000000000000   0.024008025038863 0
force Se   0.000000000000000   0.000000000000000   0.018133402593512 0
force Se   0.000000000000000   0.000000000000000  -0.011750587487268 0
force Se  -0.000000000000000  -0.000000000000000  -0.020845947019619 0
force Se  -0.000000000000000  -0.000000000000000   0.024008025038182 0
force Se  -0.000000000000000  -0.000000000000000   0.018133402593626 0
force Se  -0.000000000000000   0.000000000000000  -0.011750587487155 0
force Se  -0.000000000000000   0.000000000000000  -0.020845947019165 0
force Se   0.000000000000000  -0.000000000000000   0.024008025038865 0
force Se  -0.000000000000000  -0.000000000000000   0.018133402593569 0
force Se  -0.000000000000000   0.000000000000000  -0.011750587487268 0
force Se   0.000000000000000  -0.000000000000000  -0.020845947019392 0
force Se   0.000000000000000   0.000000000000000   0.024008025038181 0
force Se  -0.000000000000000  -0.000000000000000   0.018133402593626 0
force Se  -0.000000000000000   0.000000000000000  -0.011750587487268 0
force Se   0.000000000000000  -0.000000000000000  -0.020845947019164 0
force Se   0.000000000000000  -0.000000000000000   0.024008025038636 0
force Se   0.000000000000000   0.000000000000000   0.018133402593740 0
force Se  -0.000000000000000   0.000000000000000  -0.011750587487211 0
force Se  -0.000000000000000  -0.000000000000000  -0.020845947019391 0
force Se  -0.000000000000000  -0.000000000000000   0.024008025038635 0
force Se  -0.000000000000000  -0.000000000000000   0.018133402593569 0
force Se   0.000000000000000   0.000000000000000  -0.011750587487268 0

# Energy components:
   A_diel =        0.0545584742347526
   Eewald =    20699.8639317034212581
       EH =    22669.8192363897505857
     Eloc =   -46257.4900925126130460
      Enl =      705.1153224695257222
      Exc =    -1406.2316195004686961
 Exc_core =     1001.0986171605914024
       KE =      302.2429594666488128
  MuShift =        0.0064458348749628
-------------------------------------
     Etot =    -2285.5206405140334027
       TS =        0.0616093374942678
-------------------------------------
        F =    -2285.5822498515276493
      muN =     -106.2593177889092146
-------------------------------------
        G =    -2179.3229320626182925

IonicMinimize: Iter:   0  G: -2179.322932062618293  |grad|_K:  0.000e+00  t[s]:   3047.03
IonicMinimize: Converged (|grad|_K<1.000000e-04).

#--- Lowdin population analysis ---
# oxidation-state Bi +0.608 +0.646 +0.645 +0.608 +0.646 +0.645 +0.608 +0.646 +0.645 +0.608 +0.646 +0.645 +0.608 +0.646 +0.645 +0.608 +0.646 +0.645 +0.608 +0.646 +0.645 +0.608 +0.646 +0.645 +0.608 +0.646 +0.645
# oxidation-state Se -0.322 -0.321 -0.487 -0.488 -0.322 -0.321 -0.487 -0.488 -0.322 -0.321 -0.487 -0.488 -0.322 -0.321 -0.487 -0.488 -0.322 -0.321 -0.487 -0.488 -0.322 -0.321 -0.487 -0.488 -0.322 -0.321 -0.487 -0.488 -0.322 -0.321 -0.487 -0.488 -0.322 -0.321 -0.487 -0.488


Dumping 'NbTe2.fillings' ... done
Dumping 'NbTe2.wfns' ... done
Dumping 'NbTe2.fluidState' ... done
Dumping 'NbTe2.eigenvals' ... done
End date and time: Mon Jul 13 23:47:44 2020  (Duration: 0-0:50:52.39)
Done!
