
*************** JDFTx 1.5.0  ***************

Start date and time: Sat Jul 18 08:55:31 2020
Executable jdftx_gpu with command-line: -i Charged.in -o Charged.out
Running on hosts (process indices):  amax (0-5)
Divided in process groups (process indices):  0 (0)  1 (1)  2 (2)  3 (3)  4 (4)  5 (5)
gpuInit: Found compatible cuda device 0 'Tesla K80'
gpuInit: Found compatible cuda device 1 'Tesla K80'
gpuInit: Found compatible cuda device 2 'Tesla K80'
gpuInit: Found compatible cuda device 3 'Tesla K80'
gpuInit: Found compatible cuda device 4 'Tesla K80'
gpuInit: Found compatible cuda device 5 'Tesla K80'
gpuInit: Selected device 0
Resource initialization completed at t[s]:     20.34
Run totals: 6 processes, 24 threads, 6 GPUs


Input parsed successfully to the following command list (including defaults):

basis kpoint-dependent
cache-projectors no
coords-type Lattice
core-overlap-check none
coulomb-interaction Slab 001
coulomb-truncation-embed 0 0 0.5
davidson-band-ratio 1.1
dump End State
dump-name NbTe2.$VAR
elec-cutoff 20 100
elec-eigen-algo Davidson
elec-ex-corr gga-PBE
elec-smearing Gauss 0.0073499
electronic-minimize  \
	dirUpdateScheme      FletcherReeves \
	linminMethod         DirUpdateRecommended \
	nIterations          500 \
	history              15 \
	knormThreshold       0 \
	energyDiffThreshold  1e-08 \
	nEnergyDiff          2 \
	alphaTstart          1 \
	alphaTmin            1e-10 \
	updateTestStepSize   yes \
	alphaTreduceFactor   0.1 \
	alphaTincreaseFactor 3 \
	nAlphaAdjustMax      3 \
	wolfeEnergy          0.0001 \
	wolfeGradient        0.9 \
	fdTest               no
exchange-regularization WignerSeitzTruncated
fluid LinearPCM 298.000000 1.013250
fluid-anion F- 1 MeanFieldLJ \
	epsBulk 1 \
	pMol 0 \
	epsInf 1 \
	Pvap 0 \
	sigmaBulk 0 \
	Rvdw 2.24877 \
	Res 0 \
	tauNuc 343133
fluid-cation Na+ 1 MeanFieldLJ \
	epsBulk 1 \
	pMol 0 \
	epsInf 1 \
	Pvap 0 \
	sigmaBulk 0 \
	Rvdw 2.19208 \
	Res 0 \
	tauNuc 343133
fluid-ex-corr lda-TF lda-PZ
fluid-gummel-loop 10 1.000000e-05
fluid-minimize  \
	dirUpdateScheme      PolakRibiere \
	linminMethod         DirUpdateRecommended \
	nIterations          400 \
	history              15 \
	knormThreshold       1e-11 \
	energyDiffThreshold  0 \
	nEnergyDiff          2 \
	alphaTstart          1 \
	alphaTmin            1e-10 \
	updateTestStepSize   yes \
	alphaTreduceFactor   0.1 \
	alphaTincreaseFactor 3 \
	nAlphaAdjustMax      6 \
	wolfeEnergy          0.0001 \
	wolfeGradient        0.9 \
	fdTest               no
fluid-solvent H2O 55.338 ScalarEOS \
	epsBulk 78.4 \
	pMol 0.92466 \
	epsInf 1.77 \
	Pvap 1.06736e-10 \
	sigmaBulk 4.62e-05 \
	Rvdw 2.61727 \
	Res 1.42 \
	tauNuc 343133 \
	poleEl 15 7 1
forces-output-coords Positions
initial-state NbTe2.$VAR
ion Li   0.252874846486898   0.140708596682468   0.528863333591276 0
ion Li   0.580458458513098   0.140708596682468   0.528863333591276 0
ion Li   0.916666695000004   0.139211306388169   0.516976475468374 0
ion Li   0.262598526399855   0.854878341977107   0.617294478917347 0
ion Li   0.570734778600141   0.854878341977107   0.617294478917347 0
ion Li   0.916666695000004   0.861758218066342   0.609789969942609 0
ion Li   0.084681974076315   0.148340361678333   0.393130771774267 0
ion Li   0.416666667000001   0.145433411493479   0.394940826891264 0
ion Li   0.748651386923686   0.148340361678333   0.393130771774267 0
ion Li   0.086495110687017   0.862841839505698   0.481953707939717 0
ion Li   0.416666667000001   0.857123267456148   0.482573670185920 0
ion Li   0.746838250312984   0.862841839505698   0.481953707939717 0
ion Cu   0.078866943426553   0.507550241361007   0.563015888738421 0
ion Cu   0.416666667000001   0.481750776029499   0.574708259346987 0
ion Cu   0.754466417573449   0.507550241361007   0.563015888738421 0
ion Cu   0.093055709903931   0.177923184240774   0.657894340456398 0
ion Cu   0.740277651096070   0.177923184240774   0.657894340456398 0
ion Cu   0.250054270937567   0.829904610295176   0.343857720449525 0
ion Cu   0.583279034062430   0.829904610295176   0.343857720449525 0
ion Cu   0.916666695000004   0.830866432434613   0.343401024126565 0
ion Cu   0.254034385418690   0.489283801913519   0.434540304645497 0
ion Cu   0.579298919581307   0.489283801913519   0.434540304645497 0
ion Cu   0.916666695000004   0.495660878973966   0.431886892781266 0
ion F   0.078299909000384   0.329901641249549   0.500057836901320 0
ion F   0.416666667000001   0.323179505346864   0.505949835825192 0
ion F   0.755033444999620   0.329901641249549   0.500057836901320 0
ion F   0.077736954111917   0.996937589682991   0.553648690728291 0
ion F   0.416666667000001   0.975728290983484   0.555566714098041 0
ion F   0.755596406888084   0.996937589682991   0.553648690728291 0
ion F   0.083804983577348   0.694172584419588   0.617122117714993 0
ion F   0.416666667000001   0.674052103503324   0.626490667227479 0
ion F   0.749528377422653   0.694172584419588   0.617122117714993 0
ion F   0.229188269917741   0.319929693261746   0.606106179551260 0
ion F   0.604145035082255   0.319929693261746   0.606106179551260 0
ion F   0.916666695000004   0.335689699593036   0.633981583141576 0
ion F   0.247128664152048   0.016717462703983   0.678193921370490 0
ion F   0.586204640847949   0.016717462703983   0.678193921370490 0
ion F   0.916666695000004   0.019178065610755   0.680791582677626 0
ion F   0.083817977329012  -0.004082105392713   0.320987778639120 0
ion F   0.416666667000001  -0.003838392118187   0.321622548699321 0
ion F   0.749515383670990  -0.004082105392713   0.320987778639120 0
ion F   0.082768531851954   0.668790173265923   0.374722768761765 0
ion F   0.416666667000001   0.669219628602779   0.374942163458139 0
ion F   0.750564829148048   0.668790173265923   0.374722768761765 0
ion F   0.251390053886420   0.309668183267120   0.378267802124228 0
ion F   0.581943251113576   0.309668183267120   0.378267802124228 0
ion F   0.916666695000004   0.308830436907728   0.377695567502333 0
ion F   0.250287221644036   0.006949104485771   0.443605323889905 0
ion F   0.583046083355960   0.006949104485771   0.443605323889905 0
ion F   0.916666695000004   0.003174794585054   0.441614629358875 0
ion F   0.249174376360118   0.671382139769483   0.493326493358743 0
ion F   0.584158928639878   0.671382139769483   0.493326493358743 0
ion F   0.916666695000004   0.672904196407902   0.493921414163304 0
ion-species GBRV/$ID_pbe.uspp
ion-width Ecut
ionic-minimize  \
	dirUpdateScheme      L-BFGS \
	linminMethod         DirUpdateRecommended \
	nIterations          0 \
	history              15 \
	knormThreshold       0.0001 \
	energyDiffThreshold  1e-06 \
	nEnergyDiff          2 \
	alphaTstart          1 \
	alphaTmin            1e-10 \
	updateTestStepSize   yes \
	alphaTreduceFactor   0.1 \
	alphaTincreaseFactor 3 \
	nAlphaAdjustMax      3 \
	wolfeEnergy          0.0001 \
	wolfeGradient        0.9 \
	fdTest               no
kpoint   0.000000000000   0.000000000000   0.000000000000  1.00000000000000
kpoint-folding 4 5 1 
latt-move-scale 1 1 1
latt-scale 1 1 1 
lattice Triclinic 15.9263 13.9131 42.8349 90 90 90
lattice-minimize  \
	dirUpdateScheme      L-BFGS \
	linminMethod         DirUpdateRecommended \
	nIterations          0 \
	history              15 \
	knormThreshold       0 \
	energyDiffThreshold  1e-06 \
	nEnergyDiff          2 \
	alphaTstart          1 \
	alphaTmin            1e-10 \
	updateTestStepSize   yes \
	alphaTreduceFactor   0.1 \
	alphaTincreaseFactor 3 \
	nAlphaAdjustMax      3 \
	wolfeEnergy          0.0001 \
	wolfeGradient        0.9 \
	fdTest               no
lcao-params -1 1e-06 0.0073499
pcm-variant CANDLE
spintype no-spin
subspace-rotation-factor 1 yes
symmetries automatic
symmetry-threshold 0.0001
target-mu -0.171252 no




---------- Setting up symmetries ----------

Found 8 point-group symmetries of the bravais lattice
Found 2 space-group symmetries with basis
Applied RMS atom displacement 2.4928e-07 bohrs to make symmetries exact.

---------- Initializing the Grid ----------
R = 
[    15.9263          0          0  ]
[          0    13.9131          0  ]
[          0          0    42.8349  ]
unit cell volume = 9491.57
G =
[   0.394515          0          0  ]
[          0   0.451602          0  ]
[          0          0   0.146684  ]
Minimum fftbox size, Smin = [  72  64  196  ]
Chosen fftbox size, S = [  72  64  196  ]

---------- Initializing tighter grid for wavefunction operations ----------
R = 
[    15.9263          0          0  ]
[          0    13.9131          0  ]
[          0          0    42.8349  ]
unit cell volume = 9491.57
G =
[   0.394515          0          0  ]
[          0   0.451602          0  ]
[          0          0   0.146684  ]
Minimum fftbox size, Smin = [  68  60  176  ]
Chosen fftbox size, S = [  70  60  180  ]

---------- Exchange Correlation functional ----------
Initalized PBE GGA exchange.
Initalized PBE GGA correlation.

---------- Setting up pseudopotentials ----------
Width of ionic core gaussian charges (only for fluid interactions / plotting) set to 0.397384

Reading pseudopotential file '/home/guoxy/vasp/jdftx-1.5.0/build/pseudopotentials/GBRV/li_pbe.uspp':
  Title: Li.  Created by USPP 7.3.6 on 8-4-15
  Reference state energy: -7.100502.  3 valence electrons in orbitals:
    |100>  occupation: 2  eigenvalue: -2.033252
    |200>  occupation: 0.55  eigenvalue: -0.187138
    |210>  occupation: 0  eigenvalue: -0.114272
  lMax: 1  lLocal: 2  QijEcut: 6
  5 projectors sampled on a log grid with 541 points:
    l: 0  eig: -2.033252  rCut: 1.3
    l: 0  eig: -0.187138  rCut: 1.3
    l: 0  eig: 1.000000  rCut: 1.3
    l: 1  eig: -0.114273  rCut: 2.001
    l: 1  eig: 1.000000  rCut: 2.001
  Transforming local potential to a uniform radial grid of dG=0.02 with 1248 points.
  Transforming nonlocal projectors to a uniform radial grid of dG=0.02 with 432 points.
  Transforming density augmentations to a uniform radial grid of dG=0.02 with 1248 points.
  Transforming atomic orbitals to a uniform radial grid of dG=0.02 with 432 points.
  Core radius for overlap checks: 2.00 bohrs.

Reading pseudopotential file '/home/guoxy/vasp/jdftx-1.5.0/build/pseudopotentials/GBRV/cu_pbe.uspp':
  Title: Cu.  Created by USPP 7.3.6 on 3-2-2014
  Reference state energy: -201.059491.  19 valence electrons in orbitals:
    |300>  occupation: 2  eigenvalue: -5.020764
    |310>  occupation: 6  eigenvalue: -3.445588
    |320>  occupation: 8  eigenvalue: -0.925168
    |400>  occupation: 2  eigenvalue: -0.567638
    |410>  occupation: 0  eigenvalue: -0.326154
  lMax: 2  lLocal: 3  QijEcut: 6
  6 projectors sampled on a log grid with 613 points:
    l: 0  eig: -5.020767  rCut: 1.4
    l: 0  eig: -0.567640  rCut: 1.4
    l: 1  eig: -3.445589  rCut: 1.55
    l: 1  eig: -0.326157  rCut: 1.55
    l: 2  eig: -0.925170  rCut: 1.5
    l: 2  eig: 1.500000  rCut: 1.5
  Partial core density with radius 0.8
  Transforming core density to a uniform radial grid of dG=0.02 with 1248 points.
  Transforming local potential to a uniform radial grid of dG=0.02 with 1248 points.
  Transforming nonlocal projectors to a uniform radial grid of dG=0.02 with 432 points.
  Transforming density augmentations to a uniform radial grid of dG=0.02 with 1248 points.
  Transforming atomic orbitals to a uniform radial grid of dG=0.02 with 432 points.
  Core radius for overlap checks: 1.55 bohrs.

Reading pseudopotential file '/home/guoxy/vasp/jdftx-1.5.0/build/pseudopotentials/GBRV/f_pbe.uspp':
  Title: F.  Created by USPP 7.3.6 on 1-4-15
  Reference state energy: -24.162774.  7 valence electrons in orbitals:
    |200>  occupation: 2  eigenvalue: -1.098757
    |210>  occupation: 5  eigenvalue: -0.408350
  lMax: 1  lLocal: 2  QijEcut: 6.5
  4 projectors sampled on a log grid with 525 points:
    l: 0  eig: -1.098755  rCut: 1.3
    l: 0  eig: 0.000000  rCut: 1.3
    l: 1  eig: -0.408349  rCut: 1.4
    l: 1  eig: 0.000000  rCut: 1.4
  Transforming local potential to a uniform radial grid of dG=0.02 with 1248 points.
  Transforming nonlocal projectors to a uniform radial grid of dG=0.02 with 432 points.
  Transforming density augmentations to a uniform radial grid of dG=0.02 with 1248 points.
  Transforming atomic orbitals to a uniform radial grid of dG=0.02 with 432 points.
  Core radius for overlap checks: 1.40 bohrs.

Initialized 3 species with 53 total atoms.

Folded 1 k-points by 4x5x1 to 20 k-points.

---------- Setting up k-points, bands, fillings ----------
Adding inversion symmetry to k-mesh for non-inversion-symmetric unit cell.
Reduced to 9 k-points under symmetry. 
Computing the number of bands and number of electrons
Reading initial fillings from file NbTe2.fillings.
nElectrons: 455.000000   nBands: 323   nStates: 9

----- Setting up reduced wavefunction bases (one per k-point) -----
average nbasis = 40539.150 , ideal nbasis = 40548.720

---------- Setting up coulomb interaction ----------
Fluid mode embedding: using embedded box, but periodic Coulomb kernel.
(Fluid response is responsible for (approximate) separation between periodic images.)
Setting up double-sized grid for truncated Coulomb potentials:
R = 
[    15.9263          0          0  ]
[          0    13.9131          0  ]
[          0          0    85.6698  ]
unit cell volume = 18983.1
G =
[   0.394515          0          0  ]
[          0   0.451602          0  ]
[          0          0  0.0733419  ]
Chosen fftbox size, S = [  72  64  392  ]
Integer grid location selected as the embedding center:
   Grid: [  0  0  98  ]
   Lattice: [  0  0  0.5  ]
   Cartesian: [  0  0  21.4175  ]
Constructing Wigner-Seitz cell: 6 faces (6 quadrilaterals, 0 hexagons)
Range-separation parameter for embedded mesh potentials due to point charges: 0.593338 bohrs.

Initializing van der Waals corrections
	NOTE: vdW corrections apply only for interactions with fluid.
	Li:  C6:   27.93 Eh-a0^6  R0: 1.559 a0
	Cu:  C6:  187.33 Eh-a0^6  R0: 2.952 a0
	 F:  C6:   13.01 Eh-a0^6  R0: 2.432 a0

---------- Setting up ewald sum ----------
Optimum gaussian width for ewald sums = 5.491026 bohr.
Real space sum over 605 unit cells with max indices [  5  5  2  ]
Reciprocal space sum over 7293 terms with max indices [  6  5  25  ]

---------- Allocating electronic variables ----------
Initializing wave functions:  reading from 'NbTe2.wfns'
----- createFluidSolver() ----- (Fluid-side solver setup)
   Initializing fluid molecule 'H2O'
     Initializing site 'O'
       Electron density: proportional to exp(-r/0.36935)*erfc((r-0.51523)/0.36823) with norm 6.826
       Charge density: gaussian nuclear width 0.478731 with net site charge 0.826
       Polarizability: cuspless exponential with width 0.32 and norm 3.73
       Hard sphere radius: 2.57003 bohrs
       Positions in reference frame:
         [ +0.000000 +0.000000 +0.000000 ]
     Initializing site 'H'
       Electron density: proportional to exp(-r/0.34641)*erfc((r-0)/0.390882) with norm 0.587
       Charge density: gaussian nuclear width 0.377945 with net site charge -0.413
       Polarizability: cuspless exponential with width 0.39 and norm 3.3
       Positions in reference frame:
         [ +0.000000 -1.441945 +1.122523 ]
         [ +0.000000 +1.441945 +1.122523 ]
     Net charge: 0   dipole magnitude: 0.927204
     Initializing spherical shell mfKernel with radius 2.61727 Bohr
     deltaS corrections:
       site 'O': -7.54299
       site 'H': -6.83917
   Initializing fluid molecule 'Na+'
     Initializing site 'Na'
       Electron density: proportional to exp(-r/0.19682)*erfc((r-0.71491)/0.41314) with norm 8.1383
       Charge density: gaussian nuclear width 0.365347 with net site charge -1
       Hard sphere radius: 1.86327 bohrs
       Positions in reference frame:
         [ +0.000000 +0.000000 +0.000000 ]
     Net charge: -1   dipole magnitude: 0
     Initializing gaussian mfKernel with width: 1.55004 Bohr
     deltaS corrections:
       site 'Na': -22.3555
   Initializing fluid molecule 'F-'
     Initializing site 'F'
       Electron density: proportional to exp(-r/0.38886)*erfc((r-0)/0.438782) with norm 8
       Charge density: gaussian nuclear width 0.374796 with net site charge 1
       Hard sphere radius: 2.39995 bohrs
       Positions in reference frame:
         [ +0.000000 +0.000000 +0.000000 ]
     Net charge: 1   dipole magnitude: 0
     Initializing gaussian mfKernel with width: 1.59012 Bohr
     deltaS corrections:
       site 'F': -9.04335

Correction to mu due to finite nuclear width = -0.0237817
   Cavity determined by nc: 0.00142 and sigma: 0.707107
   Nonlocal vdW cavity from gaussian model electron density with norm = 8 and sigma = 0.993594 bohr
   Charge asymmetry in cavity with sensitivity pCavity = 36.5 e-bohr/Eh
   Electrostatic cavity expanded by eta = 1.46 bohrs
   Weighted density cavitation model constrained by Nbulk: 0.0049383 bohr^-3, Pvap: 3.14029 kPa, Rvdw: 2.61727 bohr and sigmaBulk: 4.62e-05 Eh/bohr^2 at T: 298 K.
   Weighted density dispersion model using vdW pair potentials with single solvent site with sqrtC6eff: 0.77 SI.
Reading fluid state from 'NbTe2.fluidState'


---- Citations for features of the code used in this run ----

   Software package:
      R. Sundararaman, K. Letchworth-Weaver, K.A. Schwarz, D. Gunceler, Y. Ozhabes and T.A. Arias, 'JDFTx: software for joint density-functional theory', SoftwareX 6, 278 (2017)

   gga-PBE exchange-correlation functional:
      J.P. Perdew, K. Burke and M. Ernzerhof, Phys. Rev. Lett. 77, 3865 (1996)

   Pseudopotentials:
      KF Garrity, JW Bennett, KM Rabe and D Vanderbilt, Comput. Mater. Sci. 81, 446 (2014)

   Truncated Coulomb potentials:
      R. Sundararaman and T.A. Arias, Phys. Rev. B 87, 165122 (2013)

   Van der Waals correction pair-potentials:
      S. Grimme, J. Comput. Chem. 27, 1787 (2006)

   Charge-asymmetric nonlocally-determined local-electric (CANDLE) solvation model:
      R. Sundararaman and W.A. Goddard III, J. Chem. Phys. 142, 064107 (2015)

   Total energy minimization with Auxiliary Hamiltonian:
      C. Freysoldt, S. Boeck, and J. Neugebauer, Phys. Rev. B 79, 241103(R) (2009)

   Grand-canonical (fixed-potential) DFT:
      R. Sundararaman, W. A. Goddard III and T. A. Arias, J. Chem. Phys. 146, 114104 (2017)

This list may not be complete. Please suggest additional citations or
report any other bugs at https://github.com/shankar1729/jdftx/issues

Initialization completed successfully at t[s]:     26.73

Shifting auxilliary hamiltonian by 0.059940 to set nElectrons=455.000000
	Linear fluid (dielectric constant: 78.4, screening length: 5.74355 Bohr) occupying 0.738008 of unit cell:	Completed after 9 iterations at t[s]:     47.98

-------- Electronic minimization -----------
	Linear fluid (dielectric constant: 78.4, screening length: 5.74355 Bohr) occupying 0.738008 of unit cell:	Completed after 0 iterations at t[s]:     65.20
	FillingsUpdate:  mu: -0.171251800  nElectrons: 455.000000
ElecMinimize: Iter:   0  G: -2960.020592040358224  |grad|_K:  9.234e-05  alpha:  1.000e+00
	Linear fluid (dielectric constant: 78.4, screening length: 5.74355 Bohr) occupying 0.776280 of unit cell:	Completed after 27 iterations at t[s]:    129.93
	Linear fluid (dielectric constant: 78.4, screening length: 5.74355 Bohr) occupying 0.776228 of unit cell:	Completed after 25 iterations at t[s]:    175.91
ElecMinimize: 	Step increased G by 1.287052e+00, reducing alpha to 2.591083e-02.
	Linear fluid (dielectric constant: 78.4, screening length: 5.74355 Bohr) occupying 0.748679 of unit cell:	Completed after 32 iterations at t[s]:    239.80
	FillingsUpdate:  mu: -0.171251800  nElectrons: 455.853391
	SubspaceRotationAdjust: set factor to 0.477
ElecMinimize: Iter:   1  G: -2960.035107935635551  |grad|_K:  5.147e-05  alpha:  2.591e-02  linmin:  5.016e-03  t[s]:    271.43
	Linear fluid (dielectric constant: 78.4, screening length: 5.74355 Bohr) occupying 0.747773 of unit cell:	Completed after 21 iterations at t[s]:    300.93
	Linear fluid (dielectric constant: 78.4, screening length: 5.74355 Bohr) occupying 0.746857 of unit cell:	Completed after 20 iterations at t[s]:    340.81
	FillingsUpdate:  mu: -0.171251800  nElectrons: 455.763041
	SubspaceRotationAdjust: set factor to 0.223
ElecMinimize: Iter:   2  G: -2960.045203708704321  |grad|_K:  2.161e-05  alpha:  5.003e-02  linmin:  4.690e-04  t[s]:    370.38
	Linear fluid (dielectric constant: 78.4, screening length: 5.74355 Bohr) occupying 0.748209 of unit cell:	Completed after 19 iterations at t[s]:    401.55
	Linear fluid (dielectric constant: 78.4, screening length: 5.74355 Bohr) occupying 0.749397 of unit cell:	Completed after 19 iterations at t[s]:    433.95
	FillingsUpdate:  mu: -0.171251800  nElectrons: 455.912021
	SubspaceRotationAdjust: set factor to 0.203
ElecMinimize: Iter:   3  G: -2960.050291677460791  |grad|_K:  1.531e-05  alpha:  9.469e-02  linmin: -3.304e-05  t[s]:    460.68
	Linear fluid (dielectric constant: 78.4, screening length: 5.74355 Bohr) occupying 0.751216 of unit cell:	Completed after 21 iterations at t[s]:    493.14
ElecMinimize: 	Predicted alpha/alphaT>3.000000, increasing alphaT to 2.840777e-01.
	Linear fluid (dielectric constant: 78.4, screening length: 5.74355 Bohr) occupying 0.754630 of unit cell:
*************** JDFTx 1.5.0  ***************

Start date and time: Sat Jul 18 09:05:14 2020
Executable jdftx_gpu with command-line: -i Charged.in -o Charged.out
Running on hosts (process indices):  amax (0-5)
Divided in process groups (process indices):  0 (0)  1 (1)  2 (2)  3 (3)  4 (4)  5 (5)
gpuInit: Found compatible cuda device 0 'Tesla K80'
gpuInit: Found compatible cuda device 1 'Tesla K80'
gpuInit: Found compatible cuda device 2 'Tesla K80'
gpuInit: Found compatible cuda device 3 'Tesla K80'
gpuInit: Found compatible cuda device 4 'Tesla K80'
gpuInit: Found compatible cuda device 5 'Tesla K80'
gpuInit: Selected device 0
Resource initialization completed at t[s]:      9.37
Run totals: 6 processes, 24 threads, 6 GPUs


Input parsed successfully to the following command list (including defaults):

basis kpoint-dependent
cache-projectors no
coords-type Lattice
core-overlap-check none
coulomb-interaction Slab 001
coulomb-truncation-embed 0 0 0.5
davidson-band-ratio 1.1
dump End State
dump-name NbTe2.$VAR
elec-cutoff 20 100
elec-eigen-algo Davidson
elec-ex-corr gga-PBE
elec-smearing Gauss 0.0073499
electronic-minimize  \
	dirUpdateScheme      FletcherReeves \
	linminMethod         DirUpdateRecommended \
	nIterations          500 \
	history              15 \
	knormThreshold       0 \
	energyDiffThreshold  1e-08 \
	nEnergyDiff          2 \
	alphaTstart          1 \
	alphaTmin            1e-10 \
	updateTestStepSize   yes \
	alphaTreduceFactor   0.1 \
	alphaTincreaseFactor 3 \
	nAlphaAdjustMax      3 \
	wolfeEnergy          0.0001 \
	wolfeGradient        0.9 \
	fdTest               no
exchange-regularization WignerSeitzTruncated
fluid LinearPCM 298.000000 1.013250
fluid-anion F- 1 MeanFieldLJ \
	epsBulk 1 \
	pMol 0 \
	epsInf 1 \
	Pvap 0 \
	sigmaBulk 0 \
	Rvdw 2.24877 \
	Res 0 \
	tauNuc 343133
fluid-cation Na+ 1 MeanFieldLJ \
	epsBulk 1 \
	pMol 0 \
	epsInf 1 \
	Pvap 0 \
	sigmaBulk 0 \
	Rvdw 2.19208 \
	Res 0 \
	tauNuc 343133
fluid-ex-corr lda-TF lda-PZ
fluid-gummel-loop 10 1.000000e-05
fluid-minimize  \
	dirUpdateScheme      PolakRibiere \
	linminMethod         DirUpdateRecommended \
	nIterations          400 \
	history              15 \
	knormThreshold       1e-11 \
	energyDiffThreshold  0 \
	nEnergyDiff          2 \
	alphaTstart          1 \
	alphaTmin            1e-10 \
	updateTestStepSize   yes \
	alphaTreduceFactor   0.1 \
	alphaTincreaseFactor 3 \
	nAlphaAdjustMax      6 \
	wolfeEnergy          0.0001 \
	wolfeGradient        0.9 \
	fdTest               no
fluid-solvent H2O 55.338 ScalarEOS \
	epsBulk 78.4 \
	pMol 0.92466 \
	epsInf 1.77 \
	Pvap 1.06736e-10 \
	sigmaBulk 4.62e-05 \
	Rvdw 2.61727 \
	Res 1.42 \
	tauNuc 343133 \
	poleEl 15 7 1
forces-output-coords Positions
initial-state NbTe2.$VAR
ion Li   0.252874846486898   0.140708596682468   0.528863333591276 0
ion Li   0.580458458513098   0.140708596682468   0.528863333591276 0
ion Li   0.916666695000004   0.139211306388169   0.516976475468374 0
ion Li   0.262598526399855   0.854878341977107   0.617294478917347 0
ion Li   0.570734778600141   0.854878341977107   0.617294478917347 0
ion Li   0.916666695000004   0.861758218066342   0.609789969942609 0
ion Li   0.084681974076315   0.148340361678333   0.393130771774267 0
ion Li   0.416666667000001   0.145433411493479   0.394940826891264 0
ion Li   0.748651386923686   0.148340361678333   0.393130771774267 0
ion Li   0.086495110687017   0.862841839505698   0.481953707939717 0
ion Li   0.416666667000001   0.857123267456148   0.482573670185920 0
ion Li   0.746838250312984   0.862841839505698   0.481953707939717 0
ion Cu   0.078866943426553   0.507550241361007   0.563015888738421 0
ion Cu   0.416666667000001   0.481750776029499   0.574708259346987 0
ion Cu   0.754466417573449   0.507550241361007   0.563015888738421 0
ion Cu   0.093055709903931   0.177923184240774   0.657894340456398 0
ion Cu   0.740277651096070   0.177923184240774   0.657894340456398 0
ion Cu   0.250054270937567   0.829904610295176   0.343857720449525 0
ion Cu   0.583279034062430   0.829904610295176   0.343857720449525 0
ion Cu   0.916666695000004   0.830866432434613   0.343401024126565 0
ion Cu   0.254034385418690   0.489283801913519   0.434540304645497 0
ion Cu   0.579298919581307   0.489283801913519   0.434540304645497 0
ion Cu   0.916666695000004   0.495660878973966   0.431886892781266 0
ion F   0.078299909000384   0.329901641249549   0.500057836901320 0
ion F   0.416666667000001   0.323179505346864   0.505949835825192 0
ion F   0.755033444999620   0.329901641249549   0.500057836901320 0
ion F   0.077736954111917   0.996937589682991   0.553648690728291 0
ion F   0.416666667000001   0.975728290983484   0.555566714098041 0
ion F   0.755596406888084   0.996937589682991   0.553648690728291 0
ion F   0.083804983577348   0.694172584419588   0.617122117714993 0
ion F   0.416666667000001   0.674052103503324   0.626490667227479 0
ion F   0.749528377422653   0.694172584419588   0.617122117714993 0
ion F   0.229188269917741   0.319929693261746   0.606106179551260 0
ion F   0.604145035082255   0.319929693261746   0.606106179551260 0
ion F   0.916666695000004   0.335689699593036   0.633981583141576 0
ion F   0.247128664152048   0.016717462703983   0.678193921370490 0
ion F   0.586204640847949   0.016717462703983   0.678193921370490 0
ion F   0.916666695000004   0.019178065610755   0.680791582677626 0
ion F   0.083817977329012  -0.004082105392713   0.320987778639120 0
ion F   0.416666667000001  -0.003838392118187   0.321622548699321 0
ion F   0.749515383670990  -0.004082105392713   0.320987778639120 0
ion F   0.082768531851954   0.668790173265923   0.374722768761765 0
ion F   0.416666667000001   0.669219628602779   0.374942163458139 0
ion F   0.750564829148048   0.668790173265923   0.374722768761765 0
ion F   0.251390053886420   0.309668183267120   0.378267802124228 0
ion F   0.581943251113576   0.309668183267120   0.378267802124228 0
ion F   0.916666695000004   0.308830436907728   0.377695567502333 0
ion F   0.250287221644036   0.006949104485771   0.443605323889905 0
ion F   0.583046083355960   0.006949104485771   0.443605323889905 0
ion F   0.916666695000004   0.003174794585054   0.441614629358875 0
ion F   0.249174376360118   0.671382139769483   0.493326493358743 0
ion F   0.584158928639878   0.671382139769483   0.493326493358743 0
ion F   0.916666695000004   0.672904196407902   0.493921414163304 0
ion-species GBRV/$ID_pbe.uspp
ion-width Ecut
ionic-minimize  \
	dirUpdateScheme      L-BFGS \
	linminMethod         DirUpdateRecommended \
	nIterations          0 \
	history              15 \
	knormThreshold       0.0001 \
	energyDiffThreshold  1e-06 \
	nEnergyDiff          2 \
	alphaTstart          1 \
	alphaTmin            1e-10 \
	updateTestStepSize   yes \
	alphaTreduceFactor   0.1 \
	alphaTincreaseFactor 3 \
	nAlphaAdjustMax      3 \
	wolfeEnergy          0.0001 \
	wolfeGradient        0.9 \
	fdTest               no
kpoint   0.000000000000   0.000000000000   0.000000000000  1.00000000000000
kpoint-folding 4 5 1 
latt-move-scale 1 1 1
latt-scale 1 1 1 
lattice Triclinic 15.9263 13.9131 42.8349 90 90 90
lattice-minimize  \
	dirUpdateScheme      L-BFGS \
	linminMethod         DirUpdateRecommended \
	nIterations          0 \
	history              15 \
	knormThreshold       0 \
	energyDiffThreshold  1e-06 \
	nEnergyDiff          2 \
	alphaTstart          1 \
	alphaTmin            1e-10 \
	updateTestStepSize   yes \
	alphaTreduceFactor   0.1 \
	alphaTincreaseFactor 3 \
	nAlphaAdjustMax      3 \
	wolfeEnergy          0.0001 \
	wolfeGradient        0.9 \
	fdTest               no
lcao-params -1 1e-06 0.0073499
pcm-variant CANDLE
spintype no-spin
subspace-rotation-factor 1 yes
symmetries automatic
symmetry-threshold 0.0001
target-mu -0.24475 no




---------- Setting up symmetries ----------

Found 8 point-group symmetries of the bravais lattice
Found 2 space-group symmetries with basis
Applied RMS atom displacement 2.4928e-07 bohrs to make symmetries exact.

---------- Initializing the Grid ----------
R = 
[    15.9263          0          0  ]
[          0    13.9131          0  ]
[          0          0    42.8349  ]
unit cell volume = 9491.57
G =
[   0.394515          0          0  ]
[          0   0.451602          0  ]
[          0          0   0.146684  ]
Minimum fftbox size, Smin = [  72  64  196  ]
Chosen fftbox size, S = [  72  64  196  ]

---------- Initializing tighter grid for wavefunction operations ----------
R = 
[    15.9263          0          0  ]
[          0    13.9131          0  ]
[          0          0    42.8349  ]
unit cell volume = 9491.57
G =
[   0.394515          0          0  ]
[          0   0.451602          0  ]
[          0          0   0.146684  ]
Minimum fftbox size, Smin = [  68  60  176  ]
Chosen fftbox size, S = [  70  60  180  ]

---------- Exchange Correlation functional ----------
Initalized PBE GGA exchange.
Initalized PBE GGA correlation.

---------- Setting up pseudopotentials ----------
Width of ionic core gaussian charges (only for fluid interactions / plotting) set to 0.397384

Reading pseudopotential file '/home/guoxy/vasp/jdftx-1.5.0/build/pseudopotentials/GBRV/li_pbe.uspp':
  Title: Li.  Created by USPP 7.3.6 on 8-4-15
  Reference state energy: -7.100502.  3 valence electrons in orbitals:
    |100>  occupation: 2  eigenvalue: -2.033252
    |200>  occupation: 0.55  eigenvalue: -0.187138
    |210>  occupation: 0  eigenvalue: -0.114272
  lMax: 1  lLocal: 2  QijEcut: 6
  5 projectors sampled on a log grid with 541 points:
    l: 0  eig: -2.033252  rCut: 1.3
    l: 0  eig: -0.187138  rCut: 1.3
    l: 0  eig: 1.000000  rCut: 1.3
    l: 1  eig: -0.114273  rCut: 2.001
    l: 1  eig: 1.000000  rCut: 2.001
  Transforming local potential to a uniform radial grid of dG=0.02 with 1248 points.
  Transforming nonlocal projectors to a uniform radial grid of dG=0.02 with 432 points.
  Transforming density augmentations to a uniform radial grid of dG=0.02 with 1248 points.
  Transforming atomic orbitals to a uniform radial grid of dG=0.02 with 432 points.
  Core radius for overlap checks: 2.00 bohrs.

Reading pseudopotential file '/home/guoxy/vasp/jdftx-1.5.0/build/pseudopotentials/GBRV/cu_pbe.uspp':
  Title: Cu.  Created by USPP 7.3.6 on 3-2-2014
  Reference state energy: -201.059491.  19 valence electrons in orbitals:
    |300>  occupation: 2  eigenvalue: -5.020764
    |310>  occupation: 6  eigenvalue: -3.445588
    |320>  occupation: 8  eigenvalue: -0.925168
    |400>  occupation: 2  eigenvalue: -0.567638
    |410>  occupation: 0  eigenvalue: -0.326154
  lMax: 2  lLocal: 3  QijEcut: 6
  6 projectors sampled on a log grid with 613 points:
    l: 0  eig: -5.020767  rCut: 1.4
    l: 0  eig: -0.567640  rCut: 1.4
    l: 1  eig: -3.445589  rCut: 1.55
    l: 1  eig: -0.326157  rCut: 1.55
    l: 2  eig: -0.925170  rCut: 1.5
    l: 2  eig: 1.500000  rCut: 1.5
  Partial core density with radius 0.8
  Transforming core density to a uniform radial grid of dG=0.02 with 1248 points.
  Transforming local potential to a uniform radial grid of dG=0.02 with 1248 points.
  Transforming nonlocal projectors to a uniform radial grid of dG=0.02 with 432 points.
  Transforming density augmentations to a uniform radial grid of dG=0.02 with 1248 points.
  Transforming atomic orbitals to a uniform radial grid of dG=0.02 with 432 points.
  Core radius for overlap checks: 1.55 bohrs.

Reading pseudopotential file '/home/guoxy/vasp/jdftx-1.5.0/build/pseudopotentials/GBRV/f_pbe.uspp':
  Title: F.  Created by USPP 7.3.6 on 1-4-15
  Reference state energy: -24.162774.  7 valence electrons in orbitals:
    |200>  occupation: 2  eigenvalue: -1.098757
    |210>  occupation: 5  eigenvalue: -0.408350
  lMax: 1  lLocal: 2  QijEcut: 6.5
  4 projectors sampled on a log grid with 525 points:
    l: 0  eig: -1.098755  rCut: 1.3
    l: 0  eig: 0.000000  rCut: 1.3
    l: 1  eig: -0.408349  rCut: 1.4
    l: 1  eig: 0.000000  rCut: 1.4
  Transforming local potential to a uniform radial grid of dG=0.02 with 1248 points.
  Transforming nonlocal projectors to a uniform radial grid of dG=0.02 with 432 points.
  Transforming density augmentations to a uniform radial grid of dG=0.02 with 1248 points.
  Transforming atomic orbitals to a uniform radial grid of dG=0.02 with 432 points.
  Core radius for overlap checks: 1.40 bohrs.

Initialized 3 species with 53 total atoms.

Folded 1 k-points by 4x5x1 to 20 k-points.

---------- Setting up k-points, bands, fillings ----------
Adding inversion symmetry to k-mesh for non-inversion-symmetric unit cell.
Reduced to 9 k-points under symmetry. 
Computing the number of bands and number of electrons
Reading initial fillings from file NbTe2.fillings.
nElectrons: 455.000000   nBands: 323   nStates: 9

----- Setting up reduced wavefunction bases (one per k-point) -----
average nbasis = 40539.150 , ideal nbasis = 40548.720

---------- Setting up coulomb interaction ----------
Fluid mode embedding: using embedded box, but periodic Coulomb kernel.
(Fluid response is responsible for (approximate) separation between periodic images.)
Setting up double-sized grid for truncated Coulomb potentials:
R = 
[    15.9263          0          0  ]
[          0    13.9131          0  ]
[          0          0    85.6698  ]
unit cell volume = 18983.1
G =
[   0.394515          0          0  ]
[          0   0.451602          0  ]
[          0          0  0.0733419  ]
Chosen fftbox size, S = [  72  64  392  ]
Integer grid location selected as the embedding center:
   Grid: [  0  0  98  ]
   Lattice: [  0  0  0.5  ]
   Cartesian: [  0  0  21.4175  ]
Constructing Wigner-Seitz cell: 6 faces (6 quadrilaterals, 0 hexagons)
Range-separation parameter for embedded mesh potentials due to point charges: 0.593338 bohrs.

Initializing van der Waals corrections
	NOTE: vdW corrections apply only for interactions with fluid.
	Li:  C6:   27.93 Eh-a0^6  R0: 1.559 a0
	Cu:  C6:  187.33 Eh-a0^6  R0: 2.952 a0
	 F:  C6:   13.01 Eh-a0^6  R0: 2.432 a0

---------- Setting up ewald sum ----------
Optimum gaussian width for ewald sums = 5.491026 bohr.
Real space sum over 605 unit cells with max indices [  5  5  2  ]
Reciprocal space sum over 7293 terms with max indices [  6  5  25  ]

---------- Allocating electronic variables ----------
Initializing wave functions:  reading from 'NbTe2.wfns'
----- createFluidSolver() ----- (Fluid-side solver setup)
   Initializing fluid molecule 'H2O'
     Initializing site 'O'
       Electron density: proportional to exp(-r/0.36935)*erfc((r-0.51523)/0.36823) with norm 6.826
       Charge density: gaussian nuclear width 0.478731 with net site charge 0.826
       Polarizability: cuspless exponential with width 0.32 and norm 3.73
       Hard sphere radius: 2.57003 bohrs
       Positions in reference frame:
         [ +0.000000 +0.000000 +0.000000 ]
     Initializing site 'H'
       Electron density: proportional to exp(-r/0.34641)*erfc((r-0)/0.390882) with norm 0.587
       Charge density: gaussian nuclear width 0.377945 with net site charge -0.413
       Polarizability: cuspless exponential with width 0.39 and norm 3.3
       Positions in reference frame:
         [ +0.000000 -1.441945 +1.122523 ]
         [ +0.000000 +1.441945 +1.122523 ]
     Net charge: 0   dipole magnitude: 0.927204
     Initializing spherical shell mfKernel with radius 2.61727 Bohr
     deltaS corrections:
       site 'O': -7.54299
       site 'H': -6.83917
   Initializing fluid molecule 'Na+'
     Initializing site 'Na'
       Electron density: proportional to exp(-r/0.19682)*erfc((r-0.71491)/0.41314) with norm 8.1383
       Charge density: gaussian nuclear width 0.365347 with net site charge -1
       Hard sphere radius: 1.86327 bohrs
       Positions in reference frame:
         [ +0.000000 +0.000000 +0.000000 ]
     Net charge: -1   dipole magnitude: 0
     Initializing gaussian mfKernel with width: 1.55004 Bohr
     deltaS corrections:
       site 'Na': -22.3555
   Initializing fluid molecule 'F-'
     Initializing site 'F'
       Electron density: proportional to exp(-r/0.38886)*erfc((r-0)/0.438782) with norm 8
       Charge density: gaussian nuclear width 0.374796 with net site charge 1
       Hard sphere radius: 2.39995 bohrs
       Positions in reference frame:
         [ +0.000000 +0.000000 +0.000000 ]
     Net charge: 1   dipole magnitude: 0
     Initializing gaussian mfKernel with width: 1.59012 Bohr
     deltaS corrections:
       site 'F': -9.04335

Correction to mu due to finite nuclear width = -0.0237817
   Cavity determined by nc: 0.00142 and sigma: 0.707107
   Nonlocal vdW cavity from gaussian model electron density with norm = 8 and sigma = 0.993594 bohr
   Charge asymmetry in cavity with sensitivity pCavity = 36.5 e-bohr/Eh
   Electrostatic cavity expanded by eta = 1.46 bohrs
   Weighted density cavitation model constrained by Nbulk: 0.0049383 bohr^-3, Pvap: 3.14029 kPa, Rvdw: 2.61727 bohr and sigmaBulk: 4.62e-05 Eh/bohr^2 at T: 298 K.
   Weighted density dispersion model using vdW pair potentials with single solvent site with sqrtC6eff: 0.77 SI.
Reading fluid state from 'NbTe2.fluidState'


---- Citations for features of the code used in this run ----

   Software package:
      R. Sundararaman, K. Letchworth-Weaver, K.A. Schwarz, D. Gunceler, Y. Ozhabes and T.A. Arias, 'JDFTx: software for joint density-functional theory', SoftwareX 6, 278 (2017)

   gga-PBE exchange-correlation functional:
      J.P. Perdew, K. Burke and M. Ernzerhof, Phys. Rev. Lett. 77, 3865 (1996)

   Pseudopotentials:
      KF Garrity, JW Bennett, KM Rabe and D Vanderbilt, Comput. Mater. Sci. 81, 446 (2014)

   Truncated Coulomb potentials:
      R. Sundararaman and T.A. Arias, Phys. Rev. B 87, 165122 (2013)

   Van der Waals correction pair-potentials:
      S. Grimme, J. Comput. Chem. 27, 1787 (2006)

   Charge-asymmetric nonlocally-determined local-electric (CANDLE) solvation model:
      R. Sundararaman and W.A. Goddard III, J. Chem. Phys. 142, 064107 (2015)

   Total energy minimization with Auxiliary Hamiltonian:
      C. Freysoldt, S. Boeck, and J. Neugebauer, Phys. Rev. B 79, 241103(R) (2009)

   Grand-canonical (fixed-potential) DFT:
      R. Sundararaman, W. A. Goddard III and T. A. Arias, J. Chem. Phys. 146, 114104 (2017)

This list may not be complete. Please suggest additional citations or
report any other bugs at https://github.com/shankar1729/jdftx/issues

Initialization completed successfully at t[s]:     17.88

Shifting auxilliary hamiltonian by -0.013558 to set nElectrons=455.000000
	Linear fluid (dielectric constant: 78.4, screening length: 5.74355 Bohr) occupying 0.738008 of unit cell:	Completed after 9 iterations at t[s]:     29.65

-------- Electronic minimization -----------
	Linear fluid (dielectric constant: 78.4, screening length: 5.74355 Bohr) occupying 0.738008 of unit cell:	Completed after 0 iterations at t[s]:     41.72
	FillingsUpdate:  mu: -0.244750400  nElectrons: 455.000000
ElecMinimize: Iter:   0  G: -2926.578729040381404  |grad|_K:  2.123e-05  alpha:  1.000e+00
	Linear fluid (dielectric constant: 78.4, screening length: 5.74355 Bohr) occupying 0.737307 of unit cell:	Completed after 31 iterations at t[s]:     73.23
	Linear fluid (dielectric constant: 78.4, screening length: 5.74355 Bohr) occupying 0.737687 of unit cell:	Completed after 31 iterations at t[s]:     90.50
	FillingsUpdate:  mu: -0.244750400  nElectrons: 454.926335
	SubspaceRotationAdjust: set factor to 0.544
ElecMinimize: Iter:   1  G: -2926.579425315181652  |grad|_K:  8.582e-06  alpha:  9.528e-03  linmin: -1.429e-02  t[s]:    105.92
	Linear fluid (dielectric constant: 78.4, screening length: 5.74355 Bohr) occupying 0.737556 of unit cell:	Completed after 15 iterations at t[s]:    122.20
	Linear fluid (dielectric constant: 78.4, screening length: 5.74355 Bohr) occupying 0.737507 of unit cell:	Completed after 13 iterations at t[s]:    135.38
	FillingsUpdate:  mu: -0.244750400  nElectrons: 454.870533
	SubspaceRotationAdjust: set factor to 0.475
ElecMinimize: Iter:   2  G: -2926.579586928580284  |grad|_K:  5.026e-06  alpha:  1.363e-02  linmin:  6.455e-05  t[s]:    151.36
	Linear fluid (dielectric constant: 78.4, screening length: 5.74355 Bohr) occupying 0.737474 of unit cell:	Completed after 12 iterations at t[s]:    166.81
ElecMinimize: 	Predicted alpha/alphaT>3.000000, increasing alphaT to 4.089110e-02.
	Linear fluid (dielectric constant: 78.4, screening length: 5.74355 Bohr) occupying 0.737415 of unit cell:	Completed after 13 iterations at t[s]:    180.22
	Linear fluid (dielectric constant: 78.4, screening length: 5.74355 Bohr) occupying 0.737397 of unit cell:	Completed after 10 iterations at t[s]:    196.38
	FillingsUpdate:  mu: -0.244750400  nElectrons: 454.818201
	SubspaceRotationAdjust: set factor to 0.316
ElecMinimize: Iter:   3  G: -2926.579735384415471  |grad|_K:  6.084e-06  alpha:  5.032e-02  linmin:  3.129e-05  t[s]:    210.82
	Linear fluid (dielectric constant: 78.4, screening length: 5.74355 Bohr) occupying 0.737405 of unit cell:	Completed after 15 iterations at t[s]:    222.45
	Linear fluid (dielectric constant: 78.4, screening length: 5.74355 Bohr) occupying 0.737401 of unit cell:	Completed after 7 iterations at t[s]:    237.82
	FillingsUpdate:  mu: -0.244750400  nElectrons: 454.808150
	SubspaceRotationAdjust: set factor to 0.339
ElecMinimize: Iter:   4  G: -2926.579861973623338  |grad|_K:  4.030e-06  alpha:  2.910e-02  linmin:  2.996e-06  t[s]:    252.80
	Linear fluid (dielectric constant: 78.4, screening length: 5.74355 Bohr) occupying 0.737430 of unit cell:	Completed after 13 iterations at t[s]:    263.87
	Linear fluid (dielectric constant: 78.4, screening length: 5.74355 Bohr) occupying 0.737451 of unit cell:	Completed after 12 iterations at t[s]:    281.40
	FillingsUpdate:  mu: -0.244750400  nElectrons: 454.818379
	SubspaceRotationAdjust: set factor to 0.358
ElecMinimize: Iter:   5  G: -2926.579957882121562  |grad|_K:  4.495e-06  alpha:  5.019e-02  linmin:  1.552e-05  t[s]:    296.32
	Linear fluid (dielectric constant: 78.4, screening length: 5.74355 Bohr) occupying 0.737486 of unit cell:	Completed after 13 iterations at t[s]:    308.56
	Linear fluid (dielectric constant: 78.4, screening length: 5.74355 Bohr) occupying 0.737496 of unit cell:	Completed after 8 iterations at t[s]:    324.67
	FillingsUpdate:  mu: -0.244750400  nElectrons: 454.814246
	SubspaceRotationAdjust: set factor to 0.424
ElecMinimize: Iter:   6  G: -2926.580110482217606  |grad|_K:  5.328e-06  alpha:  6.432e-02  linmin: -2.755e-06  t[s]:    338.59
	Linear fluid (dielectric constant: 78.4, screening length: 5.74355 Bohr) occupying 0.737494 of unit cell:	Completed after 14 iterations at t[s]:    351.02
	Linear fluid (dielectric constant: 78.4, screening length: 5.74355 Bohr) occupying 0.737492 of unit cell:	Completed after 11 iterations at t[s]:    367.41
	FillingsUpdate:  mu: -0.244750400  nElectrons: 454.781913
	SubspaceRotationAdjust: set factor to 0.475
ElecMinimize: Iter:   7  G: -2926.580255334914455  |grad|_K:  4.645e-06  alpha:  4.291e-02  linmin:  1.014e-06  t[s]:    382.83
	Linear fluid (dielectric constant: 78.4, screening length: 5.74355 Bohr) occupying 0.737501 of unit cell:	Completed after 13 iterations at t[s]:    393.38
	Linear fluid (dielectric constant: 78.4, screening length: 5.74355 Bohr) occupying 0.737500 of unit cell:	Completed after 3 iterations at t[s]:    407.82
	FillingsUpdate:  mu: -0.244750400  nElectrons: 454.754598
	SubspaceRotationAdjust: set factor to 0.486
ElecMinimize: Iter:   8  G: -2926.580359311163647  |grad|_K:  4.142e-06  alpha:  4.075e-02  linmin:  7.605e-06  t[s]:    421.45
	Linear fluid (dielectric constant: 78.4, screening length: 5.74355 Bohr) occupying 0.737547 of unit cell:	Completed after 13 iterations at t[s]:    431.77
	Linear fluid (dielectric constant: 78.4, screening length: 5.74355 Bohr) occupying 0.737539 of unit cell:	Completed after 4 iterations at t[s]:    446.35
	FillingsUpdate:  mu: -0.244750400  nElectrons: 454.752794
	SubspaceRotationAdjust: set factor to 0.538
ElecMinimize: Iter:   9  G: -2926.580428576687154  |grad|_K:  3.215e-06  alpha:  3.431e-02  linmin:  2.282e-06  t[s]:    462.48
	Linear fluid (dielectric constant: 78.4, screening length: 5.74355 Bohr) occupying 0.737572 of unit cell:	Completed after 11 iterations at t[s]:    472.07
	Linear fluid (dielectric constant: 78.4, screening length: 5.74355 Bohr) occupying 0.737579 of unit cell:	Completed after 4 iterations at t[s]:    486.10
	FillingsUpdate:  mu: -0.244750400  nElectrons: 454.755046
	SubspaceRotationAdjust: set factor to 0.445
ElecMinimize: Iter:  10  G: -2926.580479269347506  |grad|_K:  3.028e-06  alpha:  4.150e-02  linmin: -4.544e-06  t[s]:    500.63
	Linear fluid (dielectric constant: 78.4, screening length: 5.74355 Bohr) occupying 0.737597 of unit cell:	Completed after 14 iterations at t[s]:    511.04
	Linear fluid (dielectric constant: 78.4, screening length: 5.74355 Bohr) occupying 0.737593 of unit cell:	Completed after 8 iterations at t[s]:    526.91
	FillingsUpdate:  mu: -0.244750400  nElectrons: 454.743158
	SubspaceRotationAdjust: set factor to 0.618
ElecMinimize: Iter:  11  G: -2926.580514703557583  |grad|_K:  1.898e-06  alpha:  3.244e-02  linmin:  2.045e-05  t[s]:    541.87
	Linear fluid (dielectric constant: 78.4, screening length: 5.74355 Bohr) occupying 0.737597 of unit cell:	Completed after 13 iterations at t[s]:    552.57
	Linear fluid (dielectric constant: 78.4, screening length: 5.74355 Bohr) occupying 0.737598 of unit cell:	Completed after 7 iterations at t[s]:    566.72
	FillingsUpdate:  mu: -0.244750400  nElectrons: 454.731126
	SubspaceRotationAdjust: set factor to 0.435
ElecMinimize: Iter:  12  G: -2926.580531301465271  |grad|_K:  2.140e-06  alpha:  3.940e-02  linmin:  2.605e-05  t[s]:    581.49
	Linear fluid (dielectric constant: 78.4, screening length: 5.74355 Bohr) occupying 0.737626 of unit cell:	Completed after 8 iterations at t[s]:    597.03
	Linear fluid (dielectric constant: 78.4, screening length: 5.74355 Bohr) occupying 0.737650 of unit cell:	Completed after 8 iterations at t[s]:    614.31
	FillingsUpdate:  mu: -0.244750400  nElectrons: 454.721642
	SubspaceRotationAdjust: set factor to 0.292
ElecMinimize: Iter:  13  G: -2926.580570459976116  |grad|_K:  2.530e-06  alpha:  7.271e-02  linmin: -9.312e-06  t[s]:    633.38
	Linear fluid (dielectric constant: 78.4, screening length: 5.74355 Bohr) occupying 0.737759 of unit cell:	Completed after 14 iterations at t[s]:    646.77
	Linear fluid (dielectric constant: 78.4, screening length: 5.74355 Bohr) occupying 0.737719 of unit cell:	Completed after 12 iterations at t[s]:    667.43
	FillingsUpdate:  mu: -0.244750400  nElectrons: 454.728178
	SubspaceRotationAdjust: set factor to 0.367
ElecMinimize: Iter:  14  G: -2926.580605773069692  |grad|_K:  1.691e-06  alpha:  4.625e-02  linmin:  4.649e-06  t[s]:    684.69
	Linear fluid (dielectric constant: 78.4, screening length: 5.74355 Bohr) occupying 0.737750 of unit cell:	Completed after 10 iterations at t[s]:    698.55
	Linear fluid (dielectric constant: 78.4, screening length: 5.74355 Bohr) occupying 0.737755 of unit cell:	Completed after 3 iterations at t[s]:    715.57
	FillingsUpdate:  mu: -0.244750400  nElectrons: 454.729282
	SubspaceRotationAdjust: set factor to 0.282
ElecMinimize: Iter:  15  G: -2926.580624400062788  |grad|_K:  1.361e-06  alpha:  5.520e-02  linmin: -1.392e-05  t[s]:    732.08
	Linear fluid (dielectric constant: 78.4, screening length: 5.74355 Bohr) occupying 0.737773 of unit cell:	Completed after 10 iterations at t[s]:    748.24
	Linear fluid (dielectric constant: 78.4, screening length: 5.74355 Bohr) occupying 0.737773 of unit cell:	Completed after 0 iterations at t[s]:    764.55
	FillingsUpdate:  mu: -0.244750400  nElectrons: 454.723699
	SubspaceRotationAdjust: set factor to 0.358
ElecMinimize: Iter:  16  G: -2926.580636734636755  |grad|_K:  1.169e-06  alpha:  5.602e-02  linmin: -6.511e-06  t[s]:    781.96
	Linear fluid (dielectric constant: 78.4, screening length: 5.74355 Bohr) occupying 0.737791 of unit cell:	Completed after 10 iterations at t[s]:    799.08
	Linear fluid (dielectric constant: 78.4, screening length: 5.74355 Bohr) occupying 0.737796 of unit cell:	Completed after 3 iterations at t[s]:    816.59
	FillingsUpdate:  mu: -0.244750400  nElectrons: 454.721036
	SubspaceRotationAdjust: set factor to 0.282
ElecMinimize: Iter:  17  G: -2926.580648657161873  |grad|_K:  1.075e-06  alpha:  7.347e-02  linmin: -1.761e-05  t[s]:    833.41
	Linear fluid (dielectric constant: 78.4, screening length: 5.74355 Bohr) occupying 0.737831 of unit cell:	Completed after 11 iterations at t[s]:    850.78
	Linear fluid (dielectric constant: 78.4, screening length: 5.74355 Bohr) occupying 0.737816 of unit cell:	Completed after 9 iterations at t[s]:    867.72
	FillingsUpdate:  mu: -0.244750400  nElectrons: 454.725621
	SubspaceRotationAdjust: set factor to 0.433
ElecMinimize: Iter:  18  G: -2926.580654575492190  |grad|_K:  6.564e-07  alpha:  4.204e-02  linmin:  1.178e-05  t[s]:    884.48
	Linear fluid (dielectric constant: 78.4, screening length: 5.74355 Bohr) occupying 0.737824 of unit cell:	Completed after 8 iterations at t[s]:    900.84
	Linear fluid (dielectric constant: 78.4, screening length: 5.74355 Bohr) occupying 0.737833 of unit cell:	Completed after 8 iterations at t[s]:    917.35
	FillingsUpdate:  mu: -0.244750400  nElectrons: 454.729972
	SubspaceRotationAdjust: set factor to 0.424
ElecMinimize: Iter:  19  G: -2926.580658652183956  |grad|_K:  8.429e-07  alpha:  8.159e-02  linmin:  2.085e-05  t[s]:    932.22
	Linear fluid (dielectric constant: 78.4, screening length: 5.74355 Bohr) occupying 0.737848 of unit cell:	Completed after 8 iterations at t[s]:    946.35
	Linear fluid (dielectric constant: 78.4, screening length: 5.74355 Bohr) occupying 0.737844 of unit cell:	Completed after 3 iterations at t[s]:    962.52
	FillingsUpdate:  mu: -0.244750400  nElectrons: 454.727427
	SubspaceRotationAdjust: set factor to 0.599
ElecMinimize: Iter:  20  G: -2926.580663721891597  |grad|_K:  6.051e-07  alpha:  6.141e-02  linmin:  1.281e-05  t[s]:    978.87
	Linear fluid (dielectric constant: 78.4, screening length: 5.74355 Bohr) occupying 0.737847 of unit cell:	Completed after 9 iterations at t[s]:    993.57
	Linear fluid (dielectric constant: 78.4, screening length: 5.74355 Bohr) occupying 0.737847 of unit cell:	Completed after 3 iterations at t[s]:   1011.89
	FillingsUpdate:  mu: -0.244750400  nElectrons: 454.724424
	SubspaceRotationAdjust: set factor to 0.576
ElecMinimize: Iter:  21  G: -2926.580665797936490  |grad|_K:  5.693e-07  alpha:  4.864e-02  linmin:  8.673e-06  t[s]:   1026.97
	Linear fluid (dielectric constant: 78.4, screening length: 5.74355 Bohr) occupying 0.737855 of unit cell:	Completed after 8 iterations at t[s]:   1041.47
	Linear fluid (dielectric constant: 78.4, screening length: 5.74355 Bohr) occupying 0.737855 of unit cell:	Completed after 0 iterations at t[s]:   1057.19
	FillingsUpdate:  mu: -0.244750400  nElectrons: 454.726249
	SubspaceRotationAdjust: set factor to 0.529
ElecMinimize: Iter:  22  G: -2926.580667680988881  |grad|_K:  4.649e-07  alpha:  4.963e-02  linmin: -1.226e-05  t[s]:   1072.06
	Linear fluid (dielectric constant: 78.4, screening length: 5.74355 Bohr) occupying 0.737860 of unit cell:	Completed after 3 iterations at t[s]:   1084.74
	Linear fluid (dielectric constant: 78.4, screening length: 5.74355 Bohr) occupying 0.737862 of unit cell:	Completed after 3 iterations at t[s]:   1101.28
	FillingsUpdate:  mu: -0.244750400  nElectrons: 454.727356
	SubspaceRotationAdjust: set factor to 0.571
ElecMinimize: Iter:  23  G: -2926.580669347963976  |grad|_K:  3.910e-07  alpha:  6.469e-02  linmin:  1.543e-05  t[s]:   1117.12
	Linear fluid (dielectric constant: 78.4, screening length: 5.74355 Bohr) occupying 0.737862 of unit cell:	Completed after 7 iterations at t[s]:   1130.27
	Linear fluid (dielectric constant: 78.4, screening length: 5.74355 Bohr) occupying 0.737862 of unit cell:	Completed after 0 iterations at t[s]:   1144.98
	FillingsUpdate:  mu: -0.244750400  nElectrons: 454.724912
	SubspaceRotationAdjust: set factor to 0.459
ElecMinimize: Iter:  24  G: -2926.580670345583258  |grad|_K:  3.714e-07  alpha:  5.498e-02  linmin:  4.978e-05  t[s]:   1160.95
	Linear fluid (dielectric constant: 78.4, screening length: 5.74355 Bohr) occupying 0.737865 of unit cell:	Completed after 3 iterations at t[s]:   1173.11
	Linear fluid (dielectric constant: 78.4, screening length: 5.74355 Bohr) occupying 0.737865 of unit cell:	Completed after 0 iterations at t[s]:   1188.49
	FillingsUpdate:  mu: -0.244750400  nElectrons: 454.725208
	SubspaceRotationAdjust: set factor to 0.551
ElecMinimize: Iter:  25  G: -2926.580671130826886  |grad|_K:  2.365e-07  alpha:  5.675e-02  linmin: -1.522e-05  t[s]:   1205.10
	Linear fluid (dielectric constant: 78.4, screening length: 5.74355 Bohr) occupying 0.737867 of unit cell:	Completed after 3 iterations at t[s]:   1217.56
	Linear fluid (dielectric constant: 78.4, screening length: 5.74355 Bohr) occupying 0.737867 of unit cell:	Completed after 0 iterations at t[s]:   1232.94
	FillingsUpdate:  mu: -0.244750400  nElectrons: 454.726235
	SubspaceRotationAdjust: set factor to 0.566
ElecMinimize: Iter:  26  G: -2926.580671643941514  |grad|_K:  2.073e-07  alpha:  7.123e-02  linmin: -5.060e-05  t[s]:   1249.10
	Linear fluid (dielectric constant: 78.4, screening length: 5.74355 Bohr) occupying 0.737868 of unit cell:	Completed after 3 iterations at t[s]:   1263.28
	Linear fluid (dielectric constant: 78.4, screening length: 5.74355 Bohr) occupying 0.737868 of unit cell:	Completed after 0 iterations at t[s]:   1278.14
	FillingsUpdate:  mu: -0.244750400  nElectrons: 454.726258
	SubspaceRotationAdjust: set factor to 0.782
ElecMinimize: Iter:  27  G: -2926.580672104090809  |grad|_K:  1.598e-07  alpha:  7.782e-02  linmin: -1.311e-05  t[s]:   1294.72
	Linear fluid (dielectric constant: 78.4, screening length: 5.74355 Bohr) occupying 0.737868 of unit cell:	Completed after 2 iterations at t[s]:   1308.59
	Linear fluid (dielectric constant: 78.4, screening length: 5.74355 Bohr) occupying 0.737868 of unit cell:	Completed after 3 iterations at t[s]:   1325.69
	FillingsUpdate:  mu: -0.244750400  nElectrons: 454.726046
	SubspaceRotationAdjust: set factor to 0.689
ElecMinimize: Iter:  28  G: -2926.580672243912886  |grad|_K:  1.633e-07  alpha:  5.082e-02  linmin:  1.685e-06  t[s]:   1341.88
	Linear fluid (dielectric constant: 78.4, screening length: 5.74355 Bohr) occupying 0.737869 of unit cell:	Completed after 2 iterations at t[s]:   1354.99
	Linear fluid (dielectric constant: 78.4, screening length: 5.74355 Bohr) occupying 0.737869 of unit cell:	Completed after 0 iterations at t[s]:   1376.73
	FillingsUpdate:  mu: -0.244750400  nElectrons: 454.726498
	SubspaceRotationAdjust: set factor to 0.623
ElecMinimize: Iter:  29  G: -2926.580672444382799  |grad|_K:  1.386e-07  alpha:  6.274e-02  linmin: -1.326e-05  t[s]:   1404.88
	Linear fluid (dielectric constant: 78.4, screening length: 5.74355 Bohr) occupying 0.737869 of unit cell:	Completed after 2 iterations at t[s]:   1427.64
	Linear fluid (dielectric constant: 78.4, screening length: 5.74355 Bohr) occupying 0.737869 of unit cell:	Completed after 0 iterations at t[s]:   1453.02
	FillingsUpdate:  mu: -0.244750400  nElectrons: 454.726673
	SubspaceRotationAdjust: set factor to 0.565
ElecMinimize: Iter:  30  G: -2926.580672566208250  |grad|_K:  1.357e-07  alpha:  4.827e-02  linmin:  1.226e-05  t[s]:   1484.07
	Linear fluid (dielectric constant: 78.4, screening length: 5.74355 Bohr) occupying 0.737868 of unit cell:	Completed after 3 iterations at t[s]:   1506.88
	Linear fluid (dielectric constant: 78.4, screening length: 5.74355 Bohr) occupying 0.737869 of unit cell:	Completed after 0 iterations at t[s]:   1532.50
	FillingsUpdate:  mu: -0.244750400  nElectrons: 454.726026
	SubspaceRotationAdjust: set factor to 0.658
ElecMinimize: Iter:  31  G: -2926.580672645337472  |grad|_K:  9.329e-08  alpha:  4.223e-02  linmin:  1.506e-06  t[s]:   1561.73
	Linear fluid (dielectric constant: 78.4, screening length: 5.74355 Bohr) occupying 0.737868 of unit cell:	Completed after 0 iterations at t[s]:   1582.65
	Linear fluid (dielectric constant: 78.4, screening length: 5.74355 Bohr) occupying 0.737867 of unit cell:	Completed after 2 iterations at t[s]:   1610.75
ElecMinimize: 	Step increased G by 1.030912e-09, reducing alpha to 1.189044e-02.
	Linear fluid (dielectric constant: 78.4, screening length: 5.74355 Bohr) occupying 0.737868 of unit cell:	Completed after 3 iterations at t[s]:   1662.18
	FillingsUpdate:  mu: -0.244750400  nElectrons: 454.725921
	SubspaceRotationAdjust: set factor to 0.735
ElecMinimize: Iter:  32  G: -2926.580672667232648  |grad|_K:  8.567e-08  alpha:  1.189e-02  linmin: -5.515e-05  t[s]:   1691.32
	Linear fluid (dielectric constant: 78.4, screening length: 5.74355 Bohr) occupying 0.737868 of unit cell:	Completed after 0 iterations at t[s]:   1711.75
ElecMinimize: 	Predicted alpha/alphaT>3.000000, increasing alphaT to 3.567132e-02.
	Linear fluid (dielectric constant: 78.4, screening length: 5.74355 Bohr) occupying 0.737868 of unit cell:	Completed after 0 iterations at t[s]:   1737.54
	Linear fluid (dielectric constant: 78.4, screening length: 5.74355 Bohr) occupying 0.737868 of unit cell:	Completed after 2 iterations at t[s]:   1766.19
	FillingsUpdate:  mu: -0.244750400  nElectrons: 454.725981
	SubspaceRotationAdjust: set factor to 0.666
ElecMinimize: Iter:  33  G: -2926.580672706171299  |grad|_K:  1.155e-07  alpha:  7.945e-02  linmin:  4.874e-05  t[s]:   1797.70
ElecMinimize: 	Bad step direction: g.d > 0.
ElecMinimize: 	Undoing step.
	Linear fluid (dielectric constant: 78.4, screening length: 5.74355 Bohr) occupying 0.737868 of unit cell:	Completed after 0 iterations at t[s]:   1818.43
ElecMinimize: 	Step failed: resetting search direction.
	FillingsUpdate:  mu: -0.244750400  nElectrons: 454.725981
	SubspaceRotationAdjust: set factor to 0.93
ElecMinimize: Iter:  34  G: -2926.580672706156747  |grad|_K:  1.134e-07  alpha:  0.000e+00
	Linear fluid (dielectric constant: 78.4, screening length: 5.74355 Bohr) occupying 0.737868 of unit cell:	Completed after 3 iterations at t[s]:   1875.00
	Linear fluid (dielectric constant: 78.4, screening length: 5.74355 Bohr) occupying 0.737868 of unit cell:	Completed after 1 iterations at t[s]:   1905.01
	FillingsUpdate:  mu: -0.244750400  nElectrons: 454.726056
	SubspaceRotationAdjust: set factor to 0.54
ElecMinimize: Iter:  35  G: -2926.580672779284214  |grad|_K:  7.018e-08  alpha:  4.400e-02  linmin:  1.628e-04  t[s]:   1935.65
	Linear fluid (dielectric constant: 78.4, screening length: 5.74355 Bohr) occupying 0.737868 of unit cell:	Completed after 1 iterations at t[s]:   1958.27
	Linear fluid (dielectric constant: 78.4, screening length: 5.74355 Bohr) occupying 0.737868 of unit cell:	Completed after 0 iterations at t[s]:   1987.88
	FillingsUpdate:  mu: -0.244750400  nElectrons: 454.725996
	SubspaceRotationAdjust: set factor to 0.568
ElecMinimize: Iter:  36  G: -2926.580672801684614  |grad|_K:  3.220e-08  alpha:  4.539e-02  linmin: -1.411e-04  t[s]:   2016.56
	Linear fluid (dielectric constant: 78.4, screening length: 5.74355 Bohr) occupying 0.737868 of unit cell:	Completed after 2 iterations at t[s]:   2040.40
	Linear fluid (dielectric constant: 78.4, screening length: 5.74355 Bohr) occupying 0.737868 of unit cell:	Completed after 0 iterations at t[s]:   2066.19
ElecMinimize: 	Step increased G by 4.197318e-09, reducing alpha to 1.749416e-03.
	Linear fluid (dielectric constant: 78.4, screening length: 5.74355 Bohr) occupying 0.737868 of unit cell:	Completed after 0 iterations at t[s]:   2115.52
ElecMinimize: 	Step increased G by 4.134563e-09, reducing alpha to 1.749416e-04.
	Linear fluid (dielectric constant: 78.4, screening length: 5.74355 Bohr) occupying 0.737868 of unit cell:	Completed after 0 iterations at t[s]:   2164.15
ElecMinimize: 	Step increased G by 4.119102e-09, reducing alpha to 1.749416e-05.
ElecMinimize: 	Step failed to reduce G after 3 attempts. Quitting step.
ElecMinimize: 	Undoing step.
	Linear fluid (dielectric constant: 78.4, screening length: 5.74355 Bohr) occupying 0.737868 of unit cell:	Completed after 0 iterations at t[s]:   2215.41
ElecMinimize: 	Step failed: resetting search direction.
	FillingsUpdate:  mu: -0.244750400  nElectrons: 454.725995
	SubspaceRotationAdjust: set factor to 0.437
ElecMinimize: Iter:  37  G: -2926.580672797569605  |grad|_K:  3.993e-08  alpha:  1.749e-05
	Linear fluid (dielectric constant: 78.4, screening length: 5.74355 Bohr) occupying 0.737868 of unit cell:	Completed after 0 iterations at t[s]:   2262.95
	Linear fluid (dielectric constant: 78.4, screening length: 5.74355 Bohr) occupying 0.737868 of unit cell:	Completed after 0 iterations at t[s]:   2290.62
	FillingsUpdate:  mu: -0.244750400  nElectrons: 454.726151
	SubspaceRotationAdjust: set factor to 0.535
ElecMinimize: Iter:  38  G: -2926.580672812194280  |grad|_K:  2.876e-08  alpha:  5.958e-02  linmin: -1.945e-04  t[s]:   2318.68
	Linear fluid (dielectric constant: 78.4, screening length: 5.74355 Bohr) occupying 0.737868 of unit cell:	Completed after 2 iterations at t[s]:   2341.93
	Linear fluid (dielectric constant: 78.4, screening length: 5.74355 Bohr) occupying 0.737868 of unit cell:	Completed after 0 iterations at t[s]:   2370.41
ElecMinimize: 	Step increased G by 1.272474e-08, reducing alpha to 1.154247e-03.
	Linear fluid (dielectric constant: 78.4, screening length: 5.74355 Bohr) occupying 0.737868 of unit cell:	Completed after 0 iterations at t[s]:   2419.98
ElecMinimize: 	Step increased G by 8.114966e-09, reducing alpha to 1.154247e-04.
	Linear fluid (dielectric constant: 78.4, screening length: 5.74355 Bohr) occupying 0.737868 of unit cell:	Completed after 0 iterations at t[s]:   2458.43
ElecMinimize: 	Step increased G by 7.703420e-09, reducing alpha to 1.154247e-05.
ElecMinimize: 	Step failed to reduce G after 3 attempts. Quitting step.
ElecMinimize: 	Undoing step.
	Linear fluid (dielectric constant: 78.4, screening length: 5.74355 Bohr) occupying 0.737868 of unit cell:	Completed after 0 iterations at t[s]:   2487.84
ElecMinimize: 	Step failed: resetting search direction.
	FillingsUpdate:  mu: -0.244750400  nElectrons: 454.726151
	SubspaceRotationAdjust: set factor to 0.371
ElecMinimize: Iter:  39  G: -2926.580672804471305  |grad|_K:  7.642e-08  alpha:  1.154e-05
	Linear fluid (dielectric constant: 78.4, screening length: 5.74355 Bohr) occupying 0.737868 of unit cell:	Completed after 3 iterations at t[s]:   2518.90
	Linear fluid (dielectric constant: 78.4, screening length: 5.74355 Bohr) occupying 0.737868 of unit cell:	Completed after 0 iterations at t[s]:   2534.00
	FillingsUpdate:  mu: -0.244750400  nElectrons: 454.725986
	SubspaceRotationAdjust: set factor to 0.198
ElecMinimize: Iter:  40  G: -2926.580672826482896  |grad|_K:  7.307e-08  alpha:  2.276e-02  linmin:  3.573e-04  t[s]:   2552.19
	Linear fluid (dielectric constant: 78.4, screening length: 5.74355 Bohr) occupying 0.737868 of unit cell:	Completed after 0 iterations at t[s]:   2564.18
ElecMinimize: 	Predicted alpha/alphaT>3.000000, increasing alphaT to 6.828943e-02.
	Linear fluid (dielectric constant: 78.4, screening length: 5.74355 Bohr) occupying 0.737868 of unit cell:	Completed after 0 iterations at t[s]:   2578.20
	Linear fluid (dielectric constant: 78.4, screening length: 5.74355 Bohr) occupying 0.737868 of unit cell:	Completed after 0 iterations at t[s]:   2595.14
	FillingsUpdate:  mu: -0.244750400  nElectrons: 454.725832
	SubspaceRotationAdjust: set factor to 0.177
ElecMinimize: Iter:  41  G: -2926.580672833781136  |grad|_K:  5.533e-08  alpha:  1.574e-01  linmin:  7.810e-07  t[s]:   2611.57
	Linear fluid (dielectric constant: 78.4, screening length: 5.74355 Bohr) occupying 0.737868 of unit cell:	Completed after 2 iterations at t[s]:   2623.84
	Linear fluid (dielectric constant: 78.4, screening length: 5.74355 Bohr) occupying 0.737868 of unit cell:	Completed after 1 iterations at t[s]:   2638.56
ElecMinimize: 	Step increased G by 2.965862e-09, reducing alpha to 4.291103e-03.
	Linear fluid (dielectric constant: 78.4, screening length: 5.74355 Bohr) occupying 0.737868 of unit cell:	Completed after 1 iterations at t[s]:   2668.15
ElecMinimize: 	Step increased G by 6.617483e-09, reducing alpha to 4.291103e-04.
	Linear fluid (dielectric constant: 78.4, screening length: 5.74355 Bohr) occupying 0.737868 of unit cell:	Completed after 0 iterations at t[s]:   2697.44
ElecMinimize: 	Step increased G by 6.243681e-09, reducing alpha to 4.291103e-05.
ElecMinimize: 	Step failed to reduce G after 3 attempts. Quitting step.
ElecMinimize: 	Undoing step.
	Linear fluid (dielectric constant: 78.4, screening length: 5.74355 Bohr) occupying 0.737868 of unit cell:	Completed after 0 iterations at t[s]:   2726.01
ElecMinimize: 	Step failed: resetting search direction.
	FillingsUpdate:  mu: -0.244750400  nElectrons: 454.725833
	SubspaceRotationAdjust: set factor to 0.182
ElecMinimize: Iter:  42  G: -2926.580672827501530  |grad|_K:  2.641e-08  alpha:  4.291e-05
	Linear fluid (dielectric constant: 78.4, screening length: 5.74355 Bohr) occupying 0.737867 of unit cell:	Completed after 2 iterations at t[s]:   2755.83
	Linear fluid (dielectric constant: 78.4, screening length: 5.74355 Bohr) occupying 0.737868 of unit cell:	Completed after 0 iterations at t[s]:   2770.10
ElecMinimize: 	Step increased G by 8.935785e-10, reducing alpha to 4.343841e-03.
	Linear fluid (dielectric constant: 78.4, screening length: 5.74355 Bohr) occupying 0.737868 of unit cell:	Completed after 0 iterations at t[s]:   2798.91
	FillingsUpdate:  mu: -0.244750400  nElectrons: 454.725831
	SubspaceRotationAdjust: set factor to 0.173
ElecMinimize: Iter:  43  G: -2926.580672831801621  |grad|_K:  4.726e-08  alpha:  4.344e-03  linmin:  1.354e-04  t[s]:   2814.58
	Linear fluid (dielectric constant: 78.4, screening length: 5.74355 Bohr) occupying 0.737868 of unit cell:	Completed after 0 iterations at t[s]:   2826.34
ElecMinimize: 	Predicted alpha/alphaT>3.000000, increasing alphaT to 1.303152e-02.
	Linear fluid (dielectric constant: 78.4, screening length: 5.74355 Bohr) occupying 0.737868 of unit cell:	Completed after 0 iterations at t[s]:   2842.72
ElecMinimize: 	Predicted alpha/alphaT>3.000000, increasing alphaT to 3.909456e-02.
	Linear fluid (dielectric constant: 78.4, screening length: 5.74355 Bohr) occupying 0.737868 of unit cell:	Completed after 0 iterations at t[s]:   2857.45
	Linear fluid (dielectric constant: 78.4, screening length: 5.74355 Bohr) occupying 0.737868 of unit cell:	Completed after 0 iterations at t[s]:   2872.93
	FillingsUpdate:  mu: -0.244750400  nElectrons: 454.725905
	SubspaceRotationAdjust: set factor to 0.215
ElecMinimize: Iter:  44  G: -2926.580672835170390  |grad|_K:  5.268e-08  alpha:  4.732e-02  linmin: -1.854e-08  t[s]:   2889.33
ElecMinimize: Converged (|Delta G|<1.000000e-08 for 2 iters).
Setting wave functions to eigenvectors of Hamiltonian

# Ionic positions in lattice coordinates:
ion Li   0.252874865269919   0.140708596682468   0.528863333591276 0
ion Li   0.580458477296119   0.140708596682468   0.528863333591276 0
ion Li   0.916666671283019   0.139211306388169   0.516976475468374 0
ion Li   0.262598545182876   0.854878341977107   0.617294478917347 0
ion Li   0.570734797383162   0.854878341977107   0.617294478917347 0
ion Li   0.916666671283019   0.861758218066342   0.609789969942609 0
ion Li   0.084681964859334   0.148340361678333   0.393130771774267 0
ion Li   0.416666671283019   0.145433411493479   0.394940826891264 0
ion Li   0.748651377706705   0.148340361678333   0.393130771774267 0
ion Li   0.086495101470036   0.862841839505698   0.481953707939717 0
ion Li   0.416666671283019   0.857123267456148   0.482573670185920 0
ion Li   0.746838241096003   0.862841839505698   0.481953707939717 0
ion Cu   0.078866934209571   0.507550241361007   0.563015888738421 0
ion Cu   0.416666671283019   0.481750776029499   0.574708259346987 0
ion Cu   0.754466408356467   0.507550241361007   0.563015888738421 0
ion Cu   0.093055700686950   0.177923184240774   0.657894340456398 0
ion Cu   0.740277641879089   0.177923184240774   0.657894340456398 0
ion Cu   0.250054289720587   0.829904610295176   0.343857720449525 0
ion Cu   0.583279052845451   0.829904610295176   0.343857720449525 0
ion Cu   0.916666671283019   0.830866432434613   0.343401024126565 0
ion Cu   0.254034404201711   0.489283801913519   0.434540304645497 0
ion Cu   0.579298938364328   0.489283801913519   0.434540304645497 0
ion Cu   0.916666671283019   0.495660878973966   0.431886892781266 0
ion F   0.078299903283401   0.329901641249549   0.500057836901320 0
ion F   0.416666671283019   0.323179505346864   0.505949835825192 0
ion F   0.755033439282637   0.329901641249549   0.500057836901320 0
ion F   0.077736944894936   0.996937589682991   0.553648690728291 0
ion F   0.416666671283019   0.975728290983484   0.555566714098041 0
ion F   0.755596397671103   0.996937589682991   0.553648690728291 0
ion F   0.083804974360367   0.694172584419588   0.617122117714993 0
ion F   0.416666671283019   0.674052103503324   0.626490667227479 0
ion F   0.749528368205672   0.694172584419588   0.617122117714993 0
ion F   0.229188288700762   0.319929693261746   0.606106179551260 0
ion F   0.604145053865276   0.319929693261746   0.606106179551260 0
ion F   0.916666671283019   0.335689699593036   0.633981583141576 0
ion F   0.247128682935068   0.016717462703983   0.678193921370490 0
ion F   0.586204659630970   0.016717462703983   0.678193921370490 0
ion F   0.916666671283019   0.019178065610755   0.680791582677626 0
ion F   0.083817968112030  -0.004082105392713   0.320987778639120 0
ion F   0.416666671283019  -0.003838392118187   0.321622548699321 0
ion F   0.749515374454008  -0.004082105392713   0.320987778639120 0
ion F   0.082768522634972   0.668790173265923   0.374722768761765 0
ion F   0.416666671283019   0.669219628602779   0.374942163458139 0
ion F   0.750564819931066   0.668790173265923   0.374722768761765 0
ion F   0.251390072669442   0.309668183267120   0.378267802124228 0
ion F   0.581943269896597   0.309668183267120   0.378267802124228 0
ion F   0.916666671283019   0.308830436907728   0.377695567502333 0
ion F   0.250287240427057   0.006949104485771   0.443605323889905 0
ion F   0.583046102138981   0.006949104485771   0.443605323889905 0
ion F   0.916666671283019   0.003174794585054   0.441614629358875 0
ion F   0.249174395143139   0.671382139769483   0.493326493358743 0
ion F   0.584158947422899   0.671382139769483   0.493326493358743 0
ion F   0.916666671283019   0.672904196407902   0.493921414163304 0


# Forces in Lattice coordinates:
force Li  -0.006517410504682   0.008864294374287   0.031653551656385 0
force Li   0.006517410504682   0.008864294374287   0.031653551656385 0
force Li   0.000000000000000   0.009900691278217  -0.017184498114659 0
force Li  -0.017680200399857  -0.015778318816957  -0.010723676319245 0
force Li   0.017680200399857  -0.015778318816957  -0.010723676319245 0
force Li   0.000000000000000  -0.015854803548238   0.004439290527568 0
force Li  -0.001179690126037   0.005498240328255  -0.081929456293254 0
force Li   0.000000000000000   0.002404425563463  -0.072420450623700 0
force Li   0.001179690126037   0.005498240328255  -0.081929456293254 0
force Li   0.002854430915202  -0.011561252662405  -0.034751799786855 0
force Li   0.000000000000000  -0.004263292064445  -0.030538603306623 0
force Li  -0.002854430915202  -0.011561252662405  -0.034751799786855 0
force Cu  -0.019467485279111   0.012236154196069  -0.014964942644909 0
force Cu   0.000000000000000  -0.023376896832445  -0.102980787112500 0
force Cu   0.019467485279111   0.012236154196069  -0.014964942644909 0
force Cu   0.026325293752683   0.027007872836444   0.047948682657683 0
force Cu  -0.026325293752683   0.027007872836444   0.047948682657683 0
force Cu  -0.004482032329526  -0.009294448633235  -0.252700893901702 0
force Cu   0.004482032329526  -0.009294448633235  -0.252700893901702 0
force Cu   0.000000000000000  -0.008771169819410  -0.269605353319408 0
force Cu  -0.000757883832915   0.008570907933559  -0.088666992611128 0
force Cu   0.000757883832915   0.008570907933559  -0.088666992611128 0
force Cu   0.000000000000000  -0.000276049741792  -0.089313736326169 0
force F  -0.010876589371830  -0.005077828081681   0.031438297743938 0
force F   0.000000000000000  -0.000800043679866   0.079004073039265 0
force F   0.010876589371830  -0.005077828081681   0.031438297743938 0
force F  -0.000261939853461   0.006213861537356   0.006147255499288 0
force F   0.000000000000000   0.007585270955559   0.020923643570745 0
force F   0.000261939853461   0.006213861537356   0.006147255499288 0
force F   0.002386792519185   0.030195859438304   0.044114389194547 0
force F   0.000000000000000   0.035813445297718   0.076051536605807 0
force F  -0.002386792519185   0.030195859438304   0.044114389194547 0
force F   0.016497575807017  -0.029348072074397   0.157283240662525 0
force F  -0.016497575807017  -0.029348072074397   0.157283240662525 0
force F   0.000000000000000  -0.072570959132459   0.017702678191194 0
force F  -0.006433800248001  -0.020846405510909  -0.030375098342798 0
force F   0.006433800248001  -0.020846405510909  -0.030375098342798 0
force F   0.000000000000000   0.025471694241170  -0.070235462052937 0
force F   0.006036138384796   0.011861143918567   0.120991058003163 0
force F   0.000000000000000   0.009568740988350   0.128476892632277 0
force F  -0.006036138384796   0.011861143918567   0.120991058003163 0
force F   0.002085503067208   0.003898938795862   0.091169331647838 0
force F   0.000000000000000   0.006680993949988   0.080733648591799 0
force F  -0.002085503067208   0.003898938795862   0.091169331647838 0
force F   0.004724613802309  -0.011640268482927   0.077109818929685 0
force F  -0.004724613802309  -0.011640268482927   0.077109818929685 0
force F   0.000000000000000  -0.012697789465105   0.037005436254510 0
force F   0.000440244426466  -0.002569830596271   0.030712486954128 0
force F  -0.000440244426466  -0.002569830596271   0.030712486954128 0
force F   0.000000000000000   0.006349717476214   0.054722347152904 0
force F  -0.000887162322016   0.004955734923985  -0.008265344060762 0
force F   0.000887162322016   0.004955734923985  -0.008265344060762 0
force F   0.000000000000000   0.011682646362878  -0.060567766272296 0

# Energy components:
   A_diel =       -0.0181592755515661
   Eewald =    25765.6247985245827294
       EH =    28440.2656794395406905
     Eloc =   -57871.3321512307811645
      Enl =      487.7750976132035134
      Exc =     -374.8487929325397090
 Exc_core =        0.5166747544114099
       KE =      514.1967269623089578
  MuShift =        0.0065184491141710
-------------------------------------
     Etot =    -3037.8136076957071054
       TS =        0.0614122285547780
-------------------------------------
        F =    -3037.8750199242617782
      muN =     -111.2943470890913460
-------------------------------------
        G =    -2926.5806728351703896

IonicMinimize: Iter:   0  G: -2926.580672835170390  |grad|_K:  0.000e+00  t[s]:   2901.03
IonicMinimize: Converged (|grad|_K<1.000000e-04).

#--- Lowdin population analysis ---
# oxidation-state Li +0.202 +0.202 +0.192 +0.261 +0.261 +0.224 +0.205 +0.197 +0.205 +0.195 +0.190 +0.195
# oxidation-state Cu +0.562 +0.594 +0.562 +0.705 +0.705 +0.667 +0.667 +0.664 +0.549 +0.549 +0.555
# oxidation-state F -0.236 -0.244 -0.236 -0.314 -0.317 -0.314 -0.266 -0.271 -0.266 -0.215 -0.215 -0.235 -0.296 -0.296 -0.242 -0.232 -0.232 -0.232 -0.219 -0.215 -0.219 -0.265 -0.265 -0.268 -0.311 -0.311 -0.307 -0.242 -0.242 -0.230


Dumping 'NbTe2.fillings' ... done
Dumping 'NbTe2.wfns' ... done
Dumping 'NbTe2.fluidState' ... done
Dumping 'NbTe2.eigenvals' ... done
End date and time: Sat Jul 18 09:53:39 2020  (Duration: 0-0:48:24.80)
Done!
