
*************** JDFTx 1.5.0  ***************

Start date and time: Sat Jul 18 07:09:37 2020
Executable jdftx_gpu with command-line: -i Neutral.in -o Neutral.out
Running on hosts (process indices):  amax (0-5)
Divided in process groups (process indices):  0 (0)  1 (1)  2 (2)  3 (3)  4 (4)  5 (5)
gpuInit: Found compatible cuda device 0 'Tesla K80'
gpuInit: Found compatible cuda device 1 'Tesla K80'
gpuInit: Found compatible cuda device 2 'Tesla K80'
gpuInit: Found compatible cuda device 3 'Tesla K80'
gpuInit: Found compatible cuda device 4 'Tesla K80'
gpuInit: Found compatible cuda device 5 'Tesla K80'
gpuInit: Selected device 0
Resource initialization completed at t[s]:     10.01
Run totals: 6 processes, 24 threads, 6 GPUs


Input parsed successfully to the following command list (including defaults):

basis kpoint-dependent
cache-projectors no
coords-type Lattice
core-overlap-check none
coulomb-interaction Slab 001
coulomb-truncation-embed 0 0 0.5
davidson-band-ratio 1.1
dump End State
dump-name NbTe2.$VAR
elec-cutoff 20 100
elec-eigen-algo Davidson
elec-ex-corr gga-PBE
elec-smearing Gauss 0.0073499
electronic-minimize  \
	dirUpdateScheme      FletcherReeves \
	linminMethod         DirUpdateRecommended \
	nIterations          500 \
	history              15 \
	knormThreshold       0 \
	energyDiffThreshold  1e-08 \
	nEnergyDiff          2 \
	alphaTstart          1 \
	alphaTmin            1e-10 \
	updateTestStepSize   yes \
	alphaTreduceFactor   0.1 \
	alphaTincreaseFactor 3 \
	nAlphaAdjustMax      3 \
	wolfeEnergy          0.0001 \
	wolfeGradient        0.9 \
	fdTest               no
exchange-regularization WignerSeitzTruncated
fluid LinearPCM 298.000000 1.013250
fluid-anion F- 1 MeanFieldLJ \
	epsBulk 1 \
	pMol 0 \
	epsInf 1 \
	Pvap 0 \
	sigmaBulk 0 \
	Rvdw 2.24877 \
	Res 0 \
	tauNuc 343133
fluid-cation Na+ 1 MeanFieldLJ \
	epsBulk 1 \
	pMol 0 \
	epsInf 1 \
	Pvap 0 \
	sigmaBulk 0 \
	Rvdw 2.19208 \
	Res 0 \
	tauNuc 343133
fluid-ex-corr lda-TF lda-PZ
fluid-gummel-loop 10 1.000000e-05
fluid-minimize  \
	dirUpdateScheme      PolakRibiere \
	linminMethod         DirUpdateRecommended \
	nIterations          400 \
	history              15 \
	knormThreshold       1e-11 \
	energyDiffThreshold  0 \
	nEnergyDiff          2 \
	alphaTstart          1 \
	alphaTmin            1e-10 \
	updateTestStepSize   yes \
	alphaTreduceFactor   0.1 \
	alphaTincreaseFactor 3 \
	nAlphaAdjustMax      6 \
	wolfeEnergy          0.0001 \
	wolfeGradient        0.9 \
	fdTest               no
fluid-solvent H2O 55.338 ScalarEOS \
	epsBulk 78.4 \
	pMol 0.92466 \
	epsInf 1.77 \
	Pvap 1.06736e-10 \
	sigmaBulk 4.62e-05 \
	Rvdw 2.61727 \
	Res 1.42 \
	tauNuc 343133 \
	poleEl 15 7 1
forces-output-coords Positions
initial-state NbTe2.$VAR
ion Li   0.252874846486898   0.140708596682468   0.528863333591276 0
ion Li   0.580458458513098   0.140708596682468   0.528863333591276 0
ion Li   0.916666695000004   0.139211306388169   0.516976475468374 0
ion Li   0.262598526399855   0.854878341977107   0.617294478917347 0
ion Li   0.570734778600141   0.854878341977107   0.617294478917347 0
ion Li   0.916666695000004   0.861758218066342   0.609789969942609 0
ion Li   0.084681974076315   0.148340361678333   0.393130771774267 0
ion Li   0.416666667000001   0.145433411493479   0.394940826891264 0
ion Li   0.748651386923686   0.148340361678333   0.393130771774267 0
ion Li   0.086495110687017   0.862841839505698   0.481953707939717 0
ion Li   0.416666667000001   0.857123267456148   0.482573670185920 0
ion Li   0.746838250312984   0.862841839505698   0.481953707939717 0
ion Cu   0.078866943426553   0.507550241361007   0.563015888738421 0
ion Cu   0.416666667000001   0.481750776029499   0.574708259346987 0
ion Cu   0.754466417573449   0.507550241361007   0.563015888738421 0
ion Cu   0.093055709903931   0.177923184240774   0.657894340456398 0
ion Cu   0.740277651096070   0.177923184240774   0.657894340456398 0
ion Cu   0.250054270937567   0.829904610295176   0.343857720449525 0
ion Cu   0.583279034062430   0.829904610295176   0.343857720449525 0
ion Cu   0.916666695000004   0.830866432434613   0.343401024126565 0
ion Cu   0.254034385418690   0.489283801913519   0.434540304645497 0
ion Cu   0.579298919581307   0.489283801913519   0.434540304645497 0
ion Cu   0.916666695000004   0.495660878973966   0.431886892781266 0
ion F   0.078299909000384   0.329901641249549   0.500057836901320 0
ion F   0.416666667000001   0.323179505346864   0.505949835825192 0
ion F   0.755033444999620   0.329901641249549   0.500057836901320 0
ion F   0.077736954111917   0.996937589682991   0.553648690728291 0
ion F   0.416666667000001   0.975728290983484   0.555566714098041 0
ion F   0.755596406888084   0.996937589682991   0.553648690728291 0
ion F   0.083804983577348   0.694172584419588   0.617122117714993 0
ion F   0.416666667000001   0.674052103503324   0.626490667227479 0
ion F   0.749528377422653   0.694172584419588   0.617122117714993 0
ion F   0.229188269917741   0.319929693261746   0.606106179551260 0
ion F   0.604145035082255   0.319929693261746   0.606106179551260 0
ion F   0.916666695000004   0.335689699593036   0.633981583141576 0
ion F   0.247128664152048   0.016717462703983   0.678193921370490 0
ion F   0.586204640847949   0.016717462703983   0.678193921370490 0
ion F   0.916666695000004   0.019178065610755   0.680791582677626 0
ion F   0.083817977329012  -0.004082105392713   0.320987778639120 0
ion F   0.416666667000001  -0.003838392118187   0.321622548699321 0
ion F   0.749515383670990  -0.004082105392713   0.320987778639120 0
ion F   0.082768531851954   0.668790173265923   0.374722768761765 0
ion F   0.416666667000001   0.669219628602779   0.374942163458139 0
ion F   0.750564829148048   0.668790173265923   0.374722768761765 0
ion F   0.251390053886420   0.309668183267120   0.378267802124228 0
ion F   0.581943251113576   0.309668183267120   0.378267802124228 0
ion F   0.916666695000004   0.308830436907728   0.377695567502333 0
ion F   0.250287221644036   0.006949104485771   0.443605323889905 0
ion F   0.583046083355960   0.006949104485771   0.443605323889905 0
ion F   0.916666695000004   0.003174794585054   0.441614629358875 0
ion F   0.249174376360118   0.671382139769483   0.493326493358743 0
ion F   0.584158928639878   0.671382139769483   0.493326493358743 0
ion F   0.916666695000004   0.672904196407902   0.493921414163304 0
ion-species GBRV/$ID_pbe.uspp
ion-width Ecut
ionic-minimize  \
	dirUpdateScheme      L-BFGS \
	linminMethod         DirUpdateRecommended \
	nIterations          0 \
	history              15 \
	knormThreshold       0.0001 \
	energyDiffThreshold  1e-06 \
	nEnergyDiff          2 \
	alphaTstart          1 \
	alphaTmin            1e-10 \
	updateTestStepSize   yes \
	alphaTreduceFactor   0.1 \
	alphaTincreaseFactor 3 \
	nAlphaAdjustMax      3 \
	wolfeEnergy          0.0001 \
	wolfeGradient        0.9 \
	fdTest               no
kpoint   0.000000000000   0.000000000000   0.000000000000  1.00000000000000
kpoint-folding 4 5 1 
latt-move-scale 1 1 1
latt-scale 1 1 1 
lattice Triclinic 15.9263 13.9131 42.8349 90 90 90
lattice-minimize  \
	dirUpdateScheme      L-BFGS \
	linminMethod         DirUpdateRecommended \
	nIterations          0 \
	history              15 \
	knormThreshold       0 \
	energyDiffThreshold  1e-06 \
	nEnergyDiff          2 \
	alphaTstart          1 \
	alphaTmin            1e-10 \
	updateTestStepSize   yes \
	alphaTreduceFactor   0.1 \
	alphaTincreaseFactor 3 \
	nAlphaAdjustMax      3 \
	wolfeEnergy          0.0001 \
	wolfeGradient        0.9 \
	fdTest               no
lcao-params -1 1e-06 0.0073499
pcm-variant CANDLE
spintype no-spin
subspace-rotation-factor 1 yes
symmetries automatic
symmetry-threshold 0.0001



---------- Setting up symmetries ----------

Found 8 point-group symmetries of the bravais lattice
Found 2 space-group symmetries with basis
Applied RMS atom displacement 2.4928e-07 bohrs to make symmetries exact.

---------- Initializing the Grid ----------
R = 
[    15.9263          0          0  ]
[          0    13.9131          0  ]
[          0          0    42.8349  ]
unit cell volume = 9491.57
G =
[   0.394515          0          0  ]
[          0   0.451602          0  ]
[          0          0   0.146684  ]
Minimum fftbox size, Smin = [  72  64  196  ]
Chosen fftbox size, S = [  72  64  196  ]

---------- Initializing tighter grid for wavefunction operations ----------
R = 
[    15.9263          0          0  ]
[          0    13.9131          0  ]
[          0          0    42.8349  ]
unit cell volume = 9491.57
G =
[   0.394515          0          0  ]
[          0   0.451602          0  ]
[          0          0   0.146684  ]
Minimum fftbox size, Smin = [  68  60  176  ]
Chosen fftbox size, S = [  70  60  180  ]

---------- Exchange Correlation functional ----------
Initalized PBE GGA exchange.
Initalized PBE GGA correlation.

---------- Setting up pseudopotentials ----------
Width of ionic core gaussian charges (only for fluid interactions / plotting) set to 0.397384

Reading pseudopotential file '/home/guoxy/vasp/jdftx-1.5.0/build/pseudopotentials/GBRV/li_pbe.uspp':
  Title: Li.  Created by USPP 7.3.6 on 8-4-15
  Reference state energy: -7.100502.  3 valence electrons in orbitals:
    |100>  occupation: 2  eigenvalue: -2.033252
    |200>  occupation: 0.55  eigenvalue: -0.187138
    |210>  occupation: 0  eigenvalue: -0.114272
  lMax: 1  lLocal: 2  QijEcut: 6
  5 projectors sampled on a log grid with 541 points:
    l: 0  eig: -2.033252  rCut: 1.3
    l: 0  eig: -0.187138  rCut: 1.3
    l: 0  eig: 1.000000  rCut: 1.3
    l: 1  eig: -0.114273  rCut: 2.001
    l: 1  eig: 1.000000  rCut: 2.001
  Transforming local potential to a uniform radial grid of dG=0.02 with 1248 points.
  Transforming nonlocal projectors to a uniform radial grid of dG=0.02 with 432 points.
  Transforming density augmentations to a uniform radial grid of dG=0.02 with 1248 points.
  Transforming atomic orbitals to a uniform radial grid of dG=0.02 with 432 points.
  Core radius for overlap checks: 2.00 bohrs.

Reading pseudopotential file '/home/guoxy/vasp/jdftx-1.5.0/build/pseudopotentials/GBRV/cu_pbe.uspp':
  Title: Cu.  Created by USPP 7.3.6 on 3-2-2014
  Reference state energy: -201.059491.  19 valence electrons in orbitals:
    |300>  occupation: 2  eigenvalue: -5.020764
    |310>  occupation: 6  eigenvalue: -3.445588
    |320>  occupation: 8  eigenvalue: -0.925168
    |400>  occupation: 2  eigenvalue: -0.567638
    |410>  occupation: 0  eigenvalue: -0.326154
  lMax: 2  lLocal: 3  QijEcut: 6
  6 projectors sampled on a log grid with 613 points:
    l: 0  eig: -5.020767  rCut: 1.4
    l: 0  eig: -0.567640  rCut: 1.4
    l: 1  eig: -3.445589  rCut: 1.55
    l: 1  eig: -0.326157  rCut: 1.55
    l: 2  eig: -0.925170  rCut: 1.5
    l: 2  eig: 1.500000  rCut: 1.5
  Partial core density with radius 0.8
  Transforming core density to a uniform radial grid of dG=0.02 with 1248 points.
  Transforming local potential to a uniform radial grid of dG=0.02 with 1248 points.
  Transforming nonlocal projectors to a uniform radial grid of dG=0.02 with 432 points.
  Transforming density augmentations to a uniform radial grid of dG=0.02 with 1248 points.
  Transforming atomic orbitals to a uniform radial grid of dG=0.02 with 432 points.
  Core radius for overlap checks: 1.55 bohrs.

Reading pseudopotential file '/home/guoxy/vasp/jdftx-1.5.0/build/pseudopotentials/GBRV/f_pbe.uspp':
  Title: F.  Created by USPP 7.3.6 on 1-4-15
  Reference state energy: -24.162774.  7 valence electrons in orbitals:
    |200>  occupation: 2  eigenvalue: -1.098757
    |210>  occupation: 5  eigenvalue: -0.408350
  lMax: 1  lLocal: 2  QijEcut: 6.5
  4 projectors sampled on a log grid with 525 points:
    l: 0  eig: -1.098755  rCut: 1.3
    l: 0  eig: 0.000000  rCut: 1.3
    l: 1  eig: -0.408349  rCut: 1.4
    l: 1  eig: 0.000000  rCut: 1.4
  Transforming local potential to a uniform radial grid of dG=0.02 with 1248 points.
  Transforming nonlocal projectors to a uniform radial grid of dG=0.02 with 432 points.
  Transforming density augmentations to a uniform radial grid of dG=0.02 with 1248 points.
  Transforming atomic orbitals to a uniform radial grid of dG=0.02 with 432 points.
  Core radius for overlap checks: 1.40 bohrs.

Initialized 3 species with 53 total atoms.

Folded 1 k-points by 4x5x1 to 20 k-points.

---------- Setting up k-points, bands, fillings ----------
Adding inversion symmetry to k-mesh for non-inversion-symmetric unit cell.
Reduced to 9 k-points under symmetry. 
Computing the number of bands and number of electrons
Calculating initial fillings.
nElectrons: 455.000000   nBands: 323   nStates: 9

----- Setting up reduced wavefunction bases (one per k-point) -----
average nbasis = 40539.150 , ideal nbasis = 40548.720

---------- Setting up coulomb interaction ----------
Fluid mode embedding: using embedded box, but periodic Coulomb kernel.
(Fluid response is responsible for (approximate) separation between periodic images.)
Setting up double-sized grid for truncated Coulomb potentials:
R = 
[    15.9263          0          0  ]
[          0    13.9131          0  ]
[          0          0    85.6698  ]
unit cell volume = 18983.1
G =
[   0.394515          0          0  ]
[          0   0.451602          0  ]
[          0          0  0.0733419  ]
Chosen fftbox size, S = [  72  64  392  ]
Integer grid location selected as the embedding center:
   Grid: [  0  0  98  ]
   Lattice: [  0  0  0.5  ]
   Cartesian: [  0  0  21.4175  ]
Constructing Wigner-Seitz cell: 6 faces (6 quadrilaterals, 0 hexagons)
Range-separation parameter for embedded mesh potentials due to point charges: 0.593338 bohrs.

Initializing van der Waals corrections
	NOTE: vdW corrections apply only for interactions with fluid.
	Li:  C6:   27.93 Eh-a0^6  R0: 1.559 a0
	Cu:  C6:  187.33 Eh-a0^6  R0: 2.952 a0
	 F:  C6:   13.01 Eh-a0^6  R0: 2.432 a0

---------- Setting up ewald sum ----------
Optimum gaussian width for ewald sums = 5.491026 bohr.
Real space sum over 605 unit cells with max indices [  5  5  2  ]
Reciprocal space sum over 7293 terms with max indices [  6  5  25  ]

---------- Allocating electronic variables ----------
Initializing wave functions:  linear combination of atomic orbitals
Li pseudo-atom occupations:   s ( 2 1 )  p ( 0 )
Cu pseudo-atom occupations:   s ( 2 1 )  p ( 6 0 )  d ( 10 )
F pseudo-atom occupations:   s ( 2 )  p ( 5 )
	FillingsUpdate:  mu: +0.914856466  nElectrons: 455.000000
LCAOMinimize: Iter:   0  F: -2587.5500348514933648  |grad|_K:  5.351e-02  alpha:  1.000e+00
LCAOMinimize: 	Step increased F by 4.687398e+01, reducing alpha to 4.637374e-02.
	FillingsUpdate:  mu: +0.311257605  nElectrons: 455.000000
LCAOMinimize: Iter:   1  F: -2752.7764003209604198  |grad|_K:  7.292e-02  alpha:  4.637e-02  linmin: -2.249e-01  cgtest:  3.019e-01  t[s]:     88.89
	FillingsUpdate:  mu: +0.236989543  nElectrons: 455.000000
LCAOMinimize: Iter:   2  F: -3008.2676244785288873  |grad|_K:  3.343e-02  alpha:  3.088e-02  linmin:  1.053e-01  cgtest: -5.329e-01  t[s]:    113.56
LCAOMinimize: 	Bad step direction: g.d > 0.
LCAOMinimize: 	Undoing step.
LCAOMinimize: 	Step failed: resetting search direction.
	FillingsUpdate:  mu: +0.236989543  nElectrons: 455.000000
LCAOMinimize: Iter:   3  F: -3008.2676244785288873  |grad|_K:  3.343e-02  alpha:  0.000e+00
	FillingsUpdate:  mu: +0.489297805  nElectrons: 455.000000
LCAOMinimize: Iter:   4  F: -3024.9132455507383384  |grad|_K:  2.643e-02  alpha:  3.697e-02  linmin:  7.083e-02  cgtest: -2.174e-01  t[s]:    158.11
	FillingsUpdate:  mu: +0.144754690  nElectrons: 455.000000
LCAOMinimize: Iter:   5  F: -3029.0639090412582846  |grad|_K:  2.548e-02  alpha:  6.841e-02  linmin:  1.365e-02  cgtest: -5.889e-01  t[s]:    186.52
	FillingsUpdate:  mu: -0.056498781  nElectrons: 455.000000
LCAOMinimize: Iter:   6  F: -3030.7519789463358393  |grad|_K:  1.516e-02  alpha:  1.744e-02  linmin:  1.161e-02  cgtest: -5.058e-03  t[s]:    213.01
	FillingsUpdate:  mu: -0.020118590  nElectrons: 455.000000
LCAOMinimize: Iter:   7  F: -3032.0628479107876956  |grad|_K:  1.038e-02  alpha:  1.593e-02  linmin: -1.092e-02  cgtest:  5.549e-01  t[s]:    240.43
LCAOMinimize: 	Wrong curvature in test step, increasing alphaT to 4.778862e-02.
	FillingsUpdate:  mu: -0.001552032  nElectrons: 455.000000
LCAOMinimize: Iter:   8  F: -3033.7843271589854339  |grad|_K:  8.849e-03  alpha: -2.511e-01  linmin: -1.291e-01  cgtest:  4.657e-01  t[s]:    266.31
LCAOMinimize: 	Step increased F by 2.774616e+01, reducing alpha to 7.617260e-03.
	FillingsUpdate:  mu: -0.010949393  nElectrons: 455.000000
LCAOMinimize: Iter:   9  F: -3034.5409714653169431  |grad|_K:  4.693e-03  alpha:  7.617e-03  linmin: -1.763e-01  cgtest:  6.492e-01  t[s]:    310.55
LCAOMinimize: Encountered beta<0, resetting CG.
LCAOMinimize: 	Predicted alpha/alphaT>3.000000, increasing alphaT to 2.285178e-02.
	FillingsUpdate:  mu: +0.055244605  nElectrons: 455.000000
LCAOMinimize: Iter:  10  F: -3034.7760495721104235  |grad|_K:  4.981e-03  alpha:  3.130e-02  linmin:  1.023e-01  cgtest: -3.803e-01  t[s]:    344.98
LCAOMinimize: 	Bad step direction: g.d > 0.
LCAOMinimize: 	Undoing step.
LCAOMinimize: 	Step failed: resetting search direction.
	FillingsUpdate:  mu: +0.055244605  nElectrons: 455.000000
LCAOMinimize: Iter:  11  F: -3034.7760495721104235  |grad|_K:  4.981e-03  alpha:  0.000e+00
	FillingsUpdate:  mu: -0.033033618  nElectrons: 455.000000
LCAOMinimize: Iter:  12  F: -3034.9207327937465379  |grad|_K:  1.763e-03  alpha:  1.259e-02  linmin:  1.608e-02  cgtest: -6.660e-02  t[s]:    420.51
LCAOMinimize: 	Predicted alpha/alphaT>3.000000, increasing alphaT to 3.775673e-02.
	FillingsUpdate:  mu: +0.010113910  nElectrons: 455.000000
LCAOMinimize: Iter:  13  F: -3035.0472372421431828  |grad|_K:  3.072e-03  alpha:  9.790e-02  linmin:  8.947e-03  cgtest:  1.524e-02  t[s]:    508.74
	FillingsUpdate:  mu: +0.033077814  nElectrons: 455.000000
LCAOMinimize: Iter:  14  F: -3035.2558124617603426  |grad|_K:  1.314e-03  alpha:  5.322e-02  linmin: -3.940e-03  cgtest:  7.174e-01  t[s]:    534.73
LCAOMinimize: Encountered beta<0, resetting CG.
	FillingsUpdate:  mu: +0.013568245  nElectrons: 455.000000
LCAOMinimize: Iter:  15  F: -3035.2783711211159243  |grad|_K:  7.311e-04  alpha:  2.864e-02  linmin:  4.563e-03  cgtest: -4.108e-02  t[s]:    564.16
	FillingsUpdate:  mu: +0.023007343  nElectrons: 455.000000
LCAOMinimize: Iter:  16  F: -3035.2900036501355316  |grad|_K:  1.157e-03  alpha:  4.785e-02  linmin:  1.963e-03  cgtest: -2.048e-02  t[s]:    587.99
	FillingsUpdate:  mu: -0.043627733  nElectrons: 455.000000
LCAOMinimize: Iter:  17  F: -3035.3222930109263871  |grad|_K:  5.384e-04  alpha:  5.404e-02  linmin:  3.267e-03  cgtest:  5.738e-01  t[s]:    615.47
LCAOMinimize: Encountered beta<0, resetting CG.
	FillingsUpdate:  mu: -0.043356202  nElectrons: 455.000000
LCAOMinimize: Iter:  18  F: -3035.3247408164397712  |grad|_K:  3.209e-04  alpha:  1.921e-02  linmin:  1.806e-02  cgtest: -9.279e-02  t[s]:    641.07
	FillingsUpdate:  mu: -0.039420861  nElectrons: 455.000000
LCAOMinimize: Iter:  19  F: -3035.3261031123170142  |grad|_K:  2.999e-04  alpha:  2.977e-02  linmin:  4.842e-04  cgtest:  7.186e-02  t[s]:    668.02
LCAOMinimize: 	Predicted alpha/alphaT>3.000000, increasing alphaT to 8.930942e-02.
	FillingsUpdate:  mu: -0.033304530  nElectrons: 455.000000
LCAOMinimize: Iter:  20  F: -3035.3301271715558869  |grad|_K:  2.930e-04  alpha:  9.506e-02  linmin: -1.216e-04  cgtest: -1.178e-01  t[s]:    702.37
	FillingsUpdate:  mu: -0.031358273  nElectrons: 455.000000
LCAOMinimize: Iter:  21  F: -3035.3311347255826149  |grad|_K:  1.822e-04  alpha:  2.595e-02  linmin:  3.332e-03  cgtest: -7.477e-02  t[s]:    728.29
	FillingsUpdate:  mu: -0.030553854  nElectrons: 455.000000
LCAOMinimize: Iter:  22  F: -3035.3314032731323096  |grad|_K:  1.080e-04  alpha:  1.782e-02  linmin:  1.614e-05  cgtest:  8.910e-02  t[s]:    754.75
LCAOMinimize: 	Predicted alpha/alphaT>3.000000, increasing alphaT to 5.346374e-02.
	FillingsUpdate:  mu: -0.033298648  nElectrons: 455.000000
LCAOMinimize: Iter:  23  F: -3035.3319308315567469  |grad|_K:  1.718e-04  alpha:  9.678e-02  linmin:  7.712e-04  cgtest: -3.904e-02  t[s]:    789.35
	FillingsUpdate:  mu: -0.035358735  nElectrons: 455.000000
LCAOMinimize: Iter:  24  F: -3035.3323654992886986  |grad|_K:  1.687e-04  alpha:  3.164e-02  linmin: -1.513e-04  cgtest:  4.484e-02  t[s]:    812.56
	FillingsUpdate:  mu: -0.037137333  nElectrons: 455.000000
LCAOMinimize: Iter:  25  F: -3035.3326649382420328  |grad|_K:  3.537e-05  alpha:  2.206e-02  linmin:  9.553e-05  cgtest: -8.556e-02  t[s]:    841.28
	FillingsUpdate:  mu: -0.037664068  nElectrons: 455.000000
LCAOMinimize: Iter:  26  F: -3035.3326826850511679  |grad|_K:  3.120e-05  alpha:  3.006e-02  linmin:  4.200e-05  cgtest:  5.051e-03  t[s]:    868.92
	FillingsUpdate:  mu: -0.037956638  nElectrons: 455.000000
LCAOMinimize: Iter:  27  F: -3035.3326968303267677  |grad|_K:  3.572e-05  alpha:  3.077e-02  linmin:  1.578e-05  cgtest:  1.080e-03  t[s]:    894.06
	FillingsUpdate:  mu: -0.038050252  nElectrons: 455.000000
LCAOMinimize: Iter:  28  F: -3035.3327464050485105  |grad|_K:  3.259e-05  alpha:  8.266e-02  linmin:  3.616e-04  cgtest: -2.330e-02  t[s]:    922.67
	FillingsUpdate:  mu: -0.038330203  nElectrons: 455.000000
LCAOMinimize: Iter:  29  F: -3035.3327581705539160  |grad|_K:  2.321e-05  alpha:  2.350e-02  linmin: -2.680e-04  cgtest:  2.722e-02  t[s]:    946.69
	FillingsUpdate:  mu: -0.038431157  nElectrons: 455.000000
LCAOMinimize: Iter:  30  F: -3035.3327630466465052  |grad|_K:  1.156e-05  alpha:  1.907e-02  linmin: -9.583e-06  cgtest: -1.972e-02  t[s]:    971.77
LCAOMinimize: None of the convergence criteria satisfied after 30 iterations.
----- createFluidSolver() ----- (Fluid-side solver setup)
   Initializing fluid molecule 'H2O'
     Initializing site 'O'
       Electron density: proportional to exp(-r/0.36935)*erfc((r-0.51523)/0.36823) with norm 6.826
       Charge density: gaussian nuclear width 0.478731 with net site charge 0.826
       Polarizability: cuspless exponential with width 0.32 and norm 3.73
       Hard sphere radius: 2.57003 bohrs
       Positions in reference frame:
         [ +0.000000 +0.000000 +0.000000 ]
     Initializing site 'H'
       Electron density: proportional to exp(-r/0.34641)*erfc((r-0)/0.390882) with norm 0.587
       Charge density: gaussian nuclear width 0.377945 with net site charge -0.413
       Polarizability: cuspless exponential with width 0.39 and norm 3.3
       Positions in reference frame:
         [ +0.000000 -1.441945 +1.122523 ]
         [ +0.000000 +1.441945 +1.122523 ]
     Net charge: 0   dipole magnitude: 0.927204
     Initializing spherical shell mfKernel with radius 2.61727 Bohr
     deltaS corrections:
       site 'O': -7.54299
       site 'H': -6.83917
   Initializing fluid molecule 'Na+'
     Initializing site 'Na'
       Electron density: proportional to exp(-r/0.19682)*erfc((r-0.71491)/0.41314) with norm 8.1383
       Charge density: gaussian nuclear width 0.365347 with net site charge -1
       Hard sphere radius: 1.86327 bohrs
       Positions in reference frame:
         [ +0.000000 +0.000000 +0.000000 ]
     Net charge: -1   dipole magnitude: 0
     Initializing gaussian mfKernel with width: 1.55004 Bohr
     deltaS corrections:
       site 'Na': -22.3555
   Initializing fluid molecule 'F-'
     Initializing site 'F'
       Electron density: proportional to exp(-r/0.38886)*erfc((r-0)/0.438782) with norm 8
       Charge density: gaussian nuclear width 0.374796 with net site charge 1
       Hard sphere radius: 2.39995 bohrs
       Positions in reference frame:
         [ +0.000000 +0.000000 +0.000000 ]
     Net charge: 1   dipole magnitude: 0
     Initializing gaussian mfKernel with width: 1.59012 Bohr
     deltaS corrections:
       site 'F': -9.04335

Correction to mu due to finite nuclear width = -0.0237817
   Cavity determined by nc: 0.00142 and sigma: 0.707107
   Nonlocal vdW cavity from gaussian model electron density with norm = 8 and sigma = 0.993594 bohr
   Charge asymmetry in cavity with sensitivity pCavity = 36.5 e-bohr/Eh
   Electrostatic cavity expanded by eta = 1.46 bohrs
   Weighted density cavitation model constrained by Nbulk: 0.0049383 bohr^-3, Pvap: 3.14029 kPa, Rvdw: 2.61727 bohr and sigmaBulk: 4.62e-05 Eh/bohr^2 at T: 298 K.
   Weighted density dispersion model using vdW pair potentials with single solvent site with sqrtC6eff: 0.77 SI.


---- Citations for features of the code used in this run ----

   Software package:
      R. Sundararaman, K. Letchworth-Weaver, K.A. Schwarz, D. Gunceler, Y. Ozhabes and T.A. Arias, 'JDFTx: software for joint density-functional theory', SoftwareX 6, 278 (2017)

   gga-PBE exchange-correlation functional:
      J.P. Perdew, K. Burke and M. Ernzerhof, Phys. Rev. Lett. 77, 3865 (1996)

   Pseudopotentials:
      KF Garrity, JW Bennett, KM Rabe and D Vanderbilt, Comput. Mater. Sci. 81, 446 (2014)

   Truncated Coulomb potentials:
      R. Sundararaman and T.A. Arias, Phys. Rev. B 87, 165122 (2013)

   Van der Waals correction pair-potentials:
      S. Grimme, J. Comput. Chem. 27, 1787 (2006)

   Charge-asymmetric nonlocally-determined local-electric (CANDLE) solvation model:
      R. Sundararaman and W.A. Goddard III, J. Chem. Phys. 142, 064107 (2015)

   Total energy minimization with Auxiliary Hamiltonian:
      C. Freysoldt, S. Boeck, and J. Neugebauer, Phys. Rev. B 79, 241103(R) (2009)

This list may not be complete. Please suggest additional citations or
report any other bugs at https://github.com/shankar1729/jdftx/issues

Initialization completed successfully at t[s]:    975.12

Fluid solver invoked on fresh (partially random / LCAO) wavefunctions
Running a vacuum solve first:

-------- Initial electronic minimization -----------
	FillingsUpdate:  mu: -0.038431157  nElectrons: 455.000000
ElecMinimize: Iter:   0  F: -3035.332763046647415  |grad|_K:  3.235e-04  alpha:  1.000e+00
	FillingsUpdate:  mu: -0.209012825  nElectrons: 455.000000
	SubspaceRotationAdjust: set factor to 0.957
ElecMinimize: Iter:   1  F: -3036.494347666290196  |grad|_K:  1.757e-04  alpha:  1.018e-01  linmin:  4.822e-04  t[s]:   1013.81
	FillingsUpdate:  mu: -0.031873322  nElectrons: 455.000000
	SubspaceRotationAdjust: set factor to 0.539
ElecMinimize: Iter:   2  F: -3037.283106001380474  |grad|_K:  2.274e-04  alpha:  2.182e-01  linmin: -2.922e-04  t[s]:   1031.36
ElecMinimize: 	Step increased F by 7.965099e-02, reducing alpha to 4.805119e-03.
	FillingsUpdate:  mu: -0.071658367  nElectrons: 455.000000
	SubspaceRotationAdjust: set factor to 0.37
ElecMinimize: Iter:   3  F: -3037.342210487432567  |grad|_K:  1.330e-04  alpha:  4.805e-03  linmin: -1.623e-03  t[s]:   1061.25
ElecMinimize: 	Predicted alpha/alphaT>3.000000, increasing alphaT to 1.441536e-02.
	FillingsUpdate:  mu: -0.096543744  nElectrons: 455.000000
	SubspaceRotationAdjust: set factor to 0.225
ElecMinimize: Iter:   4  F: -3037.419668145923424  |grad|_K:  8.413e-05  alpha:  1.978e-02  linmin: -3.617e-06  t[s]:   1085.31
ElecMinimize: 	Predicted alpha/alphaT>3.000000, increasing alphaT to 5.934736e-02.
	FillingsUpdate:  mu: -0.006431460  nElectrons: 455.000000
	SubspaceRotationAdjust: set factor to 0.161
ElecMinimize: Iter:   5  F: -3037.480082820526150  |grad|_K:  1.168e-04  alpha:  7.140e-02  linmin: -3.251e-05  t[s]:   1109.02
	FillingsUpdate:  mu: -0.018663563  nElectrons: 455.000000
	SubspaceRotationAdjust: set factor to 0.149
ElecMinimize: Iter:   6  F: -3037.594997455680641  |grad|_K:  1.101e-04  alpha:  6.880e-02  linmin:  2.333e-06  t[s]:   1127.72
	FillingsUpdate:  mu: -0.090394168  nElectrons: 455.000000
	SubspaceRotationAdjust: set factor to 0.182
ElecMinimize: Iter:   7  F: -3037.682911106648589  |grad|_K:  9.397e-05  alpha:  6.157e-02  linmin: -6.527e-07  t[s]:   1145.93
	FillingsUpdate:  mu: -0.153328848  nElectrons: 455.000000
	SubspaceRotationAdjust: set factor to 0.239
ElecMinimize: Iter:   8  F: -3037.745716916602760  |grad|_K:  8.087e-05  alpha:  6.005e-02  linmin:  2.256e-06  t[s]:   1163.50
	FillingsUpdate:  mu: -0.171279868  nElectrons: 455.000000
	SubspaceRotationAdjust: set factor to 0.254
ElecMinimize: Iter:   9  F: -3037.789533727812795  |grad|_K:  6.972e-05  alpha:  5.690e-02  linmin: -2.691e-06  t[s]:   1184.13
	FillingsUpdate:  mu: -0.160851151  nElectrons: 455.000000
	SubspaceRotationAdjust: set factor to 0.262
ElecMinimize: Iter:  10  F: -3037.821418786765662  |grad|_K:  5.441e-05  alpha:  5.521e-02  linmin: -2.380e-06  t[s]:   1211.81
	FillingsUpdate:  mu: -0.153602868  nElectrons: 455.000000
	SubspaceRotationAdjust: set factor to 0.272
ElecMinimize: Iter:  11  F: -3037.839083631671201  |grad|_K:  4.265e-05  alpha:  5.025e-02  linmin:  9.962e-07  t[s]:   1239.79
	FillingsUpdate:  mu: -0.147054534  nElectrons: 455.000000
	SubspaceRotationAdjust: set factor to 0.295
ElecMinimize: Iter:  12  F: -3037.853353395772046  |grad|_K:  4.452e-05  alpha:  6.640e-02  linmin:  2.620e-07  t[s]:   1268.42
	FillingsUpdate:  mu: -0.141575351  nElectrons: 455.000000
	SubspaceRotationAdjust: set factor to 0.299
ElecMinimize: Iter:  13  F: -3037.869297232688041  |grad|_K:  4.437e-05  alpha:  6.800e-02  linmin: -5.046e-06  t[s]:   1295.15
	FillingsUpdate:  mu: -0.110051979  nElectrons: 455.000000
	SubspaceRotationAdjust: set factor to 0.259
ElecMinimize: Iter:  14  F: -3037.885522889686854  |grad|_K:  4.551e-05  alpha:  6.910e-02  linmin: -1.938e-06  t[s]:   1323.61
	FillingsUpdate:  mu: -0.132897972  nElectrons: 455.000000
	SubspaceRotationAdjust: set factor to 0.311
ElecMinimize: Iter:  15  F: -3037.899928555306815  |grad|_K:  3.131e-05  alpha:  5.865e-02  linmin:  4.451e-07  t[s]:   1350.93
	FillingsUpdate:  mu: -0.153309237  nElectrons: 455.000000
	SubspaceRotationAdjust: set factor to 0.326
ElecMinimize: Iter:  16  F: -3037.905135461917325  |grad|_K:  1.944e-05  alpha:  4.478e-02  linmin:  2.405e-06  t[s]:   1375.78
	FillingsUpdate:  mu: -0.149687016  nElectrons: 455.000000
	SubspaceRotationAdjust: set factor to 0.352
ElecMinimize: Iter:  17  F: -3037.908039096451375  |grad|_K:  2.010e-05  alpha:  6.516e-02  linmin:  6.272e-06  t[s]:   1404.16
	FillingsUpdate:  mu: -0.148424248  nElectrons: 455.000000
	SubspaceRotationAdjust: set factor to 0.452
ElecMinimize: Iter:  18  F: -3037.911335427270387  |grad|_K:  1.948e-05  alpha:  6.926e-02  linmin: -2.067e-07  t[s]:   1430.60
	FillingsUpdate:  mu: -0.146194259  nElectrons: 455.000000
	SubspaceRotationAdjust: set factor to 0.446
ElecMinimize: Iter:  19  F: -3037.914031163619711  |grad|_K:  1.880e-05  alpha:  6.003e-02  linmin: -4.031e-07  t[s]:   1457.29
	FillingsUpdate:  mu: -0.145805406  nElectrons: 455.000000
	SubspaceRotationAdjust: set factor to 0.503
ElecMinimize: Iter:  20  F: -3037.916399010577152  |grad|_K:  1.679e-05  alpha:  5.661e-02  linmin: -7.064e-08  t[s]:   1484.02
	FillingsUpdate:  mu: -0.148287488  nElectrons: 455.000000
	SubspaceRotationAdjust: set factor to 0.532
ElecMinimize: Iter:  21  F: -3037.918487050100794  |grad|_K:  1.595e-05  alpha:  6.259e-02  linmin: -1.522e-07  t[s]:   1510.00
	FillingsUpdate:  mu: -0.150337055  nElectrons: 455.000000
	SubspaceRotationAdjust: set factor to 0.482
ElecMinimize: Iter:  22  F: -3037.919872495222080  |grad|_K:  1.228e-05  alpha:  4.603e-02  linmin:  1.032e-08  t[s]:   1539.09
	FillingsUpdate:  mu: -0.150048118  nElectrons: 455.000000
	SubspaceRotationAdjust: set factor to 0.672
ElecMinimize: Iter:  23  F: -3037.920809464539616  |grad|_K:  9.082e-06  alpha:  5.256e-02  linmin:  1.555e-07  t[s]:   1567.16
	FillingsUpdate:  mu: -0.149663889  nElectrons: 455.000000
	SubspaceRotationAdjust: set factor to 0.604
ElecMinimize: Iter:  24  F: -3037.921269138017124  |grad|_K:  8.117e-06  alpha:  4.712e-02  linmin:  1.190e-07  t[s]:   1592.60
	FillingsUpdate:  mu: -0.150259192  nElectrons: 455.000000
	SubspaceRotationAdjust: set factor to 0.706
ElecMinimize: Iter:  25  F: -3037.921879938351594  |grad|_K:  8.690e-06  alpha:  7.835e-02  linmin: -6.606e-07  t[s]:   1621.86
	FillingsUpdate:  mu: -0.152271791  nElectrons: 455.000000
	SubspaceRotationAdjust: set factor to 0.75
ElecMinimize: Iter:  26  F: -3037.922460614503962  |grad|_K:  7.889e-06  alpha:  6.495e-02  linmin:  1.076e-07  t[s]:   1651.10
	FillingsUpdate:  mu: -0.152541279  nElectrons: 455.000000
	SubspaceRotationAdjust: set factor to 0.653
ElecMinimize: Iter:  27  F: -3037.922773262503142  |grad|_K:  6.435e-06  alpha:  4.246e-02  linmin: -2.306e-08  t[s]:   1680.91
	FillingsUpdate:  mu: -0.152356377  nElectrons: 455.000000
	SubspaceRotationAdjust: set factor to 0.655
ElecMinimize: Iter:  28  F: -3037.923046855683424  |grad|_K:  5.471e-06  alpha:  5.587e-02  linmin:  1.900e-07  t[s]:   1710.76
	FillingsUpdate:  mu: -0.152616243  nElectrons: 455.000000
	SubspaceRotationAdjust: set factor to 0.757
ElecMinimize: Iter:  29  F: -3037.923268261556132  |grad|_K:  4.657e-06  alpha:  6.255e-02  linmin: -2.446e-07  t[s]:   1740.74
	FillingsUpdate:  mu: -0.152967625  nElectrons: 455.000000
	SubspaceRotationAdjust: set factor to 0.686
ElecMinimize: Iter:  30  F: -3037.923420121229356  |grad|_K:  4.554e-06  alpha:  5.917e-02  linmin: -4.519e-08  t[s]:   1770.41
	FillingsUpdate:  mu: -0.153119965  nElectrons: 455.000000
	SubspaceRotationAdjust: set factor to 0.654
ElecMinimize: Iter:  31  F: -3037.923533577045418  |grad|_K:  3.384e-06  alpha:  4.624e-02  linmin:  1.688e-09  t[s]:   1799.30
	FillingsUpdate:  mu: -0.152772825  nElectrons: 455.000000
	SubspaceRotationAdjust: set factor to 0.595
ElecMinimize: Iter:  32  F: -3037.923607480616738  |grad|_K:  2.825e-06  alpha:  5.454e-02  linmin:  2.973e-08  t[s]:   1832.02
	FillingsUpdate:  mu: -0.152758776  nElectrons: 455.000000
	SubspaceRotationAdjust: set factor to 0.714
ElecMinimize: Iter:  33  F: -3037.923669469139895  |grad|_K:  2.302e-06  alpha:  6.569e-02  linmin: -1.421e-10  t[s]:   1863.48
	FillingsUpdate:  mu: -0.152892173  nElectrons: 455.000000
	SubspaceRotationAdjust: set factor to 0.637
ElecMinimize: Iter:  34  F: -3037.923703557692534  |grad|_K:  2.078e-06  alpha:  5.439e-02  linmin: -1.875e-08  t[s]:   1893.00
	FillingsUpdate:  mu: -0.152655332  nElectrons: 455.000000
	SubspaceRotationAdjust: set factor to 0.714
ElecMinimize: Iter:  35  F: -3037.923735453211066  |grad|_K:  1.811e-06  alpha:  6.244e-02  linmin: -5.221e-10  t[s]:   1922.88
	FillingsUpdate:  mu: -0.152269708  nElectrons: 455.000000
	SubspaceRotationAdjust: set factor to 0.665
ElecMinimize: Iter:  36  F: -3037.923758767361051  |grad|_K:  1.591e-06  alpha:  6.011e-02  linmin: -6.413e-08  t[s]:   1952.82
	FillingsUpdate:  mu: -0.152086614  nElectrons: 455.000000
	SubspaceRotationAdjust: set factor to 0.794
ElecMinimize: Iter:  37  F: -3037.923782744314849  |grad|_K:  1.385e-06  alpha:  8.005e-02  linmin:  2.761e-08  t[s]:   1981.87
	FillingsUpdate:  mu: -0.152252388  nElectrons: 455.000000
	SubspaceRotationAdjust: set factor to 0.737
ElecMinimize: Iter:  38  F: -3037.923795804305428  |grad|_K:  1.084e-06  alpha:  5.759e-02  linmin:  8.838e-09  t[s]:   2011.19
	FillingsUpdate:  mu: -0.152323209  nElectrons: 455.000000
	SubspaceRotationAdjust: set factor to 0.765
ElecMinimize: Iter:  39  F: -3037.923804786349137  |grad|_K:  9.442e-07  alpha:  6.462e-02  linmin:  5.151e-10  t[s]:   2041.65
	FillingsUpdate:  mu: -0.152267457  nElectrons: 455.000000
	SubspaceRotationAdjust: set factor to 0.66
ElecMinimize: Iter:  40  F: -3037.923809922456257  |grad|_K:  8.803e-07  alpha:  4.870e-02  linmin:  1.057e-08  t[s]:   2070.60
	FillingsUpdate:  mu: -0.152288259  nElectrons: 455.000000
	SubspaceRotationAdjust: set factor to 0.618
ElecMinimize: Iter:  41  F: -3037.923815651151926  |grad|_K:  8.170e-07  alpha:  6.250e-02  linmin:  1.829e-08  t[s]:   2097.25
	FillingsUpdate:  mu: -0.152365271  nElectrons: 455.000000
	SubspaceRotationAdjust: set factor to 0.64
ElecMinimize: Iter:  42  F: -3037.923821086691078  |grad|_K:  6.931e-07  alpha:  6.885e-02  linmin:  2.898e-08  t[s]:   2125.57
	FillingsUpdate:  mu: -0.152361774  nElectrons: 455.000000
	SubspaceRotationAdjust: set factor to 0.688
ElecMinimize: Iter:  43  F: -3037.923824999732460  |grad|_K:  5.387e-07  alpha:  6.888e-02  linmin:  9.374e-09  t[s]:   2152.92
	FillingsUpdate:  mu: -0.152345232  nElectrons: 455.000000
	SubspaceRotationAdjust: set factor to 0.638
ElecMinimize: Iter:  44  F: -3037.923826915002792  |grad|_K:  4.720e-07  alpha:  5.580e-02  linmin: -3.813e-09  t[s]:   2181.51
	FillingsUpdate:  mu: -0.152356350  nElectrons: 455.000000
	SubspaceRotationAdjust: set factor to 0.571
ElecMinimize: Iter:  45  F: -3037.923828507449343  |grad|_K:  4.513e-07  alpha:  6.043e-02  linmin:  6.306e-09  t[s]:   2264.72
	FillingsUpdate:  mu: -0.152402966  nElectrons: 455.000000
	SubspaceRotationAdjust: set factor to 0.564
ElecMinimize: Iter:  46  F: -3037.923830103709861  |grad|_K:  3.708e-07  alpha:  6.625e-02  linmin:  5.708e-09  t[s]:   2307.82
	FillingsUpdate:  mu: -0.152376160  nElectrons: 455.000000
	SubspaceRotationAdjust: set factor to 0.603
ElecMinimize: Iter:  47  F: -3037.923831134516149  |grad|_K:  2.703e-07  alpha:  6.337e-02  linmin: -4.578e-09  t[s]:   2336.65
	FillingsUpdate:  mu: -0.152327661  nElectrons: 455.000000
	SubspaceRotationAdjust: set factor to 0.57
ElecMinimize: Iter:  48  F: -3037.923831701828476  |grad|_K:  2.547e-07  alpha:  6.566e-02  linmin: -5.665e-09  t[s]:   2365.11
	FillingsUpdate:  mu: -0.152315015  nElectrons: 455.000000
	SubspaceRotationAdjust: set factor to 0.522
ElecMinimize: Iter:  49  F: -3037.923832210963610  |grad|_K:  2.355e-07  alpha:  6.631e-02  linmin: -9.412e-09  t[s]:   2394.60
	FillingsUpdate:  mu: -0.152321491  nElectrons: 455.000000
	SubspaceRotationAdjust: set factor to 0.523
ElecMinimize: Iter:  50  F: -3037.923832635731287  |grad|_K:  1.828e-07  alpha:  6.472e-02  linmin: -1.196e-08  t[s]:   2424.74
	FillingsUpdate:  mu: -0.152316358  nElectrons: 455.000000
	SubspaceRotationAdjust: set factor to 0.544
ElecMinimize: Iter:  51  F: -3037.923832895347005  |grad|_K:  1.436e-07  alpha:  6.569e-02  linmin: -1.105e-08  t[s]:   2453.81
	FillingsUpdate:  mu: -0.152306673  nElectrons: 455.000000
	SubspaceRotationAdjust: set factor to 0.527
ElecMinimize: Iter:  52  F: -3037.923833059159278  |grad|_K:  1.333e-07  alpha:  6.716e-02  linmin:  1.482e-08  t[s]:   2482.34
	FillingsUpdate:  mu: -0.152302636  nElectrons: 455.000000
	SubspaceRotationAdjust: set factor to 0.541
ElecMinimize: Iter:  53  F: -3037.923833195861789  |grad|_K:  1.093e-07  alpha:  6.502e-02  linmin: -1.654e-10  t[s]:   2510.90
	FillingsUpdate:  mu: -0.152310388  nElectrons: 455.000000
	SubspaceRotationAdjust: set factor to 0.567
ElecMinimize: Iter:  54  F: -3037.923833295596069  |grad|_K:  9.366e-08  alpha:  7.066e-02  linmin:  1.749e-08  t[s]:   2539.16
	FillingsUpdate:  mu: -0.152313549  nElectrons: 455.000000
	SubspaceRotationAdjust: set factor to 0.621
ElecMinimize: Iter:  55  F: -3037.923833370999546  |grad|_K:  8.720e-08  alpha:  7.266e-02  linmin: -3.430e-08  t[s]:   2567.57
	FillingsUpdate:  mu: -0.152313035  nElectrons: 455.000000
	SubspaceRotationAdjust: set factor to 0.571
ElecMinimize: Iter:  56  F: -3037.923833430810646  |grad|_K:  8.436e-08  alpha:  6.650e-02  linmin:  1.614e-08  t[s]:   2596.17
	FillingsUpdate:  mu: -0.152322759  nElectrons: 455.000000
	SubspaceRotationAdjust: set factor to 0.593
ElecMinimize: Iter:  57  F: -3037.923833483943326  |grad|_K:  6.428e-08  alpha:  6.318e-02  linmin:  2.611e-08  t[s]:   2623.53
	FillingsUpdate:  mu: -0.152329643  nElectrons: 455.000000
	SubspaceRotationAdjust: set factor to 0.619
ElecMinimize: Iter:  58  F: -3037.923833514959824  |grad|_K:  4.981e-08  alpha:  6.366e-02  linmin:  2.470e-08  t[s]:   2653.35
	FillingsUpdate:  mu: -0.152327616  nElectrons: 455.000000
	SubspaceRotationAdjust: set factor to 0.646
ElecMinimize: Iter:  59  F: -3037.923833535568065  |grad|_K:  4.568e-08  alpha:  7.013e-02  linmin:  3.385e-08  t[s]:   2681.40
	FillingsUpdate:  mu: -0.152327182  nElectrons: 455.000000
	SubspaceRotationAdjust: set factor to 0.61
ElecMinimize: Iter:  60  F: -3037.923833554413250  |grad|_K:  5.081e-08  alpha:  7.639e-02  linmin: -2.098e-08  t[s]:   2708.31
	FillingsUpdate:  mu: -0.152332174  nElectrons: 455.000000
	SubspaceRotationAdjust: set factor to 0.604
ElecMinimize: Iter:  61  F: -3037.923833572670901  |grad|_K:  3.983e-08  alpha:  5.944e-02  linmin: -3.876e-08  t[s]:   2735.36
	FillingsUpdate:  mu: -0.152339460  nElectrons: 455.000000
	SubspaceRotationAdjust: set factor to 0.583
ElecMinimize: Iter:  62  F: -3037.923833584306976  |grad|_K:  3.145e-08  alpha:  6.200e-02  linmin: -2.721e-08  t[s]:   2763.17
	FillingsUpdate:  mu: -0.152339248  nElectrons: 455.000000
	SubspaceRotationAdjust: set factor to 0.652
ElecMinimize: Iter:  63  F: -3037.923833592317351  |grad|_K:  2.479e-08  alpha:  6.778e-02  linmin: -1.662e-08  t[s]:   2793.72
	FillingsUpdate:  mu: -0.152335424  nElectrons: 455.000000
	SubspaceRotationAdjust: set factor to 0.625
ElecMinimize: Iter:  64  F: -3037.923833597366865  |grad|_K:  2.383e-08  alpha:  7.004e-02  linmin: -7.308e-08  t[s]:   2827.93
ElecMinimize: Converged (|Delta F|<1.000000e-08 for 2 iters).
Setting wave functions to eigenvectors of Hamiltonian
Vacuum energy after initial minimize, F = -3037.923833597366865

	Linear fluid (dielectric constant: 78.4, screening length: 5.74355 Bohr) occupying 0.736512 of unit cell:	Completed after 29 iterations at t[s]:   2843.46

-------- Electronic minimization -----------
	Linear fluid (dielectric constant: 78.4, screening length: 5.74355 Bohr) occupying 0.736512 of unit cell:	Completed after 0 iterations at t[s]:   2853.40
	FillingsUpdate:  mu: -0.233273154  nElectrons: 455.000000
ElecMinimize: Iter:   0  F: -3037.935021697752290  |grad|_K:  1.113e-05  alpha:  1.000e+00
	Linear fluid (dielectric constant: 78.4, screening length: 5.74355 Bohr) occupying 0.739597 of unit cell:	Completed after 28 iterations at t[s]:   2883.57
	Linear fluid (dielectric constant: 78.4, screening length: 5.74355 Bohr) occupying 0.736598 of unit cell:	Completed after 27 iterations at t[s]:   2901.45
	FillingsUpdate:  mu: -0.232955467  nElectrons: 455.000000
	SubspaceRotationAdjust: set factor to 0.567
ElecMinimize: Iter:   1  F: -3037.935776464712035  |grad|_K:  7.831e-06  alpha:  4.956e-02  linmin: -5.185e-05  t[s]:   2913.64
	Linear fluid (dielectric constant: 78.4, screening length: 5.74355 Bohr) occupying 0.736689 of unit cell:	Completed after 12 iterations at t[s]:   2924.71
ElecMinimize: 	Predicted alpha/alphaT>3.000000, increasing alphaT to 1.486799e-01.
	Linear fluid (dielectric constant: 78.4, screening length: 5.74355 Bohr) occupying 0.736874 of unit cell:	Completed after 15 iterations at t[s]:   2940.83
	Linear fluid (dielectric constant: 78.4, screening length: 5.74355 Bohr) occupying 0.736955 of unit cell:	Completed after 12 iterations at t[s]:   2956.80
	FillingsUpdate:  mu: -0.232624571  nElectrons: 455.000000
	SubspaceRotationAdjust: set factor to 0.758
ElecMinimize: Iter:   2  F: -3037.937227705721853  |grad|_K:  7.841e-06  alpha:  1.926e-01  linmin: -2.988e-06  t[s]:   2972.00
	Linear fluid (dielectric constant: 78.4, screening length: 5.74355 Bohr) occupying 0.737406 of unit cell:	Completed after 17 iterations at t[s]:   2984.17
	Linear fluid (dielectric constant: 78.4, screening length: 5.74355 Bohr) occupying 0.737423 of unit cell:	Completed after 4 iterations at t[s]:   2998.22
	FillingsUpdate:  mu: -0.231376626  nElectrons: 455.000000
	SubspaceRotationAdjust: set factor to 0.677
ElecMinimize: Iter:   3  F: -3037.938693418339881  |grad|_K:  9.809e-06  alpha:  1.998e-01  linmin: -6.563e-07  t[s]:   3011.62
	Linear fluid (dielectric constant: 78.4, screening length: 5.74355 Bohr) occupying 0.738221 of unit cell:	Completed after 18 iterations at t[s]:   3023.30
	Linear fluid (dielectric constant: 78.4, screening length: 5.74355 Bohr) occupying 0.737677 of unit cell:	Completed after 17 iterations at t[s]:   3040.50
	FillingsUpdate:  mu: -0.232797968  nElectrons: 455.000000
	SubspaceRotationAdjust: set factor to 0.406
ElecMinimize: Iter:   4  F: -3037.939400097963244  |grad|_K:  3.753e-06  alpha:  6.203e-02  linmin:  7.118e-07  t[s]:   3053.00
	Linear fluid (dielectric constant: 78.4, screening length: 5.74355 Bohr) occupying 0.737718 of unit cell:	Completed after 10 iterations at t[s]:   3063.89
ElecMinimize: 	Predicted alpha/alphaT>3.000000, increasing alphaT to 1.860912e-01.
	Linear fluid (dielectric constant: 78.4, screening length: 5.74355 Bohr) occupying 0.737798 of unit cell:	Completed after 13 iterations at t[s]:   3074.82
	Linear fluid (dielectric constant: 78.4, screening length: 5.74355 Bohr) occupying 0.737810 of unit cell:	Completed after 4 iterations at t[s]:   3089.68
	FillingsUpdate:  mu: -0.231936099  nElectrons: 455.000000
	SubspaceRotationAdjust: set factor to 0.366
ElecMinimize: Iter:   5  F: -3037.939741370145384  |grad|_K:  3.665e-06  alpha:  2.051e-01  linmin: -1.259e-06  t[s]:   3101.36
	Linear fluid (dielectric constant: 78.4, screening length: 5.74355 Bohr) occupying 0.737964 of unit cell:	Completed after 15 iterations at t[s]:   3111.31
	Linear fluid (dielectric constant: 78.4, screening length: 5.74355 Bohr) occupying 0.737888 of unit cell:	Completed after 12 iterations at t[s]:   3125.94
	FillingsUpdate:  mu: -0.231678836  nElectrons: 455.000000
	SubspaceRotationAdjust: set factor to 0.295
ElecMinimize: Iter:   6  F: -3037.939906547630471  |grad|_K:  2.801e-06  alpha:  1.035e-01  linmin:  9.225e-08  t[s]:   3139.12
	Linear fluid (dielectric constant: 78.4, screening length: 5.74355 Bohr) occupying 0.737932 of unit cell:	Completed after 10 iterations at t[s]:   3150.47
	Linear fluid (dielectric constant: 78.4, screening length: 5.74355 Bohr) occupying 0.737960 of unit cell:	Completed after 8 iterations at t[s]:   3163.28
	FillingsUpdate:  mu: -0.231375886  nElectrons: 455.000000
	SubspaceRotationAdjust: set factor to 0.315
ElecMinimize: Iter:   7  F: -3037.940063828273196  |grad|_K:  1.883e-06  alpha:  1.693e-01  linmin: -9.042e-07  t[s]:   3178.00
	Linear fluid (dielectric constant: 78.4, screening length: 5.74355 Bohr) occupying 0.737997 of unit cell:	Completed after 13 iterations at t[s]:   3190.20
	Linear fluid (dielectric constant: 78.4, screening length: 5.74355 Bohr) occupying 0.737984 of unit cell:	Completed after 4 iterations at t[s]:   3202.70
	FillingsUpdate:  mu: -0.231174389  nElectrons: 455.000000
	SubspaceRotationAdjust: set factor to 0.287
ElecMinimize: Iter:   8  F: -3037.940110506468045  |grad|_K:  1.204e-06  alpha:  1.109e-01  linmin:  6.885e-07  t[s]:   3218.51
	Linear fluid (dielectric constant: 78.4, screening length: 5.74355 Bohr) occupying 0.737990 of unit cell:	Completed after 8 iterations at t[s]:   3231.04
	Linear fluid (dielectric constant: 78.4, screening length: 5.74355 Bohr) occupying 0.737991 of unit cell:	Completed after 4 iterations at t[s]:   3243.67
	FillingsUpdate:  mu: -0.231321066  nElectrons: 455.000000
	SubspaceRotationAdjust: set factor to 0.241
ElecMinimize: Iter:   9  F: -3037.940134129715716  |grad|_K:  9.452e-07  alpha:  1.377e-01  linmin: -3.330e-06  t[s]:   3257.36
	Linear fluid (dielectric constant: 78.4, screening length: 5.74355 Bohr) occupying 0.737997 of unit cell:	Completed after 7 iterations at t[s]:   3267.17
	Linear fluid (dielectric constant: 78.4, screening length: 5.74355 Bohr) occupying 0.737998 of unit cell:	Completed after 2 iterations at t[s]:   3278.97
	FillingsUpdate:  mu: -0.231128578  nElectrons: 455.000000
	SubspaceRotationAdjust: set factor to 0.272
ElecMinimize: Iter:  10  F: -3037.940151107400197  |grad|_K:  6.598e-07  alpha:  1.596e-01  linmin: -4.436e-06  t[s]:   3291.84
	Linear fluid (dielectric constant: 78.4, screening length: 5.74355 Bohr) occupying 0.738003 of unit cell:	Completed after 7 iterations at t[s]:   3303.68
	Linear fluid (dielectric constant: 78.4, screening length: 5.74355 Bohr) occupying 0.738003 of unit cell:	Completed after 0 iterations at t[s]:   3314.27
	FillingsUpdate:  mu: -0.231139551  nElectrons: 455.000000
	SubspaceRotationAdjust: set factor to 0.283
ElecMinimize: Iter:  11  F: -3037.940159076409145  |grad|_K:  4.701e-07  alpha:  1.536e-01  linmin:  7.343e-06  t[s]:   3326.50
	Linear fluid (dielectric constant: 78.4, screening length: 5.74355 Bohr) occupying 0.738005 of unit cell:	Completed after 2 iterations at t[s]:   3336.75
	Linear fluid (dielectric constant: 78.4, screening length: 5.74355 Bohr) occupying 0.738005 of unit cell:	Completed after 2 iterations at t[s]:   3348.23
	FillingsUpdate:  mu: -0.231141462  nElectrons: 455.000000
	SubspaceRotationAdjust: set factor to 0.316
ElecMinimize: Iter:  12  F: -3037.940163947634119  |grad|_K:  4.072e-07  alpha:  1.885e-01  linmin: -2.917e-06  t[s]:   3359.41
	Linear fluid (dielectric constant: 78.4, screening length: 5.74355 Bohr) occupying 0.738007 of unit cell:	Completed after 3 iterations at t[s]:   3368.73
	Linear fluid (dielectric constant: 78.4, screening length: 5.74355 Bohr) occupying 0.738006 of unit cell:	Completed after 0 iterations at t[s]:   3379.72
	FillingsUpdate:  mu: -0.231159765  nElectrons: 455.000000
	SubspaceRotationAdjust: set factor to 0.348
ElecMinimize: Iter:  13  F: -3037.940167306394869  |grad|_K:  3.694e-07  alpha:  1.693e-01  linmin:  1.697e-05  t[s]:   3392.54
	Linear fluid (dielectric constant: 78.4, screening length: 5.74355 Bohr) occupying 0.738005 of unit cell:	Completed after 8 iterations at t[s]:   3403.79
	Linear fluid (dielectric constant: 78.4, screening length: 5.74355 Bohr) occupying 0.738006 of unit cell:	Completed after 3 iterations at t[s]:   3415.67
	FillingsUpdate:  mu: -0.231211894  nElectrons: 455.000000
	SubspaceRotationAdjust: set factor to 0.274
ElecMinimize: Iter:  14  F: -3037.940168794627425  |grad|_K:  2.566e-07  alpha:  9.817e-02  linmin:  4.397e-06  t[s]:   3429.29
	Linear fluid (dielectric constant: 78.4, screening length: 5.74355 Bohr) occupying 0.738007 of unit cell:	Completed after 3 iterations at t[s]:   3439.85
	Linear fluid (dielectric constant: 78.4, screening length: 5.74355 Bohr) occupying 0.738007 of unit cell:	Completed after 2 iterations at t[s]:   3451.49
	FillingsUpdate:  mu: -0.231199071  nElectrons: 455.000000
	SubspaceRotationAdjust: set factor to 0.298
ElecMinimize: Iter:  15  F: -3037.940170319669960  |grad|_K:  2.311e-07  alpha:  1.928e-01  linmin: -7.867e-06  t[s]:   3463.37
	Linear fluid (dielectric constant: 78.4, screening length: 5.74355 Bohr) occupying 0.738008 of unit cell:	Completed after 3 iterations at t[s]:   3475.13
	Linear fluid (dielectric constant: 78.4, screening length: 5.74355 Bohr) occupying 0.738008 of unit cell:	Completed after 0 iterations at t[s]:   3485.87
	FillingsUpdate:  mu: -0.231163748  nElectrons: 455.000000
	SubspaceRotationAdjust: set factor to 0.299
ElecMinimize: Iter:  16  F: -3037.940171458612440  |grad|_K:  2.271e-07  alpha:  1.722e-01  linmin:  5.933e-06  t[s]:   3499.52
	Linear fluid (dielectric constant: 78.4, screening length: 5.74355 Bohr) occupying 0.738009 of unit cell:	Completed after 3 iterations at t[s]:   3511.18
	Linear fluid (dielectric constant: 78.4, screening length: 5.74355 Bohr) occupying 0.738009 of unit cell:	Completed after 0 iterations at t[s]:   3522.65
	FillingsUpdate:  mu: -0.231172349  nElectrons: 455.000000
	SubspaceRotationAdjust: set factor to 0.261
ElecMinimize: Iter:  17  F: -3037.940172269377399  |grad|_K:  1.861e-07  alpha:  1.382e-01  linmin:  7.738e-06  t[s]:   3533.67
	Linear fluid (dielectric constant: 78.4, screening length: 5.74355 Bohr) occupying 0.738009 of unit cell:	Completed after 3 iterations at t[s]:   3545.38
	Linear fluid (dielectric constant: 78.4, screening length: 5.74355 Bohr) occupying 0.738009 of unit cell:	Completed after 0 iterations at t[s]:   3556.30
	FillingsUpdate:  mu: -0.231184238  nElectrons: 455.000000
	SubspaceRotationAdjust: set factor to 0.232
ElecMinimize: Iter:  18  F: -3037.940172699422419  |grad|_K:  1.340e-07  alpha:  1.157e-01  linmin: -3.977e-06  t[s]:   3569.04
	Linear fluid (dielectric constant: 78.4, screening length: 5.74355 Bohr) occupying 0.738010 of unit cell:	Completed after 2 iterations at t[s]:   3579.71
	Linear fluid (dielectric constant: 78.4, screening length: 5.74355 Bohr) occupying 0.738010 of unit cell:	Completed after 0 iterations at t[s]:   3590.29
	FillingsUpdate:  mu: -0.231185998  nElectrons: 455.000000
	SubspaceRotationAdjust: set factor to 0.236
ElecMinimize: Iter:  19  F: -3037.940173020912880  |grad|_K:  9.349e-08  alpha:  1.406e-01  linmin: -1.873e-05  t[s]:   3605.30
	Linear fluid (dielectric constant: 78.4, screening length: 5.74355 Bohr) occupying 0.738010 of unit cell:	Completed after 1 iterations at t[s]:   3613.78
	Linear fluid (dielectric constant: 78.4, screening length: 5.74355 Bohr) occupying 0.738010 of unit cell:	Completed after 2 iterations at t[s]:   3625.46
	FillingsUpdate:  mu: -0.231188787  nElectrons: 455.000000
	SubspaceRotationAdjust: set factor to 0.249
ElecMinimize: Iter:  20  F: -3037.940173291493920  |grad|_K:  8.550e-08  alpha:  2.324e-01  linmin:  2.004e-06  t[s]:   3637.32
	Linear fluid (dielectric constant: 78.4, screening length: 5.74355 Bohr) occupying 0.738011 of unit cell:	Completed after 2 iterations at t[s]:   3646.05
	Linear fluid (dielectric constant: 78.4, screening length: 5.74355 Bohr) occupying 0.738011 of unit cell:	Completed after 0 iterations at t[s]:   3659.38
	FillingsUpdate:  mu: -0.231194997  nElectrons: 455.000000
	SubspaceRotationAdjust: set factor to 0.242
ElecMinimize: Iter:  21  F: -3037.940173423671240  |grad|_K:  8.746e-08  alpha:  1.463e-01  linmin:  6.606e-06  t[s]:   3696.77
	Linear fluid (dielectric constant: 78.4, screening length: 5.74355 Bohr) occupying 0.738011 of unit cell:	Completed after 3 iterations at t[s]:   3746.65
	Linear fluid (dielectric constant: 78.4, screening length: 5.74355 Bohr) occupying 0.738011 of unit cell:	Completed after 0 iterations at t[s]:   3782.63
	FillingsUpdate:  mu: -0.231189880  nElectrons: 455.000000
	SubspaceRotationAdjust: set factor to 0.217
ElecMinimize: Iter:  22  F: -3037.940173485141258  |grad|_K:  7.660e-08  alpha:  8.386e-02  linmin:  5.244e-06  t[s]:   3811.92
	Linear fluid (dielectric constant: 78.4, screening length: 5.74355 Bohr) occupying 0.738011 of unit cell:	Completed after 0 iterations at t[s]:   3821.79
	Linear fluid (dielectric constant: 78.4, screening length: 5.74355 Bohr) occupying 0.738011 of unit cell:	Completed after 1 iterations at t[s]:   3833.22
	FillingsUpdate:  mu: -0.231190567  nElectrons: 455.000000
	SubspaceRotationAdjust: set factor to 0.198
ElecMinimize: Iter:  23  F: -3037.940173522046734  |grad|_K:  6.198e-08  alpha:  1.512e-01  linmin:  1.252e-05  t[s]:   3845.23
	Linear fluid (dielectric constant: 78.4, screening length: 5.74355 Bohr) occupying 0.738012 of unit cell:	Completed after 0 iterations at t[s]:   3855.59
	Linear fluid (dielectric constant: 78.4, screening length: 5.74355 Bohr) occupying 0.738012 of unit cell:	Completed after 0 iterations at t[s]:   3867.25
	FillingsUpdate:  mu: -0.231191280  nElectrons: 455.000000
	SubspaceRotationAdjust: set factor to 0.226
ElecMinimize: Iter:  24  F: -3037.940173568607406  |grad|_K:  4.682e-08  alpha:  1.512e-01  linmin: -1.457e-08  t[s]:   3879.91
	Linear fluid (dielectric constant: 78.4, screening length: 5.74355 Bohr) occupying 0.738012 of unit cell:	Completed after 2 iterations at t[s]:   3890.93
	Linear fluid (dielectric constant: 78.4, screening length: 5.74355 Bohr) occupying 0.738012 of unit cell:	Completed after 0 iterations at t[s]:   3902.30
	FillingsUpdate:  mu: -0.231198071  nElectrons: 455.000000
	SubspaceRotationAdjust: set factor to 0.211
ElecMinimize: Iter:  25  F: -3037.940173577492260  |grad|_K:  6.958e-08  alpha:  6.561e-02  linmin:  5.525e-06  t[s]:   3915.34
	Linear fluid (dielectric constant: 78.4, screening length: 5.74355 Bohr) occupying 0.738012 of unit cell:	Completed after 0 iterations at t[s]:   3924.60
	Linear fluid (dielectric constant: 78.4, screening length: 5.74355 Bohr) occupying 0.738012 of unit cell:	Completed after 0 iterations at t[s]:   3936.19
	FillingsUpdate:  mu: -0.231198450  nElectrons: 455.000000
	SubspaceRotationAdjust: set factor to 0.266
ElecMinimize: Iter:  26  F: -3037.940173601505194  |grad|_K:  6.340e-08  alpha:  5.860e-02  linmin: -6.198e-09  t[s]:   3950.55
	Linear fluid (dielectric constant: 78.4, screening length: 5.74355 Bohr) occupying 0.738012 of unit cell:	Completed after 3 iterations at t[s]:   3960.15
	Linear fluid (dielectric constant: 78.4, screening length: 5.74355 Bohr) occupying 0.738012 of unit cell:	Completed after 0 iterations at t[s]:   3970.67
	FillingsUpdate:  mu: -0.231193207  nElectrons: 455.000000
	SubspaceRotationAdjust: set factor to 0.222
ElecMinimize: Iter:  27  F: -3037.940173605732980  |grad|_K:  3.603e-08  alpha:  2.355e-02  linmin:  9.415e-06  t[s]:   3983.57
	Linear fluid (dielectric constant: 78.4, screening length: 5.74355 Bohr) occupying 0.738012 of unit cell:	Completed after 0 iterations at t[s]:   3992.47
ElecMinimize: 	Predicted alpha/alphaT>3.000000, increasing alphaT to 7.065284e-02.
	Linear fluid (dielectric constant: 78.4, screening length: 5.74355 Bohr) occupying 0.738012 of unit cell:	Completed after 0 iterations at t[s]:   4003.97
	Linear fluid (dielectric constant: 78.4, screening length: 5.74355 Bohr) occupying 0.738012 of unit cell:	Completed after 0 iterations at t[s]:   4014.71
	FillingsUpdate:  mu: -0.231193578  nElectrons: 455.000000
	SubspaceRotationAdjust: set factor to 0.259
ElecMinimize: Iter:  28  F: -3037.940173618914741  |grad|_K:  3.371e-08  alpha:  1.234e-01  linmin: -2.273e-07  t[s]:   4028.43
	Linear fluid (dielectric constant: 78.4, screening length: 5.74355 Bohr) occupying 0.738012 of unit cell:	Completed after 2 iterations at t[s]:   4038.98
	Linear fluid (dielectric constant: 78.4, screening length: 5.74355 Bohr) occupying 0.738012 of unit cell:	Completed after 0 iterations at t[s]:   4051.17
	FillingsUpdate:  mu: -0.231191905  nElectrons: 455.000000
	SubspaceRotationAdjust: set factor to 0.227
ElecMinimize: Iter:  29  F: -3037.940173619175312  |grad|_K:  4.576e-08  alpha:  4.477e-02  linmin:  5.769e-06  t[s]:   4064.95
	Linear fluid (dielectric constant: 78.4, screening length: 5.74355 Bohr) occupying 0.738012 of unit cell:	Completed after 0 iterations at t[s]:   4075.39
	Linear fluid (dielectric constant: 78.4, screening length: 5.74355 Bohr) occupying 0.738012 of unit cell:	Completed after 0 iterations at t[s]:   4086.96
	FillingsUpdate:  mu: -0.231191996  nElectrons: 455.000000
	SubspaceRotationAdjust: set factor to 0.304
ElecMinimize: Iter:  30  F: -3037.940173626604519  |grad|_K:  4.291e-08  alpha:  5.120e-02  linmin:  1.923e-08  t[s]:   4099.11
ElecMinimize: Converged (|Delta F|<1.000000e-08 for 2 iters).
Setting wave functions to eigenvectors of Hamiltonian
Single-point solvation energy estimate, DeltaF = -0.016340029237654

# Ionic positions in lattice coordinates:
ion Li   0.252874865269919   0.140708596682468   0.528863333591276 0
ion Li   0.580458477296119   0.140708596682468   0.528863333591276 0
ion Li   0.916666671283019   0.139211306388169   0.516976475468374 0
ion Li   0.262598545182876   0.854878341977107   0.617294478917347 0
ion Li   0.570734797383162   0.854878341977107   0.617294478917347 0
ion Li   0.916666671283019   0.861758218066342   0.609789969942609 0
ion Li   0.084681964859334   0.148340361678333   0.393130771774267 0
ion Li   0.416666671283019   0.145433411493479   0.394940826891264 0
ion Li   0.748651377706705   0.148340361678333   0.393130771774267 0
ion Li   0.086495101470036   0.862841839505698   0.481953707939717 0
ion Li   0.416666671283019   0.857123267456148   0.482573670185920 0
ion Li   0.746838241096003   0.862841839505698   0.481953707939717 0
ion Cu   0.078866934209571   0.507550241361007   0.563015888738421 0
ion Cu   0.416666671283019   0.481750776029499   0.574708259346987 0
ion Cu   0.754466408356467   0.507550241361007   0.563015888738421 0
ion Cu   0.093055700686950   0.177923184240774   0.657894340456398 0
ion Cu   0.740277641879089   0.177923184240774   0.657894340456398 0
ion Cu   0.250054289720587   0.829904610295176   0.343857720449525 0
ion Cu   0.583279052845451   0.829904610295176   0.343857720449525 0
ion Cu   0.916666671283019   0.830866432434613   0.343401024126565 0
ion Cu   0.254034404201711   0.489283801913519   0.434540304645497 0
ion Cu   0.579298938364328   0.489283801913519   0.434540304645497 0
ion Cu   0.916666671283019   0.495660878973966   0.431886892781266 0
ion F   0.078299903283401   0.329901641249549   0.500057836901320 0
ion F   0.416666671283019   0.323179505346864   0.505949835825192 0
ion F   0.755033439282637   0.329901641249549   0.500057836901320 0
ion F   0.077736944894936   0.996937589682991   0.553648690728291 0
ion F   0.416666671283019   0.975728290983484   0.555566714098041 0
ion F   0.755596397671103   0.996937589682991   0.553648690728291 0
ion F   0.083804974360367   0.694172584419588   0.617122117714993 0
ion F   0.416666671283019   0.674052103503324   0.626490667227479 0
ion F   0.749528368205672   0.694172584419588   0.617122117714993 0
ion F   0.229188288700762   0.319929693261746   0.606106179551260 0
ion F   0.604145053865276   0.319929693261746   0.606106179551260 0
ion F   0.916666671283019   0.335689699593036   0.633981583141576 0
ion F   0.247128682935068   0.016717462703983   0.678193921370490 0
ion F   0.586204659630970   0.016717462703983   0.678193921370490 0
ion F   0.916666671283019   0.019178065610755   0.680791582677626 0
ion F   0.083817968112030  -0.004082105392713   0.320987778639120 0
ion F   0.416666671283019  -0.003838392118187   0.321622548699321 0
ion F   0.749515374454008  -0.004082105392713   0.320987778639120 0
ion F   0.082768522634972   0.668790173265923   0.374722768761765 0
ion F   0.416666671283019   0.669219628602779   0.374942163458139 0
ion F   0.750564819931066   0.668790173265923   0.374722768761765 0
ion F   0.251390072669442   0.309668183267120   0.378267802124228 0
ion F   0.581943269896597   0.309668183267120   0.378267802124228 0
ion F   0.916666671283019   0.308830436907728   0.377695567502333 0
ion F   0.250287240427057   0.006949104485771   0.443605323889905 0
ion F   0.583046102138981   0.006949104485771   0.443605323889905 0
ion F   0.916666671283019   0.003174794585054   0.441614629358875 0
ion F   0.249174395143139   0.671382139769483   0.493326493358743 0
ion F   0.584158947422899   0.671382139769483   0.493326493358743 0
ion F   0.916666671283019   0.672904196407902   0.493921414163304 0


# Forces in Lattice coordinates:
force Li  -0.007075676189393   0.013010247265699   0.026133732286216 0
force Li   0.007075676189393   0.013010247265699   0.026133732286216 0
force Li   0.000000000000000   0.013558346960172  -0.019375047479321 0
force Li  -0.019379801570892  -0.012371212491301  -0.055884876201036 0
force Li   0.019379801570892  -0.012371212491301  -0.055884876201036 0
force Li   0.000000000000000  -0.011643843844180  -0.029284588035762 0
force Li  -0.001374248818885   0.001038130044694  -0.048880776622853 0
force Li   0.000000000000000  -0.001941687979546  -0.040626044996224 0
force Li   0.001374248818885   0.001038130044694  -0.048880776622853 0
force Li   0.002482091154188  -0.015250972725515  -0.036868366864602 0
force Li   0.000000000000000  -0.008056250768805  -0.034870355114496 0
force Li  -0.002482091154188  -0.015250972725515  -0.036868366864602 0
force Cu  -0.022566721641835   0.005277689496097  -0.060135543499747 0
force Cu   0.000000000000000  -0.031130764755709  -0.164537227396153 0
force Cu   0.022566721641835   0.005277689496097  -0.060135543499747 0
force Cu   0.011260258184892   0.041902748583801  -0.033935661226892 0
force Cu  -0.011260258184892   0.041902748583801  -0.033935661226892 0
force Cu  -0.004876749657376  -0.016913144518928  -0.183826719908845 0
force Cu   0.004876749657376  -0.016913144518928  -0.183826719908845 0
force Cu   0.000000000000000  -0.016605388437492  -0.199321371599282 0
force Cu  -0.000646001952351   0.016457816214462  -0.040367213611748 0
force Cu   0.000646001952351   0.016457816214462  -0.040367213611748 0
force Cu   0.000000000000000   0.008546519824627  -0.038099327794086 0
force F  -0.011019970513036  -0.011246034672226   0.027554637274996 0
force F   0.000000000000000  -0.007339577144429   0.068905115966636 0
force F   0.011019970513036  -0.011246034672226   0.027554637274996 0
force F   0.000394540290567   0.004103469719111   0.015901526463047 0
force F   0.000000000000000   0.005796781062630   0.038561647415344 0
force F  -0.000394540290567   0.004103469719111   0.015901526463047 0
force F   0.003990353695251   0.041859953202397   0.106924518263197 0
force F   0.000000000000000   0.050879713020600   0.150418073418816 0
force F  -0.003990353695251   0.041859953202397   0.106924518263197 0
force F   0.024391691836619  -0.028164493117669   0.170909432887856 0
force F  -0.024391691836619  -0.028164493117669   0.170909432887856 0
force F   0.000000000000000  -0.061853437088873   0.045323116523125 0
force F   0.021150485055062  -0.043687829695901   0.040995520607025 0
force F  -0.021150485055062  -0.043687829695901   0.040995520607025 0
force F   0.000000000000000   0.004513236803479  -0.010410983464547 0
force F   0.004407483269609   0.032189388927836   0.058034559124415 0
force F   0.000000000000000   0.031459105894703   0.064476965216247 0
force F  -0.004407483269609   0.032189388927836   0.058034559124415 0
force F   0.000697454910937  -0.004928114813417   0.068651064105240 0
force F   0.000000000000000  -0.002866163065604   0.059776172791199 0
force F  -0.000697454910937  -0.004928114813417   0.068651064105240 0
force F   0.004142236679954  -0.021287405096555   0.013554534262312 0
force F  -0.004142236679954  -0.021287405096555   0.013554534262312 0
force F   0.000000000000000  -0.022280492918954  -0.025350302909189 0
force F   0.000609726629292  -0.000212313627289   0.023219756067653 0
force F  -0.000609726629292  -0.000212313627289   0.023219756067653 0
force F   0.000000000000000   0.008932051006348   0.046747249517763 0
force F  -0.000469138570594   0.010195973988980  -0.005094497818520 0
force F   0.000469138570594   0.010195973988980  -0.005094497818520 0
force F   0.000000000000000   0.017028135037472  -0.062835881371008 0

# Energy components:
   A_diel =       -0.0262563443752595
   Eewald =    25765.6247985245827294
       EH =    28467.9792870973687968
     Eloc =   -57899.1972907264935202
      Enl =      487.7846628857780615
      Exc =     -374.9735404722359249
 Exc_core =        0.5166747544114099
       KE =      514.4124062073365167
-------------------------------------
     Etot =    -3037.8792580736244417
       TS =        0.0609155529800542
-------------------------------------
        F =    -3037.9401736266045191

IonicMinimize: Iter:   0  F: -3037.940173626604519  |grad|_K:  0.000e+00  t[s]:   4107.07
IonicMinimize: Converged (|grad|_K<1.000000e-04).

#--- Lowdin population analysis ---
# oxidation-state Li +0.202 +0.202 +0.192 +0.257 +0.257 +0.221 +0.202 +0.194 +0.202 +0.195 +0.190 +0.195
# oxidation-state Cu +0.556 +0.585 +0.556 +0.685 +0.685 +0.649 +0.649 +0.649 +0.545 +0.545 +0.551
# oxidation-state F -0.237 -0.245 -0.237 -0.315 -0.317 -0.315 -0.270 -0.276 -0.270 -0.218 -0.218 -0.239 -0.308 -0.308 -0.251 -0.240 -0.240 -0.240 -0.222 -0.218 -0.222 -0.270 -0.270 -0.273 -0.311 -0.311 -0.307 -0.243 -0.243 -0.231


Dumping 'NbTe2.fillings' ... done
Dumping 'NbTe2.wfns' ... done
Dumping 'NbTe2.fluidState' ... done
Dumping 'NbTe2.eigenvals' ... done
End date and time: Sat Jul 18 08:18:08 2020  (Duration: 0-1:08:30.50)
Done!
