
*************** JDFTx 1.5.0  ***************

Start date and time: Mon Jan 25 19:30:32 2021
Executable jdftx_gpu with command-line: -i Charged.in -o Charged.out
Running on hosts (process indices):  amax (0-6)
Divided in process groups (process indices):  0 (0)  1 (1)  2 (2)  3 (3)  4 (4)  5 (5)  6 (6)
gpuInit: Found compatible cuda device 0 'Tesla K80'
gpuInit: Found compatible cuda device 1 'Tesla K80'
gpuInit: Found compatible cuda device 2 'Tesla K80'
gpuInit: Found compatible cuda device 3 'Tesla K80'
gpuInit: Found compatible cuda device 4 'Tesla K80'
gpuInit: Found compatible cuda device 5 'Tesla K80'
gpuInit: Found compatible cuda device 6 'Tesla K80'
gpuInit: Selected device 0
Resource initialization completed at t[s]:      3.37
Run totals: 7 processes, 24 threads, 7 GPUs


Input parsed successfully to the following command list (including defaults):

basis kpoint-dependent
cache-projectors no
coords-type Lattice
core-overlap-check none
coulomb-interaction Slab 001
coulomb-truncation-embed 0.5 0.5 0.5
davidson-band-ratio 1.1
dump End State
dump-name NbTe2.$VAR
elec-cutoff 20
elec-eigen-algo Davidson
elec-ex-corr gga-PBE
elec-initial-charge -1.500000
elec-initial-magnetization 5.000000 no
elec-smearing Gauss 0.0073499
electronic-minimize  \
	dirUpdateScheme      FletcherReeves \
	linminMethod         DirUpdateRecommended \
	nIterations          200 \
	history              15 \
	knormThreshold       0 \
	energyDiffThreshold  1e-08 \
	nEnergyDiff          2 \
	alphaTstart          1 \
	alphaTmin            1e-10 \
	updateTestStepSize   yes \
	alphaTreduceFactor   0.1 \
	alphaTincreaseFactor 3 \
	nAlphaAdjustMax      3 \
	wolfeEnergy          0.0001 \
	wolfeGradient        0.9 \
	fdTest               no
exchange-regularization WignerSeitzTruncated
fluid LinearPCM 298.000000 1.013250
fluid-anion F- 1 MeanFieldLJ \
	epsBulk 1 \
	pMol 0 \
	epsInf 1 \
	Pvap 0 \
	sigmaBulk 0 \
	Rvdw 2.24877 \
	Res 0 \
	tauNuc 343133
fluid-cation Na+ 1 MeanFieldLJ \
	epsBulk 1 \
	pMol 0 \
	epsInf 1 \
	Pvap 0 \
	sigmaBulk 0 \
	Rvdw 2.19208 \
	Res 0 \
	tauNuc 343133
fluid-ex-corr lda-TF lda-PZ
fluid-gummel-loop 10 1.000000e-05
fluid-minimize  \
	dirUpdateScheme      PolakRibiere \
	linminMethod         DirUpdateRecommended \
	nIterations          400 \
	history              15 \
	knormThreshold       1e-11 \
	energyDiffThreshold  0 \
	nEnergyDiff          2 \
	alphaTstart          1 \
	alphaTmin            1e-10 \
	updateTestStepSize   yes \
	alphaTreduceFactor   0.1 \
	alphaTincreaseFactor 3 \
	nAlphaAdjustMax      6 \
	wolfeEnergy          0.0001 \
	wolfeGradient        0.9 \
	fdTest               no
fluid-solvent H2O 55.338 ScalarEOS \
	epsBulk 78.4 \
	pMol 0.92466 \
	epsInf 1.77 \
	Pvap 1.06736e-10 \
	sigmaBulk 4.62e-05 \
	Rvdw 2.61727 \
	Res 1.42 \
	tauNuc 343133 \
	poleEl 15 7 1
forces-output-coords Positions
initial-state NbTe2.$VAR
ion B   0.166670001000000   0.083329999999997   0.500000000000000 1
ion B   0.416670013000001   0.083329999999997   0.500000000000000 1
ion B   0.666670035999999   0.083329999999997   0.500000000000000 1
ion B   0.916669964999997   0.083329999999997   0.500000000000000 1
ion B   0.166669992999999   0.333330009000001   0.500000000000000 1
ion B   0.416670005000000   0.333330009000001   0.500000000000000 1
ion B   0.666670005000000   0.333330009000001   0.500000000000000 1
ion B   0.916669980999998   0.333330009000001   0.500000000000000 1
ion B   0.166670009999997   0.583330017999998   0.500000000000000 1
ion B   0.416670021999998   0.583330017999998   0.500000000000000 1
ion B   0.666670046000000   0.583330017999998   0.500000000000000 1
ion B   0.916669998000003   0.583330017999998   0.500000000000000 1
ion B   0.166669990999999   0.833330027999999   0.500000000000000 1
ion B   0.416670013999997   0.833330027999999   0.500000000000000 1
ion B   0.666670037999999   0.833330027999999   0.500000000000000 1
ion B   0.916670013999997   0.833330027999999   0.500000000000000 1
ion N   0.083329997000000   0.166669994999999   0.500000000000000 1
ion N   0.333330021000002   0.166669994999999   0.500000000000000 1
ion N   0.583329997000000   0.166669994999999   0.500000000000000 1
ion N   0.833330021000002   0.166669994999999   0.500000000000000 1
ion N   0.083329997000000   0.416670017999998   0.500000000000000 1
ion N   0.333330019999998   0.416670017999998   0.500000000000000 1
ion N   0.583329997000000   0.416670017999998   0.500000000000000 1
ion N   0.833329997000000   0.416670017999998   0.500000000000000 1
ion N   0.083329988999999   0.666670027000002   0.500000000000000 1
ion N   0.333330013000001   0.666670027000002   0.500000000000000 1
ion N   0.583329988999999   0.666670027000002   0.500000000000000 1
ion N   0.833330013000001   0.666670027000002   0.500000000000000 1
ion N   0.083330005999997   0.916670035999999   0.500000000000000 1
ion N   0.333330029000003   0.916670035999999   0.500000000000000 1
ion N   0.583330005999997   0.916670035999999   0.500000000000000 1
ion N   0.833330029000003   0.916670035999999   0.500000000000000 1
ion-species GBRV/$ID_pbe.uspp
ion-width Ecut
ionic-minimize  \
	dirUpdateScheme      L-BFGS \
	linminMethod         DirUpdateRecommended \
	nIterations          500 \
	history              15 \
	knormThreshold       0.0001 \
	energyDiffThreshold  1e-06 \
	nEnergyDiff          2 \
	alphaTstart          1 \
	alphaTmin            1e-10 \
	updateTestStepSize   yes \
	alphaTreduceFactor   0.1 \
	alphaTincreaseFactor 3 \
	nAlphaAdjustMax      3 \
	wolfeEnergy          0.0001 \
	wolfeGradient        0.9 \
	fdTest               no
kpoint   0.000000000000   0.000000000000   0.000000000000  1.00000000000000
kpoint-folding 6 6 1 
latt-move-scale 1 1 1
latt-scale 1.88973 1.88973 1.88973 
lattice Triclinic 10.0123 10.0123 15 90 90 120
lattice-minimize  \
	dirUpdateScheme      L-BFGS \
	linminMethod         DirUpdateRecommended \
	nIterations          0 \
	history              15 \
	knormThreshold       0 \
	energyDiffThreshold  1e-06 \
	nEnergyDiff          2 \
	alphaTstart          1 \
	alphaTmin            1e-10 \
	updateTestStepSize   yes \
	alphaTreduceFactor   0.1 \
	alphaTincreaseFactor 3 \
	nAlphaAdjustMax      3 \
	wolfeEnergy          0.0001 \
	wolfeGradient        0.9 \
	fdTest               no
lcao-params -1 1e-06 0.0073499
pcm-variant CANDLE
spintype z-spin
subspace-rotation-factor 1 yes
symmetries automatic
symmetry-threshold 0.0001



---------- Setting up symmetries ----------

Found 24 point-group symmetries of the bravais lattice
Found 64 space-group symmetries with basis
Applied RMS atom displacement 3.8962e-07 bohrs to make symmetries exact.

---------- Initializing the Grid ----------
R = 
[    18.9205   -9.46025          0  ]
[          0    16.3856          0  ]
[          0          0    28.3459  ]
unit cell volume = 8787.92
G =
[   0.332083   0.191728         -0  ]
[          0   0.383457          0  ]
[          0         -0   0.221661  ]
Minimum fftbox size, Smin = [  80  80  116  ]
Chosen fftbox size, S = [  80  80  120  ]

---------- Exchange Correlation functional ----------
Initalized PBE GGA exchange.
Initalized PBE GGA correlation.

---------- Setting up pseudopotentials ----------
Width of ionic core gaussian charges (only for fluid interactions / plotting) set to 0.397384

Reading pseudopotential file '/home/guoxy/vasp/jdftx-1.5.0/build/pseudopotentials/GBRV/b_pbe.uspp':
  Title: B.  Created by USPP 7.3.6 on 8-4-15
  Reference state energy: -2.950027.  3 valence electrons in orbitals:
    |200>  occupation: 2  eigenvalue: -0.346865
    |210>  occupation: 1  eigenvalue: -0.132618
  lMax: 1  lLocal: 2  QijEcut: 6
  4 projectors sampled on a log grid with 559 points:
    l: 0  eig: -0.346865  rCut: 1.25
    l: 0  eig: -0.500000  rCut: 1.25
    l: 1  eig: -0.346865  rCut: 1.25
    l: 1  eig: -1.000000  rCut: 1.25
  Partial core density with radius 0.9
  Transforming core density to a uniform radial grid of dG=0.02 with 1491 points.
  Transforming local potential to a uniform radial grid of dG=0.02 with 1491 points.
  Transforming nonlocal projectors to a uniform radial grid of dG=0.02 with 432 points.
  Transforming density augmentations to a uniform radial grid of dG=0.02 with 1491 points.
  Transforming atomic orbitals to a uniform radial grid of dG=0.02 with 432 points.
  Core radius for overlap checks: 1.25 bohrs.

Reading pseudopotential file '/home/guoxy/vasp/jdftx-1.5.0/build/pseudopotentials/GBRV/n_pbe.uspp':
  Title: N.  Created by USPP 7.3.6 on 3-2-2014
  Reference state energy: -9.763716.  5 valence electrons in orbitals:
    |200>  occupation: 2  eigenvalue: -0.681964
    |210>  occupation: 3  eigenvalue: -0.260726
  lMax: 1  lLocal: 2  QijEcut: 6
  4 projectors sampled on a log grid with 491 points:
    l: 0  eig: -0.681964  rCut: 1.15
    l: 0  eig: 0.000000  rCut: 1.15
    l: 1  eig: -0.260729  rCut: 1.2
    l: 1  eig: 0.500000  rCut: 1.2
  Partial core density with radius 0.8
  Transforming core density to a uniform radial grid of dG=0.02 with 1491 points.
  Transforming local potential to a uniform radial grid of dG=0.02 with 1491 points.
  Transforming nonlocal projectors to a uniform radial grid of dG=0.02 with 432 points.
  Transforming density augmentations to a uniform radial grid of dG=0.02 with 1491 points.
  Transforming atomic orbitals to a uniform radial grid of dG=0.02 with 432 points.
  Core radius for overlap checks: 1.20 bohrs.

Initialized 2 species with 32 total atoms.

Folded 1 k-points by 6x6x1 to 36 k-points.

---------- Setting up k-points, bands, fillings ----------
Adding inversion symmetry to k-mesh for non-inversion-symmetric unit cell.
Reduced to 13 k-points under symmetry. 
Computing the number of bands and number of electrons
Calculating initial fillings.
nElectrons: 126.500000   nBands: 128   nStates: 26

----- Setting up reduced wavefunction bases (one per k-point) -----
average nbasis = 37544.417 , ideal nbasis = 37542.666

---------- Setting up coulomb interaction ----------
Fluid mode embedding: using embedded box, but periodic Coulomb kernel.
(Fluid response is responsible for (approximate) separation between periodic images.)
Setting up double-sized grid for truncated Coulomb potentials:
R = 
[    18.9205   -9.46025          0  ]
[          0    16.3856          0  ]
[          0          0    56.6918  ]
unit cell volume = 17575.8
G =
[   0.332083   0.191728         -0  ]
[          0   0.383457          0  ]
[          0         -0   0.110831  ]
Chosen fftbox size, S = [  80  80  240  ]
Integer grid location selected as the embedding center:
   Grid: [  40  40  60  ]
   Lattice: [  0.5  0.5  0.5  ]
   Cartesian: [  4.73013  8.19282  14.1729  ]
Constructing Wigner-Seitz cell: 8 faces (6 quadrilaterals, 2 hexagons)
Range-separation parameter for embedded mesh potentials due to point charges: 0.613524 bohrs.

Initializing van der Waals corrections
	NOTE: vdW corrections apply only for interactions with fluid.
	 B:  C6:   54.29 Eh-a0^6  R0: 2.806 a0
	 N:  C6:   21.33 Eh-a0^6  R0: 2.640 a0

---------- Setting up ewald sum ----------
Optimum gaussian width for ewald sums = 5.821351 bohr.
Real space sum over 605 unit cells with max indices [  5  5  2  ]
Reciprocal space sum over 5577 terms with max indices [  6  6  16  ]

---------- Allocating electronic variables ----------
Initializing wave functions:  linear combination of atomic orbitals
B pseudo-atom occupations:   s ( 2 )  p ( 1 )
N pseudo-atom occupations:   s ( 2 )  p ( 3 )
	FillingsUpdate:  mu: -0.649627780  nElectrons: 126.500000  magneticMoment: [ Abs: 0.93625  Tot: +0.91477 ]
LCAOMinimize: Iter:   0  F: -203.7475270885492193  |grad|_K:  3.638e-03  alpha:  1.000e+00
	FillingsUpdate:  mu: -0.488559941  nElectrons: 126.500000  magneticMoment: [ Abs: 1.00878  Tot: +0.98719 ]
LCAOMinimize: Iter:   1  F: -204.7648318585092682  |grad|_K:  4.134e-04  alpha:  4.291e-01  linmin:  5.775e-01  cgtest: -1.066e+00  t[s]:     79.84
LCAOMinimize: 	Bad step direction: g.d > 0.
LCAOMinimize: 	Undoing step.
LCAOMinimize: 	Step failed: resetting search direction.
	FillingsUpdate:  mu: -0.488559941  nElectrons: 126.500000  magneticMoment: [ Abs: 1.00878  Tot: +0.98719 ]
LCAOMinimize: Iter:   2  F: -204.7648318585092682  |grad|_K:  4.134e-04  alpha:  0.000e+00
	FillingsUpdate:  mu: -0.505874793  nElectrons: 126.500000  magneticMoment: [ Abs: 0.82709  Tot: +0.76239 ]
LCAOMinimize: Iter:   3  F: -204.7801226966823265  |grad|_K:  5.413e-05  alpha:  4.132e-01  linmin:  1.331e-02  cgtest: -8.880e-02  t[s]:    120.09
LCAOMinimize: 	Predicted alpha/alphaT>3.000000, increasing alphaT to 1.239719e+00.
	FillingsUpdate:  mu: -0.505694446  nElectrons: 126.500000  magneticMoment: [ Abs: 0.35039  Tot: +0.06177 ]
LCAOMinimize: Iter:   4  F: -204.7811297542844500  |grad|_K:  2.237e-05  alpha:  1.675e+00  linmin:  1.174e-01  cgtest: -1.467e-01  t[s]:    151.71
	FillingsUpdate:  mu: -0.504890555  nElectrons: 126.500000  magneticMoment: [ Abs: 0.09300  Tot: -0.03591 ]
LCAOMinimize: Iter:   5  F: -204.7812437525386144  |grad|_K:  1.735e-05  alpha:  1.218e+00  linmin: -3.879e-04  cgtest:  2.236e-01  t[s]:    175.75
	FillingsUpdate:  mu: -0.505598498  nElectrons: 126.500000  magneticMoment: [ Abs: 0.04403  Tot: -0.03421 ]
LCAOMinimize: Iter:   6  F: -204.7812817056872063  |grad|_K:  4.642e-06  alpha:  5.805e-01  linmin: -1.648e-03  cgtest: -6.788e-02  t[s]:    200.06
	FillingsUpdate:  mu: -0.505454151  nElectrons: 126.500000  magneticMoment: [ Abs: 0.02209  Tot: -0.01429 ]
LCAOMinimize: Iter:   7  F: -204.7812861062608931  |grad|_K:  1.525e-06  alpha:  9.417e-01  linmin: -1.632e-05  cgtest: -6.768e-03  t[s]:    224.58
	FillingsUpdate:  mu: -0.505520007  nElectrons: 126.500000  magneticMoment: [ Abs: 0.01753  Tot: -0.00792 ]
LCAOMinimize: Iter:   8  F: -204.7812865315059980  |grad|_K:  1.000e-06  alpha:  8.455e-01  linmin: -3.004e-06  cgtest:  6.156e-04  t[s]:    249.14
	FillingsUpdate:  mu: -0.505480468  nElectrons: 126.500000  magneticMoment: [ Abs: 0.00868  Tot: -0.00249 ]
LCAOMinimize: Iter:   9  F: -204.7812867455861863  |grad|_K:  5.022e-07  alpha:  9.889e-01  linmin: -1.434e-04  cgtest:  2.879e-04  t[s]:    274.39
LCAOMinimize: Converged (|Delta F|<1.000000e-06 for 2 iters).
----- createFluidSolver() ----- (Fluid-side solver setup)
   Initializing fluid molecule 'H2O'
     Initializing site 'O'
       Electron density: proportional to exp(-r/0.36935)*erfc((r-0.51523)/0.36823) with norm 6.826
       Charge density: gaussian nuclear width 0.478731 with net site charge 0.826
       Polarizability: cuspless exponential with width 0.32 and norm 3.73
       Hard sphere radius: 2.57003 bohrs
       Positions in reference frame:
         [ +0.000000 +0.000000 +0.000000 ]
     Initializing site 'H'
       Electron density: proportional to exp(-r/0.34641)*erfc((r-0)/0.390882) with norm 0.587
       Charge density: gaussian nuclear width 0.377945 with net site charge -0.413
       Polarizability: cuspless exponential with width 0.39 and norm 3.3
       Positions in reference frame:
         [ +0.000000 -1.441945 +1.122523 ]
         [ +0.000000 +1.441945 +1.122523 ]
     Net charge: 0   dipole magnitude: 0.927204
     Initializing spherical shell mfKernel with radius 2.61727 Bohr
     deltaS corrections:
       site 'O': -7.54299
       site 'H': -6.83917
   Initializing fluid molecule 'Na+'
     Initializing site 'Na'
       Electron density: proportional to exp(-r/0.19682)*erfc((r-0.71491)/0.41314) with norm 8.1383
       Charge density: gaussian nuclear width 0.365347 with net site charge -1
       Hard sphere radius: 1.86327 bohrs
       Positions in reference frame:
         [ +0.000000 +0.000000 +0.000000 ]
     Net charge: -1   dipole magnitude: 0
     Initializing gaussian mfKernel with width: 1.55004 Bohr
     deltaS corrections:
       site 'Na': -22.3555
   Initializing fluid molecule 'F-'
     Initializing site 'F'
       Electron density: proportional to exp(-r/0.38886)*erfc((r-0)/0.438782) with norm 8
       Charge density: gaussian nuclear width 0.374796 with net site charge 1
       Hard sphere radius: 2.39995 bohrs
       Positions in reference frame:
         [ +0.000000 +0.000000 +0.000000 ]
     Net charge: 1   dipole magnitude: 0
     Initializing gaussian mfKernel with width: 1.59012 Bohr
     deltaS corrections:
       site 'F': -9.04335

Correction to mu due to finite nuclear width = -0.00722593
   Cavity determined by nc: 0.00142 and sigma: 0.707107
   Nonlocal vdW cavity from gaussian model electron density with norm = 8 and sigma = 0.993594 bohr
   Charge asymmetry in cavity with sensitivity pCavity = 36.5 e-bohr/Eh
   Electrostatic cavity expanded by eta = 1.46 bohrs
   Weighted density cavitation model constrained by Nbulk: 0.0049383 bohr^-3, Pvap: 3.14029 kPa, Rvdw: 2.61727 bohr and sigmaBulk: 4.62e-05 Eh/bohr^2 at T: 298 K.
   Weighted density dispersion model using vdW pair potentials with single solvent site with sqrtC6eff: 0.77 SI.


---- Citations for features of the code used in this run ----

   Software package:
      R. Sundararaman, K. Letchworth-Weaver, K.A. Schwarz, D. Gunceler, Y. Ozhabes and T.A. Arias, 'JDFTx: software for joint density-functional theory', SoftwareX 6, 278 (2017)

   gga-PBE exchange-correlation functional:
      J.P. Perdew, K. Burke and M. Ernzerhof, Phys. Rev. Lett. 77, 3865 (1996)

   Pseudopotentials:
      KF Garrity, JW Bennett, KM Rabe and D Vanderbilt, Comput. Mater. Sci. 81, 446 (2014)

   Truncated Coulomb potentials:
      R. Sundararaman and T.A. Arias, Phys. Rev. B 87, 165122 (2013)

   Van der Waals correction pair-potentials:
      S. Grimme, J. Comput. Chem. 27, 1787 (2006)

   Charge-asymmetric nonlocally-determined local-electric (CANDLE) solvation model:
      R. Sundararaman and W.A. Goddard III, J. Chem. Phys. 142, 064107 (2015)

   Total energy minimization with Auxiliary Hamiltonian:
      C. Freysoldt, S. Boeck, and J. Neugebauer, Phys. Rev. B 79, 241103(R) (2009)

This list may not be complete. Please suggest additional citations or
report any other bugs at https://github.com/shankar1729/jdftx/issues

Initialization completed successfully at t[s]:    277.70

Fluid solver invoked on fresh (partially random / LCAO) wavefunctions
Running a vacuum solve first:

-------- Initial electronic minimization -----------
	FillingsUpdate:  mu: -0.505480468  nElectrons: 126.500000  magneticMoment: [ Abs: 0.00868  Tot: -0.00249 ]
ElecMinimize: Iter:   0  F: -204.781286745586613  |grad|_K:  1.278e-04  alpha:  1.000e+00
	FillingsUpdate:  mu: -0.429829771  nElectrons: 126.500000  magneticMoment: [ Abs: 0.00555  Tot: -0.00208 ]
	SubspaceRotationAdjust: set factor to 1
ElecMinimize: Iter:   1  F: -206.294261441266400  |grad|_K:  3.581e-05  alpha:  7.409e-01  linmin:  1.971e-05  t[s]:    325.09
	FillingsUpdate:  mu: -0.400925029  nElectrons: 126.500000  magneticMoment: [ Abs: 0.00329  Tot: -0.00160 ]
	SubspaceRotationAdjust: set factor to 0.705
ElecMinimize: Iter:   2  F: -206.422733410512791  |grad|_K:  1.675e-05  alpha:  8.002e-01  linmin: -7.240e-05  t[s]:    352.93
	FillingsUpdate:  mu: -0.412645002  nElectrons: 126.500000  magneticMoment: [ Abs: 0.00202  Tot: -0.00111 ]
	SubspaceRotationAdjust: set factor to 0.554
ElecMinimize: Iter:   3  F: -206.444945068382765  |grad|_K:  8.350e-06  alpha:  6.257e-01  linmin:  1.069e-05  t[s]:    380.75
	FillingsUpdate:  mu: -0.409602562  nElectrons: 126.500000  magneticMoment: [ Abs: 0.00120  Tot: -0.00077 ]
	SubspaceRotationAdjust: set factor to 0.673
ElecMinimize: Iter:   4  F: -206.451450817244620  |grad|_K:  3.355e-06  alpha:  7.480e-01  linmin:  2.877e-05  t[s]:    408.70
	FillingsUpdate:  mu: -0.408148925  nElectrons: 126.500000  magneticMoment: [ Abs: 0.00085  Tot: -0.00058 ]
	SubspaceRotationAdjust: set factor to 0.843
ElecMinimize: Iter:   5  F: -206.452549352091438  |grad|_K:  1.717e-06  alpha:  7.829e-01  linmin:  2.039e-05  t[s]:    437.71
	FillingsUpdate:  mu: -0.408604448  nElectrons: 126.500000  magneticMoment: [ Abs: 0.00059  Tot: -0.00040 ]
	SubspaceRotationAdjust: set factor to 1.14
ElecMinimize: Iter:   6  F: -206.452842481951052  |grad|_K:  8.829e-07  alpha:  7.983e-01  linmin:  8.421e-06  t[s]:    465.62
	FillingsUpdate:  mu: -0.408358374  nElectrons: 126.500000  magneticMoment: [ Abs: 0.00043  Tot: -0.00028 ]
	SubspaceRotationAdjust: set factor to 1.3
ElecMinimize: Iter:   7  F: -206.452901525308306  |grad|_K:  3.828e-07  alpha:  6.079e-01  linmin:  1.108e-06  t[s]:    495.54
	FillingsUpdate:  mu: -0.408344014  nElectrons: 126.500000  magneticMoment: [ Abs: 0.00027  Tot: -0.00016 ]
	SubspaceRotationAdjust: set factor to 1.35
ElecMinimize: Iter:   8  F: -206.452914362364197  |grad|_K:  2.035e-07  alpha:  7.015e-01  linmin:  1.735e-06  t[s]:    524.63
	FillingsUpdate:  mu: -0.408445808  nElectrons: 126.500000  magneticMoment: [ Abs: 0.00014  Tot: -0.00008 ]
	SubspaceRotationAdjust: set factor to 1.67
ElecMinimize: Iter:   9  F: -206.452917918625474  |grad|_K:  1.254e-07  alpha:  6.889e-01  linmin:  1.799e-06  t[s]:    553.40
	FillingsUpdate:  mu: -0.408409553  nElectrons: 126.500000  magneticMoment: [ Abs: 0.00006  Tot: -0.00003 ]
	SubspaceRotationAdjust: set factor to 1.52
ElecMinimize: Iter:  10  F: -206.452919024901860  |grad|_K:  6.380e-08  alpha:  5.660e-01  linmin:  3.822e-07  t[s]:    582.12
	FillingsUpdate:  mu: -0.408428147  nElectrons: 126.500000  magneticMoment: [ Abs: 0.00002  Tot: -0.00001 ]
	SubspaceRotationAdjust: set factor to 1.7
ElecMinimize: Iter:  11  F: -206.452919328040934  |grad|_K:  3.243e-08  alpha:  5.959e-01  linmin:  3.099e-07  t[s]:    611.06
	FillingsUpdate:  mu: -0.408425239  nElectrons: 126.500000  magneticMoment: [ Abs: 0.00001  Tot: -0.00000 ]
	SubspaceRotationAdjust: set factor to 2.04
ElecMinimize: Iter:  12  F: -206.452919410660598  |grad|_K:  1.518e-08  alpha:  6.289e-01  linmin:  3.330e-07  t[s]:    640.07
	FillingsUpdate:  mu: -0.408421802  nElectrons: 126.500000  magneticMoment: [ Abs: 0.00000  Tot: -0.00000 ]
	SubspaceRotationAdjust: set factor to 1.97
ElecMinimize: Iter:  13  F: -206.452919427891118  |grad|_K:  8.465e-09  alpha:  5.986e-01  linmin:  6.074e-08  t[s]:    668.58
	FillingsUpdate:  mu: -0.408425960  nElectrons: 126.500000  magneticMoment: [ Abs: 0.00000  Tot: -0.00000 ]
	SubspaceRotationAdjust: set factor to 1.58
ElecMinimize: Iter:  14  F: -206.452919432443252  |grad|_K:  5.008e-09  alpha:  5.084e-01  linmin: -2.370e-08  t[s]:    697.63
	FillingsUpdate:  mu: -0.408423598  nElectrons: 126.500000  magneticMoment: [ Abs: 0.00000  Tot: -0.00000 ]
	SubspaceRotationAdjust: set factor to 1.53
ElecMinimize: Iter:  15  F: -206.452919433970010  |grad|_K:  2.707e-09  alpha:  4.937e-01  linmin:  1.526e-07  t[s]:    725.97
ElecMinimize: Converged (|Delta F|<1.000000e-08 for 2 iters).
Setting wave functions to eigenvectors of Hamiltonian
Vacuum energy after initial minimize, F = -206.452919433970010

	Linear fluid (dielectric constant: 78.4, screening length: 5.74355 Bohr) occupying 0.812932 of unit cell:	Completed after 13 iterations at t[s]:    736.15

-------- Electronic minimization -----------
	Linear fluid (dielectric constant: 78.4, screening length: 5.74355 Bohr) occupying 0.812932 of unit cell:	Completed after 0 iterations at t[s]:    746.29
	FillingsUpdate:  mu: -0.268715013  nElectrons: 126.500000  magneticMoment: [ Abs: 0.00000  Tot: -0.00000 ]
ElecMinimize: Iter:   0  F: -206.530510031921096  |grad|_K:  2.292e-06  alpha:  1.000e+00
	Linear fluid (dielectric constant: 78.4, screening length: 5.74355 Bohr) occupying 0.813830 of unit cell:	Completed after 9 iterations at t[s]:    769.81
	Linear fluid (dielectric constant: 78.4, screening length: 5.74355 Bohr) occupying 0.813423 of unit cell:	Completed after 7 iterations at t[s]:    782.24
	FillingsUpdate:  mu: -0.265342469  nElectrons: 126.500000  magneticMoment: [ Abs: 0.00002  Tot: -0.00000 ]
	SubspaceRotationAdjust: set factor to 0.922
ElecMinimize: Iter:   1  F: -206.530862064207923  |grad|_K:  1.271e-06  alpha:  5.423e-01  linmin:  9.676e-07  t[s]:    795.27
	Linear fluid (dielectric constant: 78.4, screening length: 5.74355 Bohr) occupying 0.813624 of unit cell:	Completed after 7 iterations at t[s]:    805.31
	Linear fluid (dielectric constant: 78.4, screening length: 5.74355 Bohr) occupying 0.813610 of unit cell:	Completed after 2 iterations at t[s]:    817.37
	FillingsUpdate:  mu: -0.265418126  nElectrons: 126.500000  magneticMoment: [ Abs: 0.00003  Tot: -0.00000 ]
	SubspaceRotationAdjust: set factor to 0.651
ElecMinimize: Iter:   2  F: -206.530963376582093  |grad|_K:  4.918e-07  alpha:  5.036e-01  linmin:  2.040e-07  t[s]:    830.41
	Linear fluid (dielectric constant: 78.4, screening length: 5.74355 Bohr) occupying 0.813664 of unit cell:	Completed after 2 iterations at t[s]:    839.45
	Linear fluid (dielectric constant: 78.4, screening length: 5.74355 Bohr) occupying 0.813718 of unit cell:	Completed after 4 iterations at t[s]:    850.79
	FillingsUpdate:  mu: -0.265161562  nElectrons: 126.500000  magneticMoment: [ Abs: 0.00002  Tot: -0.00000 ]
	SubspaceRotationAdjust: set factor to 1.02
ElecMinimize: Iter:   3  F: -206.530993368930183  |grad|_K:  2.272e-07  alpha:  1.001e+00  linmin:  6.182e-06  t[s]:    862.49
	Linear fluid (dielectric constant: 78.4, screening length: 5.74355 Bohr) occupying 0.813732 of unit cell:	Completed after 2 iterations at t[s]:    870.46
	Linear fluid (dielectric constant: 78.4, screening length: 5.74355 Bohr) occupying 0.813728 of unit cell:	Completed after 1 iterations at t[s]:    880.54
	FillingsUpdate:  mu: -0.265127730  nElectrons: 126.500000  magneticMoment: [ Abs: 0.00002  Tot: -0.00000 ]
	SubspaceRotationAdjust: set factor to 1.45
ElecMinimize: Iter:   4  F: -206.530997885138845  |grad|_K:  8.087e-08  alpha:  7.077e-01  linmin:  4.591e-07  t[s]:    893.53
	Linear fluid (dielectric constant: 78.4, screening length: 5.74355 Bohr) occupying 0.813720 of unit cell:	Completed after 1 iterations at t[s]:    902.86
	Linear fluid (dielectric constant: 78.4, screening length: 5.74355 Bohr) occupying 0.813719 of unit cell:	Completed after 0 iterations at t[s]:    914.17
	FillingsUpdate:  mu: -0.265116059  nElectrons: 126.500000  magneticMoment: [ Abs: 0.00001  Tot: -0.00000 ]
	SubspaceRotationAdjust: set factor to 1.32
ElecMinimize: Iter:   5  F: -206.530998516374126  |grad|_K:  3.218e-08  alpha:  7.715e-01  linmin: -1.400e-06  t[s]:    927.38
	Linear fluid (dielectric constant: 78.4, screening length: 5.74355 Bohr) occupying 0.813715 of unit cell:	Completed after 2 iterations at t[s]:    936.52
	Linear fluid (dielectric constant: 78.4, screening length: 5.74355 Bohr) occupying 0.813715 of unit cell:	Completed after 0 iterations at t[s]:    949.42
	FillingsUpdate:  mu: -0.265162614  nElectrons: 126.500000  magneticMoment: [ Abs: 0.00001  Tot: -0.00000 ]
	SubspaceRotationAdjust: set factor to 0.919
ElecMinimize: Iter:   6  F: -206.530998600752667  |grad|_K:  2.184e-08  alpha:  6.365e-01  linmin:  4.925e-06  t[s]:    964.08
	Linear fluid (dielectric constant: 78.4, screening length: 5.74355 Bohr) occupying 0.813715 of unit cell:	Completed after 0 iterations at t[s]:    973.63
	Linear fluid (dielectric constant: 78.4, screening length: 5.74355 Bohr) occupying 0.813715 of unit cell:	Completed after 1 iterations at t[s]:    986.34
	FillingsUpdate:  mu: -0.265142850  nElectrons: 126.500000  magneticMoment: [ Abs: 0.00000  Tot: -0.00000 ]
	SubspaceRotationAdjust: set factor to 0.558
ElecMinimize: Iter:   7  F: -206.530998614249057  |grad|_K:  1.442e-08  alpha:  7.969e-01  linmin:  1.742e-05  t[s]:   1001.17
	Linear fluid (dielectric constant: 78.4, screening length: 5.74355 Bohr) occupying 0.813715 of unit cell:	Completed after 0 iterations at t[s]:   1011.15
	Linear fluid (dielectric constant: 78.4, screening length: 5.74355 Bohr) occupying 0.813715 of unit cell:	Completed after 0 iterations at t[s]:   1022.36
	FillingsUpdate:  mu: -0.265144880  nElectrons: 126.500000  magneticMoment: [ Abs: 0.00000  Tot: -0.00000 ]
	SubspaceRotationAdjust: set factor to 0.9
ElecMinimize: Iter:   8  F: -206.530998621697222  |grad|_K:  9.476e-09  alpha:  6.010e-01  linmin: -3.932e-06  t[s]:   1035.20
	Linear fluid (dielectric constant: 78.4, screening length: 5.74355 Bohr) occupying 0.813715 of unit cell:	Completed after 0 iterations at t[s]:   1043.79
	Linear fluid (dielectric constant: 78.4, screening length: 5.74355 Bohr) occupying 0.813715 of unit cell:	Completed after 0 iterations at t[s]:   1054.44
	FillingsUpdate:  mu: -0.265143137  nElectrons: 126.500000  magneticMoment: [ Abs: 0.00000  Tot: +0.00000 ]
	SubspaceRotationAdjust: set factor to 1.16
ElecMinimize: Iter:   9  F: -206.530998632964781  |grad|_K:  8.307e-09  alpha:  9.241e-01  linmin:  3.015e-08  t[s]:   1067.10
	Linear fluid (dielectric constant: 78.4, screening length: 5.74355 Bohr) occupying 0.813715 of unit cell:	Completed after 1 iterations at t[s]:   1076.03
	Linear fluid (dielectric constant: 78.4, screening length: 5.74355 Bohr) occupying 0.813715 of unit cell:	Completed after 0 iterations at t[s]:   1087.51
ElecMinimize: 	Step increased F by 1.153919e-08, reducing alpha to 8.872988e-03.
	Linear fluid (dielectric constant: 78.4, screening length: 5.74355 Bohr) occupying 0.813715 of unit cell:	Completed after 0 iterations at t[s]:   1108.55
ElecMinimize: 	Step increased F by 7.034828e-09, reducing alpha to 8.872988e-04.
	Linear fluid (dielectric constant: 78.4, screening length: 5.74355 Bohr) occupying 0.813715 of unit cell:	Completed after 0 iterations at t[s]:   1129.81
ElecMinimize: 	Step increased F by 6.583349e-09, reducing alpha to 8.872988e-05.
ElecMinimize: 	Step failed to reduce F after 3 attempts. Quitting step.
ElecMinimize: 	Undoing step.
	Linear fluid (dielectric constant: 78.4, screening length: 5.74355 Bohr) occupying 0.813715 of unit cell:	Completed after 0 iterations at t[s]:   1150.90
ElecMinimize: 	Step failed: resetting search direction.
	FillingsUpdate:  mu: -0.265187405  nElectrons: 126.500000  magneticMoment: [ Abs: 0.00000  Tot: +0.00000 ]
	SubspaceRotationAdjust: set factor to 1.08
ElecMinimize: Iter:  10  F: -206.530998626365488  |grad|_K:  3.250e-08  alpha:  8.873e-05
	Linear fluid (dielectric constant: 78.4, screening length: 5.74355 Bohr) occupying 0.813718 of unit cell:	Completed after 2 iterations at t[s]:   1172.81
	Linear fluid (dielectric constant: 78.4, screening length: 5.74355 Bohr) occupying 0.813716 of unit cell:	Completed after 1 iterations at t[s]:   1184.04
ElecMinimize: 	Step increased F by 3.593868e-09, reducing alpha to 2.548543e-02.
	Linear fluid (dielectric constant: 78.4, screening length: 5.74355 Bohr) occupying 0.813715 of unit cell:	Completed after 0 iterations at t[s]:   1205.00
	FillingsUpdate:  mu: -0.265150386  nElectrons: 126.500000  magneticMoment: [ Abs: 0.00000  Tot: +0.00000 ]
	SubspaceRotationAdjust: set factor to 0.491
ElecMinimize: Iter:  11  F: -206.530998628710051  |grad|_K:  7.982e-09  alpha:  2.549e-02  linmin:  2.101e-06  t[s]:   1218.09
	Linear fluid (dielectric constant: 78.4, screening length: 5.74355 Bohr) occupying 0.813715 of unit cell:	Completed after 0 iterations at t[s]:   1226.57
ElecMinimize: 	Predicted alpha/alphaT>3.000000, increasing alphaT to 7.645630e-02.
	Linear fluid (dielectric constant: 78.4, screening length: 5.74355 Bohr) occupying 0.813715 of unit cell:	Completed after 0 iterations at t[s]:   1237.25
ElecMinimize: 	Predicted alpha/alphaT>3.000000, increasing alphaT to 2.293689e-01.
	Linear fluid (dielectric constant: 78.4, screening length: 5.74355 Bohr) occupying 0.813715 of unit cell:	Completed after 0 iterations at t[s]:   1248.15
ElecMinimize: 	Predicted alpha/alphaT>3.000000, increasing alphaT to 6.881067e-01.
	Linear fluid (dielectric constant: 78.4, screening length: 5.74355 Bohr) occupying 0.813715 of unit cell:	Completed after 0 iterations at t[s]:   1259.05
	FillingsUpdate:  mu: -0.265150244  nElectrons: 126.500000  magneticMoment: [ Abs: 0.00000  Tot: +0.00000 ]
	SubspaceRotationAdjust: set factor to 0.843
ElecMinimize: Iter:  12  F: -206.530998634286476  |grad|_K:  3.853e-09  alpha:  7.235e-01  linmin:  5.200e-07  t[s]:   1272.16
ElecMinimize: Converged (|Delta F|<1.000000e-08 for 2 iters).
Setting wave functions to eigenvectors of Hamiltonian
Single-point solvation energy estimate, DeltaF = -0.078079200316466

# Ionic positions in lattice coordinates:
ion B   0.166670009390625   0.083330014890624   0.500000000000000 1
ion B   0.416670009390625   0.083330014890624   0.500000000000000 1
ion B   0.666670009390625   0.083330014890624   0.500000000000000 1
ion B   0.916670009390625   0.083330014890624   0.500000000000000 1
ion B   0.166670009390625   0.333330014890624   0.500000000000000 1
ion B   0.416670009390625   0.333330014890624   0.500000000000000 1
ion B   0.666670009390625   0.333330014890624   0.500000000000000 1
ion B   0.916670009390625   0.333330014890624   0.500000000000000 1
ion B   0.166670009390625   0.583330014890624   0.500000000000000 1
ion B   0.416670009390625   0.583330014890624   0.500000000000000 1
ion B   0.666670009390625   0.583330014890624   0.500000000000000 1
ion B   0.916670009390625   0.583330014890624   0.500000000000000 1
ion B   0.166670009390625   0.833330014890624   0.500000000000000 1
ion B   0.416670009390625   0.833330014890624   0.500000000000000 1
ion B   0.666670009390625   0.833330014890624   0.500000000000000 1
ion B   0.916670009390625   0.833330014890624   0.500000000000000 1
ion N   0.083330006421875   0.166670017859374   0.500000000000000 1
ion N   0.333330006421875   0.166670017859374   0.500000000000000 1
ion N   0.583330006421875   0.166670017859374   0.500000000000000 1
ion N   0.833330006421875   0.166670017859374   0.500000000000000 1
ion N   0.083330006421875   0.416670017859374   0.500000000000000 1
ion N   0.333330006421875   0.416670017859374   0.500000000000000 1
ion N   0.583330006421875   0.416670017859374   0.500000000000000 1
ion N   0.833330006421875   0.416670017859374   0.500000000000000 1
ion N   0.083330006421875   0.666670017859374   0.500000000000000 1
ion N   0.333330006421875   0.666670017859374   0.500000000000000 1
ion N   0.583330006421875   0.666670017859374   0.500000000000000 1
ion N   0.833330006421875   0.666670017859374   0.500000000000000 1
ion N   0.083330006421875   0.916670017859374   0.500000000000000 1
ion N   0.333330006421875   0.916670017859374   0.500000000000000 1
ion N   0.583330006421875   0.916670017859374   0.500000000000000 1
ion N   0.833330006421875   0.916670017859374   0.500000000000000 1


# Forces in Lattice coordinates:
force B  -0.001551900637963   0.001551900637963  -0.000000000000000 1
force B  -0.001551900637963   0.001551900637963  -0.000000000000000 1
force B  -0.001551900637963   0.001551900637963  -0.000000000000000 1
force B  -0.001551900637963   0.001551900637963   0.000000000000000 1
force B  -0.001551900637963   0.001551900637963   0.000000000000000 1
force B  -0.001551900637963   0.001551900637963   0.000000000000000 1
force B  -0.001551900637963   0.001551900637963  -0.000000000000000 1
force B  -0.001551900637963   0.001551900637963   0.000000000000000 1
force B  -0.001551900637963   0.001551900637963  -0.000000000000000 1
force B  -0.001551900637963   0.001551900637963  -0.000000000000000 1
force B  -0.001551900637963   0.001551900637963  -0.000000000000000 1
force B  -0.001551900637963   0.001551900637963   0.000000000000000 1
force B  -0.001551900637963   0.001551900637963  -0.000000000000000 1
force B  -0.001551900637963   0.001551900637963  -0.000000000000000 1
force B  -0.001551900637963   0.001551900637963  -0.000000000000000 1
force B  -0.001551900637963   0.001551900637963   0.000000000000000 1
force N   0.001585543587956  -0.001585543587956   0.000000000000000 1
force N   0.001585543587956  -0.001585543587956   0.000000000000000 1
force N   0.001585543587956  -0.001585543587956  -0.000000000000000 1
force N   0.001585543587956  -0.001585543587956   0.000000000000000 1
force N   0.001585543587956  -0.001585543587956   0.000000000000000 1
force N   0.001585543587956  -0.001585543587956   0.000000000000000 1
force N   0.001585543587956  -0.001585543587956  -0.000000000000000 1
force N   0.001585543587956  -0.001585543587956  -0.000000000000000 1
force N   0.001585543587956  -0.001585543587956   0.000000000000000 1
force N   0.001585543587956  -0.001585543587956  -0.000000000000000 1
force N   0.001585543587956  -0.001585543587956  -0.000000000000000 1
force N   0.001585543587956  -0.001585543587956  -0.000000000000000 1
force N   0.001585543587956  -0.001585543587956   0.000000000000000 1
force N   0.001585543587956  -0.001585543587956   0.000000000000000 1
force N   0.001585543587956  -0.001585543587956  -0.000000000000000 1
force N   0.001585543587956  -0.001585543587956   0.000000000000000 1

# Energy components:
   A_diel =       -0.0894002404407523
   Eewald =     1248.1722017259053246
       EH =     1387.5173403113246877
     Eloc =    -2931.0133260443199106
      Enl =       30.1375426549651166
      Exc =      -67.3075808334211700
 Exc_core =        6.8944935515921957
       KE =      119.1620763670122471
  MuShift =        0.0108388876730726
-------------------------------------
     Etot =     -206.5158136197094052
       TS =        0.0151850145770617
-------------------------------------
        F =     -206.5309986342864761

IonicMinimize: Iter:   0  F: -206.530998634286476  |grad|_K:  5.527e-05  t[s]:   1278.73
IonicMinimize: Converged (|grad|_K<1.000000e-04).

#--- Lowdin population analysis ---
# oxidation-state B +0.526 +0.526 +0.526 +0.526 +0.526 +0.526 +0.526 +0.526 +0.526 +0.526 +0.526 +0.526 +0.526 +0.526 +0.526 +0.526
# magnetic-moments B -0.000 -0.000 -0.000 -0.000 -0.000 -0.000 -0.000 -0.000 -0.000 -0.000 -0.000 -0.000 -0.000 -0.000 -0.000 -0.000
# oxidation-state N -0.355 -0.355 -0.355 -0.355 -0.355 -0.355 -0.355 -0.355 -0.355 -0.355 -0.355 -0.355 -0.355 -0.355 -0.355 -0.355
# magnetic-moments N +0.000 +0.000 +0.000 +0.000 +0.000 +0.000 +0.000 +0.000 +0.000 +0.000 +0.000 +0.000 +0.000 +0.000 +0.000 +0.000


Dumping 'NbTe2.fillings' ... done
Dumping 'NbTe2.wfns' ... done
Dumping 'NbTe2.fluidState' ... done
Dumping 'NbTe2.ionpos' ... done
Dumping 'NbTe2.eigenvals' ... done
End date and time: Mon Jan 25 19:51:54 2021  (Duration: 0-0:21:21.83)
Done!
