
*************** JDFTx 1.5.0  ***************

Start date and time: Sun Mar 14 18:11:21 2021
Executable jdftx_gpu with command-line: -i Charged.in -o Charged.out
Running on hosts (process indices):  amax (0-6)
Divided in process groups (process indices):  0 (0)  1 (1)  2 (2)  3 (3)  4 (4)  5 (5)  6 (6)
gpuInit: Found compatible cuda device 0 'Tesla K80'
gpuInit: Found compatible cuda device 1 'Tesla K80'
gpuInit: Found compatible cuda device 2 'Tesla K80'
gpuInit: Found compatible cuda device 3 'Tesla K80'
gpuInit: Found compatible cuda device 4 'Tesla K80'
gpuInit: Found compatible cuda device 5 'Tesla K80'
gpuInit: Found compatible cuda device 6 'Tesla K80'
gpuInit: Selected device 0
Resource initialization completed at t[s]:      3.55
Run totals: 7 processes, 24 threads, 7 GPUs


Input parsed successfully to the following command list (including defaults):

basis kpoint-dependent
cache-projectors no
coords-type Lattice
core-overlap-check none
coulomb-interaction Slab 001
coulomb-truncation-embed 0.5 0.5 0.5
davidson-band-ratio 1.1
dump End State
dump-name NbTe2.$VAR
elec-cutoff 20
elec-eigen-algo Davidson
elec-ex-corr gga-PBE
elec-initial-charge -1.000000
elec-initial-magnetization 10.000000 no
elec-smearing Gauss 0.0073499
electronic-minimize  \
	dirUpdateScheme      FletcherReeves \
	linminMethod         DirUpdateRecommended \
	nIterations          200 \
	history              15 \
	knormThreshold       0 \
	energyDiffThreshold  1e-08 \
	nEnergyDiff          2 \
	alphaTstart          1 \
	alphaTmin            1e-10 \
	updateTestStepSize   yes \
	alphaTreduceFactor   0.1 \
	alphaTincreaseFactor 3 \
	nAlphaAdjustMax      3 \
	wolfeEnergy          0.0001 \
	wolfeGradient        0.9 \
	fdTest               no
exchange-regularization WignerSeitzTruncated
fluid LinearPCM 298.000000 1.013250
fluid-anion F- 1 MeanFieldLJ \
	epsBulk 1 \
	pMol 0 \
	epsInf 1 \
	Pvap 0 \
	sigmaBulk 0 \
	Rvdw 2.24877 \
	Res 0 \
	tauNuc 343133
fluid-cation Na+ 1 MeanFieldLJ \
	epsBulk 1 \
	pMol 0 \
	epsInf 1 \
	Pvap 0 \
	sigmaBulk 0 \
	Rvdw 2.19208 \
	Res 0 \
	tauNuc 343133
fluid-ex-corr lda-TF lda-PZ
fluid-gummel-loop 10 1.000000e-05
fluid-minimize  \
	dirUpdateScheme      PolakRibiere \
	linminMethod         DirUpdateRecommended \
	nIterations          400 \
	history              15 \
	knormThreshold       1e-11 \
	energyDiffThreshold  0 \
	nEnergyDiff          2 \
	alphaTstart          1 \
	alphaTmin            1e-10 \
	updateTestStepSize   yes \
	alphaTreduceFactor   0.1 \
	alphaTincreaseFactor 3 \
	nAlphaAdjustMax      6 \
	wolfeEnergy          0.0001 \
	wolfeGradient        0.9 \
	fdTest               no
fluid-solvent H2O 55.338 ScalarEOS \
	epsBulk 78.4 \
	pMol 0.92466 \
	epsInf 1.77 \
	Pvap 1.06736e-10 \
	sigmaBulk 4.62e-05 \
	Rvdw 2.61727 \
	Res 1.42 \
	tauNuc 343133 \
	poleEl 15 7 1
forces-output-coords Positions
initial-state NbTe2.$VAR
ion Ti   0.166667080258373   0.083332920941627   0.567498814671293 1
ion Ti   0.083332939841749   0.166667061358251   0.432475460304391 1
ion Ti   0.416667080258374   0.083332920941627   0.567498814671293 1
ion Ti   0.333332939841749   0.166667061358251   0.432475460304391 1
ion Ti   0.666667080258373   0.083332920941627   0.567498814671293 1
ion Ti   0.583332939841749   0.166667061358251   0.432475460304391 1
ion Ti   0.916667080258373   0.083332920941627   0.567498814671293 1
ion Ti   0.833332939841749   0.166667061358251   0.432475460304391 1
ion Ti   0.166667080258373   0.333332920941626   0.567498814671293 1
ion Ti   0.083332939841749   0.416667061358250   0.432475460304391 1
ion Ti   0.416667080258374   0.333332920941626   0.567498814671293 1
ion Ti   0.333332939841749   0.416667061358250   0.432475460304391 1
ion Ti   0.666667080258373   0.333332920941626   0.567498814671293 1
ion Ti   0.583332939841749   0.416667061358250   0.432475460304391 1
ion Ti   0.916667080258373   0.333332920941626   0.567498814671293 1
ion Ti   0.833332939841749   0.416667061358250   0.432475460304391 1
ion Ti   0.166667080258373   0.583332920941627   0.567498814671293 1
ion Ti   0.083332939841749   0.666667061358251   0.432475460304391 1
ion Ti   0.416667080258374   0.583332920941627   0.567498814671293 1
ion Ti   0.333332939841749   0.666667061358251   0.432475460304391 1
ion Ti   0.666667080258373   0.583332920941627   0.567498814671293 1
ion Ti   0.583332939841749   0.666667061358251   0.432475460304391 1
ion Ti   0.916667080258373   0.583332920941627   0.567498814671293 1
ion Ti   0.833332939841749   0.666667061358251   0.432475460304391 1
ion Ti   0.166667080258373   0.833332920941627   0.567498814671293 1
ion Ti   0.083332939841749   0.916667061358251   0.432475460304391 1
ion Ti   0.416667080258374   0.833332920941627   0.567498814671293 1
ion Ti   0.333332939841749   0.916667061358251   0.432475460304391 1
ion Ti   0.666667080258373   0.833332920941627   0.567498814671293 1
ion Ti   0.583332939841749   0.916667061358251   0.432475460304391 1
ion Ti   0.916667080258373   0.833332920941627   0.567498814671293 1
ion Ti   0.833332939841749   0.916667061358251   0.432475460304391 1
ion C  -0.000000008164670   0.000000009364670   0.499992527448382 1
ion C   0.249999991835330   0.000000009364670   0.499992527448382 1
ion C   0.499999991835330   0.000000009364670   0.499992527448382 1
ion C   0.749999991835330   0.000000009364670   0.499992527448382 1
ion C  -0.000000008164670   0.250000009364670   0.499992527448382 1
ion C   0.249999991835330   0.250000009364670   0.499992527448382 1
ion C   0.499999991835330   0.250000009364670   0.499992527448382 1
ion C   0.749999991835330   0.250000009364670   0.499992527448382 1
ion C  -0.000000008164670   0.500000009364670   0.499992527448382 1
ion C   0.249999991835330   0.500000009364670   0.499992527448382 1
ion C   0.499999991835330   0.500000009364670   0.499992527448382 1
ion C   0.749999991835330   0.500000009364670   0.499992527448382 1
ion C  -0.000000008164670   0.750000009364670   0.499992527448382 1
ion C   0.249999991835330   0.750000009364670   0.499992527448382 1
ion C   0.499999991835330   0.750000009364670   0.499992527448382 1
ion C   0.749999991835330   0.750000009364670   0.499992527448382 1
ion O   0.083332584241069   0.166667416958931   0.614923455231518 1
ion O   0.166667403073478   0.083332598126522   0.385067441494017 1
ion O   0.333332584241069   0.166667416958931   0.614923455231518 1
ion O   0.416667403073478   0.083332598126522   0.385067441494017 1
ion O   0.583332584241069   0.166667416958931   0.614923455231518 1
ion O   0.666667403073478   0.083332598126522   0.385067441494017 1
ion O   0.833332584241069   0.166667416958931   0.614923455231518 1
ion O   0.916667403073478   0.083332598126522   0.385067441494017 1
ion O   0.083332584241069   0.416667416958931   0.614923455231518 1
ion O   0.166667403073478   0.333332598126522   0.385067441494017 1
ion O   0.333332584241069   0.416667416958931   0.614923455231518 1
ion O   0.416667403073478   0.333332598126522   0.385067441494017 1
ion O   0.583332584241069   0.416667416958931   0.614923455231518 1
ion O   0.666667403073478   0.333332598126522   0.385067441494017 1
ion O   0.833332584241069   0.416667416958931   0.614923455231518 1
ion O   0.916667403073478   0.333332598126522   0.385067441494017 1
ion O   0.083332584241069   0.666667416958931   0.614923455231518 1
ion O   0.166667403073478   0.583332598126522   0.385067441494017 1
ion O   0.333332584241069   0.666667416958931   0.614923455231518 1
ion O   0.416667403073478   0.583332598126522   0.385067441494017 1
ion O   0.583332584241069   0.666667416958931   0.614923455231518 1
ion O   0.666667403073478   0.583332598126522   0.385067441494017 1
ion O   0.833332584241069   0.666667416958931   0.614923455231518 1
ion O   0.916667403073478   0.583332598126522   0.385067441494017 1
ion O   0.083332584241069   0.916667416958931   0.614923455231518 1
ion O   0.166667403073478   0.833332598126522   0.385067441494017 1
ion O   0.333332584241069   0.916667416958931   0.614923455231518 1
ion O   0.416667403073478   0.833332598126522   0.385067441494017 1
ion O   0.583332584241069   0.916667416958931   0.614923455231518 1
ion O   0.666667403073478   0.833332598126522   0.385067441494017 1
ion O   0.833332584241069   0.916667416958931   0.614923455231518 1
ion O   0.916667403073478   0.833332598126522   0.385067441494017 1
ion-species GBRV/$ID_pbe.uspp
ion-width Ecut
ionic-minimize  \
	dirUpdateScheme      L-BFGS \
	linminMethod         DirUpdateRecommended \
	nIterations          500 \
	history              15 \
	knormThreshold       0.0001 \
	energyDiffThreshold  1e-06 \
	nEnergyDiff          2 \
	alphaTstart          1 \
	alphaTmin            1e-10 \
	updateTestStepSize   yes \
	alphaTreduceFactor   0.1 \
	alphaTincreaseFactor 3 \
	nAlphaAdjustMax      3 \
	wolfeEnergy          0.0001 \
	wolfeGradient        0.9 \
	fdTest               no
kpoint   0.000000000000   0.000000000000   0.000000000000  1.00000000000000
kpoint-folding 3 3 1 
latt-move-scale 1 1 1
latt-scale 1.88973 1.88973 1.88973 
lattice Triclinic 11.9881 11.9881 19.4676 90 90 120
lattice-minimize  \
	dirUpdateScheme      L-BFGS \
	linminMethod         DirUpdateRecommended \
	nIterations          0 \
	history              15 \
	knormThreshold       0 \
	energyDiffThreshold  1e-06 \
	nEnergyDiff          2 \
	alphaTstart          1 \
	alphaTmin            1e-10 \
	updateTestStepSize   yes \
	alphaTreduceFactor   0.1 \
	alphaTincreaseFactor 3 \
	nAlphaAdjustMax      3 \
	wolfeEnergy          0.0001 \
	wolfeGradient        0.9 \
	fdTest               no
lcao-params -1 1e-06 0.0073499
pcm-variant CANDLE
spintype z-spin
subspace-rotation-factor 1 yes
symmetries automatic
symmetry-threshold 0.0001



---------- Setting up symmetries ----------

Found 24 point-group symmetries of the bravais lattice
Found 96 space-group symmetries with basis
Applied RMS atom displacement 2.09798e-05 bohrs to make symmetries exact.

---------- Initializing the Grid ----------
R = 
[    22.6542   -11.3271          0  ]
[          0    19.6191          0  ]
[          0          0    36.7885  ]
unit cell volume = 16350.9
G =
[   0.277352   0.160129         -0  ]
[          0   0.320258          0  ]
[          0         -0   0.170792  ]
Minimum fftbox size, Smin = [  92  92  152  ]
Chosen fftbox size, S = [  96  96  160  ]

---------- Exchange Correlation functional ----------
Initalized PBE GGA exchange.
Initalized PBE GGA correlation.

---------- Setting up pseudopotentials ----------
Width of ionic core gaussian charges (only for fluid interactions / plotting) set to 0.397384

Reading pseudopotential file '/home/guoxy/vasp/jdftx-1.5.0/build/pseudopotentials/GBRV/ti_pbe.uspp':
  Title: Ti.  Created by USPP 7.3.6 on 31-3-15
  Reference state energy: -59.020943.  12 valence electrons in orbitals:
    |300>  occupation: 2  eigenvalue: -2.777623
    |310>  occupation: 6  eigenvalue: -1.894596
    |400>  occupation: 2  eigenvalue: -0.438610
    |320>  occupation: 1  eigenvalue: -0.583119
  lMax: 2  lLocal: 3  QijEcut: 6
  6 projectors sampled on a log grid with 597 points:
    l: 0  eig: -2.777624  rCut: 1.8
    l: 0  eig: -0.438611  rCut: 1.8
    l: 1  eig: -1.894596  rCut: 1.8
    l: 1  eig: 0.500000  rCut: 1.8
    l: 2  eig: -0.583118  rCut: 1.8
    l: 2  eig: 0.150000  rCut: 1.8
  Partial core density with radius 0.8
  Transforming core density to a uniform radial grid of dG=0.02 with 1502 points.
  Transforming local potential to a uniform radial grid of dG=0.02 with 1502 points.
  Transforming nonlocal projectors to a uniform radial grid of dG=0.02 with 432 points.
  Transforming density augmentations to a uniform radial grid of dG=0.02 with 1502 points.
  Transforming atomic orbitals to a uniform radial grid of dG=0.02 with 432 points.
  Core radius for overlap checks: 1.80 bohrs.

Reading pseudopotential file '/home/guoxy/vasp/jdftx-1.5.0/build/pseudopotentials/GBRV/c_pbe.uspp':
  Title: C.  Created by USPP 7.3.6 on 3-2-2014
  Reference state energy: -5.406344.  4 valence electrons in orbitals:
    |200>  occupation: 2  eigenvalue: -0.504890
    |210>  occupation: 2  eigenvalue: -0.194356
  lMax: 1  lLocal: 2  QijEcut: 5
  4 projectors sampled on a log grid with 503 points:
    l: 0  eig: -0.504890  rCut: 1.3
    l: 0  eig: 0.000000  rCut: 1.3
    l: 1  eig: -0.194357  rCut: 1.3
    l: 1  eig: 0.000000  rCut: 1.3
  Partial core density with radius 1.1
  Transforming core density to a uniform radial grid of dG=0.02 with 1502 points.
  Transforming local potential to a uniform radial grid of dG=0.02 with 1502 points.
  Transforming nonlocal projectors to a uniform radial grid of dG=0.02 with 432 points.
  Transforming density augmentations to a uniform radial grid of dG=0.02 with 1502 points.
  Transforming atomic orbitals to a uniform radial grid of dG=0.02 with 432 points.
  Core radius for overlap checks: 1.30 bohrs.

Reading pseudopotential file '/home/guoxy/vasp/jdftx-1.5.0/build/pseudopotentials/GBRV/o_pbe.uspp':
  Title: O.  Created by USPP 7.3.6 on 3-2-2014
  Reference state energy: -15.894388.  6 valence electrons in orbitals:
    |200>  occupation: 2  eigenvalue: -0.878823
    |210>  occupation: 4  eigenvalue: -0.332131
  lMax: 2  lLocal: 2  QijEcut: 6
  5 projectors sampled on a log grid with 511 points:
    l: 0  eig: -0.878823  rCut: 1.25
    l: 0  eig: 0.000000  rCut: 1.25
    l: 1  eig: -0.332132  rCut: 1.25
    l: 1  eig: 0.000000  rCut: 1.25
    l: 2  eig: 1.000000  rCut: 1.25
  Partial core density with radius 0.7
  Transforming core density to a uniform radial grid of dG=0.02 with 1502 points.
  Transforming local potential to a uniform radial grid of dG=0.02 with 1502 points.
  Transforming nonlocal projectors to a uniform radial grid of dG=0.02 with 432 points.
  Transforming density augmentations to a uniform radial grid of dG=0.02 with 1502 points.
  Transforming atomic orbitals to a uniform radial grid of dG=0.02 with 432 points.
  Core radius for overlap checks: 1.25 bohrs.

Initialized 3 species with 80 total atoms.

Folded 1 k-points by 3x3x1 to 9 k-points.

---------- Setting up k-points, bands, fillings ----------
Adding inversion symmetry to k-mesh for non-inversion-symmetric unit cell.
Reduced to 3 k-points under symmetry. 
Computing the number of bands and number of electrons
Calculating initial fillings.
nElectrons: 639.000000   nBands: 512   nStates: 6

----- Setting up reduced wavefunction bases (one per k-point) -----
average nbasis = 69854.333 , ideal nbasis = 69852.175

---------- Setting up coulomb interaction ----------
Fluid mode embedding: using embedded box, but periodic Coulomb kernel.
(Fluid response is responsible for (approximate) separation between periodic images.)
Setting up double-sized grid for truncated Coulomb potentials:
R = 
[    22.6542   -11.3271          0  ]
[          0    19.6191          0  ]
[          0          0     73.577  ]
unit cell volume = 32701.7
G =
[   0.277352   0.160129         -0  ]
[          0   0.320258          0  ]
[          0         -0  0.0853961  ]
Chosen fftbox size, S = [  96  96  320  ]
Integer grid location selected as the embedding center:
   Grid: [  48  48  80  ]
   Lattice: [  0.5  0.5  0.5  ]
   Cartesian: [  5.66356  9.80957  18.3942  ]
Constructing Wigner-Seitz cell: 8 faces (6 quadrilaterals, 2 hexagons)
Range-separation parameter for embedded mesh potentials due to point charges: 0.612843 bohrs.

Initializing van der Waals corrections
	NOTE: vdW corrections apply only for interactions with fluid.
	Ti:  C6:  187.33 Eh-a0^6  R0: 2.952 a0
	 C:  C6:   30.35 Eh-a0^6  R0: 2.744 a0
	 O:  C6:   12.14 Eh-a0^6  R0: 2.536 a0

---------- Setting up ewald sum ----------
Optimum gaussian width for ewald sums = 6.145898 bohr.
Real space sum over 405 unit cells with max indices [  4  4  2  ]
Reciprocal space sum over 9225 terms with max indices [  7  7  20  ]

---------- Allocating electronic variables ----------
Initializing wave functions:  linear combination of atomic orbitals
Ti pseudo-atom occupations:   s ( 2 0 )  p ( 6 )  d ( 4 )
C pseudo-atom occupations:   s ( 2 )  p ( 2 )
O pseudo-atom occupations:   s ( 2 )  p ( 4 )
	FillingsUpdate:  mu: +3.260185729  nElectrons: 639.000000  magneticMoment: [ Abs: 0.37376  Tot: +0.15575 ]
LCAOMinimize: Iter:   0  F: -1900.0738249935084241  |grad|_K:  2.751e-02  alpha:  1.000e+00
	FillingsUpdate:  mu: -1.092651923  nElectrons: 639.000000  magneticMoment: [ Abs: 0.96999  Tot: +0.85125 ]
LCAOMinimize: Iter:   1  F: -2323.9899148332997356  |grad|_K:  1.792e-02  alpha:  6.646e-01  linmin:  8.841e-02  cgtest: -1.224e+00  t[s]:    174.77
LCAOMinimize: 	Bad step direction: g.d > 0.
LCAOMinimize: 	Undoing step.
LCAOMinimize: 	Step failed: resetting search direction.
	FillingsUpdate:  mu: -1.092651923  nElectrons: 639.000000  magneticMoment: [ Abs: 0.96999  Tot: +0.85125 ]
LCAOMinimize: Iter:   2  F: -2323.9899148332997356  |grad|_K:  1.792e-02  alpha:  0.000e+00
	FillingsUpdate:  mu: -0.950483990  nElectrons: 639.000000  magneticMoment: [ Abs: 0.66730  Tot: +0.43883 ]
LCAOMinimize: Iter:   3  F: -2424.2413952856022661  |grad|_K:  6.384e-03  alpha:  3.160e-01  linmin: -1.504e-01  cgtest:  1.359e+00  t[s]:    264.40
LCAOMinimize: Encountered beta<0, resetting CG.
LCAOMinimize: 	Wrong curvature in test step, increasing alphaT to 9.480914e-01.
	FillingsUpdate:  mu: -0.693644267  nElectrons: 639.000000  magneticMoment: [ Abs: 0.26733  Tot: +0.13408 ]
LCAOMinimize: Iter:   4  F: -2448.5673722305591582  |grad|_K:  5.618e-03  alpha: -8.059e-01  linmin: -2.209e-01  cgtest:  6.103e-01  t[s]:    316.50
	FillingsUpdate:  mu: -0.681690036  nElectrons: 639.000000  magneticMoment: [ Abs: 0.26194  Tot: +0.12081 ]
LCAOMinimize: Iter:   5  F: -2452.0213531615395368  |grad|_K:  5.577e-03  alpha:  4.612e-02  linmin: -2.375e-01  cgtest:  8.901e-01  t[s]:    369.83
LCAOMinimize: 	Wrong curvature in test step, increasing alphaT to 1.383713e-01.
	FillingsUpdate:  mu: -0.667039791  nElectrons: 639.000000  magneticMoment: [ Abs: 0.25702  Tot: +0.10945 ]
LCAOMinimize: Iter:   6  F: -2454.7752589355454802  |grad|_K:  5.526e-03  alpha: -5.177e-01  linmin: -2.508e-01  cgtest:  9.065e-01  t[s]:    422.20
	FillingsUpdate:  mu: -0.647746037  nElectrons: 639.000000  magneticMoment: [ Abs: 0.25277  Tot: +0.09918 ]
LCAOMinimize: Iter:   7  F: -2457.2268509867262765  |grad|_K:  5.453e-03  alpha:  4.414e-02  linmin: -2.638e-01  cgtest:  9.123e-01  t[s]:    475.11
LCAOMinimize: 	Wrong curvature in test step, increasing alphaT to 1.324071e-01.
	FillingsUpdate:  mu: -0.621133929  nElectrons: 639.000000  magneticMoment: [ Abs: 0.24883  Tot: +0.08928 ]
LCAOMinimize: Iter:   8  F: -2459.5690787010803433  |grad|_K:  5.343e-03  alpha: -6.074e-01  linmin: -2.777e-01  cgtest:  9.122e-01  t[s]:    527.06
	FillingsUpdate:  mu: -0.584856844  nElectrons: 639.000000  magneticMoment: [ Abs: 0.24485  Tot: +0.07921 ]
LCAOMinimize: Iter:   9  F: -2461.9175118842499614  |grad|_K:  5.168e-03  alpha:  4.667e-02  linmin: -2.927e-01  cgtest:  9.077e-01  t[s]:    579.85
LCAOMinimize: 	Wrong curvature in test step, increasing alphaT to 1.400080e-01.
	FillingsUpdate:  mu: -0.541189862  nElectrons: 639.000000  magneticMoment: [ Abs: 0.24095  Tot: +0.06980 ]
LCAOMinimize: Iter:  10  F: -2464.0740148250874881  |grad|_K:  4.914e-03  alpha: -9.959e-01  linmin: -3.074e-01  cgtest:  9.102e-01  t[s]:    631.94
	FillingsUpdate:  mu: -0.493386003  nElectrons: 639.000000  magneticMoment: [ Abs: 0.23716  Tot: +0.06150 ]
LCAOMinimize: Iter:  11  F: -2465.9286933611933819  |grad|_K:  4.584e-03  alpha:  4.593e-02  linmin: -3.207e-01  cgtest:  9.173e-01  t[s]:    685.03
LCAOMinimize: 	Predicted alpha/alphaT>3.000000, increasing alphaT to 1.377949e-01.
LCAOMinimize: 	Predicted alpha/alphaT>3.000000, increasing alphaT to 4.133846e-01.
	FillingsUpdate:  mu: -0.373293330  nElectrons: 639.000000  magneticMoment: [ Abs: 0.22906  Tot: +0.04597 ]
LCAOMinimize: Iter:  12  F: -2469.2610515071028203  |grad|_K:  3.464e-03  alpha:  1.015e-01  linmin: -3.481e-01  cgtest:  8.344e-01  t[s]:    769.14
LCAOMinimize: Encountered beta<0, resetting CG.
LCAOMinimize: 	Predicted alpha/alphaT>3.000000, increasing alphaT to 3.045415e-01.
	FillingsUpdate:  mu: -0.197715876  nElectrons: 639.000000  magneticMoment: [ Abs: 0.21178  Tot: +0.03036 ]
LCAOMinimize: Iter:  13  F: -2471.7122221450163124  |grad|_K:  5.434e-04  alpha:  1.894e-01  linmin: -2.869e-01  cgtest:  5.038e-01  t[s]:    837.87
LCAOMinimize: Encountered beta<0, resetting CG.
	FillingsUpdate:  mu: -0.192420094  nElectrons: 639.000000  magneticMoment: [ Abs: 0.17823  Tot: +0.02348 ]
LCAOMinimize: Iter:  14  F: -2471.7741098062624587  |grad|_K:  2.863e-04  alpha:  2.704e-01  linmin:  3.172e-02  cgtest: -6.345e-02  t[s]:    890.67
	FillingsUpdate:  mu: -0.198953855  nElectrons: 639.000000  magneticMoment: [ Abs: 0.10803  Tot: +0.01222 ]
LCAOMinimize: Iter:  15  F: -2471.8006290388261732  |grad|_K:  1.491e-04  alpha:  4.348e-01  linmin:  2.018e-03  cgtest:  1.213e-01  t[s]:    943.67
	FillingsUpdate:  mu: -0.192420378  nElectrons: 639.000000  magneticMoment: [ Abs: 0.08960  Tot: +0.00981 ]
LCAOMinimize: Iter:  16  F: -2471.8036351345722323  |grad|_K:  7.141e-05  alpha:  1.729e-01  linmin:  2.055e-03  cgtest: -1.280e-02  t[s]:    996.54
	FillingsUpdate:  mu: -0.190578022  nElectrons: 639.000000  magneticMoment: [ Abs: 0.07878  Tot: +0.00842 ]
LCAOMinimize: Iter:  17  F: -2471.8041566355873329  |grad|_K:  3.978e-05  alpha:  1.301e-01  linmin: -1.167e-04  cgtest:  1.408e-02  t[s]:   1049.42
LCAOMinimize: 	Predicted alpha/alphaT>3.000000, increasing alphaT to 3.903176e-01.
	FillingsUpdate:  mu: -0.190720685  nElectrons: 639.000000  magneticMoment: [ Abs: 0.04190  Tot: +0.00359 ]
LCAOMinimize: Iter:  18  F: -2471.8047776154016901  |grad|_K:  6.379e-06  alpha:  4.972e-01  linmin:  1.812e-03  cgtest: -2.708e-02  t[s]:   1118.13
	FillingsUpdate:  mu: -0.190523216  nElectrons: 639.000000  magneticMoment: [ Abs: 0.03699  Tot: +0.00306 ]
LCAOMinimize: Iter:  19  F: -2471.8047837244384937  |grad|_K:  2.792e-06  alpha:  1.902e-01  linmin: -6.400e-04  cgtest:  6.422e-03  t[s]:   1171.45
	FillingsUpdate:  mu: -0.190580005  nElectrons: 639.000000  magneticMoment: [ Abs: 0.02908  Tot: +0.00224 ]
LCAOMinimize: Iter:  20  F: -2471.8047856586103990  |grad|_K:  3.384e-06  alpha:  3.140e-01  linmin:  3.891e-05  cgtest: -1.271e-03  t[s]:   1224.84
	FillingsUpdate:  mu: -0.190648351  nElectrons: 639.000000  magneticMoment: [ Abs: 0.01992  Tot: +0.00129 ]
LCAOMinimize: Iter:  21  F: -2471.8047872548245323  |grad|_K:  9.570e-07  alpha:  1.766e-01  linmin:  1.540e-06  cgtest:  3.607e-03  t[s]:   1278.09
	FillingsUpdate:  mu: -0.190601742  nElectrons: 639.000000  magneticMoment: [ Abs: 0.01667  Tot: +0.00100 ]
LCAOMinimize: Iter:  22  F: -2471.8047874215271804  |grad|_K:  4.171e-07  alpha:  2.305e-01  linmin:  6.971e-05  cgtest: -3.166e-04  t[s]:   1330.90
LCAOMinimize: 	Predicted alpha/alphaT>3.000000, increasing alphaT to 6.915708e-01.
	FillingsUpdate:  mu: -0.190616762  nElectrons: 639.000000  magneticMoment: [ Abs: 0.00812  Tot: +0.00031 ]
LCAOMinimize: Iter:  23  F: -2471.8047875317124635  |grad|_K:  3.172e-07  alpha:  8.019e-01  linmin: -3.733e-05  cgtest:  2.821e-04  t[s]:   1399.79
LCAOMinimize: Converged (|Delta F|<1.000000e-06 for 2 iters).
----- createFluidSolver() ----- (Fluid-side solver setup)
   Initializing fluid molecule 'H2O'
     Initializing site 'O'
       Electron density: proportional to exp(-r/0.36935)*erfc((r-0.51523)/0.36823) with norm 6.826
       Charge density: gaussian nuclear width 0.478731 with net site charge 0.826
       Polarizability: cuspless exponential with width 0.32 and norm 3.73
       Hard sphere radius: 2.57003 bohrs
       Positions in reference frame:
         [ +0.000000 +0.000000 +0.000000 ]
     Initializing site 'H'
       Electron density: proportional to exp(-r/0.34641)*erfc((r-0)/0.390882) with norm 0.587
       Charge density: gaussian nuclear width 0.377945 with net site charge -0.413
       Polarizability: cuspless exponential with width 0.39 and norm 3.3
       Positions in reference frame:
         [ +0.000000 -1.441945 +1.122523 ]
         [ +0.000000 +1.441945 +1.122523 ]
     Net charge: 0   dipole magnitude: 0.927204
     Initializing spherical shell mfKernel with radius 2.61727 Bohr
     deltaS corrections:
       site 'O': -7.54299
       site 'H': -6.83917
   Initializing fluid molecule 'Na+'
     Initializing site 'Na'
       Electron density: proportional to exp(-r/0.19682)*erfc((r-0.71491)/0.41314) with norm 8.1383
       Charge density: gaussian nuclear width 0.365347 with net site charge -1
       Hard sphere radius: 1.86327 bohrs
       Positions in reference frame:
         [ +0.000000 +0.000000 +0.000000 ]
     Net charge: -1   dipole magnitude: 0
     Initializing gaussian mfKernel with width: 1.55004 Bohr
     deltaS corrections:
       site 'Na': -22.3555
   Initializing fluid molecule 'F-'
     Initializing site 'F'
       Electron density: proportional to exp(-r/0.38886)*erfc((r-0)/0.438782) with norm 8
       Charge density: gaussian nuclear width 0.374796 with net site charge 1
       Hard sphere radius: 2.39995 bohrs
       Positions in reference frame:
         [ +0.000000 +0.000000 +0.000000 ]
     Net charge: 1   dipole magnitude: 0
     Initializing gaussian mfKernel with width: 1.59012 Bohr
     deltaS corrections:
       site 'F': -9.04335

Correction to mu due to finite nuclear width = -0.0194182
   Cavity determined by nc: 0.00142 and sigma: 0.707107
   Nonlocal vdW cavity from gaussian model electron density with norm = 8 and sigma = 0.993594 bohr
   Charge asymmetry in cavity with sensitivity pCavity = 36.5 e-bohr/Eh
   Electrostatic cavity expanded by eta = 1.46 bohrs
   Weighted density cavitation model constrained by Nbulk: 0.0049383 bohr^-3, Pvap: 3.14029 kPa, Rvdw: 2.61727 bohr and sigmaBulk: 4.62e-05 Eh/bohr^2 at T: 298 K.
   Weighted density dispersion model using vdW pair potentials with single solvent site with sqrtC6eff: 0.77 SI.


---- Citations for features of the code used in this run ----

   Software package:
      R. Sundararaman, K. Letchworth-Weaver, K.A. Schwarz, D. Gunceler, Y. Ozhabes and T.A. Arias, 'JDFTx: software for joint density-functional theory', SoftwareX 6, 278 (2017)

   gga-PBE exchange-correlation functional:
      J.P. Perdew, K. Burke and M. Ernzerhof, Phys. Rev. Lett. 77, 3865 (1996)

   Pseudopotentials:
      KF Garrity, JW Bennett, KM Rabe and D Vanderbilt, Comput. Mater. Sci. 81, 446 (2014)

   Truncated Coulomb potentials:
      R. Sundararaman and T.A. Arias, Phys. Rev. B 87, 165122 (2013)

   Van der Waals correction pair-potentials:
      S. Grimme, J. Comput. Chem. 27, 1787 (2006)

   Charge-asymmetric nonlocally-determined local-electric (CANDLE) solvation model:
      R. Sundararaman and W.A. Goddard III, J. Chem. Phys. 142, 064107 (2015)

   Total energy minimization with Auxiliary Hamiltonian:
      C. Freysoldt, S. Boeck, and J. Neugebauer, Phys. Rev. B 79, 241103(R) (2009)

This list may not be complete. Please suggest additional citations or
report any other bugs at https://github.com/shankar1729/jdftx/issues

Initialization completed successfully at t[s]:   1408.34

Fluid solver invoked on fresh (partially random / LCAO) wavefunctions
Running a vacuum solve first:

-------- Initial electronic minimization -----------
	FillingsUpdate:  mu: -0.190616762  nElectrons: 639.000000  magneticMoment: [ Abs: 0.00812  Tot: +0.00031 ]
ElecMinimize: Iter:   0  F: -2471.804787531727015  |grad|_K:  1.838e-04  alpha:  1.000e+00
	FillingsUpdate:  mu: -0.210841334  nElectrons: 639.000000  magneticMoment: [ Abs: 0.00616  Tot: +0.00024 ]
	SubspaceRotationAdjust: set factor to 1
ElecMinimize: Iter:   1  F: -2474.611399488350798  |grad|_K:  9.144e-05  alpha:  3.883e-01  linmin:  4.391e-06  t[s]:   1527.00
	FillingsUpdate:  mu: -0.263053612  nElectrons: 639.000000  magneticMoment: [ Abs: 0.00408  Tot: +0.00015 ]
	SubspaceRotationAdjust: set factor to 0.75
ElecMinimize: Iter:   2  F: -2475.390952876379743  |grad|_K:  5.739e-05  alpha:  4.355e-01  linmin: -1.914e-06  t[s]:   1600.47
	FillingsUpdate:  mu: -0.207990238  nElectrons: 639.000000  magneticMoment: [ Abs: 0.00277  Tot: +0.00015 ]
	SubspaceRotationAdjust: set factor to 0.449
ElecMinimize: Iter:   3  F: -2475.607817612392864  |grad|_K:  2.585e-05  alpha:  3.052e-01  linmin:  4.530e-09  t[s]:   1673.54
	FillingsUpdate:  mu: -0.224932385  nElectrons: 639.000000  magneticMoment: [ Abs: 0.00165  Tot: +0.00009 ]
	SubspaceRotationAdjust: set factor to 0.492
ElecMinimize: Iter:   4  F: -2475.684456038454755  |grad|_K:  1.516e-05  alpha:  5.333e-01  linmin:  1.163e-06  t[s]:   1746.57
	FillingsUpdate:  mu: -0.224826867  nElectrons: 639.000000  magneticMoment: [ Abs: 0.00117  Tot: +0.00007 ]
	SubspaceRotationAdjust: set factor to 0.506
ElecMinimize: Iter:   5  F: -2475.704205293890482  |grad|_K:  7.405e-06  alpha:  3.983e-01  linmin:  2.423e-06  t[s]:   1819.71
	FillingsUpdate:  mu: -0.222775774  nElectrons: 639.000000  magneticMoment: [ Abs: 0.00086  Tot: +0.00005 ]
	SubspaceRotationAdjust: set factor to 0.417
ElecMinimize: Iter:   6  F: -2475.709764838452429  |grad|_K:  5.161e-06  alpha:  4.721e-01  linmin:  1.187e-05  t[s]:   1893.07
	FillingsUpdate:  mu: -0.222835904  nElectrons: 639.000000  magneticMoment: [ Abs: 0.00071  Tot: +0.00004 ]
	SubspaceRotationAdjust: set factor to 0.265
ElecMinimize: Iter:   7  F: -2475.711259893868373  |grad|_K:  2.826e-06  alpha:  2.610e-01  linmin: -9.056e-07  t[s]:   1965.96
	FillingsUpdate:  mu: -0.223345621  nElectrons: 639.000000  magneticMoment: [ Abs: 0.00055  Tot: +0.00003 ]
	SubspaceRotationAdjust: set factor to 0.336
ElecMinimize: Iter:   8  F: -2475.712032144723707  |grad|_K:  1.626e-06  alpha:  4.488e-01  linmin:  6.438e-07  t[s]:   2039.04
	FillingsUpdate:  mu: -0.223206875  nElectrons: 639.000000  magneticMoment: [ Abs: 0.00044  Tot: +0.00003 ]
	SubspaceRotationAdjust: set factor to 0.361
ElecMinimize: Iter:   9  F: -2475.712315271142415  |grad|_K:  1.111e-06  alpha:  4.981e-01  linmin:  4.338e-07  t[s]:   2109.99
	FillingsUpdate:  mu: -0.223085044  nElectrons: 639.000000  magneticMoment: [ Abs: 0.00037  Tot: +0.00002 ]
	SubspaceRotationAdjust: set factor to 0.343
ElecMinimize: Iter:  10  F: -2475.712420506879425  |grad|_K:  6.830e-07  alpha:  3.959e-01  linmin:  1.128e-07  t[s]:   2184.01
	FillingsUpdate:  mu: -0.223111499  nElectrons: 639.000000  magneticMoment: [ Abs: 0.00029  Tot: +0.00002 ]
	SubspaceRotationAdjust: set factor to 0.394
ElecMinimize: Iter:  11  F: -2475.712469436943138  |grad|_K:  4.409e-07  alpha:  4.874e-01  linmin:  2.049e-07  t[s]:   2257.49
	FillingsUpdate:  mu: -0.223096537  nElectrons: 639.000000  magneticMoment: [ Abs: 0.00023  Tot: +0.00001 ]
	SubspaceRotationAdjust: set factor to 0.476
ElecMinimize: Iter:  12  F: -2475.712489742112211  |grad|_K:  3.298e-07  alpha:  4.856e-01  linmin:  1.388e-07  t[s]:   2330.64
	FillingsUpdate:  mu: -0.223109761  nElectrons: 639.000000  magneticMoment: [ Abs: 0.00017  Tot: +0.00001 ]
	SubspaceRotationAdjust: set factor to 0.522
ElecMinimize: Iter:  13  F: -2475.712500574491514  |grad|_K:  2.052e-07  alpha:  4.629e-01  linmin:  1.969e-07  t[s]:   2404.02
	FillingsUpdate:  mu: -0.223158153  nElectrons: 639.000000  magneticMoment: [ Abs: 0.00014  Tot: +0.00001 ]
	SubspaceRotationAdjust: set factor to 0.432
ElecMinimize: Iter:  14  F: -2475.712504128730870  |grad|_K:  1.522e-07  alpha:  3.924e-01  linmin:  7.772e-08  t[s]:   2476.88
	FillingsUpdate:  mu: -0.223160494  nElectrons: 639.000000  magneticMoment: [ Abs: 0.00011  Tot: +0.00001 ]
	SubspaceRotationAdjust: set factor to 0.3
ElecMinimize: Iter:  15  F: -2475.712505530191720  |grad|_K:  8.259e-08  alpha:  2.809e-01  linmin:  7.909e-09  t[s]:   2549.71
	FillingsUpdate:  mu: -0.223129309  nElectrons: 639.000000  magneticMoment: [ Abs: 0.00008  Tot: +0.00000 ]
	SubspaceRotationAdjust: set factor to 0.326
ElecMinimize: Iter:  16  F: -2475.712506177387695  |grad|_K:  4.681e-08  alpha:  4.407e-01  linmin:  2.156e-08  t[s]:   2622.98
	FillingsUpdate:  mu: -0.223134466  nElectrons: 639.000000  magneticMoment: [ Abs: 0.00007  Tot: +0.00000 ]
	SubspaceRotationAdjust: set factor to 0.343
ElecMinimize: Iter:  17  F: -2475.712506364651290  |grad|_K:  2.982e-08  alpha:  3.971e-01  linmin: -1.614e-08  t[s]:   2696.25
	FillingsUpdate:  mu: -0.223146501  nElectrons: 639.000000  magneticMoment: [ Abs: 0.00006  Tot: +0.00000 ]
	SubspaceRotationAdjust: set factor to 0.338
ElecMinimize: Iter:  18  F: -2475.712506449871398  |grad|_K:  1.904e-08  alpha:  4.447e-01  linmin: -6.307e-09  t[s]:   2769.40
	FillingsUpdate:  mu: -0.223147053  nElectrons: 639.000000  magneticMoment: [ Abs: 0.00005  Tot: +0.00000 ]
	SubspaceRotationAdjust: set factor to 0.41
ElecMinimize: Iter:  19  F: -2475.712506484311234  |grad|_K:  1.224e-08  alpha:  4.407e-01  linmin: -2.293e-08  t[s]:   2842.82
	FillingsUpdate:  mu: -0.223143013  nElectrons: 639.000000  magneticMoment: [ Abs: 0.00004  Tot: +0.00000 ]
	SubspaceRotationAdjust: set factor to 0.522
ElecMinimize: Iter:  20  F: -2475.712506499906794  |grad|_K:  9.276e-09  alpha:  4.824e-01  linmin: -9.155e-09  t[s]:   2915.64
	FillingsUpdate:  mu: -0.223140528  nElectrons: 639.000000  magneticMoment: [ Abs: 0.00003  Tot: +0.00000 ]
	SubspaceRotationAdjust: set factor to 0.55
ElecMinimize: Iter:  21  F: -2475.712506508404203  |grad|_K:  7.355e-09  alpha:  4.588e-01  linmin:  1.335e-08  t[s]:   2987.95
	FillingsUpdate:  mu: -0.223141245  nElectrons: 639.000000  magneticMoment: [ Abs: 0.00002  Tot: +0.00000 ]
	SubspaceRotationAdjust: set factor to 0.481
ElecMinimize: Iter:  22  F: -2475.712506512408709  |grad|_K:  5.327e-09  alpha:  3.493e-01  linmin:  7.511e-08  t[s]:   3061.07
ElecMinimize: Converged (|Delta F|<1.000000e-08 for 2 iters).
Setting wave functions to eigenvectors of Hamiltonian
Vacuum energy after initial minimize, F = -2475.712506512408709

	Linear fluid (dielectric constant: 78.4, screening length: 5.74355 Bohr) occupying 0.756489 of unit cell:	Completed after 19 iterations at t[s]:   3078.40

-------- Electronic minimization -----------
	Linear fluid (dielectric constant: 78.4, screening length: 5.74355 Bohr) occupying 0.756489 of unit cell:	Completed after 0 iterations at t[s]:   3098.59
	FillingsUpdate:  mu: -0.256547439  nElectrons: 639.000000  magneticMoment: [ Abs: 0.00001  Tot: +0.00000 ]
ElecMinimize: Iter:   0  F: -2475.638390017907113  |grad|_K:  1.804e-06  alpha:  1.000e+00
	Linear fluid (dielectric constant: 78.4, screening length: 5.74355 Bohr) occupying 0.756777 of unit cell:	Completed after 12 iterations at t[s]:   3158.11
	Linear fluid (dielectric constant: 78.4, screening length: 5.74355 Bohr) occupying 0.756612 of unit cell:	Completed after 12 iterations at t[s]:   3185.94
	FillingsUpdate:  mu: -0.252465429  nElectrons: 639.000000  magneticMoment: [ Abs: 0.00001  Tot: +0.00000 ]
	SubspaceRotationAdjust: set factor to 0.421
ElecMinimize: Iter:   1  F: -2475.638687607537577  |grad|_K:  9.945e-07  alpha:  4.246e-01  linmin: -3.155e-08  t[s]:   3221.11
	Linear fluid (dielectric constant: 78.4, screening length: 5.74355 Bohr) occupying 0.756719 of unit cell:	Completed after 9 iterations at t[s]:   3244.25
	Linear fluid (dielectric constant: 78.4, screening length: 5.74355 Bohr) occupying 0.756759 of unit cell:	Completed after 8 iterations at t[s]:   3270.85
	FillingsUpdate:  mu: -0.251857045  nElectrons: 639.000000  magneticMoment: [ Abs: 0.00001  Tot: +0.00000 ]
	SubspaceRotationAdjust: set factor to 0.538
ElecMinimize: Iter:   2  F: -2475.638812886756114  |grad|_K:  5.542e-07  alpha:  5.872e-01  linmin: -1.357e-06  t[s]:   3305.85
	Linear fluid (dielectric constant: 78.4, screening length: 5.74355 Bohr) occupying 0.756840 of unit cell:	Completed after 7 iterations at t[s]:   3328.58
	Linear fluid (dielectric constant: 78.4, screening length: 5.74355 Bohr) occupying 0.756828 of unit cell:	Completed after 2 iterations at t[s]:   3354.11
	FillingsUpdate:  mu: -0.251821016  nElectrons: 639.000000  magneticMoment: [ Abs: 0.00001  Tot: +0.00000 ]
	SubspaceRotationAdjust: set factor to 0.59
ElecMinimize: Iter:   3  F: -2475.638846214400473  |grad|_K:  2.837e-07  alpha:  5.021e-01  linmin:  7.622e-07  t[s]:   3388.02
	Linear fluid (dielectric constant: 78.4, screening length: 5.74355 Bohr) occupying 0.756858 of unit cell:	Completed after 3 iterations at t[s]:   3410.02
	Linear fluid (dielectric constant: 78.4, screening length: 5.74355 Bohr) occupying 0.756858 of unit cell:	Completed after 0 iterations at t[s]:   3434.64
	FillingsUpdate:  mu: -0.251806203  nElectrons: 639.000000  magneticMoment: [ Abs: 0.00000  Tot: +0.00000 ]
	SubspaceRotationAdjust: set factor to 0.655
ElecMinimize: Iter:   4  F: -2475.638855071037597  |grad|_K:  1.700e-07  alpha:  5.121e-01  linmin: -1.590e-06  t[s]:   3467.57
	Linear fluid (dielectric constant: 78.4, screening length: 5.74355 Bohr) occupying 0.756873 of unit cell:	Completed after 2 iterations at t[s]:   3489.77
	Linear fluid (dielectric constant: 78.4, screening length: 5.74355 Bohr) occupying 0.756871 of unit cell:	Completed after 0 iterations at t[s]:   3513.99
	FillingsUpdate:  mu: -0.251762823  nElectrons: 639.000000  magneticMoment: [ Abs: 0.00000  Tot: +0.00000 ]
	SubspaceRotationAdjust: set factor to 0.767
ElecMinimize: Iter:   5  F: -2475.638858013570371  |grad|_K:  8.094e-08  alpha:  4.678e-01  linmin:  3.336e-06  t[s]:   3546.60
	Linear fluid (dielectric constant: 78.4, screening length: 5.74355 Bohr) occupying 0.756874 of unit cell:	Completed after 2 iterations at t[s]:   3568.59
	Linear fluid (dielectric constant: 78.4, screening length: 5.74355 Bohr) occupying 0.756874 of unit cell:	Completed after 0 iterations at t[s]:   3592.77
	FillingsUpdate:  mu: -0.251755051  nElectrons: 639.000000  magneticMoment: [ Abs: 0.00000  Tot: +0.00000 ]
	SubspaceRotationAdjust: set factor to 0.791
ElecMinimize: Iter:   6  F: -2475.638858697100659  |grad|_K:  4.276e-08  alpha:  4.909e-01  linmin: -9.309e-06  t[s]:   3626.06
	Linear fluid (dielectric constant: 78.4, screening length: 5.74355 Bohr) occupying 0.756874 of unit cell:	Completed after 1 iterations at t[s]:   3648.07
	Linear fluid (dielectric constant: 78.4, screening length: 5.74355 Bohr) occupying 0.756874 of unit cell:	Completed after 0 iterations at t[s]:   3671.97
	FillingsUpdate:  mu: -0.251751301  nElectrons: 639.000000  magneticMoment: [ Abs: 0.00000  Tot: +0.00000 ]
	SubspaceRotationAdjust: set factor to 0.791
ElecMinimize: Iter:   7  F: -2475.638858866998362  |grad|_K:  2.112e-08  alpha:  4.177e-01  linmin: -8.142e-06  t[s]:   3705.01
	Linear fluid (dielectric constant: 78.4, screening length: 5.74355 Bohr) occupying 0.756874 of unit cell:	Completed after 0 iterations at t[s]:   3726.50
	Linear fluid (dielectric constant: 78.4, screening length: 5.74355 Bohr) occupying 0.756874 of unit cell:	Completed after 0 iterations at t[s]:   3749.92
	FillingsUpdate:  mu: -0.251751176  nElectrons: 639.000000  magneticMoment: [ Abs: 0.00000  Tot: +0.00000 ]
	SubspaceRotationAdjust: set factor to 0.875
ElecMinimize: Iter:   8  F: -2475.638858919901395  |grad|_K:  1.237e-08  alpha:  5.231e-01  linmin:  2.843e-08  t[s]:   3782.84
	Linear fluid (dielectric constant: 78.4, screening length: 5.74355 Bohr) occupying 0.756873 of unit cell:	Completed after 0 iterations at t[s]:   3804.50
	Linear fluid (dielectric constant: 78.4, screening length: 5.74355 Bohr) occupying 0.756873 of unit cell:	Completed after 0 iterations at t[s]:   3827.88
	FillingsUpdate:  mu: -0.251751119  nElectrons: 639.000000  magneticMoment: [ Abs: 0.00000  Tot: +0.00000 ]
	SubspaceRotationAdjust: set factor to 1.04
ElecMinimize: Iter:   9  F: -2475.638858936204997  |grad|_K:  7.151e-09  alpha:  4.956e-01  linmin:  8.749e-08  t[s]:   3861.05
	Linear fluid (dielectric constant: 78.4, screening length: 5.74355 Bohr) occupying 0.756873 of unit cell:	Completed after 0 iterations at t[s]:   3882.53
	Linear fluid (dielectric constant: 78.4, screening length: 5.74355 Bohr) occupying 0.756873 of unit cell:	Completed after 0 iterations at t[s]:   3906.03
	FillingsUpdate:  mu: -0.251751053  nElectrons: 639.000000  magneticMoment: [ Abs: 0.00000  Tot: +0.00000 ]
	SubspaceRotationAdjust: set factor to 1.27
ElecMinimize: Iter:  10  F: -2475.638858941698345  |grad|_K:  4.332e-09  alpha:  5.008e-01  linmin:  1.961e-07  t[s]:   3938.83
	Linear fluid (dielectric constant: 78.4, screening length: 5.74355 Bohr) occupying 0.756873 of unit cell:	Completed after 0 iterations at t[s]:   3960.64
	Linear fluid (dielectric constant: 78.4, screening length: 5.74355 Bohr) occupying 0.756873 of unit cell:	Completed after 0 iterations at t[s]:   3984.51
ElecMinimize: 	Step increased F by 1.363878e-08, reducing alpha to 5.581182e-03.
	Linear fluid (dielectric constant: 78.4, screening length: 5.74355 Bohr) occupying 0.756873 of unit cell:	Completed after 0 iterations at t[s]:   4034.62
ElecMinimize: 	Step increased F by 1.376247e-08, reducing alpha to 5.581182e-04.
	Linear fluid (dielectric constant: 78.4, screening length: 5.74355 Bohr) occupying 0.756873 of unit cell:	Completed after 0 iterations at t[s]:   4084.90
ElecMinimize: 	Step increased F by 1.379203e-08, reducing alpha to 5.581182e-05.
ElecMinimize: 	Step failed to reduce F after 3 attempts. Quitting step.
ElecMinimize: 	Undoing step.
	Linear fluid (dielectric constant: 78.4, screening length: 5.74355 Bohr) occupying 0.756873 of unit cell:	Completed after 0 iterations at t[s]:   4135.37
ElecMinimize: 	Step failed: resetting search direction.
	FillingsUpdate:  mu: -0.251753649  nElectrons: 639.000000  magneticMoment: [ Abs: 0.00000  Tot: +0.00000 ]
	SubspaceRotationAdjust: set factor to 0.989
ElecMinimize: Iter:  11  F: -2475.638858927914953  |grad|_K:  7.048e-09  alpha:  5.581e-05
	Linear fluid (dielectric constant: 78.4, screening length: 5.74355 Bohr) occupying 0.756873 of unit cell:	Completed after 0 iterations at t[s]:   4189.29
	Linear fluid (dielectric constant: 78.4, screening length: 5.74355 Bohr) occupying 0.756873 of unit cell:	Completed after 0 iterations at t[s]:   4213.04
	FillingsUpdate:  mu: -0.251753871  nElectrons: 639.000000  magneticMoment: [ Abs: 0.00000  Tot: +0.00000 ]
	SubspaceRotationAdjust: set factor to 1.36
ElecMinimize: Iter:  12  F: -2475.638858934871678  |grad|_K:  5.670e-09  alpha:  6.486e-01  linmin: -1.144e-07  t[s]:   4244.11
	Linear fluid (dielectric constant: 78.4, screening length: 5.74355 Bohr) occupying 0.756873 of unit cell:	Completed after 0 iterations at t[s]:   4264.54
	Linear fluid (dielectric constant: 78.4, screening length: 5.74355 Bohr) occupying 0.756873 of unit cell:	Completed after 0 iterations at t[s]:   4286.49
ElecMinimize: 	Step increased F by 3.796686e-09, reducing alpha to 1.698052e-02.
	Linear fluid (dielectric constant: 78.4, screening length: 5.74355 Bohr) occupying 0.756873 of unit cell:	Completed after 0 iterations at t[s]:   4333.34
ElecMinimize: 	Step increased F by 4.376943e-09, reducing alpha to 1.698052e-03.
	Linear fluid (dielectric constant: 78.4, screening length: 5.74355 Bohr) occupying 0.756873 of unit cell:	Completed after 0 iterations at t[s]:   4380.16
ElecMinimize: 	Step increased F by 4.460162e-09, reducing alpha to 1.698052e-04.
ElecMinimize: 	Step failed to reduce F after 3 attempts. Quitting step.
ElecMinimize: 	Undoing step.
	Linear fluid (dielectric constant: 78.4, screening length: 5.74355 Bohr) occupying 0.756873 of unit cell:	Completed after 0 iterations at t[s]:   4426.92
ElecMinimize: 	Step failed: resetting search direction.
	FillingsUpdate:  mu: -0.251753893  nElectrons: 639.000000  magneticMoment: [ Abs: 0.00000  Tot: +0.00000 ]
	SubspaceRotationAdjust: set factor to 1.33
ElecMinimize: Iter:  13  F: -2475.638858930360129  |grad|_K:  5.874e-09  alpha:  1.698e-04
	Linear fluid (dielectric constant: 78.4, screening length: 5.74355 Bohr) occupying 0.756873 of unit cell:	Completed after 0 iterations at t[s]:   4478.37
	Linear fluid (dielectric constant: 78.4, screening length: 5.74355 Bohr) occupying 0.756873 of unit cell:	Completed after 0 iterations at t[s]:   4499.88
	FillingsUpdate:  mu: -0.251753943  nElectrons: 639.000000  magneticMoment: [ Abs: 0.00000  Tot: +0.00000 ]
	SubspaceRotationAdjust: set factor to 1.37
ElecMinimize: Iter:  14  F: -2475.638858932329185  |grad|_K:  2.533e-09  alpha:  2.597e-01  linmin:  2.846e-07  t[s]:   4530.80
	Linear fluid (dielectric constant: 78.4, screening length: 5.74355 Bohr) occupying 0.756873 of unit cell:	Completed after 0 iterations at t[s]:   4551.10
	Linear fluid (dielectric constant: 78.4, screening length: 5.74355 Bohr) occupying 0.756873 of unit cell:	Completed after 0 iterations at t[s]:   4572.79
	FillingsUpdate:  mu: -0.251754063  nElectrons: 639.000000  magneticMoment: [ Abs: 0.00000  Tot: +0.00000 ]
	SubspaceRotationAdjust: set factor to 2
ElecMinimize: Iter:  15  F: -2475.638858933341453  |grad|_K:  1.269e-09  alpha:  6.350e-01  linmin: -4.649e-06  t[s]:   4603.63
ElecMinimize: Converged (|Delta F|<1.000000e-08 for 2 iters).
Setting wave functions to eigenvectors of Hamiltonian
Single-point solvation energy estimate, DeltaF = +0.073647579067256

# Ionic positions in lattice coordinates:
ion Ti   0.166666666516667   0.083333334683333   0.567498814671293 1
ion Ti   0.083333333183333   0.166666668016667   0.432475460304391 1
ion Ti   0.416666666516667   0.083333334683333   0.567498814671293 1
ion Ti   0.333333333183333   0.166666668016667   0.432475460304391 1
ion Ti   0.666666666516667   0.083333334683333   0.567498814671293 1
ion Ti   0.583333333183333   0.166666668016667   0.432475460304391 1
ion Ti   0.916666666516667   0.083333334683333   0.567498814671293 1
ion Ti   0.833333333183333   0.166666668016667   0.432475460304391 1
ion Ti   0.166666666516667   0.333333334683333   0.567498814671293 1
ion Ti   0.083333333183333   0.416666668016667   0.432475460304391 1
ion Ti   0.416666666516667   0.333333334683333   0.567498814671293 1
ion Ti   0.333333333183333   0.416666668016667   0.432475460304391 1
ion Ti   0.666666666516667   0.333333334683333   0.567498814671293 1
ion Ti   0.583333333183333   0.416666668016667   0.432475460304391 1
ion Ti   0.916666666516667   0.333333334683333   0.567498814671293 1
ion Ti   0.833333333183333   0.416666668016667   0.432475460304391 1
ion Ti   0.166666666516667   0.583333334683333   0.567498814671293 1
ion Ti   0.083333333183333   0.666666668016667   0.432475460304391 1
ion Ti   0.416666666516667   0.583333334683333   0.567498814671293 1
ion Ti   0.333333333183333   0.666666668016667   0.432475460304391 1
ion Ti   0.666666666516667   0.583333334683333   0.567498814671293 1
ion Ti   0.583333333183333   0.666666668016667   0.432475460304391 1
ion Ti   0.916666666516667   0.583333334683333   0.567498814671293 1
ion Ti   0.833333333183333   0.666666668016667   0.432475460304391 1
ion Ti   0.166666666516667   0.833333334683333   0.567498814671293 1
ion Ti   0.083333333183333   0.916666668016667   0.432475460304391 1
ion Ti   0.416666666516667   0.833333334683333   0.567498814671293 1
ion Ti   0.333333333183333   0.916666668016667   0.432475460304391 1
ion Ti   0.666666666516667   0.833333334683333   0.567498814671293 1
ion Ti   0.583333333183333   0.916666668016667   0.432475460304391 1
ion Ti   0.916666666516667   0.833333334683333   0.567498814671293 1
ion Ti   0.833333333183333   0.916666668016667   0.432475460304391 1
ion C  -0.000000000150000   0.000000001350000   0.499992527448382 1
ion C   0.249999999850000   0.000000001350000   0.499992527448382 1
ion C   0.499999999850000   0.000000001350000   0.499992527448382 1
ion C   0.749999999850000   0.000000001350000   0.499992527448382 1
ion C  -0.000000000150000   0.250000001350000   0.499992527448382 1
ion C   0.249999999850000   0.250000001350000   0.499992527448382 1
ion C   0.499999999850000   0.250000001350000   0.499992527448382 1
ion C   0.749999999850000   0.250000001350000   0.499992527448382 1
ion C  -0.000000000150000   0.500000001350000   0.499992527448382 1
ion C   0.249999999850000   0.500000001350000   0.499992527448382 1
ion C   0.499999999850000   0.500000001350000   0.499992527448382 1
ion C   0.749999999850000   0.500000001350000   0.499992527448382 1
ion C  -0.000000000150000   0.750000001350000   0.499992527448382 1
ion C   0.249999999850000   0.750000001350000   0.499992527448382 1
ion C   0.499999999850000   0.750000001350000   0.499992527448382 1
ion C   0.749999999850000   0.750000001350000   0.499992527448382 1
ion O   0.083333333183333   0.166666668016667   0.614923455231518 1
ion O   0.166666666516667   0.083333334683333   0.385067441494017 1
ion O   0.333333333183333   0.166666668016667   0.614923455231518 1
ion O   0.416666666516667   0.083333334683333   0.385067441494017 1
ion O   0.583333333183333   0.166666668016667   0.614923455231518 1
ion O   0.666666666516667   0.083333334683333   0.385067441494017 1
ion O   0.833333333183333   0.166666668016667   0.614923455231518 1
ion O   0.916666666516667   0.083333334683333   0.385067441494017 1
ion O   0.083333333183333   0.416666668016667   0.614923455231518 1
ion O   0.166666666516667   0.333333334683333   0.385067441494017 1
ion O   0.333333333183333   0.416666668016667   0.614923455231518 1
ion O   0.416666666516667   0.333333334683333   0.385067441494017 1
ion O   0.583333333183333   0.416666668016667   0.614923455231518 1
ion O   0.666666666516667   0.333333334683333   0.385067441494017 1
ion O   0.833333333183333   0.416666668016667   0.614923455231518 1
ion O   0.916666666516667   0.333333334683333   0.385067441494017 1
ion O   0.083333333183333   0.666666668016667   0.614923455231518 1
ion O   0.166666666516667   0.583333334683333   0.385067441494017 1
ion O   0.333333333183333   0.666666668016667   0.614923455231518 1
ion O   0.416666666516667   0.583333334683333   0.385067441494017 1
ion O   0.583333333183333   0.666666668016667   0.614923455231518 1
ion O   0.666666666516667   0.583333334683333   0.385067441494017 1
ion O   0.833333333183333   0.666666668016667   0.614923455231518 1
ion O   0.916666666516667   0.583333334683333   0.385067441494017 1
ion O   0.083333333183333   0.916666668016667   0.614923455231518 1
ion O   0.166666666516667   0.833333334683333   0.385067441494017 1
ion O   0.333333333183333   0.916666668016667   0.614923455231518 1
ion O   0.416666666516667   0.833333334683333   0.385067441494017 1
ion O   0.583333333183333   0.916666668016667   0.614923455231518 1
ion O   0.666666666516667   0.833333334683333   0.385067441494017 1
ion O   0.833333333183333   0.916666668016667   0.614923455231518 1
ion O   0.916666666516667   0.833333334683333   0.385067441494017 1


# Forces in Lattice coordinates:
force Ti  -0.000000000000000   0.000000000000000   0.276015852621528 1
force Ti  -0.000000000000000   0.000000000000000  -0.272096205257068 1
force Ti  -0.000000000000000   0.000000000000000   0.276015852621528 1
force Ti  -0.000000000000000   0.000000000000000  -0.272096205256613 1
force Ti  -0.000000000000000   0.000000000000000   0.276015852621529 1
force Ti  -0.000000000000000   0.000000000000000  -0.272096205257068 1
force Ti   0.000000000000000   0.000000000000000   0.276015852621528 1
force Ti  -0.000000000000000   0.000000000000000  -0.272096205257068 1
force Ti  -0.000000000000000   0.000000000000000   0.276015852621301 1
force Ti  -0.000000000000000   0.000000000000000  -0.272096205257068 1
force Ti  -0.000000000000000   0.000000000000000   0.276015852621301 1
force Ti  -0.000000000000000  -0.000000000000000  -0.272096205256613 1
force Ti  -0.000000000000000   0.000000000000000   0.276015852621528 1
force Ti  -0.000000000000000   0.000000000000000  -0.272096205257068 1
force Ti  -0.000000000000000   0.000000000000000   0.276015852621528 1
force Ti  -0.000000000000000   0.000000000000000  -0.272096205257068 1
force Ti   0.000000000000000   0.000000000000000   0.276015852621528 1
force Ti   0.000000000000000   0.000000000000000  -0.272096205257523 1
force Ti   0.000000000000000  -0.000000000000000   0.276015852621301 1
force Ti  -0.000000000000000   0.000000000000000  -0.272096205256613 1
force Ti   0.000000000000000  -0.000000000000000   0.276015852621301 1
force Ti   0.000000000000000   0.000000000000000  -0.272096205257068 1
force Ti  -0.000000000000000   0.000000000000000   0.276015852621528 1
force Ti   0.000000000000000   0.000000000000000  -0.272096205257068 1
force Ti   0.000000000000000   0.000000000000000   0.276015852621301 1
force Ti   0.000000000000000   0.000000000000000  -0.272096205257523 1
force Ti   0.000000000000000  -0.000000000000000   0.276015852621528 1
force Ti  -0.000000000000000   0.000000000000000  -0.272096205257523 1
force Ti   0.000000000000000  -0.000000000000000   0.276015852621528 1
force Ti   0.000000000000000   0.000000000000000  -0.272096205257068 1
force Ti   0.000000000000000   0.000000000000000   0.276015852621528 1
force Ti   0.000000000000000   0.000000000000000  -0.272096205257523 1
force C  -0.000000000000000  -0.000000000000000  -0.001007580469262 1
force C  -0.000000000000000  -0.000000000000000  -0.001007580469262 1
force C  -0.000000000000000  -0.000000000000000  -0.001007580469262 1
force C  -0.000000000000000   0.000000000000000  -0.001007580469262 1
force C  -0.000000000000000  -0.000000000000000  -0.001007580469262 1
force C   0.000000000000000   0.000000000000000  -0.001007580469262 1
force C  -0.000000000000000  -0.000000000000000  -0.001007580469262 1
force C   0.000000000000000   0.000000000000000  -0.001007580469262 1
force C   0.000000000000000   0.000000000000000  -0.001007580469262 1
force C  -0.000000000000000   0.000000000000000  -0.001007580469262 1
force C   0.000000000000000   0.000000000000000  -0.001007580469262 1
force C  -0.000000000000000   0.000000000000000  -0.001007580469262 1
force C   0.000000000000000   0.000000000000000  -0.001007580469262 1
force C   0.000000000000000  -0.000000000000000  -0.001007580469262 1
force C  -0.000000000000000   0.000000000000000  -0.001007580469262 1
force C  -0.000000000000000   0.000000000000000  -0.001007580469262 1
force O  -0.000000000000000  -0.000000000000000  -0.181009356789632 1
force O  -0.000000000000000   0.000000000000000   0.178365260301172 1
force O   0.000000000000000   0.000000000000000  -0.181009356789632 1
force O   0.000000000000000   0.000000000000000   0.178365260301174 1
force O   0.000000000000000   0.000000000000000  -0.181009356789859 1
force O   0.000000000000000   0.000000000000000   0.178365260301174 1
force O  -0.000000000000000  -0.000000000000000  -0.181009356789632 1
force O  -0.000000000000000   0.000000000000000   0.178365260301172 1
force O  -0.000000000000000  -0.000000000000000  -0.181009356789406 1
force O  -0.000000000000000   0.000000000000000   0.178365260301174 1
force O  -0.000000000000000  -0.000000000000000  -0.181009356789861 1
force O  -0.000000000000000   0.000000000000000   0.178365260301401 1
force O   0.000000000000000  -0.000000000000000  -0.181009356789632 1
force O   0.000000000000000   0.000000000000000   0.178365260301174 1
force O  -0.000000000000000  -0.000000000000000  -0.181009356789861 1
force O   0.000000000000000   0.000000000000000   0.178365260301399 1
force O  -0.000000000000000  -0.000000000000000  -0.181009356789859 1
force O  -0.000000000000000   0.000000000000000   0.178365260301172 1
force O  -0.000000000000000  -0.000000000000000  -0.181009356789634 1
force O  -0.000000000000000   0.000000000000000   0.178365260301401 1
force O  -0.000000000000000  -0.000000000000000  -0.181009356789632 1
force O   0.000000000000000   0.000000000000000   0.178365260301401 1
force O   0.000000000000000  -0.000000000000000  -0.181009356789634 1
force O   0.000000000000000   0.000000000000000   0.178365260301399 1
force O  -0.000000000000000  -0.000000000000000  -0.181009356789859 1
force O   0.000000000000000   0.000000000000000   0.178365260300946 1
force O   0.000000000000000  -0.000000000000000  -0.181009356789632 1
force O  -0.000000000000000   0.000000000000000   0.178365260300946 1
force O  -0.000000000000000  -0.000000000000000  -0.181009356789405 1
force O  -0.000000000000000   0.000000000000000   0.178365260300946 1
force O  -0.000000000000000  -0.000000000000000  -0.181009356789861 1
force O   0.000000000000000   0.000000000000000   0.178365260300946 1

# Energy components:
   A_diel =        0.0537630726759811
   Eewald =    24140.6921163040788088
       EH =    26119.2853962128428975
     Eloc =   -53292.7763367131847190
      Enl =      257.2263294966027729
      Exc =     -434.3413711338199619
 Exc_core =       44.5244216308360308
       KE =      689.6878640022312084
  MuShift =        0.0194181848201733
-------------------------------------
     Etot =    -2475.6283989429130088
       TS =        0.0104599904286037
-------------------------------------
        F =    -2475.6388589333414529

IonicMinimize: Iter:   0  F: -2475.638858933341453  |grad|_K:  3.253e-03  t[s]:   4622.33

#--- Lowdin population analysis ---
# oxidation-state Ti +1.401 +1.401 +1.401 +1.401 +1.401 +1.401 +1.401 +1.401 +1.401 +1.401 +1.401 +1.401 +1.401 +1.401 +1.401 +1.401 +1.401 +1.401 +1.401 +1.401 +1.401 +1.401 +1.401 +1.401 +1.401 +1.401 +1.401 +1.401 +1.401 +1.401 +1.401 +1.401
# magnetic-moments Ti +0.000 +0.000 +0.000 +0.000 +0.000 +0.000 +0.000 +0.000 +0.000 +0.000 +0.000 +0.000 +0.000 +0.000 +0.000 +0.000 +0.000 +0.000 +0.000 +0.000 +0.000 +0.000 +0.000 +0.000 +0.000 +0.000 +0.000 +0.000 +0.000 +0.000 +0.000 +0.000
# oxidation-state C -1.173 -1.173 -1.173 -1.173 -1.173 -1.173 -1.173 -1.173 -1.173 -1.173 -1.173 -1.173 -1.173 -1.173 -1.173 -1.173
# magnetic-moments C -0.000 -0.000 -0.000 -0.000 -0.000 -0.000 -0.000 -0.000 -0.000 -0.000 -0.000 -0.000 -0.000 -0.000 -0.000 -0.000
# oxidation-state O -0.697 -0.697 -0.697 -0.697 -0.697 -0.697 -0.697 -0.697 -0.697 -0.697 -0.697 -0.697 -0.697 -0.697 -0.697 -0.697 -0.697 -0.697 -0.697 -0.697 -0.697 -0.697 -0.697 -0.697 -0.697 -0.697 -0.697 -0.697 -0.697 -0.697 -0.697 -0.697
# magnetic-moments O +0.000 +0.000 +0.000 +0.000 +0.000 +0.000 +0.000 +0.000 +0.000 +0.000 +0.000 +0.000 +0.000 +0.000 +0.000 +0.000 +0.000 +0.000 +0.000 +0.000 +0.000 +0.000 +0.000 +0.000 +0.000 +0.000 +0.000 +0.000 +0.000 +0.000 +0.000 +0.000

	Linear fluid (dielectric constant: 78.4, screening length: 5.74355 Bohr) occupying 0.757032 of unit cell:	Completed after 10 iterations at t[s]:   4644.73

-------- Electronic minimization -----------
	Linear fluid (dielectric constant: 78.4, screening length: 5.74355 Bohr) occupying 0.757032 of unit cell:	Completed after 0 iterations at t[s]:   4663.68
	FillingsUpdate:  mu: -0.246435119  nElectrons: 639.000000  magneticMoment: [ Abs: 0.00001  Tot: -0.00000 ]
ElecMinimize: Iter:   0  F: -2475.639807214630309  |grad|_K:  3.559e-06  alpha:  1.000e+00
	Linear fluid (dielectric constant: 78.4, screening length: 5.74355 Bohr) occupying 0.756634 of unit cell:	Completed after 12 iterations at t[s]:   4718.87
	Linear fluid (dielectric constant: 78.4, screening length: 5.74355 Bohr) occupying 0.756948 of unit cell:	Completed after 12 iterations at t[s]:   4744.65
	FillingsUpdate:  mu: -0.250866557  nElectrons: 639.000000  magneticMoment: [ Abs: 0.00001  Tot: +0.00000 ]
	SubspaceRotationAdjust: set factor to 1.08
ElecMinimize: Iter:   1  F: -2475.640380376470603  |grad|_K:  3.314e-06  alpha:  2.134e-01  linmin:  5.588e-05  t[s]:   4778.57
	Linear fluid (dielectric constant: 78.4, screening length: 5.74355 Bohr) occupying 0.756877 of unit cell:	Completed after 11 iterations at t[s]:   4799.79
	Linear fluid (dielectric constant: 78.4, screening length: 5.74355 Bohr) occupying 0.756883 of unit cell:	Completed after 2 iterations at t[s]:   4824.41
	FillingsUpdate:  mu: -0.249467637  nElectrons: 639.000000  magneticMoment: [ Abs: 0.00001  Tot: +0.00000 ]
	SubspaceRotationAdjust: set factor to 1.15
ElecMinimize: Iter:   2  F: -2475.640837567920244  |grad|_K:  7.154e-07  alpha:  1.958e-01  linmin:  7.879e-06  t[s]:   4855.95
	Linear fluid (dielectric constant: 78.4, screening length: 5.74355 Bohr) occupying 0.756889 of unit cell:	Completed after 3 iterations at t[s]:   4876.51
	Linear fluid (dielectric constant: 78.4, screening length: 5.74355 Bohr) occupying 0.756891 of unit cell:	Completed after 2 iterations at t[s]:   4899.34
	FillingsUpdate:  mu: -0.249370196  nElectrons: 639.000000  magneticMoment: [ Abs: 0.00001  Tot: +0.00000 ]
	SubspaceRotationAdjust: set factor to 0.84
ElecMinimize: Iter:   3  F: -2475.640867202209392  |grad|_K:  3.872e-07  alpha:  2.694e-01  linmin:  8.578e-06  t[s]:   4930.75
	Linear fluid (dielectric constant: 78.4, screening length: 5.74355 Bohr) occupying 0.756903 of unit cell:	Completed after 2 iterations at t[s]:   4951.32
	Linear fluid (dielectric constant: 78.4, screening length: 5.74355 Bohr) occupying 0.756911 of unit cell:	Completed after 3 iterations at t[s]:   4973.97
	FillingsUpdate:  mu: -0.249285832  nElectrons: 639.000000  magneticMoment: [ Abs: 0.00000  Tot: +0.00000 ]
	SubspaceRotationAdjust: set factor to 0.685
ElecMinimize: Iter:   4  F: -2475.640881382659245  |grad|_K:  2.588e-07  alpha:  4.422e-01  linmin:  8.035e-06  t[s]:   5005.91
	Linear fluid (dielectric constant: 78.4, screening length: 5.74355 Bohr) occupying 0.756924 of unit cell:	Completed after 3 iterations at t[s]:   5026.40
	Linear fluid (dielectric constant: 78.4, screening length: 5.74355 Bohr) occupying 0.756923 of unit cell:	Completed after 0 iterations at t[s]:   5049.05
	FillingsUpdate:  mu: -0.249263507  nElectrons: 639.000000  magneticMoment: [ Abs: 0.00000  Tot: +0.00000 ]
	SubspaceRotationAdjust: set factor to 0.857
ElecMinimize: Iter:   5  F: -2475.640887190797912  |grad|_K:  1.237e-07  alpha:  4.056e-01  linmin:  1.245e-05  t[s]:   5079.90
	Linear fluid (dielectric constant: 78.4, screening length: 5.74355 Bohr) occupying 0.756925 of unit cell:	Completed after 2 iterations at t[s]:   5100.47
	Linear fluid (dielectric constant: 78.4, screening length: 5.74355 Bohr) occupying 0.756926 of unit cell:	Completed after 0 iterations at t[s]:   5122.79
	FillingsUpdate:  mu: -0.249261958  nElectrons: 639.000000  magneticMoment: [ Abs: 0.00000  Tot: +0.00000 ]
	SubspaceRotationAdjust: set factor to 0.869
ElecMinimize: Iter:   6  F: -2475.640888792887836  |grad|_K:  7.306e-08  alpha:  4.831e-01  linmin: -1.445e-04  t[s]:   5153.63
	Linear fluid (dielectric constant: 78.4, screening length: 5.74355 Bohr) occupying 0.756926 of unit cell:	Completed after 3 iterations at t[s]:   5174.28
	Linear fluid (dielectric constant: 78.4, screening length: 5.74355 Bohr) occupying 0.756926 of unit cell:	Completed after 0 iterations at t[s]:   5196.83
	FillingsUpdate:  mu: -0.249290158  nElectrons: 639.000000  magneticMoment: [ Abs: 0.00000  Tot: +0.00000 ]
	SubspaceRotationAdjust: set factor to 0.657
ElecMinimize: Iter:   7  F: -2475.640889307030193  |grad|_K:  6.919e-08  alpha:  4.067e-01  linmin:  9.665e-05  t[s]:   5227.70
	Linear fluid (dielectric constant: 78.4, screening length: 5.74355 Bohr) occupying 0.756925 of unit cell:	Completed after 2 iterations at t[s]:   5248.23
	Linear fluid (dielectric constant: 78.4, screening length: 5.74355 Bohr) occupying 0.756926 of unit cell:	Completed after 0 iterations at t[s]:   5270.56
	FillingsUpdate:  mu: -0.249294216  nElectrons: 639.000000  magneticMoment: [ Abs: 0.00000  Tot: -0.00000 ]
	SubspaceRotationAdjust: set factor to 0.331
ElecMinimize: Iter:   8  F: -2475.640889531344328  |grad|_K:  4.211e-08  alpha:  2.408e-01  linmin:  9.847e-05  t[s]:   5301.38
	Linear fluid (dielectric constant: 78.4, screening length: 5.74355 Bohr) occupying 0.756925 of unit cell:	Completed after 2 iterations at t[s]:   5321.78
	Linear fluid (dielectric constant: 78.4, screening length: 5.74355 Bohr) occupying 0.756925 of unit cell:	Completed after 0 iterations at t[s]:   5344.03
	FillingsUpdate:  mu: -0.249284728  nElectrons: 639.000000  magneticMoment: [ Abs: 0.00000  Tot: -0.00000 ]
	SubspaceRotationAdjust: set factor to 0.187
	SubspaceRotationAdjust: resetting CG because factor has changed by 0.0935077
	Linear fluid (dielectric constant: 78.4, screening length: 5.74355 Bohr) occupying 0.756925 of unit cell:	Completed after 0 iterations at t[s]:   5385.69
ElecMinimize: 	State modified externally: resetting search direction.
ElecMinimize: Iter:   9  F: -2475.640889543921730  |grad|_K:  2.093e-08  alpha:  1.337e-01
	Linear fluid (dielectric constant: 78.4, screening length: 5.74355 Bohr) occupying 0.756925 of unit cell:	Completed after 0 iterations at t[s]:   5436.79
ElecMinimize: 	Predicted alpha/alphaT>3.000000, increasing alphaT to 4.009587e-01.
	Linear fluid (dielectric constant: 78.4, screening length: 5.74355 Bohr) occupying 0.756925 of unit cell:	Completed after 0 iterations at t[s]:   5459.59
	Linear fluid (dielectric constant: 78.4, screening length: 5.74355 Bohr) occupying 0.756925 of unit cell:	Completed after 0 iterations at t[s]:   5483.26
	FillingsUpdate:  mu: -0.249284680  nElectrons: 639.000000  magneticMoment: [ Abs: 0.00000  Tot: -0.00000 ]
	SubspaceRotationAdjust: set factor to 0.077
ElecMinimize: Iter:  10  F: -2475.640889591495579  |grad|_K:  1.087e-08  alpha:  4.661e-01  linmin: -4.896e-04  t[s]:   5516.22
	Linear fluid (dielectric constant: 78.4, screening length: 5.74355 Bohr) occupying 0.756925 of unit cell:	Completed after 0 iterations at t[s]:   5537.71
	Linear fluid (dielectric constant: 78.4, screening length: 5.74355 Bohr) occupying 0.756925 of unit cell:	Completed after 0 iterations at t[s]:   5561.06
	FillingsUpdate:  mu: -0.249284708  nElectrons: 639.000000  magneticMoment: [ Abs: 0.00000  Tot: -0.00000 ]
	SubspaceRotationAdjust: set factor to 0.0989
ElecMinimize: Iter:  11  F: -2475.640889621905444  |grad|_K:  8.570e-09  alpha:  9.097e-01  linmin:  2.077e-06  t[s]:   5593.85
	Linear fluid (dielectric constant: 78.4, screening length: 5.74355 Bohr) occupying 0.756926 of unit cell:	Completed after 2 iterations at t[s]:   5615.49
	Linear fluid (dielectric constant: 78.4, screening length: 5.74355 Bohr) occupying 0.756926 of unit cell:	Completed after 0 iterations at t[s]:   5639.65
ElecMinimize: 	Step increased F by 4.858202e-08, reducing alpha to 1.147756e-02.
	Linear fluid (dielectric constant: 78.4, screening length: 5.74355 Bohr) occupying 0.756925 of unit cell:	Completed after 0 iterations at t[s]:   5689.55
ElecMinimize: 	Step increased F by 4.634921e-08, reducing alpha to 1.147756e-03.
	Linear fluid (dielectric constant: 78.4, screening length: 5.74355 Bohr) occupying 0.756925 of unit cell:	Completed after 0 iterations at t[s]:   5739.50
ElecMinimize: 	Step increased F by 4.615140e-08, reducing alpha to 1.147756e-04.
ElecMinimize: 	Step failed to reduce F after 3 attempts. Quitting step.
ElecMinimize: 	Undoing step.
	Linear fluid (dielectric constant: 78.4, screening length: 5.74355 Bohr) occupying 0.756925 of unit cell:	Completed after 0 iterations at t[s]:   5789.51
ElecMinimize: 	Step failed: resetting search direction.
	FillingsUpdate:  mu: -0.249263032  nElectrons: 639.000000  magneticMoment: [ Abs: 0.00000  Tot: -0.00000 ]
	SubspaceRotationAdjust: set factor to 0.0948
ElecMinimize: Iter:  12  F: -2475.640889575727670  |grad|_K:  2.316e-08  alpha:  1.148e-04
	Linear fluid (dielectric constant: 78.4, screening length: 5.74355 Bohr) occupying 0.756926 of unit cell:	Completed after 3 iterations at t[s]:   5844.29
	Linear fluid (dielectric constant: 78.4, screening length: 5.74355 Bohr) occupying 0.756926 of unit cell:	Completed after 0 iterations at t[s]:   5868.82
	FillingsUpdate:  mu: -0.249279583  nElectrons: 639.000000  magneticMoment: [ Abs: 0.00000  Tot: -0.00000 ]
	SubspaceRotationAdjust: set factor to 0.0812
ElecMinimize: Iter:  13  F: -2475.640889647872427  |grad|_K:  2.356e-08  alpha:  3.321e-01  linmin:  4.590e-04  t[s]:   5901.82
	Linear fluid (dielectric constant: 78.4, screening length: 5.74355 Bohr) occupying 0.756926 of unit cell:	Completed after 0 iterations at t[s]:   5923.31
	Linear fluid (dielectric constant: 78.4, screening length: 5.74355 Bohr) occupying 0.756926 of unit cell:	Completed after 0 iterations at t[s]:   5946.46
	FillingsUpdate:  mu: -0.249279521  nElectrons: 639.000000  magneticMoment: [ Abs: 0.00000  Tot: -0.00000 ]
	SubspaceRotationAdjust: set factor to 0.0951
ElecMinimize: Iter:  14  F: -2475.640889657331627  |grad|_K:  1.959e-08  alpha:  3.172e-01  linmin:  8.142e-08  t[s]:   5979.45
	Linear fluid (dielectric constant: 78.4, screening length: 5.74355 Bohr) occupying 0.756926 of unit cell:	Completed after 1 iterations at t[s]:   6001.29
	Linear fluid (dielectric constant: 78.4, screening length: 5.74355 Bohr) occupying 0.756926 of unit cell:	Completed after 0 iterations at t[s]:   6025.38
ElecMinimize: 	Step increased F by 4.661115e-08, reducing alpha to 5.418333e-03.
	Linear fluid (dielectric constant: 78.4, screening length: 5.74355 Bohr) occupying 0.756926 of unit cell:	Completed after 0 iterations at t[s]:   6075.00
ElecMinimize: 	Step increased F by 4.000321e-08, reducing alpha to 5.418333e-04.
	Linear fluid (dielectric constant: 78.4, screening length: 5.74355 Bohr) occupying 0.756926 of unit cell:	Completed after 0 iterations at t[s]:   6124.98
ElecMinimize: 	Step increased F by 3.940386e-08, reducing alpha to 5.418333e-05.
ElecMinimize: 	Step failed to reduce F after 3 attempts. Quitting step.
ElecMinimize: 	Undoing step.
	Linear fluid (dielectric constant: 78.4, screening length: 5.74355 Bohr) occupying 0.756926 of unit cell:	Completed after 0 iterations at t[s]:   6174.77
ElecMinimize: 	Step failed: resetting search direction.
	FillingsUpdate:  mu: -0.249274680  nElectrons: 639.000000  magneticMoment: [ Abs: 0.00000  Tot: -0.00000 ]
	SubspaceRotationAdjust: set factor to 0.0844
ElecMinimize: Iter:  15  F: -2475.640889617925950  |grad|_K:  1.706e-08  alpha:  5.418e-05
	Linear fluid (dielectric constant: 78.4, screening length: 5.74355 Bohr) occupying 0.756926 of unit cell:	Completed after 0 iterations at t[s]:   6228.66
	Linear fluid (dielectric constant: 78.4, screening length: 5.74355 Bohr) occupying 0.756926 of unit cell:	Completed after 0 iterations at t[s]:   6252.00
	FillingsUpdate:  mu: -0.249274713  nElectrons: 639.000000  magneticMoment: [ Abs: 0.00000  Tot: -0.00000 ]
	SubspaceRotationAdjust: set factor to 0.118
ElecMinimize: Iter:  16  F: -2475.640889645899279  |grad|_K:  8.427e-09  alpha:  4.470e-01  linmin:  1.612e-06  t[s]:   6284.68
	Linear fluid (dielectric constant: 78.4, screening length: 5.74355 Bohr) occupying 0.756925 of unit cell:	Completed after 2 iterations at t[s]:   6306.33
	Linear fluid (dielectric constant: 78.4, screening length: 5.74355 Bohr) occupying 0.756926 of unit cell:	Completed after 0 iterations at t[s]:   6330.25
ElecMinimize: 	Step increased F by 6.598384e-08, reducing alpha to 3.125411e-03.
	Linear fluid (dielectric constant: 78.4, screening length: 5.74355 Bohr) occupying 0.756926 of unit cell:	Completed after 0 iterations at t[s]:   6380.20
ElecMinimize: 	Step increased F by 6.509299e-08, reducing alpha to 3.125411e-04.
	Linear fluid (dielectric constant: 78.4, screening length: 5.74355 Bohr) occupying 0.756926 of unit cell:	Completed after 0 iterations at t[s]:   6429.86
ElecMinimize: 	Step increased F by 6.502205e-08, reducing alpha to 3.125411e-05.
ElecMinimize: 	Step failed to reduce F after 3 attempts. Quitting step.
ElecMinimize: 	Undoing step.
	Linear fluid (dielectric constant: 78.4, screening length: 5.74355 Bohr) occupying 0.756926 of unit cell:	Completed after 0 iterations at t[s]:   6479.98
ElecMinimize: 	Step failed: resetting search direction.
	FillingsUpdate:  mu: -0.249273611  nElectrons: 639.000000  magneticMoment: [ Abs: 0.00000  Tot: -0.00000 ]
	SubspaceRotationAdjust: set factor to 0.115
ElecMinimize: Iter:  17  F: -2475.640889580879502  |grad|_K:  2.680e-08  alpha:  3.125e-05
	Linear fluid (dielectric constant: 78.4, screening length: 5.74355 Bohr) occupying 0.756925 of unit cell:	Completed after 0 iterations at t[s]:   6533.88
	Linear fluid (dielectric constant: 78.4, screening length: 5.74355 Bohr) occupying 0.756926 of unit cell:	Completed after 0 iterations at t[s]:   6557.34
	FillingsUpdate:  mu: -0.249273532  nElectrons: 639.000000  magneticMoment: [ Abs: 0.00000  Tot: -0.00000 ]
	SubspaceRotationAdjust: set factor to 0.155
ElecMinimize: Iter:  18  F: -2475.640889647053882  |grad|_K:  9.552e-09  alpha:  4.279e-01  linmin:  6.425e-08  t[s]:   6590.40
	Linear fluid (dielectric constant: 78.4, screening length: 5.74355 Bohr) occupying 0.756925 of unit cell:	Completed after 2 iterations at t[s]:   6612.27
	Linear fluid (dielectric constant: 78.4, screening length: 5.74355 Bohr) occupying 0.756925 of unit cell:	Completed after 0 iterations at t[s]:   6636.36
ElecMinimize: 	Step increased F by 6.207438e-08, reducing alpha to 3.644590e-03.
	Linear fluid (dielectric constant: 78.4, screening length: 5.74355 Bohr) occupying 0.756926 of unit cell:	Completed after 0 iterations at t[s]:   6686.23
ElecMinimize: 	Step increased F by 6.097343e-08, reducing alpha to 3.644590e-04.
	Linear fluid (dielectric constant: 78.4, screening length: 5.74355 Bohr) occupying 0.756926 of unit cell:	Completed after 0 iterations at t[s]:   6736.42
ElecMinimize: 	Step increased F by 6.089704e-08, reducing alpha to 3.644590e-05.
ElecMinimize: 	Step failed to reduce F after 3 attempts. Quitting step.
ElecMinimize: 	Undoing step.
	Linear fluid (dielectric constant: 78.4, screening length: 5.74355 Bohr) occupying 0.756926 of unit cell:	Completed after 0 iterations at t[s]:   6786.61
ElecMinimize: 	Step failed: resetting search direction.
	FillingsUpdate:  mu: -0.249272752  nElectrons: 639.000000  magneticMoment: [ Abs: 0.00000  Tot: -0.00000 ]
	SubspaceRotationAdjust: set factor to 0.148
ElecMinimize: Iter:  19  F: -2475.640889586193680  |grad|_K:  2.582e-08  alpha:  3.645e-05
	Linear fluid (dielectric constant: 78.4, screening length: 5.74355 Bohr) occupying 0.756925 of unit cell:	Completed after 2 iterations at t[s]:   6840.80
	Linear fluid (dielectric constant: 78.4, screening length: 5.74355 Bohr) occupying 0.756925 of unit cell:	Completed after 0 iterations at t[s]:   6864.79
	FillingsUpdate:  mu: -0.249273866  nElectrons: 639.000000  magneticMoment: [ Abs: 0.00000  Tot: -0.00000 ]
	SubspaceRotationAdjust: set factor to 0.101
ElecMinimize: Iter:  20  F: -2475.640889618412075  |grad|_K:  6.898e-09  alpha:  2.213e-01  linmin:  3.024e-04  t[s]:   6897.79
	Linear fluid (dielectric constant: 78.4, screening length: 5.74355 Bohr) occupying 0.756925 of unit cell:	Completed after 0 iterations at t[s]:   6919.11
ElecMinimize: 	Predicted alpha/alphaT>3.000000, increasing alphaT to 6.639799e-01.
	Linear fluid (dielectric constant: 78.4, screening length: 5.74355 Bohr) occupying 0.756925 of unit cell:	Completed after 0 iterations at t[s]:   6942.37
	Linear fluid (dielectric constant: 78.4, screening length: 5.74355 Bohr) occupying 0.756925 of unit cell:	Completed after 0 iterations at t[s]:   6965.56
	FillingsUpdate:  mu: -0.249273806  nElectrons: 639.000000  magneticMoment: [ Abs: 0.00000  Tot: -0.00000 ]
	SubspaceRotationAdjust: set factor to 0.141
ElecMinimize: Iter:  21  F: -2475.640889625113687  |grad|_K:  3.861e-09  alpha:  8.685e-01  linmin:  2.281e-06  t[s]:   6998.30
	Linear fluid (dielectric constant: 78.4, screening length: 5.74355 Bohr) occupying 0.756925 of unit cell:	Completed after 0 iterations at t[s]:   7019.74
	Linear fluid (dielectric constant: 78.4, screening length: 5.74355 Bohr) occupying 0.756925 of unit cell:	Completed after 0 iterations at t[s]:   7043.04
	FillingsUpdate:  mu: -0.249273743  nElectrons: 639.000000  magneticMoment: [ Abs: 0.00000  Tot: -0.00000 ]
	SubspaceRotationAdjust: set factor to 0.171
ElecMinimize: Iter:  22  F: -2475.640889628319201  |grad|_K:  4.968e-09  alpha:  1.023e+00  linmin: -2.004e-07  t[s]:   7075.68
ElecMinimize: Converged (|Delta F|<1.000000e-08 for 2 iters).
Setting wave functions to eigenvectors of Hamiltonian

# Ionic positions in lattice coordinates:
ion Ti   0.166666666516667   0.083333334683333   0.567702718718917 1
ion Ti   0.083333333183333   0.166666668016667   0.432274373221183 1
ion Ti   0.416666666516667   0.083333334683333   0.567702718718917 1
ion Ti   0.333333333183333   0.166666668016667   0.432274373221183 1
ion Ti   0.666666666516667   0.083333334683333   0.567702718718917 1
ion Ti   0.583333333183333   0.166666668016667   0.432274373221183 1
ion Ti   0.916666666516667   0.083333334683333   0.567702718718917 1
ion Ti   0.833333333183333   0.166666668016667   0.432274373221183 1
ion Ti   0.166666666516667   0.333333334683333   0.567702718718917 1
ion Ti   0.083333333183333   0.416666668016667   0.432274373221183 1
ion Ti   0.416666666516667   0.333333334683333   0.567702718718917 1
ion Ti   0.333333333183333   0.416666668016667   0.432274373221183 1
ion Ti   0.666666666516667   0.333333334683333   0.567702718718917 1
ion Ti   0.583333333183333   0.416666668016667   0.432274373221183 1
ion Ti   0.916666666516667   0.333333334683333   0.567702718718917 1
ion Ti   0.833333333183333   0.416666668016667   0.432274373221183 1
ion Ti   0.166666666516667   0.583333334683333   0.567702718718917 1
ion Ti   0.083333333183333   0.666666668016667   0.432274373221183 1
ion Ti   0.416666666516667   0.583333334683333   0.567702718718917 1
ion Ti   0.333333333183333   0.666666668016667   0.432274373221183 1
ion Ti   0.666666666516667   0.583333334683333   0.567702718718917 1
ion Ti   0.583333333183333   0.666666668016667   0.432274373221183 1
ion Ti   0.916666666516667   0.583333334683333   0.567702718718917 1
ion Ti   0.833333333183333   0.666666668016667   0.432274373221183 1
ion Ti   0.166666666516667   0.833333334683333   0.567702718718917 1
ion Ti   0.083333333183333   0.916666668016667   0.432274373221183 1
ion Ti   0.416666666516667   0.833333334683333   0.567702718718917 1
ion Ti   0.333333333183333   0.916666668016667   0.432274373221183 1
ion Ti   0.666666666516667   0.833333334683333   0.567702718718917 1
ion Ti   0.583333333183333   0.916666668016667   0.432274373221183 1
ion Ti   0.916666666516667   0.833333334683333   0.567702718718917 1
ion Ti   0.833333333183333   0.916666668016667   0.432274373221183 1
ion C  -0.000000000150000   0.000000001350000   0.499991743363677 1
ion C   0.249999999850000   0.000000001350000   0.499991743363677 1
ion C   0.499999999850000   0.000000001350000   0.499991743363677 1
ion C   0.749999999850000   0.000000001350000   0.499991743363677 1
ion C  -0.000000000150000   0.250000001350000   0.499991743363677 1
ion C   0.249999999850000   0.250000001350000   0.499991743363677 1
ion C   0.499999999850000   0.250000001350000   0.499991743363677 1
ion C   0.749999999850000   0.250000001350000   0.499991743363677 1
ion C  -0.000000000150000   0.500000001350000   0.499991743363677 1
ion C   0.249999999850000   0.500000001350000   0.499991743363677 1
ion C   0.499999999850000   0.500000001350000   0.499991743363677 1
ion C   0.749999999850000   0.500000001350000   0.499991743363677 1
ion C  -0.000000000150000   0.750000001350000   0.499991743363677 1
ion C   0.249999999850000   0.750000001350000   0.499991743363677 1
ion C   0.499999999850000   0.750000001350000   0.499991743363677 1
ion C   0.749999999850000   0.750000001350000   0.499991743363677 1
ion O   0.083333333183333   0.166666668016667   0.614789670746811 1
ion O   0.166666666516667   0.083333334683333   0.385199193099013 1
ion O   0.333333333183333   0.166666668016667   0.614789670746811 1
ion O   0.416666666516667   0.083333334683333   0.385199193099013 1
ion O   0.583333333183333   0.166666668016667   0.614789670746811 1
ion O   0.666666666516667   0.083333334683333   0.385199193099013 1
ion O   0.833333333183333   0.166666668016667   0.614789670746811 1
ion O   0.916666666516667   0.083333334683333   0.385199193099013 1
ion O   0.083333333183333   0.416666668016667   0.614789670746811 1
[...]
	Linear fluid (dielectric constant: 78.4, screening length: 5.74355 Bohr) occupying 0.757080 of unit cell:	Completed after 1 iterations at t[s]:  11921.64
ElecMinimize: 	Step increased F by 1.905028e-08, reducing alpha to 6.241155e-02.
	Linear fluid (dielectric constant: 78.4, screening length: 5.74355 Bohr) occupying 0.757080 of unit cell:	Completed after 0 iterations at t[s]:  11971.85
ElecMinimize: 	Step increased F by 2.360730e-08, reducing alpha to 6.241155e-03.
	Linear fluid (dielectric constant: 78.4, screening length: 5.74355 Bohr) occupying 0.757080 of unit cell:	Completed after 0 iterations at t[s]:  12021.83
ElecMinimize: 	Step increased F by 2.623619e-08, reducing alpha to 6.241155e-04.
ElecMinimize: 	Step failed to reduce F after 3 attempts. Quitting step.
ElecMinimize: 	Undoing step.
	Linear fluid (dielectric constant: 78.4, screening length: 5.74355 Bohr) occupying 0.757080 of unit cell:	Completed after 0 iterations at t[s]:  12071.55
ElecMinimize: 	Step failed: resetting search direction.
	FillingsUpdate:  mu: -0.245254720  nElectrons: 639.000000  magneticMoment: [ Abs: 0.00000  Tot: +0.00000 ]
	SubspaceRotationAdjust: set factor to 0.574
ElecMinimize: Iter:   6  F: -2475.642101316465869  |grad|_K:  1.616e-08  alpha:  6.241e-04
	Linear fluid (dielectric constant: 78.4, screening length: 5.74355 Bohr) occupying 0.757080 of unit cell:	Completed after 0 iterations at t[s]:  12125.47
	Linear fluid (dielectric constant: 78.4, screening length: 5.74355 Bohr) occupying 0.757080 of unit cell:	Completed after 0 iterations at t[s]:  12148.78
	FillingsUpdate:  mu: -0.245254333  nElectrons: 639.000000  magneticMoment: [ Abs: 0.00000  Tot: +0.00000 ]
	SubspaceRotationAdjust: set factor to 0.711
ElecMinimize: Iter:   7  F: -2475.642101341566558  |grad|_K:  1.022e-08  alpha:  4.465e-01  linmin: -9.181e-07  t[s]:  12181.37
	Linear fluid (dielectric constant: 78.4, screening length: 5.74355 Bohr) occupying 0.757080 of unit cell:	Completed after 0 iterations at t[s]:  12202.88
	Linear fluid (dielectric constant: 78.4, screening length: 5.74355 Bohr) occupying 0.757080 of unit cell:	Completed after 0 iterations at t[s]:  12226.37
	FillingsUpdate:  mu: -0.245253595  nElectrons: 639.000000  magneticMoment: [ Abs: 0.00000  Tot: +0.00000 ]
	SubspaceRotationAdjust: set factor to 0.847
ElecMinimize: Iter:   8  F: -2475.642101361031564  |grad|_K:  7.487e-09  alpha:  8.661e-01  linmin:  4.443e-07  t[s]:  12259.56
	Linear fluid (dielectric constant: 78.4, screening length: 5.74355 Bohr) occupying 0.757080 of unit cell:	Completed after 2 iterations at t[s]:  12281.43
	Linear fluid (dielectric constant: 78.4, screening length: 5.74355 Bohr) occupying 0.757080 of unit cell:	Completed after 0 iterations at t[s]:  12305.62
ElecMinimize: 	Step increased F by 4.644789e-08, reducing alpha to 5.506789e-03.
	Linear fluid (dielectric constant: 78.4, screening length: 5.74355 Bohr) occupying 0.757080 of unit cell:	Completed after 0 iterations at t[s]:  12355.15
ElecMinimize: 	Step increased F by 4.158483e-08, reducing alpha to 5.506789e-04.
	Linear fluid (dielectric constant: 78.4, screening length: 5.74355 Bohr) occupying 0.757080 of unit cell:	Completed after 0 iterations at t[s]:  12405.12
ElecMinimize: 	Step increased F by 4.112599e-08, reducing alpha to 5.506789e-05.
ElecMinimize: 	Step failed to reduce F after 3 attempts. Quitting step.
ElecMinimize: 	Undoing step.
	Linear fluid (dielectric constant: 78.4, screening length: 5.74355 Bohr) occupying 0.757080 of unit cell:	Completed after 0 iterations at t[s]:  12454.97
ElecMinimize: 	Step failed: resetting search direction.
	FillingsUpdate:  mu: -0.245291116  nElectrons: 639.000000  magneticMoment: [ Abs: 0.00000  Tot: +0.00000 ]
	SubspaceRotationAdjust: set factor to 0.567
ElecMinimize: Iter:   9  F: -2475.642101319921494  |grad|_K:  4.819e-08  alpha:  5.507e-05
	Linear fluid (dielectric constant: 78.4, screening length: 5.74355 Bohr) occupying 0.757080 of unit cell:	Completed after 3 iterations at t[s]:  12509.37
	Linear fluid (dielectric constant: 78.4, screening length: 5.74355 Bohr) occupying 0.757080 of unit cell:	Completed after 3 iterations at t[s]:  12534.27
	FillingsUpdate:  mu: -0.245223642  nElectrons: 639.000000  magneticMoment: [ Abs: 0.00000  Tot: +0.00000 ]
	SubspaceRotationAdjust: set factor to 0.232
ElecMinimize: Iter:  10  F: -2475.642101337847180  |grad|_K:  1.820e-08  alpha:  1.636e-01  linmin:  9.859e-04  t[s]:  12567.70
	Linear fluid (dielectric constant: 78.4, screening length: 5.74355 Bohr) occupying 0.757080 of unit cell:	Completed after 0 iterations at t[s]:  12588.92
ElecMinimize: 	Predicted alpha/alphaT>3.000000, increasing alphaT to 4.907441e-01.
	Linear fluid (dielectric constant: 78.4, screening length: 5.74355 Bohr) occupying 0.757080 of unit cell:	Completed after 0 iterations at t[s]:  12612.11
	Linear fluid (dielectric constant: 78.4, screening length: 5.74355 Bohr) occupying 0.757079 of unit cell:	Completed after 2 iterations at t[s]:  12635.78
ElecMinimize: 	Step increased F by 1.716348e-07, reducing alpha to 1.303873e-01.
	Linear fluid (dielectric constant: 78.4, screening length: 5.74355 Bohr) occupying 0.757080 of unit cell:	Completed after 2 iterations at t[s]:  12686.60
	FillingsUpdate:  mu: -0.245246811  nElectrons: 639.000000  magneticMoment: [ Abs: 0.00000  Tot: +0.00000 ]
	SubspaceRotationAdjust: set factor to 0.462
ElecMinimize: Iter:  11  F: -2475.642101347026710  |grad|_K:  5.353e-09  alpha:  1.304e-01  linmin: -7.989e-05  t[s]:  12719.66
	Linear fluid (dielectric constant: 78.4, screening length: 5.74355 Bohr) occupying 0.757080 of unit cell:	Completed after 0 iterations at t[s]:  12741.20
ElecMinimize: 	Predicted alpha/alphaT>3.000000, increasing alphaT to 3.911618e-01.
	Linear fluid (dielectric constant: 78.4, screening length: 5.74355 Bohr) occupying 0.757080 of unit cell:	Completed after 0 iterations at t[s]:  12764.15
	Linear fluid (dielectric constant: 78.4, screening length: 5.74355 Bohr) occupying 0.757080 of unit cell:	Completed after 0 iterations at t[s]:  12787.48
	FillingsUpdate:  mu: -0.245246608  nElectrons: 639.000000  magneticMoment: [ Abs: 0.00000  Tot: +0.00000 ]
	SubspaceRotationAdjust: set factor to 0.434
ElecMinimize: Iter:  12  F: -2475.642101351840665  |grad|_K:  4.657e-09  alpha:  7.203e-01  linmin: -4.124e-06  t[s]:  12820.39
ElecMinimize: Converged (|Delta F|<1.000000e-08 for 2 iters).
Setting wave functions to eigenvectors of Hamiltonian

# Ionic positions in lattice coordinates:
ion Ti   0.166666666516667   0.083333334683333   0.567986152711550 1
ion Ti   0.083333333183333   0.166666668016667   0.432005117109879 1
ion Ti   0.416666666516667   0.083333334683333   0.567986152711550 1
ion Ti   0.333333333183333   0.166666668016667   0.432005117109879 1
ion Ti   0.666666666516667   0.083333334683333   0.567986152711550 1
ion Ti   0.583333333183333   0.166666668016667   0.432005117109879 1
ion Ti   0.916666666516667   0.083333334683333   0.567986152711550 1
ion Ti   0.833333333183333   0.166666668016667   0.432005117109879 1
ion Ti   0.166666666516667   0.333333334683333   0.567986152711550 1
ion Ti   0.083333333183333   0.416666668016667   0.432005117109879 1
ion Ti   0.416666666516667   0.333333334683333   0.567986152711550 1
ion Ti   0.333333333183333   0.416666668016667   0.432005117109879 1
ion Ti   0.666666666516667   0.333333334683333   0.567986152711550 1
ion Ti   0.583333333183333   0.416666668016667   0.432005117109879 1
ion Ti   0.916666666516667   0.333333334683333   0.567986152711550 1
ion Ti   0.833333333183333   0.416666668016667   0.432005117109879 1
ion Ti   0.166666666516667   0.583333334683333   0.567986152711550 1
ion Ti   0.083333333183333   0.666666668016667   0.432005117109879 1
ion Ti   0.416666666516667   0.583333334683333   0.567986152711550 1
ion Ti   0.333333333183333   0.666666668016667   0.432005117109879 1
ion Ti   0.666666666516667   0.583333334683333   0.567986152711550 1
ion Ti   0.583333333183333   0.666666668016667   0.432005117109879 1
ion Ti   0.916666666516667   0.583333334683333   0.567986152711550 1
ion Ti   0.833333333183333   0.666666668016667   0.432005117109879 1
ion Ti   0.166666666516667   0.833333334683333   0.567986152711550 1
ion Ti   0.083333333183333   0.916666668016667   0.432005117109879 1
ion Ti   0.416666666516667   0.833333334683333   0.567986152711550 1
ion Ti   0.333333333183333   0.916666668016667   0.432005117109879 1
ion Ti   0.666666666516667   0.833333334683333   0.567986152711550 1
ion Ti   0.583333333183333   0.916666668016667   0.432005117109879 1
ion Ti   0.916666666516667   0.833333334683333   0.567986152711550 1
ion Ti   0.833333333183333   0.916666668016667   0.432005117109879 1
ion C  -0.000000000150000   0.000000001350000   0.499986788170532 1
ion C   0.249999999850000   0.000000001350000   0.499986788170532 1
ion C   0.499999999850000   0.000000001350000   0.499986788170532 1
ion C   0.749999999850000   0.000000001350000   0.499986788170532 1
ion C  -0.000000000150000   0.250000001350000   0.499986788170532 1
ion C   0.249999999850000   0.250000001350000   0.499986788170532 1
ion C   0.499999999850000   0.250000001350000   0.499986788170532 1
ion C   0.749999999850000   0.250000001350000   0.499986788170532 1
ion C  -0.000000000150000   0.500000001350000   0.499986788170532 1
ion C   0.249999999850000   0.500000001350000   0.499986788170532 1
ion C   0.499999999850000   0.500000001350000   0.499986788170532 1
ion C   0.749999999850000   0.500000001350000   0.499986788170532 1
ion C  -0.000000000150000   0.750000001350000   0.499986788170532 1
ion C   0.249999999850000   0.750000001350000   0.499986788170532 1
ion C   0.499999999850000   0.750000001350000   0.499986788170532 1
ion C   0.749999999850000   0.750000001350000   0.499986788170532 1
ion O   0.083333333183333   0.166666668016667   0.614492365339446 1
ion O   0.166666666516667   0.083333334683333   0.385487275818194 1
ion O   0.333333333183333   0.166666668016667   0.614492365339446 1
ion O   0.416666666516667   0.083333334683333   0.385487275818194 1
ion O   0.583333333183333   0.166666668016667   0.614492365339446 1
ion O   0.666666666516667   0.083333334683333   0.385487275818194 1
ion O   0.833333333183333   0.166666668016667   0.614492365339446 1
ion O   0.916666666516667   0.083333334683333   0.385487275818194 1
ion O   0.083333333183333   0.416666668016667   0.614492365339446 1
ion O   0.166666666516667   0.333333334683333   0.385487275818194 1
ion O   0.333333333183333   0.416666668016667   0.614492365339446 1
ion O   0.416666666516667   0.333333334683333   0.385487275818194 1
ion O   0.583333333183333   0.416666668016667   0.614492365339446 1
ion O   0.666666666516667   0.333333334683333   0.385487275818194 1
ion O   0.833333333183333   0.416666668016667   0.614492365339446 1
ion O   0.916666666516667   0.333333334683333   0.385487275818194 1
ion O   0.083333333183333   0.666666668016667   0.614492365339446 1
ion O   0.166666666516667   0.583333334683333   0.385487275818194 1
ion O   0.333333333183333   0.666666668016667   0.614492365339446 1
ion O   0.416666666516667   0.583333334683333   0.385487275818194 1
ion O   0.583333333183333   0.666666668016667   0.614492365339446 1
ion O   0.666666666516667   0.583333334683333   0.385487275818194 1
ion O   0.833333333183333   0.666666668016667   0.614492365339446 1
ion O   0.916666666516667   0.583333334683333   0.385487275818194 1
ion O   0.083333333183333   0.916666668016667   0.614492365339446 1
ion O   0.166666666516667   0.833333334683333   0.385487275818194 1
ion O   0.333333333183333   0.916666668016667   0.614492365339446 1
ion O   0.416666666516667   0.833333334683333   0.385487275818194 1
ion O   0.583333333183333   0.916666668016667   0.614492365339446 1
ion O   0.666666666516667   0.833333334683333   0.385487275818194 1
ion O   0.833333333183333   0.916666668016667   0.614492365339446 1
ion O   0.916666666516667   0.833333334683333   0.385487275818194 1


# Forces in Lattice coordinates:
force Ti   0.000000000000000   0.000000000000000  -0.011417730222482 1
force Ti   0.000000000000000   0.000000000000000   0.007526638189485 1
force Ti   0.000000000000000   0.000000000000000  -0.011417730222254 1
force Ti  -0.000000000000000   0.000000000000000   0.007526638189258 1
force Ti  -0.000000000000000  -0.000000000000000  -0.011417730222482 1
force Ti  -0.000000000000000   0.000000000000000   0.007526638189258 1
force Ti   0.000000000000000  -0.000000000000000  -0.011417730222482 1
force Ti  -0.000000000000000   0.000000000000000   0.007526638189258 1
force Ti  -0.000000000000000   0.000000000000000  -0.011417730222481 1
force Ti   0.000000000000000   0.000000000000000   0.007526638189258 1
force Ti   0.000000000000000  -0.000000000000000  -0.011417730222482 1
force Ti   0.000000000000000   0.000000000000000   0.007526638189485 1
force Ti  -0.000000000000000   0.000000000000000  -0.011417730222482 1
force Ti  -0.000000000000000   0.000000000000000   0.007526638189485 1
force Ti  -0.000000000000000   0.000000000000000  -0.011417730222482 1
force Ti  -0.000000000000000   0.000000000000000   0.007526638189485 1
force Ti   0.000000000000000   0.000000000000000  -0.011417730222482 1
force Ti   0.000000000000000  -0.000000000000000   0.007526638189258 1
force Ti   0.000000000000000  -0.000000000000000  -0.011417730222254 1
force Ti   0.000000000000000   0.000000000000000   0.007526638189258 1
force Ti  -0.000000000000000   0.000000000000000  -0.011417730222482 1
force Ti   0.000000000000000   0.000000000000000   0.007526638189258 1
force Ti  -0.000000000000000   0.000000000000000  -0.011417730222482 1
force Ti  -0.000000000000000   0.000000000000000   0.007526638189258 1
force Ti  -0.000000000000000  -0.000000000000000  -0.011417730222709 1
force Ti   0.000000000000000   0.000000000000000   0.007526638189713 1
force Ti   0.000000000000000  -0.000000000000000  -0.011417730222482 1
force Ti  -0.000000000000000   0.000000000000000   0.007526638189258 1
force Ti   0.000000000000000  -0.000000000000000  -0.011417730222482 1
force Ti   0.000000000000000   0.000000000000000   0.007526638189713 1
force Ti   0.000000000000000  -0.000000000000000  -0.011417730222481 1
force Ti  -0.000000000000000   0.000000000000000   0.007526638189485 1
force C   0.000000000000000   0.000000000000000   0.002474154277651 1
force C  -0.000000000000000   0.000000000000000   0.002474154277651 1
force C   0.000000000000000   0.000000000000000   0.002474154277651 1
force C   0.000000000000000   0.000000000000000   0.002474154277651 1
force C  -0.000000000000000   0.000000000000000   0.002474154277651 1
force C   0.000000000000000  -0.000000000000000   0.002474154277651 1
force C   0.000000000000000  -0.000000000000000   0.002474154277651 1
force C  -0.000000000000000  -0.000000000000000   0.002474154277651 1
force C   0.000000000000000  -0.000000000000000   0.002474154277651 1
force C   0.000000000000000   0.000000000000000   0.002474154277651 1
force C   0.000000000000000  -0.000000000000000   0.002474154277651 1
force C   0.000000000000000  -0.000000000000000   0.002474154277651 1
force C   0.000000000000000   0.000000000000000   0.002474154277651 1
force C  -0.000000000000000   0.000000000000000   0.002474154277651 1
force C  -0.000000000000000   0.000000000000000   0.002474154277651 1
force C   0.000000000000000  -0.000000000000000   0.002474154277651 1
force O  -0.000000000000000  -0.000000000000000   0.001278341262447 1
force O   0.000000000000000   0.000000000000000  -0.000409897580395 1
force O  -0.000000000000000  -0.000000000000000   0.001278341262449 1
force O  -0.000000000000000   0.000000000000000  -0.000409897580624 1
force O   0.000000000000000  -0.000000000000000   0.001278341262447 1
force O  -0.000000000000000   0.000000000000000  -0.000409897580395 1
force O  -0.000000000000000  -0.000000000000000   0.001278341262447 1
force O   0.000000000000000  -0.000000000000000  -0.000409897580624 1
force O   0.000000000000000  -0.000000000000000   0.001278341262447 1
force O   0.000000000000000   0.000000000000000  -0.000409897580621 1
force O   0.000000000000000   0.000000000000000   0.001278341262447 1
force O   0.000000000000000   0.000000000000000  -0.000409897580621 1
force O  -0.000000000000000  -0.000000000000000   0.001278341262449 1
force O  -0.000000000000000  -0.000000000000000  -0.000409897580623 1
force O   0.000000000000000  -0.000000000000000   0.001278341262447 1
force O  -0.000000000000000   0.000000000000000  -0.000409897580624 1
force O  -0.000000000000000  -0.000000000000000   0.001278341262680 1
force O  -0.000000000000000  -0.000000000000000  -0.000409897580395 1
force O   0.000000000000000  -0.000000000000000   0.001278341262449 1
force O   0.000000000000000  -0.000000000000000  -0.000409897580623 1
force O  -0.000000000000000   0.000000000000000   0.001278341262676 1
force O   0.000000000000000   0.000000000000000  -0.000409897580623 1
force O  -0.000000000000000  -0.000000000000000   0.001278341262676 1
force O   0.000000000000000  -0.000000000000000  -0.000409897580623 1
force O  -0.000000000000000  -0.000000000000000   0.001278341262674 1
force O  -0.000000000000000  -0.000000000000000  -0.000409897580623 1
force O   0.000000000000000  -0.000000000000000   0.001278341262445 1
force O  -0.000000000000000   0.000000000000000  -0.000409897580624 1
force O   0.000000000000000  -0.000000000000000   0.001278341262445 1
force O  -0.000000000000000   0.000000000000000  -0.000409897580395 1
force O  -0.000000000000000  -0.000000000000000   0.001278341262445 1
force O  -0.000000000000000   0.000000000000000  -0.000409897580623 1

# Energy components:
   A_diel =        0.0527541007464760
   Eewald =    24136.8345728690946999
       EH =    26117.2741462647718436
     Eloc =   -53287.1643201883853180
      Enl =      257.2925271895883270
      Exc =     -434.4522198002479172
 Exc_core =       44.5239137699034160
       KE =      689.9871586245737944
  MuShift =        0.0194181848201733
-------------------------------------
     Etot =    -2475.6320489851341335
       TS =        0.0100523667065314
-------------------------------------
        F =    -2475.6421013518406653

IonicMinimize: Iter:   3  F: -2475.642101351840665  |grad|_K:  9.798e-05  alpha:  3.000e+00  linmin: -1.379e-01  t[s]:  12840.98
IonicMinimize: Converged (|grad|_K<1.000000e-04).

#--- Lowdin population analysis ---
# oxidation-state Ti +1.401 +1.401 +1.401 +1.401 +1.401 +1.401 +1.401 +1.401 +1.401 +1.401 +1.401 +1.401 +1.401 +1.401 +1.401 +1.401 +1.401 +1.401 +1.401 +1.401 +1.401 +1.401 +1.401 +1.401 +1.401 +1.401 +1.401 +1.401 +1.401 +1.401 +1.401 +1.401
# magnetic-moments Ti -0.000 +0.000 -0.000 +0.000 -0.000 +0.000 -0.000 +0.000 -0.000 +0.000 -0.000 +0.000 -0.000 +0.000 -0.000 +0.000 -0.000 +0.000 -0.000 +0.000 -0.000 +0.000 -0.000 +0.000 -0.000 +0.000 -0.000 +0.000 -0.000 +0.000 -0.000 +0.000
# oxidation-state C -1.171 -1.171 -1.171 -1.171 -1.171 -1.171 -1.171 -1.171 -1.171 -1.171 -1.171 -1.171 -1.171 -1.171 -1.171 -1.171
# magnetic-moments C +0.000 +0.000 +0.000 +0.000 +0.000 +0.000 +0.000 +0.000 +0.000 +0.000 +0.000 +0.000 +0.000 +0.000 +0.000 +0.000
# oxidation-state O -0.699 -0.699 -0.699 -0.699 -0.699 -0.699 -0.699 -0.699 -0.699 -0.699 -0.699 -0.699 -0.699 -0.699 -0.699 -0.699 -0.699 -0.699 -0.699 -0.699 -0.699 -0.699 -0.699 -0.699 -0.699 -0.699 -0.699 -0.699 -0.699 -0.699 -0.699 -0.699
# magnetic-moments O +0.000 -0.000 +0.000 -0.000 +0.000 -0.000 +0.000 -0.000 +0.000 -0.000 +0.000 -0.000 +0.000 -0.000 +0.000 -0.000 +0.000 -0.000 +0.000 -0.000 +0.000 -0.000 +0.000 -0.000 +0.000 -0.000 +0.000 -0.000 +0.000 -0.000 +0.000 -0.000


Dumping 'NbTe2.fillings' ... done
Dumping 'NbTe2.wfns' ... done
Dumping 'NbTe2.fluidState' ... done
Dumping 'NbTe2.ionpos' ... done
Dumping 'NbTe2.eigenvals' ... done
End date and time: Sun Mar 14 21:45:31 2021  (Duration: 0-3:34:09.98)
Done!
