
*************** JDFTx 1.5.0  ***************

Start date and time: Wed Jul  8 23:03:51 2020
Executable jdftx_gpu with command-line: -i Charged.in -o Charged.out
Running on hosts (process indices):  amax (0)
Divided in process groups (process indices):  0 (0)
gpuInit: Found compatible cuda device 0 'Tesla K80'
gpuInit: Selected device 0
Resource initialization completed at t[s]:     16.83
Run totals: 1 processes, 24 threads, 1 GPUs


Input parsed successfully to the following command list (including defaults):

basis kpoint-dependent
cache-projectors no
coords-type Lattice
core-overlap-check none
coulomb-interaction Slab 001
coulomb-truncation-embed 0 0 0.5
davidson-band-ratio 1.1
dump End State
dump-name NbTe2.$VAR
elec-cutoff 20 100
elec-eigen-algo Davidson
elec-ex-corr gga-PBE
elec-smearing Gauss 0.0073499
electronic-minimize  \
	dirUpdateScheme      FletcherReeves \
	linminMethod         DirUpdateRecommended \
	nIterations          100 \
	history              15 \
	knormThreshold       0 \
	energyDiffThreshold  1e-08 \
	nEnergyDiff          2 \
	alphaTstart          1 \
	alphaTmin            1e-10 \
	updateTestStepSize   yes \
	alphaTreduceFactor   0.1 \
	alphaTincreaseFactor 3 \
	nAlphaAdjustMax      3 \
	wolfeEnergy          0.0001 \
	wolfeGradient        0.9 \
	fdTest               no
electronic-scf  \
	nIterations	500 \
	energyDiffThreshold	1e-08 \
	residualThreshold	1e-07 \
	mixFraction	0.5 \
	qMetric	0.8 \
	history	10 \
	nEigSteps	2 \
	eigDiffThreshold	1e-08 \
	mixedVariable	Density \
	qKerker	0.8 \
	qKappa	-1 \
	verbose	no \
	mixFractionMag	1.5
exchange-regularization WignerSeitzTruncated
fluid LinearPCM 298.000000 1.013250
fluid-anion F- 1 MeanFieldLJ \
	epsBulk 1 \
	pMol 0 \
	epsInf 1 \
	Pvap 0 \
	sigmaBulk 0 \
	Rvdw 2.24877 \
	Res 0 \
	tauNuc 343133
fluid-cation Na+ 1 MeanFieldLJ \
	epsBulk 1 \
	pMol 0 \
	epsInf 1 \
	Pvap 0 \
	sigmaBulk 0 \
	Rvdw 2.19208 \
	Res 0 \
	tauNuc 343133
fluid-ex-corr lda-TF lda-PZ
fluid-gummel-loop 10 1.000000e-05
fluid-minimize  \
	dirUpdateScheme      PolakRibiere \
	linminMethod         DirUpdateRecommended \
	nIterations          400 \
	history              15 \
	knormThreshold       1e-11 \
	energyDiffThreshold  0 \
	nEnergyDiff          2 \
	alphaTstart          1 \
	alphaTmin            1e-10 \
	updateTestStepSize   yes \
	alphaTreduceFactor   0.1 \
	alphaTincreaseFactor 3 \
	nAlphaAdjustMax      6 \
	wolfeEnergy          0.0001 \
	wolfeGradient        0.9 \
	fdTest               no
fluid-solvent H2O 55.338 ScalarEOS \
	epsBulk 78.4 \
	pMol 0.92466 \
	epsInf 1.77 \
	Pvap 1.06736e-10 \
	sigmaBulk 4.62e-05 \
	Rvdw 2.61727 \
	Res 1.42 \
	tauNuc 343133 \
	poleEl 15 7 1
forces-output-coords Positions
initial-state NbTe2.$VAR
ion Ge  -0.000000000000000  -0.000000000000000   0.500000000000000 0
ion Ge   0.166669986000002   0.333329999999997   0.679352563727309 0
ion Ge   0.333330011999998   0.166669996000003   0.589460263466365 0
ion Ge   0.333330011999998   0.166669996000003   0.320647460272693 0
ion Ge   0.166669986000002   0.333329999999997   0.410549788533629 0
ion Ge   0.500000000000000  -0.000000000000000   0.500000000000000 0
ion Ge   0.666669986000002   0.333329999999997   0.679352563727309 0
ion Ge   0.833329984000002   0.166669996000003   0.589460263466365 0
ion Ge   0.833329984000002   0.166669996000003   0.320647460272693 0
ion Ge   0.666669986000002   0.333329999999997   0.410549788533629 0
ion Ge   0.999999998000000   0.499999996000000   0.500000000000000 0
ion Ge   0.166670013000001   0.833329996000003   0.679352563727309 0
ion Ge   0.333330009999997   0.666669992999999   0.589460263466365 0
ion Ge   0.333330009999997   0.666669992999999   0.320647460272693 0
ion Ge   0.166670013000001   0.833329996000003   0.410549788533629 0
ion Ge   0.499999998000000   0.499999996000000   0.500000000000000 0
ion Ge   0.666670013000001   0.833329996000003   0.679352563727309 0
ion Ge   0.833330009999997   0.666669992999999   0.589460263466365 0
ion Ge   0.833330009999997   0.666669992999999   0.320647460272693 0
ion Ge   0.666670013000001   0.833329996000003   0.410549788533629 0
ion Te   0.333330011999998   0.166669996000003   0.722912546491148 0
ion Te   0.333330011999998   0.166669996000003   0.455502088423613 0
ion Te   0.166669986000002   0.333329999999997   0.277087404508851 0
ion Te   0.166669986000002   0.333329999999997   0.544497863576383 0
ion Te  -0.000000000000000  -0.000000000000000   0.366283319527982 0
ion Te  -0.000000000000000  -0.000000000000000   0.633716680472018 0
ion Te   0.333330011999998   0.166669996000003   0.190994300142854 0
ion Te   0.166669986000002   0.333329999999997   0.809005699857146 0
ion Te   0.833329984000002   0.166669996000003   0.722912546491148 0
ion Te   0.833329984000002   0.166669996000003   0.455502088423613 0
ion Te   0.666669986000002   0.333329999999997   0.277087404508851 0
ion Te   0.666669986000002   0.333329999999997   0.544497863576383 0
ion Te   0.500000000000000  -0.000000000000000   0.366283319527982 0
ion Te   0.500000000000000  -0.000000000000000   0.633716680472018 0
ion Te   0.833329984000002   0.166669996000003   0.190994300142854 0
ion Te   0.666669986000002   0.333329999999997   0.809005699857146 0
ion Te   0.333330009999997   0.666669992999999   0.722912546491148 0
ion Te   0.333330009999997   0.666669992999999   0.455502088423613 0
ion Te   0.166670013000001   0.833329996000003   0.277087404508851 0
ion Te   0.166670013000001   0.833329996000003   0.544497863576383 0
ion Te   0.999999998000000   0.499999996000000   0.366283319527982 0
ion Te   0.999999998000000   0.499999996000000   0.633716680472018 0
ion Te   0.333330009999997   0.666669992999999   0.190994300142854 0
ion Te   0.166670013000001   0.833329996000003   0.809005699857146 0
ion Te   0.833330009999997   0.666669992999999   0.722912546491148 0
ion Te   0.833330009999997   0.666669992999999   0.455502088423613 0
ion Te   0.666670013000001   0.833329996000003   0.277087404508851 0
ion Te   0.666670013000001   0.833329996000003   0.544497863576383 0
ion Te   0.499999998000000   0.499999996000000   0.366283319527982 0
ion Te   0.499999998000000   0.499999996000000   0.633716680472018 0
ion Te   0.833330009999997   0.666669992999999   0.190994300142854 0
ion Te   0.666670013000001   0.833329996000003   0.809005699857146 0
ion As   0.000000000000000  -0.000000000000000   0.229782760168296 0
ion As   0.000000000000000  -0.000000000000000   0.770217264831702 0
ion As   0.500000000000000  -0.000000000000000   0.229782760168296 0
ion As   0.500000000000000  -0.000000000000000   0.770217264831702 0
ion As   0.999999998000000   0.499999996000000   0.229782760168296 0
ion As   0.999999998000000   0.499999996000000   0.770217264831702 0
ion As   0.499999998000000   0.499999996000000   0.229782760168296 0
ion As   0.499999998000000   0.499999996000000   0.770217264831702 0
ion-species GBRV/$ID_pbe.uspp
ion-width Ecut
ionic-minimize  \
	dirUpdateScheme      L-BFGS \
	linminMethod         DirUpdateRecommended \
	nIterations          0 \
	history              15 \
	knormThreshold       0.0001 \
	energyDiffThreshold  1e-06 \
	nEnergyDiff          2 \
	alphaTstart          1 \
	alphaTmin            1e-10 \
	updateTestStepSize   yes \
	alphaTreduceFactor   0.1 \
	alphaTincreaseFactor 3 \
	nAlphaAdjustMax      3 \
	wolfeEnergy          0.0001 \
	wolfeGradient        0.9 \
	fdTest               no
kpoint   0.000000000000   0.000000000000   0.000000000000  1.00000000000000
kpoint-folding 5 5 1 
latt-move-scale 1 1 1
latt-scale 1 1 1 
lattice Triclinic 15.7231 15.7231 74.2237 90 90 120
lattice-minimize  \
	dirUpdateScheme      L-BFGS \
	linminMethod         DirUpdateRecommended \
	nIterations          0 \
	history              15 \
	knormThreshold       0 \
	energyDiffThreshold  1e-06 \
	nEnergyDiff          2 \
	alphaTstart          1 \
	alphaTmin            1e-10 \
	updateTestStepSize   yes \
	alphaTreduceFactor   0.1 \
	alphaTincreaseFactor 3 \
	nAlphaAdjustMax      3 \
	wolfeEnergy          0.0001 \
	wolfeGradient        0.9 \
	fdTest               no
lcao-params -1 1e-06 0.0073499
pcm-variant CANDLE
spintype no-spin
subspace-rotation-factor 1 yes
symmetries automatic
symmetry-threshold 0.0001
target-mu -0.171252 no




---------- Setting up symmetries ----------

Found 24 point-group symmetries of the bravais lattice
Found 48 space-group symmetries with basis
Applied RMS atom displacement 0.000146946 bohrs to make symmetries exact.

---------- Initializing the Grid ----------
R = 
[    15.7231   -7.86154          0  ]
[          0    13.6166          0  ]
[          0          0    74.2237  ]
unit cell volume = 15890.9
G =
[   0.399615   0.230718         -0  ]
[          0   0.461436          0  ]
[          0         -0   0.084652  ]
Minimum fftbox size, Smin = [  72  72  336  ]
Chosen fftbox size, S = [  72  72  336  ]

---------- Initializing tighter grid for wavefunction operations ----------
R = 
[    15.7231   -7.86154          0  ]
[          0    13.6166          0  ]
[          0          0    74.2237  ]
unit cell volume = 15890.9
G =
[   0.399615   0.230718         -0  ]
[          0   0.461436          0  ]
[          0         -0   0.084652  ]
Minimum fftbox size, Smin = [  64  64  300  ]
Chosen fftbox size, S = [  64  64  300  ]

---------- Exchange Correlation functional ----------
Initalized PBE GGA exchange.
Initalized PBE GGA correlation.

---------- Setting up pseudopotentials ----------
Width of ionic core gaussian charges (only for fluid interactions / plotting) set to 0.397384

Reading pseudopotential file '/home/guoxy/vasp/jdftx-1.5.0/build/pseudopotentials/GBRV/ge_pbe.uspp':
  Title: Ge.  Created by USPP 7.3.6 on 31-3-15
  Reference state energy: -106.660278.  14 valence electrons in orbitals:
    |320>  occupation: 10  eigenvalue: -1.077168
    |400>  occupation: 2  eigenvalue: -0.431112
    |410>  occupation: 2  eigenvalue: -0.143157
  lMax: 2  lLocal: 3  QijEcut: 6
  6 projectors sampled on a log grid with 621 points:
    l: 0  eig: -0.431110  rCut: 1.9
    l: 0  eig: 1.000000  rCut: 1.9
    l: 1  eig: -0.143157  rCut: 1.9
    l: 1  eig: 1.000000  rCut: 1.9
    l: 2  eig: -1.077168  rCut: 1.7
    l: 2  eig: 0.000000  rCut: 1.7
  Partial core density with radius 0.8
  Transforming core density to a uniform radial grid of dG=0.02 with 1610 points.
  Transforming local potential to a uniform radial grid of dG=0.02 with 1610 points.
  Transforming nonlocal projectors to a uniform radial grid of dG=0.02 with 432 points.
  Transforming density augmentations to a uniform radial grid of dG=0.02 with 1610 points.
  Transforming atomic orbitals to a uniform radial grid of dG=0.02 with 432 points.
  Core radius for overlap checks: 2.00 bohrs.

Reading pseudopotential file '/home/guoxy/vasp/jdftx-1.5.0/build/pseudopotentials/GBRV/te_pbe.uspp':
  Title: Te.  Created by USPP 7.3.6 on 14-9-2013
  Reference state energy: -13.134220.  6 valence electrons in orbitals:
    |500>  occupation: 2  eigenvalue: -0.555231
    |510>  occupation: 4  eigenvalue: -0.218781
  lMax: 2  lLocal: 2  QijEcut: 5
  5 projectors sampled on a log grid with 723 points:
    l: 0  eig: -0.555229  rCut: 2.1
    l: 0  eig: 1.000000  rCut: 2.1
    l: 1  eig: -0.218780  rCut: 2.1
    l: 1  eig: 1.000000  rCut: 2.1
    l: 2  eig: 1.000000  rCut: 2.6
  Partial core density with radius 1.8
  Transforming core density to a uniform radial grid of dG=0.02 with 1610 points.
  Transforming local potential to a uniform radial grid of dG=0.02 with 1610 points.
  Transforming nonlocal projectors to a uniform radial grid of dG=0.02 with 432 points.
  Transforming density augmentations to a uniform radial grid of dG=0.02 with 1610 points.
  Transforming atomic orbitals to a uniform radial grid of dG=0.02 with 432 points.
  Core radius for overlap checks: 2.60 bohrs.

Reading pseudopotential file '/home/guoxy/vasp/jdftx-1.5.0/build/pseudopotentials/GBRV/as_pbe.uspp':
  Title: As.  Created by USPP 7.3.6 on 14-9-2013
  Reference state energy: -19.965231.  5 valence electrons in orbitals:
    |400>  occupation: 2  eigenvalue: -0.532639
    |410>  occupation: 3  eigenvalue: -0.190915
  lMax: 2  lLocal: 2  QijEcut: 5
  6 projectors sampled on a log grid with 623 points:
    l: 0  eig: -0.532635  rCut: 1.5
    l: 0  eig: 0.500000  rCut: 1.5
    l: 1  eig: -0.190916  rCut: 1.5
    l: 1  eig: 0.500000  rCut: 1.5
    l: 2  eig: 0.000000  rCut: 1.9
    l: 2  eig: 1.000000  rCut: 1.9
  Partial core density with radius 1.2
  Transforming core density to a uniform radial grid of dG=0.02 with 1610 points.
  Transforming local potential to a uniform radial grid of dG=0.02 with 1610 points.
  Transforming nonlocal projectors to a uniform radial grid of dG=0.02 with 432 points.
  Transforming density augmentations to a uniform radial grid of dG=0.02 with 1610 points.
  Transforming atomic orbitals to a uniform radial grid of dG=0.02 with 432 points.
  Core radius for overlap checks: 1.90 bohrs.

Initialized 3 species with 60 total atoms.

Folded 1 k-points by 5x5x1 to 25 k-points.

---------- Setting up k-points, bands, fillings ----------
Reduced to 5 k-points under symmetry. 
Computing the number of bands and number of electrons
Reading initial fillings from file NbTe2.fillings.
nElectrons: 512.000000   nBands: 340   nStates: 5

----- Setting up reduced wavefunction bases (one per k-point) -----
average nbasis = 67873.400 , ideal nbasis = 67887.206

---------- Setting up coulomb interaction ----------
Fluid mode embedding: using embedded box, but periodic Coulomb kernel.
(Fluid response is responsible for (approximate) separation between periodic images.)
Setting up double-sized grid for truncated Coulomb potentials:
R = 
[    15.7231   -7.86154          0  ]
[          0    13.6166          0  ]
[          0          0    148.447  ]
unit cell volume = 31781.8
G =
[   0.399615   0.230718         -0  ]
[          0   0.461436          0  ]
[          0         -0   0.042326  ]
Chosen fftbox size, S = [  72  72  672  ]
Integer grid location selected as the embedding center:
   Grid: [  0  0  168  ]
   Lattice: [  0  0  0.5  ]
   Cartesian: [  0  0  37.1119  ]
Constructing Wigner-Seitz cell: 8 faces (6 quadrilaterals, 2 hexagons)
Range-separation parameter for embedded mesh potentials due to point charges: 0.592941 bohrs.

Initializing van der Waals corrections
	NOTE: vdW corrections apply only for interactions with fluid.
	Ge:  C6:  296.60 Eh-a0^6  R0: 3.264 a0
	Te:  C6:  550.54 Eh-a0^6  R0: 3.575 a0
	As:  C6:  283.94 Eh-a0^6  R0: 3.326 a0

---------- Setting up ewald sum ----------
Optimum gaussian width for ewald sums = 6.386719 bohr.
Real space sum over 845 unit cells with max indices [  6  6  2  ]
Reciprocal space sum over 9075 terms with max indices [  5  5  37  ]

---------- Allocating electronic variables ----------
Initializing wave functions:  reading from 'NbTe2.wfns'
----- createFluidSolver() ----- (Fluid-side solver setup)
   Initializing fluid molecule 'H2O'
     Initializing site 'O'
       Electron density: proportional to exp(-r/0.36935)*erfc((r-0.51523)/0.36823) with norm 6.826
       Charge density: gaussian nuclear width 0.478731 with net site charge 0.826
       Polarizability: cuspless exponential with width 0.32 and norm 3.73
       Hard sphere radius: 2.57003 bohrs
       Positions in reference frame:
         [ +0.000000 +0.000000 +0.000000 ]
     Initializing site 'H'
       Electron density: proportional to exp(-r/0.34641)*erfc((r-0)/0.390882) with norm 0.587
       Charge density: gaussian nuclear width 0.377945 with net site charge -0.413
       Polarizability: cuspless exponential with width 0.39 and norm 3.3
       Positions in reference frame:
         [ +0.000000 -1.441945 +1.122523 ]
         [ +0.000000 +1.441945 +1.122523 ]
     Net charge: 0   dipole magnitude: 0.927204
     Initializing spherical shell mfKernel with radius 2.61727 Bohr
     deltaS corrections:
       site 'O': -7.54299
       site 'H': -6.83917
   Initializing fluid molecule 'Na+'
     Initializing site 'Na'
       Electron density: proportional to exp(-r/0.19682)*erfc((r-0.71491)/0.41314) with norm 8.1383
       Charge density: gaussian nuclear width 0.365347 with net site charge -1
       Hard sphere radius: 1.86327 bohrs
       Positions in reference frame:
         [ +0.000000 +0.000000 +0.000000 ]
     Net charge: -1   dipole magnitude: 0
     Initializing gaussian mfKernel with width: 1.55004 Bohr
     deltaS corrections:
       site 'Na': -22.3555
   Initializing fluid molecule 'F-'
     Initializing site 'F'
       Electron density: proportional to exp(-r/0.38886)*erfc((r-0)/0.438782) with norm 8
       Charge density: gaussian nuclear width 0.374796 with net site charge 1
       Hard sphere radius: 2.39995 bohrs
       Positions in reference frame:
         [ +0.000000 +0.000000 +0.000000 ]
     Net charge: 1   dipole magnitude: 0
     Initializing gaussian mfKernel with width: 1.59012 Bohr
     deltaS corrections:
       site 'F': -9.04335

Correction to mu due to finite nuclear width = -0.0159842
   Cavity determined by nc: 0.00142 and sigma: 0.707107
   Nonlocal vdW cavity from gaussian model electron density with norm = 8 and sigma = 0.993594 bohr
   Charge asymmetry in cavity with sensitivity pCavity = 36.5 e-bohr/Eh
   Electrostatic cavity expanded by eta = 1.46 bohrs
   Weighted density cavitation model constrained by Nbulk: 0.0049383 bohr^-3, Pvap: 3.14029 kPa, Rvdw: 2.61727 bohr and sigmaBulk: 4.62e-05 Eh/bohr^2 at T: 298 K.
   Weighted density dispersion model using vdW pair potentials with single solvent site with sqrtC6eff: 0.77 SI.
Reading fluid state from 'NbTe2.fluidState'


---- Citations for features of the code used in this run ----

   Software package:
      R. Sundararaman, K. Letchworth-Weaver, K.A. Schwarz, D. Gunceler, Y. Ozhabes and T.A. Arias, 'JDFTx: software for joint density-functional theory', SoftwareX 6, 278 (2017)

   gga-PBE exchange-correlation functional:
      J.P. Perdew, K. Burke and M. Ernzerhof, Phys. Rev. Lett. 77, 3865 (1996)

   Pseudopotentials:
      KF Garrity, JW Bennett, KM Rabe and D Vanderbilt, Comput. Mater. Sci. 81, 446 (2014)

   Truncated Coulomb potentials:
      R. Sundararaman and T.A. Arias, Phys. Rev. B 87, 165122 (2013)

   Van der Waals correction pair-potentials:
      S. Grimme, J. Comput. Chem. 27, 1787 (2006)

   Charge-asymmetric nonlocally-determined local-electric (CANDLE) solvation model:
      R. Sundararaman and W.A. Goddard III, J. Chem. Phys. 142, 064107 (2015)

   Grand-canonical (fixed-potential) DFT:
      R. Sundararaman, W. A. Goddard III and T. A. Arias, J. Chem. Phys. 146, 114104 (2017)

This list may not be complete. Please suggest additional citations or
report any other bugs at https://github.com/shankar1729/jdftx/issues

Initialization completed successfully at t[s]:     32.89

Shifting auxilliary hamiltonian by -0.019828 to set nElectrons=512.000000
	Linear fluid (dielectric constant: 78.4, screening length: 5.74355 Bohr) occupying 0.614147 of unit cell:	Completed after 0 iterations at t[s]:     40.72

-------- Electronic minimization -----------
Will mix electronic density at each iteration.
	FillingsUpdate:  mu: -0.171251800  nElectrons: 512.000000
	Linear fluid (dielectric constant: 78.4, screening length: 5.74355 Bohr) occupying 0.614147 of unit cell:	Completed after 0 iterations at t[s]:     49.21
	FillingsUpdate:  mu: -0.171251800  nElectrons: 504.290340
	Linear fluid (dielectric constant: 78.4, screening length: 5.74355 Bohr) occupying 0.614705 of unit cell:	Completed after 27 iterations at t[s]:    111.59
SCF: Cycle:  0   G: -2107.489462008230475   dG: +9.088e+00   |Residual|: 9.444e-02   |deigs|: 3.271e-07  t[s]:    112.99
	Linear fluid (dielectric constant: 78.4, screening length: 5.74355 Bohr) occupying 0.613335 of unit cell:	Completed after 28 iterations at t[s]:    115.70
	FillingsUpdate:  mu: -0.171251800  nElectrons: 539.171425
	Linear fluid (dielectric constant: 78.4, screening length: 5.74355 Bohr) occupying 0.645886 of unit cell:	Completed after 26 iterations at t[s]:    192.89
SCF: Cycle:  1   G: -1997.135793030791319   dG: +1.104e+02   |Residual|: 4.029e-01   |deigs|: 6.484e-02  t[s]:    194.19
	Linear fluid (dielectric constant: 78.4, screening length: 5.74355 Bohr) occupying 0.613152 of unit cell:	Completed after 30 iterations at t[s]:    196.97
	FillingsUpdate:  mu: -0.171251800  nElectrons: 510.458366
	Linear fluid (dielectric constant: 78.4, screening length: 5.74355 Bohr) occupying 0.614977 of unit cell:	Completed after 24 iterations at t[s]:    273.72
SCF: Cycle:  2   G: -2116.399124278605541   dG: -1.193e+02   |Residual|: 3.773e-02   |deigs|: 5.330e-02  t[s]:    275.08
	Linear fluid (dielectric constant: 78.4, screening length: 5.74355 Bohr) occupying 0.612659 of unit cell:	Completed after 23 iterations at t[s]:    277.52
	FillingsUpdate:  mu: -0.171251800  nElectrons: 510.469964
	Linear fluid (dielectric constant: 78.4, screening length: 5.74355 Bohr) occupying 0.614970 of unit cell:	Completed after 24 iterations at t[s]:    354.46
SCF: Cycle:  3   G: -2116.355218011506622   dG: +4.391e-02   |Residual|: 2.155e-02   |deigs|: 1.156e-03  t[s]:    355.75
	Linear fluid (dielectric constant: 78.4, screening length: 5.74355 Bohr) occupying 0.611771 of unit cell:	Completed after 23 iterations at t[s]:    358.05
	FillingsUpdate:  mu: -0.171251800  nElectrons: 510.841401
	Linear fluid (dielectric constant: 78.4, screening length: 5.74355 Bohr) occupying 0.615028 of unit cell:	Completed after 24 iterations at t[s]:    435.26
SCF: Cycle:  4   G: -2116.458207566259262   dG: -1.030e-01   |Residual|: 1.147e-02   |deigs|: 2.108e-03  t[s]:    436.76
	Linear fluid (dielectric constant: 78.4, screening length: 5.74355 Bohr) occupying 0.611003 of unit cell:	Completed after 23 iterations at t[s]:    439.11
	FillingsUpdate:  mu: -0.171251800  nElectrons: 511.147310
	Linear fluid (dielectric constant: 78.4, screening length: 5.74355 Bohr) occupying 0.615094 of unit cell:	Completed after 24 iterations at t[s]:    515.63
SCF: Cycle:  5   G: -2116.531045420680130   dG: -7.284e-02   |Residual|: 8.234e-03   |deigs|: 1.389e-03  t[s]:    516.96
	Linear fluid (dielectric constant: 78.4, screening length: 5.74355 Bohr) occupying 0.610346 of unit cell:	Completed after 23 iterations at t[s]:    519.25
	FillingsUpdate:  mu: -0.171251800  nElectrons: 511.374730
	Linear fluid (dielectric constant: 78.4, screening length: 5.74355 Bohr) occupying 0.615193 of unit cell:	Completed after 24 iterations at t[s]:    596.27
SCF: Cycle:  6   G: -2116.564642910959265   dG: -3.360e-02   |Residual|: 6.324e-03   |deigs|: 1.066e-03  t[s]:    597.63
	Linear fluid (dielectric constant: 78.4, screening length: 5.74355 Bohr) occupying 0.610593 of unit cell:	Completed after 22 iterations at t[s]:    599.83
	FillingsUpdate:  mu: -0.171251800  nElectrons: 511.383943
	Linear fluid (dielectric constant: 78.4, screening length: 5.74355 Bohr) occupying 0.615320 of unit cell:	Completed after 23 iterations at t[s]:    676.43
SCF: Cycle:  7   G: -2116.567612624706726   dG: -2.970e-03   |Residual|: 4.435e-03   |deigs|: 1.098e-04  t[s]:    677.64
	Linear fluid (dielectric constant: 78.4, screening length: 5.74355 Bohr) occupying 0.611338 of unit cell:	Completed after 22 iterations at t[s]:    679.80
	FillingsUpdate:  mu: -0.171251800  nElectrons: 511.467795
	Linear fluid (dielectric constant: 78.4, screening length: 5.74355 Bohr) occupying 0.615471 of unit cell:	Completed after 21 iterations at t[s]:    756.31
SCF: Cycle:  8   G: -2116.575649208515642   dG: -8.037e-03   |Residual|: 3.560e-03   |deigs|: 4.640e-04  t[s]:    757.82
	Linear fluid (dielectric constant: 78.4, screening length: 5.74355 Bohr) occupying 0.612877 of unit cell:	Completed after 19 iterations at t[s]:    759.79
	FillingsUpdate:  mu: -0.171251800  nElectrons: 511.528631
	Linear fluid (dielectric constant: 78.4, screening length: 5.74355 Bohr) occupying 0.615611 of unit cell:	Completed after 20 iterations at t[s]:    835.77
SCF: Cycle:  9   G: -2116.579832924240691   dG: -4.184e-03   |Residual|: 2.212e-03   |deigs|: 3.148e-04  t[s]:    837.13
	Linear fluid (dielectric constant: 78.4, screening length: 5.74355 Bohr) occupying 0.615138 of unit cell:	Completed after 19 iterations at t[s]:    839.10
	FillingsUpdate:  mu: -0.171251800  nElectrons: 511.668822
	Linear fluid (dielectric constant: 78.4, screening length: 5.74355 Bohr) occupying 0.615706 of unit cell:	Completed after 15 iterations at t[s]:    914.90
SCF: Cycle: 10   G: -2116.579888270627180   dG: -5.535e-05   |Residual|: 2.173e-03   |deigs|: 7.309e-04  t[s]:    916.23
	Linear fluid (dielectric constant: 78.4, screening length: 5.74355 Bohr) occupying 0.615416 of unit cell:	Completed after 15 iterations at t[s]:    917.90
	FillingsUpdate:  mu: -0.171251800  nElectrons: 511.650270
	Linear fluid (dielectric constant: 78.4, screening length: 5.74355 Bohr) occupying 0.615649 of unit cell:	Completed after 19 iterations at t[s]:    994.05
SCF: Cycle: 11   G: -2116.580453685450266   dG: -5.654e-04   |Residual|: 1.966e-03   |deigs|: 1.531e-04  t[s]:    995.23
	Linear fluid (dielectric constant: 78.4, screening length: 5.74355 Bohr) occupying 0.616179 of unit cell:	Completed after 21 iterations at t[s]:    997.33
	FillingsUpdate:  mu: -0.171251800  nElectrons: 511.597172
	Linear fluid (dielectric constant: 78.4, screening length: 5.74355 Bohr) occupying 0.615728 of unit cell:	Completed after 18 iterations at t[s]:   1073.48
SCF: Cycle: 12   G: -2116.581026187907810   dG: -5.725e-04   |Residual|: 1.316e-03   |deigs|: 4.334e-04  t[s]:   1074.93
	Linear fluid (dielectric constant: 78.4, screening length: 5.74355 Bohr) occupying 0.616084 of unit cell:	Completed after 19 iterations at t[s]:   1076.92
	FillingsUpdate:  mu: -0.171251800  nElectrons: 511.574072
	Linear fluid (dielectric constant: 78.4, screening length: 5.74355 Bohr) occupying 0.615708 of unit cell:	Completed after 14 iterations at t[s]:   1152.24
SCF: Cycle: 13   G: -2116.580981539623281   dG: +4.465e-05   |Residual|: 1.094e-03   |deigs|: 1.919e-04  t[s]:   1153.55
	Linear fluid (dielectric constant: 78.4, screening length: 5.74355 Bohr) occupying 0.615890 of unit cell:	Completed after 14 iterations at t[s]:   1155.24
	FillingsUpdate:  mu: -0.171251800  nElectrons: 511.608183
	Linear fluid (dielectric constant: 78.4, screening length: 5.74355 Bohr) occupying 0.615694 of unit cell:	Completed after 17 iterations at t[s]:   1230.95
SCF: Cycle: 14   G: -2116.580953072418197   dG: +2.847e-05   |Residual|: 8.369e-04   |deigs|: 2.928e-04  t[s]:   1232.35
	Linear fluid (dielectric constant: 78.4, screening length: 5.74355 Bohr) occupying 0.615687 of unit cell:	Completed after 18 iterations at t[s]:   1234.29
	FillingsUpdate:  mu: -0.171251800  nElectrons: 511.579002
	Linear fluid (dielectric constant: 78.4, screening length: 5.74355 Bohr) occupying 0.615664 of unit cell:	Completed after 19 iterations at t[s]:   1311.36
SCF: Cycle: 15   G: -2116.581009073835958   dG: -5.600e-05   |Residual|: 6.345e-04   |deigs|: 2.139e-04  t[s]:   1312.77
	Linear fluid (dielectric constant: 78.4, screening length: 5.74355 Bohr) occupying 0.615639 of unit cell:	Completed after 18 iterations at t[s]:   1314.70
	FillingsUpdate:  mu: -0.171251800  nElectrons: 511.591995
	Linear fluid (dielectric constant: 78.4, screening length: 5.74355 Bohr) occupying 0.615661 of unit cell:	Completed after 7 iterations at t[s]:   1389.38
SCF: Cycle: 16   G: -2116.581039627762493   dG: -3.055e-05   |Residual|: 2.978e-04   |deigs|: 1.229e-04  t[s]:   1390.71
	Linear fluid (dielectric constant: 78.4, screening length: 5.74355 Bohr) occupying 0.615603 of unit cell:	Completed after 6 iterations at t[s]:   1391.68
	FillingsUpdate:  mu: -0.171251800  nElectrons: 511.588756
	Linear fluid (dielectric constant: 78.4, screening length: 5.74355 Bohr) occupying 0.615658 of unit cell:	Completed after 18 iterations at t[s]:   1466.49
SCF: Cycle: 17   G: -2116.580995460618851   dG: +4.417e-05   |Residual|: 3.953e-04   |deigs|: 1.296e-04  t[s]:   1467.82
	Linear fluid (dielectric constant: 78.4, screening length: 5.74355 Bohr) occupying 0.615602 of unit cell:	Completed after 19 iterations at t[s]:   1469.92
	FillingsUpdate:  mu: -0.171251800  nElectrons: 511.596041
	Linear fluid (dielectric constant: 78.4, screening length: 5.74355 Bohr) occupying 0.615658 of unit cell:	Completed after 3 iterations at t[s]:   1536.42
SCF: Cycle: 18   G: -2116.581039946733654   dG: -4.449e-05   |Residual|: 2.219e-04   |deigs|: 5.192e-05  t[s]:   1537.71
	Linear fluid (dielectric constant: 78.4, screening length: 5.74355 Bohr) occupying 0.615608 of unit cell:	Completed after 3 iterations at t[s]:   1538.45
	FillingsUpdate:  mu: -0.171251800  nElectrons: 511.588748
	Linear fluid (dielectric constant: 78.4, screening length: 5.74355 Bohr) occupying 0.615656 of unit cell:	Completed after 18 iterations at t[s]:   1605.30
SCF: Cycle: 19   G: -2116.581020878334130   dG: +1.907e-05   |Residual|: 2.753e-04   |deigs|: 4.851e-05  t[s]:   1606.51
	Linear fluid (dielectric constant: 78.4, screening length: 5.74355 Bohr) occupying 0.615602 of unit cell:	Completed after 18 iterations at t[s]:   1608.43
	FillingsUpdate:  mu: -0.171251800  nElectrons: 511.592365
	Linear fluid (dielectric constant: 78.4, screening length: 5.74355 Bohr) occupying 0.615656 of unit cell:	Completed after 14 iterations at t[s]:   1663.47
SCF: Cycle: 20   G: -2116.581037678953180   dG: -1.680e-05   |Residual|: 1.572e-04   |deigs|: 2.519e-05  t[s]:   1664.65
	Linear fluid (dielectric constant: 78.4, screening length: 5.74355 Bohr) occupying 0.615626 of unit cell:	Completed after 16 iterations at t[s]:   1666.40
	FillingsUpdate:  mu: -0.171251800  nElectrons: 511.588981
	Linear fluid (dielectric constant: 78.4, screening length: 5.74355 Bohr) occupying 0.615656 of unit cell:	Completed after 14 iterations at t[s]:   1733.10
SCF: Cycle: 21   G: -2116.581032845947448   dG: +4.833e-06   |Residual|: 1.848e-04   |deigs|: 2.760e-05  t[s]:   1734.49
	Linear fluid (dielectric constant: 78.4, screening length: 5.74355 Bohr) occupying 0.615627 of unit cell:	Completed after 15 iterations at t[s]:   1736.21
	FillingsUpdate:  mu: -0.171251800  nElectrons: 511.595689
	Linear fluid (dielectric constant: 78.4, screening length: 5.74355 Bohr) occupying 0.615658 of unit cell:	Completed after 4 iterations at t[s]:   1806.59
SCF: Cycle: 22   G: -2116.581040962483712   dG: -8.117e-06   |Residual|: 8.391e-05   |deigs|: 3.907e-05  t[s]:   1807.86
	Linear fluid (dielectric constant: 78.4, screening length: 5.74355 Bohr) occupying 0.615638 of unit cell:	Completed after 3 iterations at t[s]:   1808.60
	FillingsUpdate:  mu: -0.171251800  nElectrons: 511.595059
	Linear fluid (dielectric constant: 78.4, screening length: 5.74355 Bohr) occupying 0.615658 of unit cell:	Completed after 15 iterations at t[s]:   1878.32
SCF: Cycle: 23   G: -2116.581035793301908   dG: +5.169e-06   |Residual|: 1.780e-04   |deigs|: 1.825e-05  t[s]:   1879.60
	Linear fluid (dielectric constant: 78.4, screening length: 5.74355 Bohr) occupying 0.615640 of unit cell:	Completed after 14 iterations at t[s]:   1881.21
	FillingsUpdate:  mu: -0.171251800  nElectrons: 511.587889
	Linear fluid (dielectric constant: 78.4, screening length: 5.74355 Bohr) occupying 0.615657 of unit cell:	Completed after 13 iterations at t[s]:   1946.66
SCF: Cycle: 24   G: -2116.581035165821959   dG: +6.275e-07   |Residual|: 1.844e-04   |deigs|: 6.549e-05  t[s]:   1947.98
	Linear fluid (dielectric constant: 78.4, screening length: 5.74355 Bohr) occupying 0.615647 of unit cell:	Completed after 14 iterations at t[s]:   1949.64
	FillingsUpdate:  mu: -0.171251800  nElectrons: 511.598291
	Linear fluid (dielectric constant: 78.4, screening length: 5.74355 Bohr) occupying 0.615659 of unit cell:	Completed after 18 iterations at t[s]:   2024.67
SCF: Cycle: 25   G: -2116.581008365720663   dG: +2.680e-05   |Residual|: 3.103e-04   |deigs|: 9.541e-05  t[s]:   2026.15
	Linear fluid (dielectric constant: 78.4, screening length: 5.74355 Bohr) occupying 0.615647 of unit cell:	Completed after 18 iterations at t[s]:   2028.12
	FillingsUpdate:  mu: -0.171251800  nElectrons: 511.591972
	Linear fluid (dielectric constant: 78.4, screening length: 5.74355 Bohr) occupying 0.615659 of unit cell:	Completed after 13 iterations at t[s]:   2089.88
SCF: Cycle: 26   G: -2116.581038909889685   dG: -3.054e-05   |Residual|: 1.254e-04   |deigs|: 4.892e-05  t[s]:   2091.12
	Linear fluid (dielectric constant: 78.4, screening length: 5.74355 Bohr) occupying 0.615654 of unit cell:	Completed after 14 iterations at t[s]:   2092.69
	FillingsUpdate:  mu: -0.171251800  nElectrons: 511.602144
	Linear fluid (dielectric constant: 78.4, screening length: 5.74355 Bohr) occupying 0.615662 of unit cell:	Completed after 11 iterations at t[s]:   2148.68
SCF: Cycle: 27   G: -2116.581030251898028   dG: +8.658e-06   |Residual|: 1.218e-04   |deigs|: 5.225e-05  t[s]:   2149.94
	Linear fluid (dielectric constant: 78.4, screening length: 5.74355 Bohr) occupying 0.615655 of unit cell:	Completed after 13 iterations at t[s]:   2151.42
	FillingsUpdate:  mu: -0.171251800  nElectrons: 511.587659
	Linear fluid (dielectric constant: 78.4, screening length: 5.74355 Bohr) occupying 0.615659 of unit cell:	Completed after 18 iterations at t[s]:   2206.03
SCF: Cycle: 28   G: -2116.581011324730753   dG: +1.893e-05   |Residual|: 2.718e-04   |deigs|: 7.952e-05  t[s]:   2207.61
	Linear fluid (dielectric constant: 78.4, screening length: 5.74355 Bohr) occupying 0.615653 of unit cell:	Completed after 18 iterations at t[s]:   2209.53
	FillingsUpdate:  mu: -0.171251800  nElectrons: 511.590349
	Linear fluid (dielectric constant: 78.4, screening length: 5.74355 Bohr) occupying 0.615659 of unit cell:	Completed after 13 iterations at t[s]:   2270.94
SCF: Cycle: 29   G: -2116.581037824916621   dG: -2.650e-05   |Residual|: 9.692e-05   |deigs|: 2.621e-05  t[s]:   2272.23
	Linear fluid (dielectric constant: 78.4, screening length: 5.74355 Bohr) occupying 0.615652 of unit cell:	Completed after 14 iterations at t[s]:   2273.84
	FillingsUpdate:  mu: -0.171251800  nElectrons: 511.595477
	Linear fluid (dielectric constant: 78.4, screening length: 5.74355 Bohr) occupying 0.615660 of unit cell:	Completed after 15 iterations at t[s]:   2329.24
SCF: Cycle: 30   G: -2116.581038839624853   dG: -1.015e-06   |Residual|: 1.351e-04   |deigs|: 2.520e-05  t[s]:   2330.49
	Linear fluid (dielectric constant: 78.4, screening length: 5.74355 Bohr) occupying 0.615652 of unit cell:	Completed after 14 iterations at t[s]:   2332.06
	FillingsUpdate:  mu: -0.171251800  nElectrons: 511.612466
	Linear fluid (dielectric constant: 78.4, screening length: 5.74355 Bohr) occupying 0.615663 of unit cell:	Completed after 16 iterations at t[s]:   2408.37
SCF: Cycle: 31   G: -2116.580953197156759   dG: +8.564e-05   |Residual|: 2.779e-04   |deigs|: 9.698e-05  t[s]:   2410.04
	Linear fluid (dielectric constant: 78.4, screening length: 5.74355 Bohr) occupying 0.615653 of unit cell:	Completed after 14 iterations at t[s]:   2411.76
	FillingsUpdate:  mu: -0.171251800  nElectrons: 511.590615
	Linear fluid (dielectric constant: 78.4, screening length: 5.74355 Bohr) occupying 0.615658 of unit cell:	Completed after 13 iterations at t[s]:   2464.63
SCF: Cycle: 32   G: -2116.581037461149663   dG: -8.426e-05   |Residual|: 1.591e-04   |deigs|: 1.177e-04  t[s]:   2466.08
	Linear fluid (dielectric constant: 78.4, screening length: 5.74355 Bohr) occupying 0.615656 of unit cell:	Completed after 15 iterations at t[s]:   2467.75
	FillingsUpdate:  mu: -0.171251800  nElectrons: 511.597032
	Linear fluid (dielectric constant: 78.4, screening length: 5.74355 Bohr) occupying 0.615660 of unit cell:	Completed after 16 iterations at t[s]:   2520.67
SCF: Cycle: 33   G: -2116.581029481000769   dG: +7.980e-06   |Residual|: 1.716e-04   |deigs|: 4.175e-05  t[s]:   2522.03
	Linear fluid (dielectric constant: 78.4, screening length: 5.74355 Bohr) occupying 0.615659 of unit cell:	Completed after 16 iterations at t[s]:   2523.86
	FillingsUpdate:  mu: -0.171251800  nElectrons: 511.590360
	Linear fluid (dielectric constant: 78.4, screening length: 5.74355 Bohr) occupying 0.615659 of unit cell:	Completed after 14 iterations at t[s]:   2574.39
SCF: Cycle: 34   G: -2116.581038017508945   dG: -8.537e-06   |Residual|: 5.585e-05   |deigs|: 4.158e-05  t[s]:   2575.73
	Linear fluid (dielectric constant: 78.4, screening length: 5.74355 Bohr) occupying 0.615658 of unit cell:	Completed after 13 iterations at t[s]:   2577.24
	FillingsUpdate:  mu: -0.171251800  nElectrons: 511.592981
	Linear fluid (dielectric constant: 78.4, screening length: 5.74355 Bohr) occupying 0.615660 of unit cell:	Completed after 13 iterations at t[s]:   2627.74
SCF: Cycle: 35   G: -2116.581040110761478   dG: -2.093e-06   |Residual|: 8.426e-05   |deigs|: 1.667e-05  t[s]:   2629.00
	Linear fluid (dielectric constant: 78.4, screening length: 5.74355 Bohr) occupying 0.615659 of unit cell:	Completed after 14 iterations at t[s]:   2630.62
	FillingsUpdate:  mu: -0.171251800  nElectrons: 511.604999
	Linear fluid (dielectric constant: 78.4, screening length: 5.74355 Bohr) occupying 0.615663 of unit cell:	Completed after 13 iterations at t[s]:   2688.73
SCF: Cycle: 36   G: -2116.581019312633998   dG: +2.080e-05   |Residual|: 1.581e-04   |deigs|: 6.102e-05  t[s]:   2690.22
	Linear fluid (dielectric constant: 78.4, screening length: 5.74355 Bohr) occupying 0.615658 of unit cell:	Completed after 14 iterations at t[s]:   2691.83
	FillingsUpdate:  mu: -0.171251800  nElectrons: 511.590725
	Linear fluid (dielectric constant: 78.4, screening length: 5.74355 Bohr) occupying 0.615660 of unit cell:	Completed after 18 iterations at t[s]:   2739.59
SCF: Cycle: 37   G: -2116.581031647157033   dG: -1.233e-05   |Residual|: 1.710e-04   |deigs|: 7.593e-05  t[s]:   2740.94
	Linear fluid (dielectric constant: 78.4, screening length: 5.74355 Bohr) occupying 0.615659 of unit cell:	Completed after 17 iterations at t[s]:   2742.77
	FillingsUpdate:  mu: -0.171251800  nElectrons: 511.593913
	Linear fluid (dielectric constant: 78.4, screening length: 5.74355 Bohr) occupying 0.615660 of unit cell:	Completed after 9 iterations at t[s]:   2786.74
SCF: Cycle: 38   G: -2116.581040284893334   dG: -8.638e-06   |Residual|: 1.065e-04   |deigs|: 1.892e-05  t[s]:   2788.08
	Linear fluid (dielectric constant: 78.4, screening length: 5.74355 Bohr) occupying 0.615660 of unit cell:	Completed after 8 iterations at t[s]:   2789.22
	FillingsUpdate:  mu: -0.171251800  nElectrons: 511.618696
	Linear fluid (dielectric constant: 78.4, screening length: 5.74355 Bohr) occupying 0.615665 of unit cell:	Completed after 17 iterations at t[s]:   2837.91
SCF: Cycle: 39   G: -2116.580848067450006   dG: +1.922e-04   |Residual|: 4.861e-04   |deigs|: 1.378e-04  t[s]:   2839.48
	Linear fluid (dielectric constant: 78.4, screening length: 5.74355 Bohr) occupying 0.615660 of unit cell:	Completed after 18 iterations at t[s]:   2841.39
	FillingsUpdate:  mu: -0.171251800  nElectrons: 511.592366
	Linear fluid (dielectric constant: 78.4, screening length: 5.74355 Bohr) occupying 0.615660 of unit cell:	Completed after 4 iterations at t[s]:   2885.30
SCF: Cycle: 40   G: -2116.581041028023265   dG: -1.930e-04   |Residual|: 6.861e-05   |deigs|: 1.429e-04  t[s]:   2886.51
	Linear fluid (dielectric constant: 78.4, screening length: 5.74355 Bohr) occupying 0.615660 of unit cell:	Completed after 3 iterations at t[s]:   2887.25
	FillingsUpdate:  mu: -0.171251800  nElectrons: 511.606661
	Linear fluid (dielectric constant: 78.4, screening length: 5.74355 Bohr) occupying 0.615663 of unit cell:	Completed after 15 iterations at t[s]:   2930.58
SCF: Cycle: 41   G: -2116.580986945348741   dG: +5.408e-05   |Residual|: 2.374e-04   |deigs|: 7.730e-05  t[s]:   2931.87
	Linear fluid (dielectric constant: 78.4, screening length: 5.74355 Bohr) occupying 0.615659 of unit cell:	Completed after 15 iterations at t[s]:   2933.58
	FillingsUpdate:  mu: -0.171251800  nElectrons: 511.591209
	Linear fluid (dielectric constant: 78.4, screening length: 5.74355 Bohr) occupying 0.615659 of unit cell:	Completed after 13 iterations at t[s]:   2981.59
SCF: Cycle: 42   G: -2116.581039337054790   dG: -5.239e-05   |Residual|: 1.092e-04   |deigs|: 8.498e-05  t[s]:   2983.00
	Linear fluid (dielectric constant: 78.4, screening length: 5.74355 Bohr) occupying 0.615659 of unit cell:	Completed after 14 iterations at t[s]:   2984.74
	FillingsUpdate:  mu: -0.171251800  nElectrons: 511.599880
	Linear fluid (dielectric constant: 78.4, screening length: 5.74355 Bohr) occupying 0.615661 of unit cell:	Completed after 17 iterations at t[s]:   3031.69
SCF: Cycle: 43   G: -2116.581017806146974   dG: +2.153e-05   |Residual|: 2.106e-04   |deigs|: 5.193e-05  t[s]:   3033.02
	Linear fluid (dielectric constant: 78.4, screening length: 5.74355 Bohr) occupying 0.615659 of unit cell:	Completed after 17 iterations at t[s]:   3034.88
	FillingsUpdate:  mu: -0.171251800  nElectrons: 511.591524
	Linear fluid (dielectric constant: 78.4, screening length: 5.74355 Bohr) occupying 0.615659 of unit cell:	Completed after 11 iterations at t[s]:   3081.52
SCF: Cycle: 44   G: -2116.581040334298905   dG: -2.253e-05   |Residual|: 4.406e-05   |deigs|: 4.896e-05  t[s]:   3082.77
	Linear fluid (dielectric constant: 78.4, screening length: 5.74355 Bohr) occupying 0.615659 of unit cell:	Completed after 9 iterations at t[s]:   3084.01
	FillingsUpdate:  mu: -0.171251800  nElectrons: 511.597011
	Linear fluid (dielectric constant: 78.4, screening length: 5.74355 Bohr) occupying 0.615660 of unit cell:	Completed after 14 iterations at t[s]:   3127.30
SCF: Cycle: 45   G: -2116.581035796553806   dG: +4.538e-06   |Residual|: 9.513e-05   |deigs|: 3.059e-05  t[s]:   3128.54
	Linear fluid (dielectric constant: 78.4, screening length: 5.74355 Bohr) occupying 0.615659 of unit cell:	Completed after 13 iterations at t[s]:   3130.05
	FillingsUpdate:  mu: -0.171251800  nElectrons: 511.589747
	Linear fluid (dielectric constant: 78.4, screening length: 5.74355 Bohr) occupying 0.615659 of unit cell:	Completed after 16 iterations at t[s]:   3179.33
SCF: Cycle: 46   G: -2116.581035013437941   dG: +7.831e-07   |Residual|: 1.240e-04   |deigs|: 4.330e-05  t[s]:   3180.90
	Linear fluid (dielectric constant: 78.4, screening length: 5.74355 Bohr) occupying 0.615659 of unit cell:	Completed after 14 iterations at t[s]:   3182.60
	FillingsUpdate:  mu: -0.171251800  nElectrons: 511.595411
	Linear fluid (dielectric constant: 78.4, screening length: 5.74355 Bohr) occupying 0.615661 of unit cell:	Completed after 10 iterations at t[s]:   3253.71
SCF: Cycle: 47   G: -2116.581035885413712   dG: -8.720e-07   |Residual|: 2.017e-04   |deigs|: 3.383e-05  t[s]:   3255.23
	Linear fluid (dielectric constant: 78.4, screening length: 5.74355 Bohr) occupying 0.615659 of unit cell:	Completed after 9 iterations at t[s]:   3256.45
	FillingsUpdate:  mu: -0.171251800  nElectrons: 511.622119
	Linear fluid (dielectric constant: 78.4, screening length: 5.74355 Bohr) occupying 0.615666 of unit cell:	Completed after 18 iterations at t[s]:   3328.37
SCF: Cycle: 48   G: -2116.580780713830791   dG: +2.552e-04   |Residual|: 5.481e-04   |deigs|: 1.535e-04  t[s]:   3329.65
	Linear fluid (dielectric constant: 78.4, screening length: 5.74355 Bohr) occupying 0.615659 of unit cell:	Completed after 17 iterations at t[s]:   3331.45
	FillingsUpdate:  mu: -0.171251800  nElectrons: 511.591995
	Linear fluid (dielectric constant: 78.4, screening length: 5.74355 Bohr) occupying 0.615659 of unit cell:	Completed after 10 iterations at t[s]:   3378.01
SCF: Cycle: 49   G: -2116.581040400887105   dG: -2.597e-04   |Residual|: 1.014e-04   |deigs|: 1.651e-04  t[s]:   3379.30
	Linear fluid (dielectric constant: 78.4, screening length: 5.74355 Bohr) occupying 0.615659 of unit cell:	Completed after 10 iterations at t[s]:   3380.65
	FillingsUpdate:  mu: -0.171251800  nElectrons: 511.599423
	Linear fluid (dielectric constant: 78.4, screening length: 5.74355 Bohr) occupying 0.615660 of unit cell:	Completed after 16 iterations at t[s]:   3425.31
SCF: Cycle: 50   G: -2116.581022804426084   dG: +1.760e-05   |Residual|: 1.644e-04   |deigs|: 4.262e-05  t[s]:   3426.72
	Linear fluid (dielectric constant: 78.4, screening length: 5.74355 Bohr) occupying 0.615659 of unit cell:	Completed after 15 iterations at t[s]:   3428.39
	FillingsUpdate:  mu: -0.171251800  nElectrons: 511.591785
	Linear fluid (dielectric constant: 78.4, screening length: 5.74355 Bohr) occupying 0.615660 of unit cell:	Completed after 14 iterations at t[s]:   3475.89
SCF: Cycle: 51   G: -2116.581036869801665   dG: -1.407e-05   |Residual|: 2.003e-04   |deigs|: 4.849e-05  t[s]:   3477.23
	Linear fluid (dielectric constant: 78.4, screening length: 5.74355 Bohr) occupying 0.615659 of unit cell:	Completed after 17 iterations at t[s]:   3479.11
	FillingsUpdate:  mu: -0.171251800  nElectrons: 511.595468
	Linear fluid (dielectric constant: 78.4, screening length: 5.74355 Bohr) occupying 0.615661 of unit cell:	Completed after 3 iterations at t[s]:   3525.26
SCF: Cycle: 52   G: -2116.581040466610375   dG: -3.597e-06   |Residual|: 9.019e-05   |deigs|: 1.884e-05  t[s]:   3526.63
	Linear fluid (dielectric constant: 78.4, screening length: 5.74355 Bohr) occupying 0.615659 of unit cell:	Completed after 3 iterations at t[s]:   3527.35
	FillingsUpdate:  mu: -0.171251800  nElectrons: 511.587699
	Linear fluid (dielectric constant: 78.4, screening length: 5.74355 Bohr) occupying 0.615658 of unit cell:	Completed after 14 iterations at t[s]:   3577.14
SCF: Cycle: 53   G: -2116.581036728311574   dG: +3.738e-06   |Residual|: 1.206e-04   |deigs|: 3.868e-05  t[s]:   3578.55
	Linear fluid (dielectric constant: 78.4, screening length: 5.74355 Bohr) occupying 0.615659 of unit cell:	Completed after 14 iterations at t[s]:   3580.14
	FillingsUpdate:  mu: -0.171251800  nElectrons: 511.598018
	Linear fluid (dielectric constant: 78.4, screening length: 5.74355 Bohr) occupying 0.615660 of unit cell:	Completed after 16 iterations at t[s]:   3629.69
SCF: Cycle: 54   G: -2116.581023727314459   dG: +1.300e-05   |Residual|: 1.958e-04   |deigs|: 5.630e-05  t[s]:   3631.00
	Linear fluid (dielectric constant: 78.4, screening length: 5.74355 Bohr) occupying 0.615659 of unit cell:	Completed after 15 iterations at t[s]:   3632.69
	FillingsUpdate:  mu: -0.171251800  nElectrons: 511.591843
	Linear fluid (dielectric constant: 78.4, screening length: 5.74355 Bohr) occupying 0.615660 of unit cell:	Completed after 14 iterations at t[s]:   3677.96
SCF: Cycle: 55   G: -2116.581038893940331   dG: -1.517e-05   |Residual|: 8.056e-05   |deigs|: 4.224e-05  t[s]:   3679.27
	Linear fluid (dielectric constant: 78.4, screening length: 5.74355 Bohr) occupying 0.615659 of unit cell:	Completed after 15 iterations at t[s]:   3680.97
	FillingsUpdate:  mu: -0.171251800  nElectrons: 511.595100
	Linear fluid (dielectric constant: 78.4, screening length: 5.74355 Bohr) occupying 0.615660 of unit cell:	Completed after 3 iterations at t[s]:   3725.05
SCF: Cycle: 56   G: -2116.581041089984865   dG: -2.196e-06   |Residual|: 7.704e-05   |deigs|: 1.780e-05  t[s]:   3726.38
	Linear fluid (dielectric constant: 78.4, screening length: 5.74355 Bohr) occupying 0.615659 of unit cell:	Completed after 3 iterations at t[s]:   3727.11
	FillingsUpdate:  mu: -0.171251800  nElectrons: 511.595105
	Linear fluid (dielectric constant: 78.4, screening length: 5.74355 Bohr) occupying 0.615660 of unit cell:	Completed after 14 iterations at t[s]:   3775.45
SCF: Cycle: 57   G: -2116.581037356136221   dG: +3.734e-06   |Residual|: 1.025e-04   |deigs|: 1.358e-05  t[s]:   3776.72
	Linear fluid (dielectric constant: 78.4, screening length: 5.74355 Bohr) occupying 0.615659 of unit cell:	Completed after 16 iterations at t[s]:   3778.48
	FillingsUpdate:  mu: -0.171251800  nElectrons: 511.590057
	Linear fluid (dielectric constant: 78.4, screening length: 5.74355 Bohr) occupying 0.615660 of unit cell:	Completed after 17 iterations at t[s]:   3827.77
SCF: Cycle: 58   G: -2116.581034526702751   dG: +2.829e-06   |Residual|: 1.823e-04   |deigs|: 3.529e-05  t[s]:   3829.16
	Linear fluid (dielectric constant: 78.4, screening length: 5.74355 Bohr) occupying 0.615659 of unit cell:	Completed after 18 iterations at t[s]:   3831.05
	FillingsUpdate:  mu: -0.171251800  nElectrons: 511.593819
	Linear fluid (dielectric constant: 78.4, screening length: 5.74355 Bohr) occupying 0.615660 of unit cell:	Completed after 9 iterations at t[s]:   3879.74
SCF: Cycle: 59   G: -2116.581040086348821   dG: -5.560e-06   |Residual|: 1.047e-04   |deigs|: 1.893e-05  t[s]:   3881.10
	Linear fluid (dielectric constant: 78.4, screening length: 5.74355 Bohr) occupying 0.615659 of unit cell:	Completed after 4 iterations at t[s]:   3881.96
	FillingsUpdate:  mu: -0.171251800  nElectrons: 511.628265
	Linear fluid (dielectric constant: 78.4, screening length: 5.74355 Bohr) occupying 0.615666 of unit cell:	Completed after 17 iterations at t[s]:   3948.82
SCF: Cycle: 60   G: -2116.580532756996490   dG: +5.073e-04   |Residual|: 8.273e-04   |deigs|: 2.017e-04  t[s]:   3950.17
	Linear fluid (dielectric constant: 78.4, screening length: 5.74355 Bohr) occupying 0.615659 of unit cell:	Completed after 19 iterations at t[s]:   3952.28
	FillingsUpdate:  mu: -0.171251800  nElectrons: 511.591997
	Linear fluid (dielectric constant: 78.4, screening length: 5.74355 Bohr) occupying 0.615660 of unit cell:	Completed after 11 iterations at t[s]:   4000.27
SCF: Cycle: 61   G: -2116.581040220930845   dG: -5.075e-04   |Residual|: 8.828e-05   |deigs|: 2.091e-04  t[s]:   4001.69
	Linear fluid (dielectric constant: 78.4, screening length: 5.74355 Bohr) occupying 0.615659 of unit cell:	Completed after 11 iterations at t[s]:   4003.07
	FillingsUpdate:  mu: -0.171251800  nElectrons: 511.598866
	Linear fluid (dielectric constant: 78.4, screening length: 5.74355 Bohr) occupying 0.615661 of unit cell:	Completed after 16 iterations at t[s]:   4049.44
SCF: Cycle: 62   G: -2116.581032005184170   dG: +8.216e-06   |Residual|: 1.206e-04   |deigs|: 3.699e-05  t[s]:   4050.91
	Linear fluid (dielectric constant: 78.4, screening length: 5.74355 Bohr) occupying 0.615659 of unit cell:	Completed after 15 iterations at t[s]:   4052.57
	FillingsUpdate:  mu: -0.171251800  nElectrons: 511.591747
	Linear fluid (dielectric constant: 78.4, screening length: 5.74355 Bohr) occupying 0.615660 of unit cell:	Completed after 13 iterations at t[s]:   4100.90
SCF: Cycle: 63   G: -2116.581037693517374   dG: -5.688e-06   |Residual|: 2.028e-04   |deigs|: 4.177e-05  t[s]:   4102.43
	Linear fluid (dielectric constant: 78.4, screening length: 5.74355 Bohr) occupying 0.615659 of unit cell:	Completed after 13 iterations at t[s]:   4103.99
	FillingsUpdate:  mu: -0.171251800  nElectrons: 511.617228
	Linear fluid (dielectric constant: 78.4, screening length: 5.74355 Bohr) occupying 0.615666 of unit cell:	Completed after 16 iterations at t[s]:   4151.71
SCF: Cycle: 64   G: -2116.580915298833133   dG: +1.224e-04   |Residual|: 3.733e-04   |deigs|: 1.319e-04  t[s]:   4153.25
	Linear fluid (dielectric constant: 78.4, screening length: 5.74355 Bohr) occupying 0.615659 of unit cell:	Completed after 18 iterations at t[s]:   4155.23
	FillingsUpdate:  mu: -0.171251800  nElectrons: 511.592607
	Linear fluid (dielectric constant: 78.4, screening length: 5.74355 Bohr) occupying 0.615660 of unit cell:	Completed after 4 iterations at t[s]:   4198.64
SCF: Cycle: 65   G: -2116.581041119755355   dG: -1.258e-04   |Residual|: 3.823e-05   |deigs|: 1.291e-04  t[s]:   4199.98
	Linear fluid (dielectric constant: 78.4, screening length: 5.74355 Bohr) occupying 0.615659 of unit cell:	Completed after 3 iterations at t[s]:   4200.73
	FillingsUpdate:  mu: -0.171251800  nElectrons: 511.606907
	Linear fluid (dielectric constant: 78.4, screening length: 5.74355 Bohr) occupying 0.615662 of unit cell:	Completed after 16 iterations at t[s]:   4245.71
SCF: Cycle: 66   G: -2116.580967506434718   dG: +7.361e-05   |Residual|: 3.027e-04   |deigs|: 8.132e-05  t[s]:   4247.11
	Linear fluid (dielectric constant: 78.4, screening length: 5.74355 Bohr) occupying 0.615659 of unit cell:	Completed after 15 iterations at t[s]:   4248.77
	FillingsUpdate:  mu: -0.171251800  nElectrons: 511.591915
	Linear fluid (dielectric constant: 78.4, screening length: 5.74355 Bohr) occupying 0.615660 of unit cell:	Completed after 14 iterations at t[s]:   4296.44
SCF: Cycle: 67   G: -2116.581039702118687   dG: -7.220e-05   |Residual|: 1.084e-04   |deigs|: 8.696e-05  t[s]:   4297.95
	Linear fluid (dielectric constant: 78.4, screening length: 5.74355 Bohr) occupying 0.615659 of unit cell:	Completed after 14 iterations at t[s]:   4299.58
	FillingsUpdate:  mu: -0.171251800  nElectrons: 511.599619
	Linear fluid (dielectric constant: 78.4, screening length: 5.74355 Bohr) occupying 0.615662 of unit cell:	Completed after 15 iterations at t[s]:   4348.26
SCF: Cycle: 68   G: -2116.581034959190220   dG: +4.743e-06   |Residual|: 1.592e-04   |deigs|: 4.221e-05  t[s]:   4349.66
	Linear fluid (dielectric constant: 78.4, screening length: 5.74355 Bohr) occupying 0.615659 of unit cell:	Completed after 14 iterations at t[s]:   4351.27
	FillingsUpdate:  mu: -0.171251800  nElectrons: 511.584028
	Linear fluid (dielectric constant: 78.4, screening length: 5.74355 Bohr) occupying 0.615659 of unit cell:	Completed after 19 iterations at t[s]:   4400.78
SCF: Cycle: 69   G: -2116.580952576377058   dG: +8.238e-05   |Residual|: 4.195e-04   |deigs|: 9.258e-05  t[s]:   4402.19
	Linear fluid (dielectric constant: 78.4, screening length: 5.74355 Bohr) occupying 0.615659 of unit cell:	Completed after 18 iterations at t[s]:   4404.08
	FillingsUpdate:  mu: -0.171251800  nElectrons: 511.592844
	Linear fluid (dielectric constant: 78.4, screening length: 5.74355 Bohr) occupying 0.615660 of unit cell:	Completed after 13 iterations at t[s]:   4452.87
SCF: Cycle: 70   G: -2116.581039963996318   dG: -8.739e-05   |Residual|: 7.296e-05   |deigs|: 5.990e-05  t[s]:   4454.33
	Linear fluid (dielectric constant: 78.4, screening length: 5.74355 Bohr) occupying 0.615659 of unit cell:	Completed after 14 iterations at t[s]:   4455.98
	FillingsUpdate:  mu: -0.171251800  nElectrons: 511.597451
	Linear fluid (dielectric constant: 78.4, screening length: 5.74355 Bohr) occupying 0.615661 of unit cell:	Completed after 13 iterations at t[s]:   4499.62
SCF: Cycle: 71   G: -2116.581039309016433   dG: +6.550e-07   |Residual|: 8.341e-05   |deigs|: 2.636e-05  t[s]:   4500.82
	Linear fluid (dielectric constant: 78.4, screening length: 5.74355 Bohr) occupying 0.615659 of unit cell:	Completed after 14 iterations at t[s]:   4502.39
	FillingsUpdate:  mu: -0.171251800  nElectrons: 511.583362
	Linear fluid (dielectric constant: 78.4, screening length: 5.74355 Bohr) occupying 0.615659 of unit cell:	Completed after 18 iterations at t[s]:   4574.24
SCF: Cycle: 72   G: -2116.580963359980615   dG: +7.595e-05   |Residual|: 3.690e-04   |deigs|: 8.376e-05  t[s]:   4575.47
	Linear fluid (dielectric constant: 78.4, screening length: 5.74355 Bohr) occupying 0.615659 of unit cell:	Completed after 18 iterations at t[s]:   4577.42
	FillingsUpdate:  mu: -0.171251800  nElectrons: 511.592945
	Linear fluid (dielectric constant: 78.4, screening length: 5.74355 Bohr) occupying 0.615660 of unit cell:	Completed after 14 iterations at t[s]:   4625.03
SCF: Cycle: 73   G: -2116.581040019613738   dG: -7.666e-05   |Residual|: 8.103e-05   |deigs|: 6.002e-05  t[s]:   4626.34
	Linear fluid (dielectric constant: 78.4, screening length: 5.74355 Bohr) occupying 0.615659 of unit cell:	Completed after 15 iterations at t[s]:   4628.05
	FillingsUpdate:  mu: -0.171251800  nElectrons: 511.594483
	Linear fluid (dielectric constant: 78.4, screening length: 5.74355 Bohr) occupying 0.615660 of unit cell:	Completed after 3 iterations at t[s]:   4670.54
SCF: Cycle: 74   G: -2116.581040250541264   dG: -2.309e-07   |Residual|: 9.939e-05   |deigs|: 1.272e-05  t[s]:   4671.87
	Linear fluid (dielectric constant: 78.4, screening length: 5.74355 Bohr) occupying 0.615659 of unit cell:	Completed after 3 iterations at t[s]:   4672.61
	FillingsUpdate:  mu: -0.171251800  nElectrons: 511.599031
	Linear fluid (dielectric constant: 78.4, screening length: 5.74355 Bohr) occupying 0.615660 of unit cell:	Completed after 16 iterations at t[s]:   4742.98
SCF: Cycle: 75   G: -2116.581012712941629   dG: +2.754e-05   |Residual|: 2.545e-04   |deigs|: 3.805e-05  t[s]:   4744.25
	Linear fluid (dielectric constant: 78.4, screening length: 5.74355 Bohr) occupying 0.615659 of unit cell:	Completed after 17 iterations at t[s]:   4746.09
	FillingsUpdate:  mu: -0.171251800  nElectrons: 511.592558
	Linear fluid (dielectric constant: 78.4, screening length: 5.74355 Bohr) occupying 0.615660 of unit cell:	Completed after 15 iterations at t[s]:   4794.50
SCF: Cycle: 76   G: -2116.581039102013619   dG: -2.639e-05   |Residual|: 1.067e-04   |deigs|: 4.663e-05  t[s]:   4795.84
	Linear fluid (dielectric constant: 78.4, screening length: 5.74355 Bohr) occupying 0.615659 of unit cell:	Completed after 15 iterations at t[s]:   4797.55
	FillingsUpdate:  mu: -0.171251800  nElectrons: 511.602967
	Linear fluid (dielectric constant: 78.4, screening length: 5.74355 Bohr) occupying 0.615662 of unit cell:	Completed after 14 iterations at t[s]:   4844.10
SCF: Cycle: 77   G: -2116.581028294730459   dG: +1.081e-05   |Residual|: 1.331e-04   |deigs|: 5.270e-05  t[s]:   4845.42
	Linear fluid (dielectric constant: 78.4, screening length: 5.74355 Bohr) occupying 0.615659 of unit cell:	Completed after 14 iterations at t[s]:   4847.08
	FillingsUpdate:  mu: -0.171251800  nElectrons: 511.589628
	Linear fluid (dielectric constant: 78.4, screening length: 5.74355 Bohr) occupying 0.615660 of unit cell:	Completed after 19 iterations at t[s]:   4895.51
SCF: Cycle: 78   G: -2116.581012123405344   dG: +1.617e-05   |Residual|: 2.715e-04   |deigs|: 7.507e-05  t[s]:   4896.95
	Linear fluid (dielectric constant: 78.4, screening length: 5.74355 Bohr) occupying 0.615659 of unit cell:	Completed after 18 iterations at t[s]:   4898.89
	FillingsUpdate:  mu: -0.171251800  nElectrons: 511.593228
	Linear fluid (dielectric constant: 78.4, screening length: 5.74355 Bohr) occupying 0.615660 of unit cell:	Completed after 13 iterations at t[s]:   4946.17
SCF: Cycle: 79   G: -2116.581039839108143   dG: -2.772e-05   |Residual|: 8.626e-05   |deigs|: 2.791e-05  t[s]:   4947.48
	Linear fluid (dielectric constant: 78.4, screening length: 5.74355 Bohr) occupying 0.615659 of unit cell:	Completed after 13 iterations at t[s]:   4949.00
	FillingsUpdate:  mu: -0.171251800  nElectrons: 511.610633
	Linear fluid (dielectric constant: 78.4, screening length: 5.74355 Bohr) occupying 0.615664 of unit cell:	Completed after 14 iterations at t[s]:   4995.88
SCF: Cycle: 80   G: -2116.580983122272755   dG: +5.672e-05   |Residual|: 2.266e-04   |deigs|: 9.245e-05  t[s]:   4997.24
	Linear fluid (dielectric constant: 78.4, screening length: 5.74355 Bohr) occupying 0.615659 of unit cell:	Completed after 16 iterations at t[s]:   4999.02
	FillingsUpdate:  mu: -0.171251800  nElectrons: 511.591316
	Linear fluid (dielectric constant: 78.4, screening length: 5.74355 Bohr) occupying 0.615659 of unit cell:	Completed after 8 iterations at t[s]:   5045.24
SCF: Cycle: 81   G: -2116.581038732954312   dG: -5.561e-05   |Residual|: 1.554e-04   |deigs|: 9.852e-05  t[s]:   5046.51
	Linear fluid (dielectric constant: 78.4, screening length: 5.74355 Bohr) occupying 0.615659 of unit cell:	Completed after 7 iterations at t[s]:   5047.58
	FillingsUpdate:  mu: -0.171251800  nElectrons: 511.595521
	Linear fluid (dielectric constant: 78.4, screening length: 5.74355 Bohr) occupying 0.615661 of unit cell:	Completed after 8 iterations at t[s]:   5094.71
SCF: Cycle: 82   G: -2116.581039900527685   dG: -1.168e-06   |Residual|: 1.101e-04   |deigs|: 2.773e-05  t[s]:   5096.25
	Linear fluid (dielectric constant: 78.4, screening length: 5.74355 Bohr) occupying 0.615659 of unit cell:	Completed after 7 iterations at t[s]:   5097.35
	FillingsUpdate:  mu: -0.171251800  nElectrons: 511.610731
	Linear fluid (dielectric constant: 78.4, screening length: 5.74355 Bohr) occupying 0.615664 of unit cell:	Completed after 17 iterations at t[s]:   5167.10
SCF: Cycle: 83   G: -2116.580941514568622   dG: +9.839e-05   |Residual|: 3.859e-04   |deigs|: 9.027e-05  t[s]:   5168.46
	Linear fluid (dielectric constant: 78.4, screening length: 5.74355 Bohr) occupying 0.615659 of unit cell:	Completed after 18 iterations at t[s]:   5170.37
	FillingsUpdate:  mu: -0.171251800  nElectrons: 511.592373
	Linear fluid (dielectric constant: 78.4, screening length: 5.74355 Bohr) occupying 0.615660 of unit cell:	Completed after 12 iterations at t[s]:   5214.96
SCF: Cycle: 84   G: -2116.581040426492564   dG: -9.891e-05   |Residual|: 9.238e-05   |deigs|: 1.014e-04  t[s]:   5216.18
	Linear fluid (dielectric constant: 78.4, screening length: 5.74355 Bohr) occupying 0.615659 of unit cell:	Completed after 11 iterations at t[s]:   5217.52
	FillingsUpdate:  mu: -0.171251800  nElectrons: 511.612526
	Linear fluid (dielectric constant: 78.4, screening length: 5.74355 Bohr) occupying 0.615665 of unit cell:	Completed after 18 iterations at t[s]:   5265.85
SCF: Cycle: 85   G: -2116.580974907709788   dG: +6.552e-05   |Residual|: 3.782e-04   |deigs|: 1.040e-04  t[s]:   5267.48
	Linear fluid (dielectric constant: 78.4, screening length: 5.74355 Bohr) occupying 0.615659 of unit cell:	Completed after 18 iterations at t[s]:   5269.46
	FillingsUpdate:  mu: -0.171251800  nElectrons: 511.592179
	Linear fluid (dielectric constant: 78.4, screening length: 5.74355 Bohr) occupying 0.615660 of unit cell:	Completed after 17 iterations at t[s]:   5314.48
SCF: Cycle: 86   G: -2116.581035649996466   dG: -6.074e-05   |Residual|: 1.342e-04   |deigs|: 1.074e-04  t[s]:   5315.72
	Linear fluid (dielectric constant: 78.4, screening length: 5.74355 Bohr) occupying 0.615659 of unit cell:	Completed after 18 iterations at t[s]:   5317.73
	FillingsUpdate:  mu: -0.171251800  nElectrons: 511.593524
	Linear fluid (dielectric constant: 78.4, screening length: 5.74355 Bohr) occupying 0.615660 of unit cell:	Completed after 13 iterations at t[s]:   5360.88
SCF: Cycle: 87   G: -2116.581040016651514   dG: -4.367e-06   |Residual|: 8.236e-05   |deigs|: 9.463e-06  t[s]:   5362.21
	Linear fluid (dielectric constant: 78.4, screening length: 5.74355 Bohr) occupying 0.615659 of unit cell:	Completed after 10 iterations at t[s]:   5363.52
	FillingsUpdate:  mu: -0.171251800  nElectrons: 511.630626
	Linear fluid (dielectric constant: 78.4, screening length: 5.74355 Bohr) occupying 0.615669 of unit cell:	Completed after 18 iterations at t[s]:   5412.81
SCF: Cycle: 88   G: -2116.580666763175486   dG: +3.733e-04   |Residual|: 6.310e-04   |deigs|: 2.030e-04  t[s]:   5414.17
	Linear fluid (dielectric constant: 78.4, screening length: 5.74355 Bohr) occupying 0.615659 of unit cell:	Completed after 17 iterations at t[s]:   5416.02
	FillingsUpdate:  mu: -0.171251800  nElectrons: 511.592467
	Linear fluid (dielectric constant: 78.4, screening length: 5.74355 Bohr) occupying 0.615660 of unit cell:	Completed after 12 iterations at t[s]:   5463.12
SCF: Cycle: 89   G: -2116.581040362206750   dG: -3.736e-04   |Residual|: 6.516e-05   |deigs|: 2.063e-04  t[s]:   5464.46
	Linear fluid (dielectric constant: 78.4, screening length: 5.74355 Bohr) occupying 0.615659 of unit cell:	Completed after 11 iterations at t[s]:   5465.79
	FillingsUpdate:  mu: -0.171251800  nElectrons: 511.617701
	Linear fluid (dielectric constant: 78.4, screening length: 5.74355 Bohr) occupying 0.615666 of unit cell:	Completed after 14 iterations at t[s]:   5510.11
SCF: Cycle: 90   G: -2116.580931681231050   dG: +1.087e-04   |Residual|: 3.641e-04   |deigs|: 1.295e-04  t[s]:   5511.52
	Linear fluid (dielectric constant: 78.4, screening length: 5.74355 Bohr) occupying 0.615659 of unit cell:	Completed after 13 iterations at t[s]:   5513.06
	FillingsUpdate:  mu: -0.171251800  nElectrons: 511.592336
	Linear fluid (dielectric constant: 78.4, screening length: 5.74355 Bohr) occupying 0.615659 of unit cell:	Completed after 4 iterations at t[s]:   5560.41
SCF: Cycle: 91   G: -2116.581040047793977   dG: -1.084e-04   |Residual|: 1.571e-04   |deigs|: 1.279e-04  t[s]:   5561.77
	Linear fluid (dielectric constant: 78.4, screening length: 5.74355 Bohr) occupying 0.615659 of unit cell:	Completed after 3 iterations at t[s]:   5562.55
	FillingsUpdate:  mu: -0.171251800  nElectrons: 511.587871
	Linear fluid (dielectric constant: 78.4, screening length: 5.74355 Bohr) occupying 0.615659 of unit cell:	Completed after 14 iterations at t[s]:   5610.87
SCF: Cycle: 92   G: -2116.581027781337525   dG: +1.227e-05   |Residual|: 1.470e-04   |deigs|: 3.080e-05  t[s]:   5612.34
	Linear fluid (dielectric constant: 78.4, screening length: 5.74355 Bohr) occupying 0.615660 of unit cell:	Completed after 15 iterations at t[s]:   5613.99
	FillingsUpdate:  mu: -0.171251800  nElectrons: 511.593689
	Linear fluid (dielectric constant: 78.4, screening length: 5.74355 Bohr) occupying 0.615660 of unit cell:	Completed after 16 iterations at t[s]:   5658.35
SCF: Cycle: 93   G: -2116.581038227744557   dG: -1.045e-05   |Residual|: 1.410e-04   |deigs|: 3.241e-05  t[s]:   5659.72
	Linear fluid (dielectric constant: 78.4, screening length: 5.74355 Bohr) occupying 0.615659 of unit cell:	Completed after 16 iterations at t[s]:   5661.46
	FillingsUpdate:  mu: -0.171251800  nElectrons: 511.601537
	Linear fluid (dielectric constant: 78.4, screening length: 5.74355 Bohr) occupying 0.615662 of unit cell:	Completed after 14 iterations at t[s]:   5705.49
SCF: Cycle: 94   G: -2116.581031482518028   dG: +6.745e-06   |Residual|: 1.281e-04   |deigs|: 4.100e-05  t[s]:   5706.76
	Linear fluid (dielectric constant: 78.4, screening length: 5.74355 Bohr) occupying 0.615659 of unit cell:	Completed after 13 iterations at t[s]:   5708.30
	FillingsUpdate:  mu: -0.171251800  nElectrons: 511.588731
	Linear fluid (dielectric constant: 78.4, screening length: 5.74355 Bohr) occupying 0.615660 of unit cell:	Completed after 19 iterations at t[s]:   5757.46
SCF: Cycle: 95   G: -2116.581004462432247   dG: +2.702e-05   |Residual|: 2.944e-04   |deigs|: 7.412e-05  t[s]:   5758.87
	Linear fluid (dielectric constant: 78.4, screening length: 5.74355 Bohr) occupying 0.615659 of unit cell:	Completed after 18 iterations at t[s]:   5760.80
	FillingsUpdate:  mu: -0.171251800  nElectrons: 511.593437
	Linear fluid (dielectric constant: 78.4, screening length: 5.74355 Bohr) occupying 0.615660 of unit cell:	Completed after 14 iterations at t[s]:   5808.24
SCF: Cycle: 96   G: -2116.581039961630267   dG: -3.550e-05   |Residual|: 8.100e-05   |deigs|: 3.411e-05  t[s]:   5809.66
	Linear fluid (dielectric constant: 78.4, screening length: 5.74355 Bohr) occupying 0.615660 of unit cell:	Completed after 14 iterations at t[s]:   5811.29
	FillingsUpdate:  mu: -0.171251800  nElectrons: 511.603343
	Linear fluid (dielectric constant: 78.4, screening length: 5.74355 Bohr) occupying 0.615662 of unit cell:	Completed after 13 iterations at t[s]:   5856.35
SCF: Cycle: 97   G: -2116.581023660532537   dG: +1.630e-05   |Residual|: 1.214e-04   |deigs|: 5.377e-05  t[s]:   5857.65
	Linear fluid (dielectric constant: 78.4, screening length: 5.74355 Bohr) occupying 0.615660 of unit cell:	Completed after 15 iterations at t[s]:   5859.32
	FillingsUpdate:  mu: -0.171251800  nElectrons: 511.591546
	Linear fluid (dielectric constant: 78.4, screening length: 5.74355 Bohr) occupying 0.615659 of unit cell:	Completed after 8 iterations at t[s]:   5903.76
SCF: Cycle: 98   G: -2116.581040542436313   dG: -1.688e-05   |Residual|: 8.820e-05   |deigs|: 6.003e-05  t[s]:   5905.18
	Linear fluid (dielectric constant: 78.4, screening length: 5.74355 Bohr) occupying 0.615660 of unit cell:	Completed after 4 iterations at t[s]:   5906.00
	FillingsUpdate:  mu: -0.171251800  nElectrons: 511.617343
	Linear fluid (dielectric constant: 78.4, screening length: 5.74355 Bohr) occupying 0.615666 of unit cell:	Completed after 14 iterations at t[s]:   5953.57
SCF: Cycle: 99   G: -2116.580920323047849   dG: +1.202e-04   |Residual|: 3.681e-04   |deigs|: 1.357e-04  t[s]:   5954.85
	Linear fluid (dielectric constant: 78.4, screening length: 5.74355 Bohr) occupying 0.615660 of unit cell:	Completed after 17 iterations at t[s]:   5956.70
	FillingsUpdate:  mu: -0.171251800  nElectrons: 511.592142
	Linear fluid (dielectric constant: 78.4, screening length: 5.74355 Bohr) occupying 0.615660 of unit cell:	Completed after 3 iterations at t[s]:   6003.36
SCF: Cycle: 100   G: -2116.581040870582910   dG: -1.205e-04   |Residual|: 9.554e-05   |deigs|: 1.317e-04  t[s]:   6004.67
	Linear fluid (dielectric constant: 78.4, screening length: 5.74355 Bohr) occupying 0.615660 of unit cell:	Completed after 3 iterations at t[s]:   6005.42
	FillingsUpdate:  mu: -0.171251800  nElectrons: 511.597893
	Linear fluid (dielectric constant: 78.4, screening length: 5.74355 Bohr) occupying 0.615661 of unit cell:	Completed after 11 iterations at t[s]:   6050.14
SCF: Cycle: 101   G: -2116.581037895203735   dG: +2.975e-06   |Residual|: 6.911e-05   |deigs|: 2.880e-05  t[s]:   6051.55
	Linear fluid (dielectric constant: 78.4, screening length: 5.74355 Bohr) occupying 0.615660 of unit cell:	Completed after 10 iterations at t[s]:   6052.84
	FillingsUpdate:  mu: -0.171251800  nElectrons: 511.590003
	Linear fluid (dielectric constant: 78.4, screening length: 5.74355 Bohr) occupying 0.615660 of unit cell:	Completed after 18 iterations at t[s]:   6102.07
SCF: Cycle: 102   G: -2116.581023487332459   dG: +1.441e-05   |Residual|: 2.160e-04   |deigs|: 4.757e-05  t[s]:   6103.42
	Linear fluid (dielectric constant: 78.4, screening length: 5.74355 Bohr) occupying 0.615660 of unit cell:	Completed after 18 iterations at t[s]:   6105.35
	FillingsUpdate:  mu: -0.171251800  nElectrons: 511.593588
	Linear fluid (dielectric constant: 78.4, screening length: 5.74355 Bohr) occupying 0.615660 of unit cell:	Completed after 14 iterations at t[s]:   6151.46
SCF: Cycle: 103   G: -2116.581039767226684   dG: -1.628e-05   |Residual|: 9.260e-05   |deigs|: 2.318e-05  t[s]:   6152.74
	Linear fluid (dielectric constant: 78.4, screening length: 5.74355 Bohr) occupying 0.615660 of unit cell:	Completed after 14 iterations at t[s]:   6154.33
	FillingsUpdate:  mu: -0.171251800  nElectrons: 511.609427
	Linear fluid (dielectric constant: 78.4, screening length: 5.74355 Bohr) occupying 0.615664 of unit cell:	Completed after 15 iterations at t[s]:   6201.99
SCF: Cycle: 104   G: -2116.580991594098123   dG: +4.817e-05   |Residual|: 2.051e-04   |deigs|: 8.429e-05  t[s]:   6203.41
	Linear fluid (dielectric constant: 78.4, screening length: 5.74355 Bohr) occupying 0.615660 of unit cell:	Completed after 14 iterations at t[s]:   6205.02
	FillingsUpdate:  mu: -0.171251800  nElectrons: 511.590799
	Linear fluid (dielectric constant: 78.4, screening length: 5.74355 Bohr) occupying 0.615658 of unit cell:	Completed after 8 iterations at t[s]:   6252.24
SCF: Cycle: 105   G: -2116.581038361508945   dG: -4.677e-05   |Residual|: 1.789e-04   |deigs|: 9.466e-05  t[s]:   6253.48
	Linear fluid (dielectric constant: 78.4, screening length: 5.74355 Bohr) occupying 0.615660 of unit cell:	Completed after 7 iterations at t[s]:   6254.52
	FillingsUpdate:  mu: -0.171251800  nElectrons: 511.604776
	Linear fluid (dielectric constant: 78.4, screening length: 5.74355 Bohr) occupying 0.615663 of unit cell:	Completed after 13 iterations at t[s]:   6301.55
SCF: Cycle: 106   G: -2116.581017937722208   dG: +2.042e-05   |Residual|: 1.555e-04   |deigs|: 7.090e-05  t[s]:   6303.00
	Linear fluid (dielectric constant: 78.4, screening length: 5.74355 Bohr) occupying 0.615660 of unit cell:	Completed after 14 iterations at t[s]:   6304.61
	FillingsUpdate:  mu: -0.171251800  nElectrons: 511.592022
	Linear fluid (dielectric constant: 78.4, screening length: 5.74355 Bohr) occupying 0.615659 of unit cell:	Completed after 7 iterations at t[s]:   6349.99
SCF: Cycle: 107   G: -2116.581040447741998   dG: -2.251e-05   |Residual|: 1.042e-04   |deigs|: 6.326e-05  t[s]:   6351.49
	Linear fluid (dielectric constant: 78.4, screening length: 5.74355 Bohr) occupying 0.615660 of unit cell:	Completed after 6 iterations at t[s]:   6352.47
	FillingsUpdate:  mu: -0.171251800  nElectrons: 511.582937
	Linear fluid (dielectric constant: 78.4, screening length: 5.74355 Bohr) occupying 0.615659 of unit cell:	Completed after 18 iterations at t[s]:   6400.94
SCF: Cycle: 108   G: -2116.580973725569038   dG: +6.672e-05   |Residual|: 3.422e-04   |deigs|: 6.307e-05  t[s]:   6402.43
	Linear fluid (dielectric constant: 78.4, screening length: 5.74355 Bohr) occupying 0.615660 of unit cell:	Completed after 18 iterations at t[s]:   6404.51
	FillingsUpdate:  mu: -0.171251800  nElectrons: 511.592601
	Linear fluid (dielectric constant: 78.4, screening length: 5.74355 Bohr) occupying 0.615660 of unit cell:	Completed after 14 iterations at t[s]:   6451.96
SCF: Cycle: 109   G: -2116.581039826562574   dG: -6.610e-05   |Residual|: 1.044e-04   |deigs|: 5.779e-05  t[s]:   6453.22
	Linear fluid (dielectric constant: 78.4, screening length: 5.74355 Bohr) occupying 0.615660 of unit cell:	Completed after 15 iterations at t[s]:   6454.92
	FillingsUpdate:  mu: -0.171251800  nElectrons: 511.599507
	Linear fluid (dielectric constant: 78.4, screening length: 5.74355 Bohr) occupying 0.615662 of unit cell:	Completed after 16 iterations at t[s]:   6500.15
SCF: Cycle: 110   G: -2116.581038229767273   dG: +1.597e-06   |Residual|: 1.109e-04   |deigs|: 3.430e-05  t[s]:   6501.55
	Linear fluid (dielectric constant: 78.4, screening length: 5.74355 Bohr) occupying 0.615660 of unit cell:	Completed after 15 iterations at t[s]:   6503.23
	FillingsUpdate:  mu: -0.171251800  nElectrons: 511.585130
	Linear fluid (dielectric constant: 78.4, screening length: 5.74355 Bohr) occupying 0.615659 of unit cell:	Completed after 15 iterations at t[s]:   6552.70
SCF: Cycle: 111   G: -2116.580996487202810   dG: +4.174e-05   |Residual|: 2.871e-04   |deigs|: 7.766e-05  t[s]:   6554.11
	Linear fluid (dielectric constant: 78.4, screening length: 5.74355 Bohr) occupying 0.615660 of unit cell:	Completed after 16 iterations at t[s]:   6555.89
	FillingsUpdate:  mu: -0.171251800  nElectrons: 511.592956
	Linear fluid (dielectric constant: 78.4, screening length: 5.74355 Bohr) occupying 0.615660 of unit cell:	Completed after 12 iterations at t[s]:   6599.26
SCF: Cycle: 112   G: -2116.581040289028806   dG: -4.380e-05   |Residual|: 7.393e-05   |deigs|: 4.786e-05  t[s]:   6600.62
	Linear fluid (dielectric constant: 78.4, screening length: 5.74355 Bohr) occupying 0.615660 of unit cell:	Completed after 12 iterations at t[s]:   6602.11
	FillingsUpdate:  mu: -0.171251800  nElectrons: 511.618555
	Linear fluid (dielectric constant: 78.4, screening length: 5.74355 Bohr) occupying 0.615666 of unit cell:	Completed after 16 iterations at t[s]:   6649.56
SCF: Cycle: 113   G: -2116.580904952681976   dG: +1.353e-04   |Residual|: 3.853e-04   |deigs|: 1.338e-04  t[s]:   6650.83
	Linear fluid (dielectric constant: 78.4, screening length: 5.74355 Bohr) occupying 0.615660 of unit cell:	Completed after 17 iterations at t[s]:   6652.66
	FillingsUpdate:  mu: -0.171251800  nElectrons: 511.592219
	Linear fluid (dielectric constant: 78.4, screening length: 5.74355 Bohr) occupying 0.615659 of unit cell:	Completed after 5 iterations at t[s]:   6696.55
SCF: Cycle: 114   G: -2116.581040897646290   dG: -1.359e-04   |Residual|: 5.503e-05   |deigs|: 1.363e-04  t[s]:   6697.77
	Linear fluid (dielectric constant: 78.4, screening length: 5.74355 Bohr) occupying 0.615660 of unit cell:	Completed after 3 iterations at t[s]:   6698.52
	FillingsUpdate:  mu: -0.171251800  nElectrons: 511.592755
	Linear fluid (dielectric constant: 78.4, screening length: 5.74355 Bohr) occupying 0.615661 of unit cell:	Completed after 17 iterations at t[s]:   6746.44
SCF: Cycle: 115   G: -2116.581027416545567   dG: +1.348e-05   |Residual|: 2.513e-04   |deigs|: 2.915e-05  t[s]:   6747.65
	Linear fluid (dielectric constant: 78.4, screening length: 5.74355 Bohr) occupying 0.615660 of unit cell:	Completed after 18 iterations at t[s]:   6749.59
	FillingsUpdate:  mu: -0.171251800  nElectrons: 511.593989
	Linear fluid (dielectric constant: 78.4, screening length: 5.74355 Bohr) occupying 0.615660 of unit cell:	Completed after 8 iterations at t[s]:   6797.40
SCF: Cycle: 116   G: -2116.581040265601587   dG: -1.285e-05   |Residual|: 1.023e-04   |deigs|: 1.768e-05  t[s]:   6798.92
	Linear fluid (dielectric constant: 78.4, screening length: 5.74355 Bohr) occupying 0.615660 of unit cell:	Completed after 4 iterations at t[s]:   6799.76
	FillingsUpdate:  mu: -0.171251800  nElectrons: 511.617689
	Linear fluid (dielectric constant: 78.4, screening length: 5.74355 Bohr) occupying 0.615664 of unit cell:	Completed after 16 iterations at t[s]:   6847.58
SCF: Cycle: 117   G: -2116.580769615172358   dG: +2.707e-04   |Residual|: 6.244e-04   |deigs|: 1.425e-04  t[s]:   6848.91
	Linear fluid (dielectric constant: 78.4, screening length: 5.74355 Bohr) occupying 0.615660 of unit cell:	Completed after 18 iterations at t[s]:   6850.82
	FillingsUpdate:  mu: -0.171251800  nElectrons: 511.592308
	Linear fluid (dielectric constant: 78.4, screening length: 5.74355 Bohr) occupying 0.615660 of unit cell:	Completed after 12 iterations at t[s]:   6899.10
SCF: Cycle: 118   G: -2116.581040436733929   dG: -2.708e-04   |Residual|: 3.602e-05   |deigs|: 1.492e-04  t[s]:   6900.35
	Linear fluid (dielectric constant: 78.4, screening length: 5.74355 Bohr) occupying 0.615660 of unit cell:	Completed after 12 iterations at t[s]:   6901.86
	FillingsUpdate:  mu: -0.171251800  nElectrons: 511.602339
	Linear fluid (dielectric constant: 78.4, screening length: 5.74355 Bohr) occupying 0.615662 of unit cell:	Completed after 13 iterations at t[s]:   6947.45
SCF: Cycle: 119   G: -2116.581030534883212   dG: +9.902e-06   |Residual|: 1.242e-04   |deigs|: 5.155e-05  t[s]:   6948.87
	Linear fluid (dielectric constant: 78.4, screening length: 5.74355 Bohr) occupying 0.615660 of unit cell:	Completed after 15 iterations at t[s]:   6950.57
	FillingsUpdate:  mu: -0.171251800  nElectrons: 511.589937
	Linear fluid (dielectric constant: 78.4, screening length: 5.74355 Bohr) occupying 0.615660 of unit cell:	Completed after 18 iterations at t[s]:   6998.10
SCF: Cycle: 120   G: -2116.581017717938721   dG: +1.282e-05   |Residual|: 2.436e-04   |deigs|: 7.037e-05  t[s]:   6999.42
	Linear fluid (dielectric constant: 78.4, screening length: 5.74355 Bohr) occupying 0.615660 of unit cell:	Completed after 18 iterations at t[s]:   7001.29
	FillingsUpdate:  mu: -0.171251800  nElectrons: 511.593168
	Linear fluid (dielectric constant: 78.4, screening length: 5.74355 Bohr) occupying 0.615660 of unit cell:	Completed after 14 iterations at t[s]:   7047.05
SCF: Cycle: 121   G: -2116.581040023564128   dG: -2.231e-05   |Residual|: 7.737e-05   |deigs|: 2.465e-05  t[s]:   7048.31
	Linear fluid (dielectric constant: 78.4, screening length: 5.74355 Bohr) occupying 0.615660 of unit cell:	Completed after 14 iterations at t[s]:   7049.91
	FillingsUpdate:  mu: -0.171251800  nElectrons: 511.601656
	Linear fluid (dielectric constant: 78.4, screening length: 5.74355 Bohr) occupying 0.615662 of unit cell:	Completed after 12 iterations at t[s]:   7095.75
SCF: Cycle: 122   G: -2116.581032252368004   dG: +7.771e-06   |Residual|: 1.032e-04   |deigs|: 4.438e-05  t[s]:   7097.11
	Linear fluid (dielectric constant: 78.4, screening length: 5.74355 Bohr) occupying 0.615660 of unit cell:	Completed after 11 iterations at t[s]:   7098.46
	FillingsUpdate:  mu: -0.171251800  nElectrons: 511.587460
[...]
       Positions in reference frame:
         [ +0.000000 +0.000000 +0.000000 ]
     Initializing site 'H'
       Electron density: proportional to exp(-r/0.34641)*erfc((r-0)/0.390882) with norm 0.587
       Charge density: gaussian nuclear width 0.377945 with net site charge -0.413
       Polarizability: cuspless exponential with width 0.39 and norm 3.3
       Positions in reference frame:
         [ +0.000000 -1.441945 +1.122523 ]
         [ +0.000000 +1.441945 +1.122523 ]
     Net charge: 0   dipole magnitude: 0.927204
     Initializing spherical shell mfKernel with radius 2.61727 Bohr
     deltaS corrections:
       site 'O': -7.54299
       site 'H': -6.83917
   Initializing fluid molecule 'Na+'
     Initializing site 'Na'
       Electron density: proportional to exp(-r/0.19682)*erfc((r-0.71491)/0.41314) with norm 8.1383
       Charge density: gaussian nuclear width 0.365347 with net site charge -1
       Hard sphere radius: 1.86327 bohrs
       Positions in reference frame:
         [ +0.000000 +0.000000 +0.000000 ]
     Net charge: -1   dipole magnitude: 0
     Initializing gaussian mfKernel with width: 1.55004 Bohr
     deltaS corrections:
       site 'Na': -22.3555
   Initializing fluid molecule 'F-'
     Initializing site 'F'
       Electron density: proportional to exp(-r/0.38886)*erfc((r-0)/0.438782) with norm 8
       Charge density: gaussian nuclear width 0.374796 with net site charge 1
       Hard sphere radius: 2.39995 bohrs
       Positions in reference frame:
         [ +0.000000 +0.000000 +0.000000 ]
     Net charge: 1   dipole magnitude: 0
     Initializing gaussian mfKernel with width: 1.59012 Bohr
     deltaS corrections:
       site 'F': -9.04335

Correction to mu due to finite nuclear width = -0.0159842
   Cavity determined by nc: 0.00142 and sigma: 0.707107
   Nonlocal vdW cavity from gaussian model electron density with norm = 8 and sigma = 0.993594 bohr
   Charge asymmetry in cavity with sensitivity pCavity = 36.5 e-bohr/Eh
   Electrostatic cavity expanded by eta = 1.46 bohrs
   Weighted density cavitation model constrained by Nbulk: 0.0049383 bohr^-3, Pvap: 3.14029 kPa, Rvdw: 2.61727 bohr and sigmaBulk: 4.62e-05 Eh/bohr^2 at T: 298 K.
   Weighted density dispersion model using vdW pair potentials with single solvent site with sqrtC6eff: 0.77 SI.
Reading fluid state from 'NbTe2.fluidState'


---- Citations for features of the code used in this run ----

   Software package:
      R. Sundararaman, K. Letchworth-Weaver, K.A. Schwarz, D. Gunceler, Y. Ozhabes and T.A. Arias, 'JDFTx: software for joint density-functional theory', SoftwareX 6, 278 (2017)

   gga-PBE exchange-correlation functional:
      J.P. Perdew, K. Burke and M. Ernzerhof, Phys. Rev. Lett. 77, 3865 (1996)

   Pseudopotentials:
      KF Garrity, JW Bennett, KM Rabe and D Vanderbilt, Comput. Mater. Sci. 81, 446 (2014)

   Truncated Coulomb potentials:
      R. Sundararaman and T.A. Arias, Phys. Rev. B 87, 165122 (2013)

   Van der Waals correction pair-potentials:
      S. Grimme, J. Comput. Chem. 27, 1787 (2006)

   Charge-asymmetric nonlocally-determined local-electric (CANDLE) solvation model:
      R. Sundararaman and W.A. Goddard III, J. Chem. Phys. 142, 064107 (2015)

   Total energy minimization with Auxiliary Hamiltonian:
      C. Freysoldt, S. Boeck, and J. Neugebauer, Phys. Rev. B 79, 241103(R) (2009)

   Grand-canonical (fixed-potential) DFT:
      R. Sundararaman, W. A. Goddard III and T. A. Arias, J. Chem. Phys. 146, 114104 (2017)

This list may not be complete. Please suggest additional citations or
report any other bugs at https://github.com/shankar1729/jdftx/issues

Initialization completed successfully at t[s]:     34.43

Shifting auxilliary hamiltonian by 0.000000 to set nElectrons=511.591794
	Linear fluid (dielectric constant: 78.4, screening length: 5.74355 Bohr) occupying 0.615660 of unit cell:	Completed after 18 iterations at t[s]:     44.25

-------- Electronic minimization -----------
	Linear fluid (dielectric constant: 78.4, screening length: 5.74355 Bohr) occupying 0.615660 of unit cell:	Completed after 0 iterations at t[s]:     53.53
	FillingsUpdate:  mu: -0.171251800  nElectrons: 511.591794
ElecMinimize: Iter:   0  G: -2116.581021003385558  |grad|_K:  3.627e-06  alpha:  1.000e+00
	Linear fluid (dielectric constant: 78.4, screening length: 5.74355 Bohr) occupying 0.615756 of unit cell:	Completed after 24 iterations at t[s]:     94.40
	Linear fluid (dielectric constant: 78.4, screening length: 5.74355 Bohr) occupying 0.615662 of unit cell:	Completed after 24 iterations at t[s]:    111.45
	FillingsUpdate:  mu: -0.171251800  nElectrons: 511.598836
	SubspaceRotationAdjust: set factor to 0.389
ElecMinimize: Iter:   1  G: -2116.581038537329732  |grad|_K:  7.433e-07  alpha:  1.310e-02  linmin:  1.844e-02  t[s]:    130.79
	Linear fluid (dielectric constant: 78.4, screening length: 5.74355 Bohr) occupying 0.615661 of unit cell:	Completed after 9 iterations at t[s]:    149.00
	Linear fluid (dielectric constant: 78.4, screening length: 5.74355 Bohr) occupying 0.615661 of unit cell:	Completed after 9 iterations at t[s]:    164.60
	FillingsUpdate:  mu: -0.171251800  nElectrons: 511.595325
	SubspaceRotationAdjust: set factor to 0.2
ElecMinimize: Iter:   2  G: -2116.581040123110597  |grad|_K:  2.972e-07  alpha:  2.896e-02  linmin:  9.558e-04  t[s]:    201.88
	Linear fluid (dielectric constant: 78.4, screening length: 5.74355 Bohr) occupying 0.615661 of unit cell:	Completed after 1 iterations at t[s]:    231.65
ElecMinimize: 	Predicted alpha/alphaT>3.000000, increasing alphaT to 8.687381e-02.
	Linear fluid (dielectric constant: 78.4, screening length: 5.74355 Bohr) occupying 0.615661 of unit cell:	Completed after 8 iterations at t[s]:    248.89
	Linear fluid (dielectric constant: 78.4, screening length: 5.74355 Bohr) occupying 0.615661 of unit cell:	Completed after 0 iterations at t[s]:    267.80
	FillingsUpdate:  mu: -0.171251800  nElectrons: 511.594779
	SubspaceRotationAdjust: set factor to 0.132
	SubspaceRotationAdjust: resetting CG because factor has changed by 0.131613
	Linear fluid (dielectric constant: 78.4, screening length: 5.74355 Bohr) occupying 0.615661 of unit cell:	Completed after 0 iterations at t[s]:    302.24
ElecMinimize: 	State modified externally: resetting search direction.
ElecMinimize: Iter:   3  G: -2116.581041107003330  |grad|_K:  5.053e-08  alpha:  9.813e-02
	Linear fluid (dielectric constant: 78.4, screening length: 5.74355 Bohr) occupying 0.615661 of unit cell:	Completed after 0 iterations at t[s]:    348.40
	Linear fluid (dielectric constant: 78.4, screening length: 5.74355 Bohr) occupying 0.615661 of unit cell:	Completed after 2 iterations at t[s]:    371.99
	FillingsUpdate:  mu: -0.171251800  nElectrons: 511.594580
	SubspaceRotationAdjust: set factor to 0.049
ElecMinimize: Iter:   4  G: -2116.581041180992997  |grad|_K:  3.172e-08  alpha:  2.616e-01  linmin: -3.623e-02  t[s]:    398.17
	Linear fluid (dielectric constant: 78.4, screening length: 5.74355 Bohr) occupying 0.615661 of unit cell:	Completed after 0 iterations at t[s]:    419.05
ElecMinimize: 	Predicted alpha/alphaT>3.000000, increasing alphaT to 7.848593e-01.
	Linear fluid (dielectric constant: 78.4, screening length: 5.74355 Bohr) occupying 0.615660 of unit cell:	Completed after 3 iterations at t[s]:    442.69
	Linear fluid (dielectric constant: 78.4, screening length: 5.74355 Bohr) occupying 0.615661 of unit cell:	Completed after 2 iterations at t[s]:    467.44
	FillingsUpdate:  mu: -0.171251800  nElectrons: 511.593982
	SubspaceRotationAdjust: set factor to 0.0264
ElecMinimize: Iter:   5  G: -2116.581041245980941  |grad|_K:  1.994e-08  alpha:  3.508e-01  linmin:  1.065e-02  t[s]:    494.27
	Linear fluid (dielectric constant: 78.4, screening length: 5.74355 Bohr) occupying 0.615660 of unit cell:	Completed after 0 iterations at t[s]:    519.02
ElecMinimize: 	Predicted alpha/alphaT>3.000000, increasing alphaT to 1.052411e+00.
	Linear fluid (dielectric constant: 78.4, screening length: 5.74355 Bohr) occupying 0.615660 of unit cell:	Completed after 3 iterations at t[s]:    543.39
	Linear fluid (dielectric constant: 78.4, screening length: 5.74355 Bohr) occupying 0.615660 of unit cell:	Completed after 0 iterations at t[s]:    566.94
	FillingsUpdate:  mu: -0.171251800  nElectrons: 511.593718
	SubspaceRotationAdjust: set factor to 0.0393
ElecMinimize: Iter:   6  G: -2116.581041271167578  |grad|_K:  1.776e-08  alpha:  3.562e-01  linmin:  1.386e-02  t[s]:    591.76
	Linear fluid (dielectric constant: 78.4, screening length: 5.74355 Bohr) occupying 0.615660 of unit cell:	Completed after 0 iterations at t[s]:    611.12
	Linear fluid (dielectric constant: 78.4, screening length: 5.74355 Bohr) occupying 0.615660 of unit cell:	Completed after 0 iterations at t[s]:    632.63
	FillingsUpdate:  mu: -0.171251800  nElectrons: 511.593393
	SubspaceRotationAdjust: set factor to 0.0384
ElecMinimize: Iter:   7  G: -2116.581041279836882  |grad|_K:  1.665e-08  alpha:  7.417e-01  linmin:  2.785e-04  t[s]:    659.54
	Linear fluid (dielectric constant: 78.4, screening length: 5.74355 Bohr) occupying 0.615659 of unit cell:	Completed after 0 iterations at t[s]:    681.38
	Linear fluid (dielectric constant: 78.4, screening length: 5.74355 Bohr) occupying 0.615659 of unit cell:	Completed after 2 iterations at t[s]:    702.43
ElecMinimize: 	Step increased G by 1.187796e-07, reducing alpha to 1.313408e-01.
	Linear fluid (dielectric constant: 78.4, screening length: 5.74355 Bohr) occupying 0.615660 of unit cell:	Completed after 1 iterations at t[s]:    746.22
	FillingsUpdate:  mu: -0.171251800  nElectrons: 511.593373
	SubspaceRotationAdjust: set factor to 0.0326
ElecMinimize: Iter:   8  G: -2116.581041282940078  |grad|_K:  1.766e-08  alpha:  1.313e-01  linmin:  2.027e-02  t[s]:    774.53
ElecMinimize: Converged (|Delta G|<1.000000e-08 for 2 iters).
Setting wave functions to eigenvectors of Hamiltonian

# Ionic positions in lattice coordinates:
ion Ge   0.000000000833333  -0.000000003166666   0.500000666933333 0
ion Ge   0.166666667500000   0.333333330166667   0.679353218660641 0
ion Ge   0.333333334166667   0.166666663500000   0.589455904399701 0
ion Ge   0.333333334166667   0.166666663500000   0.320648115206025 0
ion Ge   0.166666667500000   0.333333330166667   0.410545429466965 0
ion Ge   0.500000000833333  -0.000000003166666   0.500000666933333 0
ion Ge   0.666666667500000   0.333333330166667   0.679353218660641 0
ion Ge   0.833333334166667   0.166666663500000   0.589455904399701 0
ion Ge   0.833333334166667   0.166666663500000   0.320648115206025 0
ion Ge   0.666666667500000   0.333333330166667   0.410545429466965 0
ion Ge   1.000000000833333   0.499999996833334   0.500000666933333 0
ion Ge   0.166666667500000   0.833333330166667   0.679353218660641 0
ion Ge   0.333333334166667   0.666666663500000   0.589455904399701 0
ion Ge   0.333333334166667   0.666666663500000   0.320648115206025 0
ion Ge   0.166666667500000   0.833333330166667   0.410545429466965 0
ion Ge   0.500000000833333   0.499999996833334   0.500000666933333 0
ion Ge   0.666666667500000   0.833333330166667   0.679353218660641 0
ion Ge   0.833333334166667   0.666666663500000   0.589455904399701 0
ion Ge   0.833333334166667   0.666666663500000   0.320648115206025 0
ion Ge   0.666666667500000   0.833333330166667   0.410545429466965 0
ion Te   0.333333334166667   0.166666663500000   0.722913237924481 0
ion Te   0.333333334166667   0.166666663500000   0.455502779356947 0
ion Te   0.166666667500000   0.333333330166667   0.277088095942184 0
ion Te   0.166666667500000   0.333333330166667   0.544498554509718 0
ion Te   0.000000000833333  -0.000000003166666   0.366283986461315 0
ion Te   0.000000000833333  -0.000000003166666   0.633717347405350 0
ion Te   0.333333334166667   0.166666663500000   0.190994967076186 0
ion Te   0.166666667500000   0.333333330166667   0.809006366790479 0
ion Te   0.833333334166667   0.166666663500000   0.722913237924481 0
ion Te   0.833333334166667   0.166666663500000   0.455502779356947 0
ion Te   0.666666667500000   0.333333330166667   0.277088095942184 0
ion Te   0.666666667500000   0.333333330166667   0.544498554509718 0
ion Te   0.500000000833333  -0.000000003166666   0.366283986461315 0
ion Te   0.500000000833333  -0.000000003166666   0.633717347405350 0
ion Te   0.833333334166667   0.166666663500000   0.190994967076186 0
ion Te   0.666666667500000   0.333333330166667   0.809006366790479 0
ion Te   0.333333334166667   0.666666663500000   0.722913237924481 0
ion Te   0.333333334166667   0.666666663500000   0.455502779356947 0
ion Te   0.166666667500000   0.833333330166667   0.277088095942184 0
ion Te   0.166666667500000   0.833333330166667   0.544498554509718 0
ion Te   1.000000000833333   0.499999996833334   0.366283986461315 0
ion Te   1.000000000833333   0.499999996833334   0.633717347405350 0
ion Te   0.333333334166667   0.666666663500000   0.190994967076186 0
ion Te   0.166666667500000   0.833333330166667   0.809006366790479 0
ion Te   0.833333334166667   0.666666663500000   0.722913237924481 0
ion Te   0.833333334166667   0.666666663500000   0.455502779356947 0
ion Te   0.666666667500000   0.833333330166667   0.277088095942184 0
ion Te   0.666666667500000   0.833333330166667   0.544498554509718 0
ion Te   0.500000000833333   0.499999996833334   0.366283986461315 0
ion Te   0.500000000833333   0.499999996833334   0.633717347405350 0
ion Te   0.833333334166667   0.666666663500000   0.190994967076186 0
ion Te   0.666666667500000   0.833333330166667   0.809006366790479 0
ion As   0.000000000833333  -0.000000003166666   0.229783414601629 0
ion As   0.000000000833333  -0.000000003166666   0.770217919265036 0
ion As   0.500000000833333  -0.000000003166666   0.229783414601629 0
ion As   0.500000000833333  -0.000000003166666   0.770217919265036 0
ion As   1.000000000833333   0.499999996833334   0.229783414601629 0
ion As   1.000000000833333   0.499999996833334   0.770217919265036 0
ion As   0.500000000833333   0.499999996833334   0.229783414601629 0
ion As   0.500000000833333   0.499999996833334   0.770217919265036 0


# Forces in Lattice coordinates:
force Ge  -0.000000000000000  -0.000000000000000  -0.000000000000000 0
force Ge  -0.000000000000000  -0.000000000000000   0.103852279734909 0
force Ge  -0.000000000000000   0.000000000000000   0.061966221505165 0
force Ge   0.000000000000000   0.000000000000000  -0.103852279733090 0
force Ge  -0.000000000000000   0.000000000000000  -0.061966221506074 0
force Ge   0.000000000000000   0.000000000000000   0.000000000000000 0
force Ge   0.000000000000000  -0.000000000000000   0.103852279735818 0
force Ge  -0.000000000000000   0.000000000000000   0.061966221505620 0
force Ge   0.000000000000000   0.000000000000000  -0.103852279734909 0
force Ge   0.000000000000000   0.000000000000000  -0.061966221506074 0
force Ge   0.000000000000000   0.000000000000000  -0.000000000000000 0
force Ge  -0.000000000000000  -0.000000000000000   0.103852279734909 0
force Ge   0.000000000000000   0.000000000000000   0.061966221505165 0
force Ge  -0.000000000000000   0.000000000000000  -0.103852279733999 0
force Ge   0.000000000000000   0.000000000000000  -0.061966221506074 0
force Ge  -0.000000000000000   0.000000000000000  -0.000000000000000 0
force Ge   0.000000000000000  -0.000000000000000   0.103852279735818 0
force Ge  -0.000000000000000   0.000000000000000   0.061966221505620 0
force Ge   0.000000000000000   0.000000000000000  -0.103852279732180 0
force Ge  -0.000000000000000   0.000000000000000  -0.061966221505619 0
force Te   0.000000000000000  -0.000000000000000  -0.153674994999287 0
force Te   0.000000000000000   0.000000000000000   0.020675392282594 0
force Te  -0.000000000000000  -0.000000000000000   0.153674994999287 0
force Te   0.000000000000000  -0.000000000000000  -0.020675392282708 0
force Te  -0.000000000000000   0.000000000000000   0.110690895024530 0
force Te  -0.000000000000000  -0.000000000000000  -0.110690895023621 0
force Te   0.000000000000000   0.000000000000000  -0.037307350471336 0
force Te   0.000000000000000  -0.000000000000000   0.037307350471337 0
force Te  -0.000000000000000  -0.000000000000000  -0.153674994998832 0
force Te   0.000000000000000   0.000000000000000   0.020675392282594 0
force Te   0.000000000000000  -0.000000000000000   0.153674994998832 0
force Te  -0.000000000000000  -0.000000000000000  -0.020675392282594 0
force Te  -0.000000000000000  -0.000000000000000   0.110690895024531 0
force Te   0.000000000000000   0.000000000000000  -0.110690895023621 0
force Te   0.000000000000000   0.000000000000000  -0.037307350472245 0
force Te   0.000000000000000   0.000000000000000   0.037307350472244 0
force Te  -0.000000000000000  -0.000000000000000  -0.153674994998832 0
force Te   0.000000000000000   0.000000000000000   0.020675392282594 0
force Te   0.000000000000000  -0.000000000000000   0.153674994998832 0
force Te  -0.000000000000000  -0.000000000000000  -0.020675392282708 0
force Te   0.000000000000000  -0.000000000000000   0.110690895024530 0
force Te  -0.000000000000000   0.000000000000000  -0.110690895024076 0
force Te   0.000000000000000   0.000000000000000  -0.037307350471337 0
force Te  -0.000000000000000   0.000000000000000   0.037307350472244 0
force Te  -0.000000000000000  -0.000000000000000  -0.153674994999287 0
force Te   0.000000000000000   0.000000000000000   0.020675392282594 0
force Te   0.000000000000000   0.000000000000000   0.153674994998832 0
force Te  -0.000000000000000   0.000000000000000  -0.020675392282708 0
force Te   0.000000000000000  -0.000000000000000   0.110690895024530 0
force Te   0.000000000000000  -0.000000000000000  -0.110690895023621 0
force Te  -0.000000000000000   0.000000000000000  -0.037307350471337 0
force Te  -0.000000000000000  -0.000000000000000   0.037307350473155 0
force As  -0.000000000000000  -0.000000000000000  -0.139225435469411 0
force As  -0.000000000000000  -0.000000000000000   0.139225435469412 0
force As   0.000000000000000  -0.000000000000000  -0.139225435469411 0
force As  -0.000000000000000   0.000000000000000   0.139225435468957 0
force As  -0.000000000000000  -0.000000000000000  -0.139225435469410 0
force As   0.000000000000000  -0.000000000000000   0.139225435468502 0
force As  -0.000000000000000  -0.000000000000000  -0.139225435468500 0
force As  -0.000000000000000  -0.000000000000000   0.139225435468957 0

# Energy components:
   A_diel =        0.0391983820294074
   Eewald =    45480.9959674288911629
       EH =    47455.1641059366738773
     Eloc =   -95131.9976128795242403
      Enl =      167.4659608856886734
      Exc =     -938.9617505976731309
 Exc_core =      517.4309263107043080
       KE =      245.6857698318805205
  MuShift =        0.0064996057010918
-------------------------------------
     Etot =    -2204.1709350956275557
       TS =        0.0213921524460766
-------------------------------------
        F =    -2204.1923272480735250
      muN =      -87.6112859651336606
-------------------------------------
        G =    -2116.5810412829400775

IonicMinimize: Iter:   0  G: -2116.581041282940078  |grad|_K:  0.000e+00  t[s]:    791.46
IonicMinimize: Converged (|grad|_K<1.000000e-04).

#--- Lowdin population analysis ---
# oxidation-state Ge -0.092 -0.097 -0.091 -0.097 -0.091 -0.092 -0.097 -0.091 -0.097 -0.091 -0.092 -0.097 -0.091 -0.097 -0.091 -0.092 -0.097 -0.091 -0.097 -0.091
# oxidation-state Te +0.081 +0.146 +0.081 +0.146 +0.141 +0.141 +0.105 +0.105 +0.081 +0.146 +0.081 +0.146 +0.141 +0.141 +0.105 +0.105 +0.081 +0.146 +0.081 +0.146 +0.141 +0.141 +0.105 +0.105 +0.081 +0.146 +0.081 +0.146 +0.141 +0.141 +0.105 +0.105
# oxidation-state As +0.040 +0.040 +0.040 +0.040 +0.040 +0.040 +0.040 +0.040


Dumping 'NbTe2.fillings' ... done
Dumping 'NbTe2.wfns' ... done
Dumping 'NbTe2.fluidState' ... done
Dumping 'NbTe2.eigenvals' ... done
End date and time: Sat Jul 11 07:55:21 2020  (Duration: 0-0:13:27.85)
Done!
