
*************** JDFTx 1.5.0  ***************

Start date and time: Fri Jan 22 13:46:01 2021
Executable jdftx_gpu with command-line: -i Charged.in -o Charged.out
Running on hosts (process indices):  amax (0-4)
Divided in process groups (process indices):  0 (0)  1 (1)  2 (2)  3 (3)  4 (4)
gpuInit: Found compatible cuda device 0 'Tesla K80'
gpuInit: Found compatible cuda device 1 'Tesla K80'
gpuInit: Found compatible cuda device 2 'Tesla K80'
gpuInit: Found compatible cuda device 3 'Tesla K80'
gpuInit: Found compatible cuda device 4 'Tesla K80'
gpuInit: Selected device 0
Resource initialization completed at t[s]:      2.55
Run totals: 5 processes, 24 threads, 5 GPUs


Input parsed successfully to the following command list (including defaults):

basis kpoint-dependent
cache-projectors no
coords-type Lattice
core-overlap-check none
coulomb-interaction Slab 001
coulomb-truncation-embed 0.5 0.5 0.5
davidson-band-ratio 1.1
dump End State
dump-name NbTe2.$VAR
elec-cutoff 20
elec-eigen-algo Davidson
elec-ex-corr gga-PBE
elec-initial-magnetization 50.000000 no
elec-smearing Gauss 0.0073499
electronic-minimize  \
	dirUpdateScheme      FletcherReeves \
	linminMethod         DirUpdateRecommended \
	nIterations          200 \
	history              15 \
	knormThreshold       0 \
	energyDiffThreshold  1e-08 \
	nEnergyDiff          2 \
	alphaTstart          1 \
	alphaTmin            1e-10 \
	updateTestStepSize   yes \
	alphaTreduceFactor   0.1 \
	alphaTincreaseFactor 3 \
	nAlphaAdjustMax      3 \
	wolfeEnergy          0.0001 \
	wolfeGradient        0.9 \
	fdTest               no
exchange-regularization WignerSeitzTruncated
fluid LinearPCM 298.000000 1.013250
fluid-anion F- 1 MeanFieldLJ \
	epsBulk 1 \
	pMol 0 \
	epsInf 1 \
	Pvap 0 \
	sigmaBulk 0 \
	Rvdw 2.24877 \
	Res 0 \
	tauNuc 343133
fluid-cation Na+ 1 MeanFieldLJ \
	epsBulk 1 \
	pMol 0 \
	epsInf 1 \
	Pvap 0 \
	sigmaBulk 0 \
	Rvdw 2.19208 \
	Res 0 \
	tauNuc 343133
fluid-ex-corr lda-TF lda-PZ
fluid-gummel-loop 10 1.000000e-05
fluid-minimize  \
	dirUpdateScheme      PolakRibiere \
	linminMethod         DirUpdateRecommended \
	nIterations          400 \
	history              15 \
	knormThreshold       1e-11 \
	energyDiffThreshold  0 \
	nEnergyDiff          2 \
	alphaTstart          1 \
	alphaTmin            1e-10 \
	updateTestStepSize   yes \
	alphaTreduceFactor   0.1 \
	alphaTincreaseFactor 3 \
	nAlphaAdjustMax      6 \
	wolfeEnergy          0.0001 \
	wolfeGradient        0.9 \
	fdTest               no
fluid-solvent H2O 55.338 ScalarEOS \
	epsBulk 78.4 \
	pMol 0.92466 \
	epsInf 1.77 \
	Pvap 1.06736e-10 \
	sigmaBulk 4.62e-05 \
	Rvdw 2.61727 \
	Res 1.42 \
	tauNuc 343133 \
	poleEl 15 7 1
forces-output-coords Positions
initial-state NbTe2.$VAR
ion Ti   0.166666003281320   0.083334013343679   0.564482119332833 1
ion Ti   0.083334012468679   0.166666004156321   0.435517880667167 1
ion Ti   0.416666003281320   0.083334013343679   0.564482119332833 1
ion Ti   0.333334012468679   0.166666004156321   0.435517880667167 1
ion Ti   0.666666003281320   0.083334013343679   0.564482119332833 1
ion Ti   0.583334012468679   0.166666004156321   0.435517880667167 1
ion Ti   0.916666003281320   0.083334013343679   0.564482119332833 1
ion Ti   0.833334012468679   0.166666004156321   0.435517880667167 1
ion Ti   0.166666003281320   0.333334013343679   0.564482119332833 1
ion Ti   0.083334012468679   0.416666004156321   0.435517880667167 1
ion Ti   0.416666003281320   0.333334013343679   0.564482119332833 1
ion Ti   0.333334012468679   0.416666004156321   0.435517880667167 1
ion Ti   0.666666003281320   0.333334013343679   0.564482119332833 1
ion Ti   0.583334012468679   0.416666004156321   0.435517880667167 1
ion Ti   0.916666003281320   0.333334013343679   0.564482119332833 1
ion Ti   0.833334012468679   0.416666004156321   0.435517880667167 1
ion Ti   0.166666003281320   0.583334013343679   0.564482119332833 1
ion Ti   0.083334012468679   0.666666004156321   0.435517880667167 1
ion Ti   0.416666003281320   0.583334013343679   0.564482119332833 1
ion Ti   0.333334012468679   0.666666004156321   0.435517880667167 1
ion Ti   0.666666003281320   0.583334013343679   0.564482119332833 1
ion Ti   0.583334012468679   0.666666004156321   0.435517880667167 1
ion Ti   0.916666003281320   0.583334013343679   0.564482119332833 1
ion Ti   0.833334012468679   0.666666004156321   0.435517880667167 1
ion Ti   0.166666003281320   0.833334013343679   0.564482119332833 1
ion Ti   0.083334012468679   0.916666004156321   0.435517880667167 1
ion Ti   0.416666003281320   0.833334013343679   0.564482119332833 1
ion Ti   0.333334012468679   0.916666004156321   0.435517880667167 1
ion Ti   0.666666003281320   0.833334013343679   0.564482119332833 1
ion Ti   0.583334012468679   0.916666004156321   0.435517880667167 1
ion Ti   0.916666003281320   0.833334013343679   0.564482119332833 1
ion Ti   0.833334012468679   0.916666004156321   0.435517880667167 1
ion C   0.000000007874999   0.000000008750000   0.500000000000000 1
ion C   0.250000007874999   0.000000008750000   0.500000000000000 1
ion C   0.500000007875000   0.000000008750000   0.500000000000000 1
ion C   0.750000007875000   0.000000008750000   0.500000000000000 1
ion C   0.000000007874999   0.250000008750000   0.500000000000000 1
ion C   0.250000007874999   0.250000008750000   0.500000000000000 1
ion C   0.500000007875000   0.250000008750000   0.500000000000000 1
ion C   0.750000007875000   0.250000008750000   0.500000000000000 1
ion C   0.000000007874999   0.500000008750000   0.500000000000000 1
ion C   0.250000007874999   0.500000008750000   0.500000000000000 1
ion C   0.500000007875000   0.500000008750000   0.500000000000000 1
ion C   0.750000007875000   0.500000008750000   0.500000000000000 1
ion C   1.000000007875000   0.750000008750000   0.500000000000000 1
ion C   0.250000007874999   0.750000008750000   0.500000000000000 1
ion C   0.500000007875000   0.750000008750000   0.500000000000000 1
ion C   0.750000007875000   0.750000008750000   0.500000000000000 1
ion-species GBRV/$ID_pbe.uspp
ion-width Ecut
ionic-minimize  \
	dirUpdateScheme      L-BFGS \
	linminMethod         DirUpdateRecommended \
	nIterations          500 \
	history              15 \
	knormThreshold       0.0001 \
	energyDiffThreshold  1e-06 \
	nEnergyDiff          2 \
	alphaTstart          1 \
	alphaTmin            1e-10 \
	updateTestStepSize   yes \
	alphaTreduceFactor   0.1 \
	alphaTincreaseFactor 3 \
	nAlphaAdjustMax      3 \
	wolfeEnergy          0.0001 \
	wolfeGradient        0.9 \
	fdTest               no
kpoint   0.000000000000   0.000000000000   0.000000000000  1.00000000000000
kpoint-folding 3 3 1 
latt-move-scale 1 1 1
latt-scale 1.88973 1.88973 1.88973 
lattice Triclinic 12.1569 12.1569 17.2781 90 90 120
lattice-minimize  \
	dirUpdateScheme      L-BFGS \
	linminMethod         DirUpdateRecommended \
	nIterations          0 \
	history              15 \
	knormThreshold       0 \
	energyDiffThreshold  1e-06 \
	nEnergyDiff          2 \
	alphaTstart          1 \
	alphaTmin            1e-10 \
	updateTestStepSize   yes \
	alphaTreduceFactor   0.1 \
	alphaTincreaseFactor 3 \
	nAlphaAdjustMax      3 \
	wolfeEnergy          0.0001 \
	wolfeGradient        0.9 \
	fdTest               no
lcao-params -1 1e-06 0.0073499
pcm-variant CANDLE
spintype z-spin
subspace-rotation-factor 1 yes
symmetries automatic
symmetry-threshold 0.0001
target-mu -0.171252 no




---------- Setting up symmetries ----------

Found 24 point-group symmetries of the bravais lattice
Found 192 space-group symmetries with basis
Applied RMS atom displacement 2.18086e-05 bohrs to make symmetries exact.

---------- Initializing the Grid ----------
R = 
[    22.9732   -11.4866          0  ]
[          0    19.8954          0  ]
[          0          0    32.6508  ]
unit cell volume = 14923.4
G =
[   0.273501   0.157906         -0  ]
[          0   0.315811          0  ]
[          0         -0   0.192436  ]
Minimum fftbox size, Smin = [  96  96  132  ]
Chosen fftbox size, S = [  96  96  140  ]

---------- Exchange Correlation functional ----------
Initalized PBE GGA exchange.
Initalized PBE GGA correlation.

---------- Setting up pseudopotentials ----------
Width of ionic core gaussian charges (only for fluid interactions / plotting) set to 0.397384

Reading pseudopotential file '/home/guoxy/vasp/jdftx-1.5.0/build/pseudopotentials/GBRV/ti_pbe.uspp':
  Title: Ti.  Created by USPP 7.3.6 on 31-3-15
  Reference state energy: -59.020943.  12 valence electrons in orbitals:
    |300>  occupation: 2  eigenvalue: -2.777623
    |310>  occupation: 6  eigenvalue: -1.894596
    |400>  occupation: 2  eigenvalue: -0.438610
    |320>  occupation: 1  eigenvalue: -0.583119
  lMax: 2  lLocal: 3  QijEcut: 6
  6 projectors sampled on a log grid with 597 points:
    l: 0  eig: -2.777624  rCut: 1.8
    l: 0  eig: -0.438611  rCut: 1.8
    l: 1  eig: -1.894596  rCut: 1.8
    l: 1  eig: 0.500000  rCut: 1.8
    l: 2  eig: -0.583118  rCut: 1.8
    l: 2  eig: 0.150000  rCut: 1.8
  Partial core density with radius 0.8
  Transforming core density to a uniform radial grid of dG=0.02 with 1481 points.
  Transforming local potential to a uniform radial grid of dG=0.02 with 1481 points.
  Transforming nonlocal projectors to a uniform radial grid of dG=0.02 with 432 points.
  Transforming density augmentations to a uniform radial grid of dG=0.02 with 1481 points.
  Transforming atomic orbitals to a uniform radial grid of dG=0.02 with 432 points.
  Core radius for overlap checks: 1.80 bohrs.

Reading pseudopotential file '/home/guoxy/vasp/jdftx-1.5.0/build/pseudopotentials/GBRV/c_pbe.uspp':
  Title: C.  Created by USPP 7.3.6 on 3-2-2014
  Reference state energy: -5.406344.  4 valence electrons in orbitals:
    |200>  occupation: 2  eigenvalue: -0.504890
    |210>  occupation: 2  eigenvalue: -0.194356
  lMax: 1  lLocal: 2  QijEcut: 5
  4 projectors sampled on a log grid with 503 points:
    l: 0  eig: -0.504890  rCut: 1.3
    l: 0  eig: 0.000000  rCut: 1.3
    l: 1  eig: -0.194357  rCut: 1.3
    l: 1  eig: 0.000000  rCut: 1.3
  Partial core density with radius 1.1
  Transforming core density to a uniform radial grid of dG=0.02 with 1481 points.
  Transforming local potential to a uniform radial grid of dG=0.02 with 1481 points.
  Transforming nonlocal projectors to a uniform radial grid of dG=0.02 with 432 points.
  Transforming density augmentations to a uniform radial grid of dG=0.02 with 1481 points.
  Transforming atomic orbitals to a uniform radial grid of dG=0.02 with 432 points.
  Core radius for overlap checks: 1.30 bohrs.

Initialized 2 species with 48 total atoms.

Folded 1 k-points by 3x3x1 to 9 k-points.

---------- Setting up k-points, bands, fillings ----------
Reduced to 3 k-points under symmetry. 
Computing the number of bands and number of electrons
Calculating initial fillings.
nElectrons: 448.000000   nBands: 384   nStates: 6

----- Setting up reduced wavefunction bases (one per k-point) -----
average nbasis = 63756.556 , ideal nbasis = 63753.870

---------- Setting up coulomb interaction ----------
Fluid mode embedding: using embedded box, but periodic Coulomb kernel.
(Fluid response is responsible for (approximate) separation between periodic images.)
Setting up double-sized grid for truncated Coulomb potentials:
R = 
[    22.9732   -11.4866          0  ]
[          0    19.8954          0  ]
[          0          0    65.3016  ]
unit cell volume = 29846.8
G =
[   0.273501   0.157906         -0  ]
[          0   0.315811          0  ]
[          0         -0   0.096218  ]
Chosen fftbox size, S = [  96  96  280  ]
Integer grid location selected as the embedding center:
   Grid: [  48  48  70  ]
   Lattice: [  0.5  0.5  0.5  ]
   Cartesian: [  5.7433  9.94769  16.3254  ]
Constructing Wigner-Seitz cell: 8 faces (6 quadrilaterals, 2 hexagons)
Range-separation parameter for embedded mesh potentials due to point charges: 0.617142 bohrs.

Initializing van der Waals corrections
	NOTE: vdW corrections apply only for interactions with fluid.
	Ti:  C6:  187.33 Eh-a0^6  R0: 2.952 a0
	 C:  C6:   30.35 Eh-a0^6  R0: 2.744 a0

---------- Setting up ewald sum ----------
Optimum gaussian width for ewald sums = 6.491360 bohr.
Real space sum over 605 unit cells with max indices [  5  5  2  ]
Reciprocal space sum over 7875 terms with max indices [  7  7  17  ]

---------- Allocating electronic variables ----------
Initializing wave functions:  linear combination of atomic orbitals
Ti pseudo-atom occupations:   s ( 2 0 )  p ( 6 )  d ( 4 )
C pseudo-atom occupations:   s ( 2 )  p ( 2 )
	FillingsUpdate:  mu: -0.171251800  nElectrons: 448.000000  magneticMoment: [ Abs: 65.88867  Tot: +65.88714 ]
LCAOMinimize: Iter:   0  G: -1773.2208313549890590  |grad|_K:  1.727e-02  alpha:  1.000e+00
	FillingsUpdate:  mu: -0.171251800  nElectrons: 448.000000  magneticMoment: [ Abs: 14.03844  Tot: +14.03566 ]
LCAOMinimize: Iter:   1  G: -1842.2995612483609875  |grad|_K:  8.446e-03  alpha:  5.963e-01  linmin:  1.504e-01  cgtest: -1.285e+00  t[s]:     75.87
LCAOMinimize: 	Bad step direction: g.d > 0.
LCAOMinimize: 	Undoing step.
LCAOMinimize: 	Step failed: resetting search direction.
	FillingsUpdate:  mu: -0.171251800  nElectrons: 448.000000  magneticMoment: [ Abs: 14.03844  Tot: +14.03566 ]
LCAOMinimize: Iter:   2  G: -1842.2995612483609875  |grad|_K:  8.446e-03  alpha:  0.000e+00
	FillingsUpdate:  mu: -0.171251800  nElectrons: 448.000000  magneticMoment: [ Abs: 16.82546  Tot: +16.01808 ]
LCAOMinimize: Iter:   3  G: -1870.2989627785311768  |grad|_K:  5.381e-03  alpha:  3.113e-01  linmin: -3.340e-01  cgtest:  4.483e-01  t[s]:    115.44
	FillingsUpdate:  mu: -0.171251800  nElectrons: 448.000000  magneticMoment: [ Abs: 18.56747  Tot: +17.54538 ]
LCAOMinimize: Iter:   4  G: -1874.2649012859139930  |grad|_K:  4.485e-04  alpha:  1.823e-01  linmin: -1.323e-01  cgtest:  3.591e-01  t[s]:    137.28
LCAOMinimize: Encountered beta<0, resetting CG.
	FillingsUpdate:  mu: -0.171251800  nElectrons: 448.000000  magneticMoment: [ Abs: 15.31405  Tot: +14.24132 ]
LCAOMinimize: Iter:   5  G: -1874.3094354744248449  |grad|_K:  3.150e-04  alpha:  4.368e-01  linmin: -3.990e-02  cgtest:  2.595e-01  t[s]:    159.73
	FillingsUpdate:  mu: -0.171251800  nElectrons: 448.000000  magneticMoment: [ Abs: 8.31132  Tot: +7.26893 ]
LCAOMinimize: Iter:   6  G: -1874.3460721518626997  |grad|_K:  2.460e-04  alpha:  7.476e-01  linmin:  1.783e-02  cgtest: -3.176e-01  t[s]:    182.88
	FillingsUpdate:  mu: -0.171251800  nElectrons: 448.000000  magneticMoment: [ Abs: 3.88333  Tot: +3.02332 ]
LCAOMinimize: Iter:   7  G: -1874.3553444691649474  |grad|_K:  1.402e-04  alpha:  3.775e-01  linmin: -1.393e-02  cgtest:  6.034e-01  t[s]:    204.51
LCAOMinimize: Encountered beta<0, resetting CG.
	FillingsUpdate:  mu: -0.171251800  nElectrons: 448.000000  magneticMoment: [ Abs: 2.84745  Tot: +2.27362 ]
LCAOMinimize: Iter:   8  G: -1874.3612664298841537  |grad|_K:  6.825e-05  alpha:  6.224e-01  linmin: -7.685e-02  cgtest:  3.494e-01  t[s]:    228.56
LCAOMinimize: 	Predicted alpha/alphaT>3.000000, increasing alphaT to 1.867055e+00.
	FillingsUpdate:  mu: -0.171251800  nElectrons: 448.000000  magneticMoment: [ Abs: 1.94587  Tot: +1.58125 ]
LCAOMinimize: Iter:   9  G: -1874.3635842911032796  |grad|_K:  8.545e-05  alpha:  6.612e-01  linmin:  9.884e-02  cgtest: -4.629e-01  t[s]:    256.90
LCAOMinimize: 	Wrong curvature in test step, increasing alphaT to 1.983542e+00.
	FillingsUpdate:  mu: -0.171251800  nElectrons: 448.000000  magneticMoment: [ Abs: 0.49076  Tot: -0.26547 ]
LCAOMinimize: Iter:  10  G: -1874.3648961512437836  |grad|_K:  1.291e-04  alpha: -7.109e+00  linmin:  1.098e-01  cgtest:  8.033e-01  t[s]:    281.20
	FillingsUpdate:  mu: -0.171251800  nElectrons: 448.000000  magneticMoment: [ Abs: 1.05869  Tot: -0.73227 ]
LCAOMinimize: Iter:  11  G: -1874.3652989222962333  |grad|_K:  8.033e-05  alpha:  1.627e-01  linmin: -3.412e-02  cgtest:  8.649e-01  t[s]:    302.95
LCAOMinimize: Encountered beta<0, resetting CG.
	FillingsUpdate:  mu: -0.171251800  nElectrons: 448.000000  magneticMoment: [ Abs: 1.02206  Tot: -0.71258 ]
LCAOMinimize: Iter:  12  G: -1874.3653438616722724  |grad|_K:  6.755e-05  alpha:  8.274e-02  linmin: -2.068e-01  cgtest:  9.886e-01  t[s]:    327.04
LCAOMinimize: Encountered beta<0, resetting CG.
	FillingsUpdate:  mu: -0.171251800  nElectrons: 448.000000  magneticMoment: [ Abs: 1.00467  Tot: -0.70303 ]
LCAOMinimize: Iter:  13  G: -1874.3653459887850659  |grad|_K:  6.306e-05  alpha:  4.053e-02  linmin: -2.016e-01  cgtest:  9.978e-01  t[s]:    349.54
LCAOMinimize: Encountered beta<0, resetting CG.
LCAOMinimize: 	Step increased G by 1.345771e-06, reducing alpha to 1.958050e-03.
LCAOMinimize: 	Step increased G by 4.437766e-08, reducing alpha to 1.958050e-04.
LCAOMinimize: 	Step increased G by 3.599780e-09, reducing alpha to 1.958050e-05.
LCAOMinimize: 	Step failed to reduce G after 3 attempts. Quitting step.
LCAOMinimize: 	Undoing step.
LCAOMinimize: 	Step failed along negative gradient direction.
LCAOMinimize: Probably at roundoff error limit. (Stopping)
----- createFluidSolver() ----- (Fluid-side solver setup)
   Initializing fluid molecule 'H2O'
     Initializing site 'O'
       Electron density: proportional to exp(-r/0.36935)*erfc((r-0.51523)/0.36823) with norm 6.826
       Charge density: gaussian nuclear width 0.478731 with net site charge 0.826
       Polarizability: cuspless exponential with width 0.32 and norm 3.73
       Hard sphere radius: 2.57003 bohrs
       Positions in reference frame:
         [ +0.000000 +0.000000 +0.000000 ]
     Initializing site 'H'
       Electron density: proportional to exp(-r/0.34641)*erfc((r-0)/0.390882) with norm 0.587
       Charge density: gaussian nuclear width 0.377945 with net site charge -0.413
       Polarizability: cuspless exponential with width 0.39 and norm 3.3
       Positions in reference frame:
         [ +0.000000 -1.441945 +1.122523 ]
         [ +0.000000 +1.441945 +1.122523 ]
     Net charge: 0   dipole magnitude: 0.927204
     Initializing spherical shell mfKernel with radius 2.61727 Bohr
     deltaS corrections:
       site 'O': -7.54299
       site 'H': -6.83917
   Initializing fluid molecule 'Na+'
     Initializing site 'Na'
       Electron density: proportional to exp(-r/0.19682)*erfc((r-0.71491)/0.41314) with norm 8.1383
       Charge density: gaussian nuclear width 0.365347 with net site charge -1
       Hard sphere radius: 1.86327 bohrs
       Positions in reference frame:
         [ +0.000000 +0.000000 +0.000000 ]
     Net charge: -1   dipole magnitude: 0
     Initializing gaussian mfKernel with width: 1.55004 Bohr
     deltaS corrections:
       site 'Na': -22.3555
   Initializing fluid molecule 'F-'
     Initializing site 'F'
       Electron density: proportional to exp(-r/0.38886)*erfc((r-0)/0.438782) with norm 8
       Charge density: gaussian nuclear width 0.374796 with net site charge 1
       Hard sphere radius: 2.39995 bohrs
       Positions in reference frame:
         [ +0.000000 +0.000000 +0.000000 ]
     Net charge: 1   dipole magnitude: 0
     Initializing gaussian mfKernel with width: 1.59012 Bohr
     deltaS corrections:
       site 'F': -9.04335

Correction to mu due to finite nuclear width = -0.0148929
   Cavity determined by nc: 0.00142 and sigma: 0.707107
   Nonlocal vdW cavity from gaussian model electron density with norm = 8 and sigma = 0.993594 bohr
   Charge asymmetry in cavity with sensitivity pCavity = 36.5 e-bohr/Eh
   Electrostatic cavity expanded by eta = 1.46 bohrs
   Weighted density cavitation model constrained by Nbulk: 0.0049383 bohr^-3, Pvap: 3.14029 kPa, Rvdw: 2.61727 bohr and sigmaBulk: 4.62e-05 Eh/bohr^2 at T: 298 K.
   Weighted density dispersion model using vdW pair potentials with single solvent site with sqrtC6eff: 0.77 SI.


---- Citations for features of the code used in this run ----

   Software package:
      R. Sundararaman, K. Letchworth-Weaver, K.A. Schwarz, D. Gunceler, Y. Ozhabes and T.A. Arias, 'JDFTx: software for joint density-functional theory', SoftwareX 6, 278 (2017)

   gga-PBE exchange-correlation functional:
      J.P. Perdew, K. Burke and M. Ernzerhof, Phys. Rev. Lett. 77, 3865 (1996)

   Pseudopotentials:
      KF Garrity, JW Bennett, KM Rabe and D Vanderbilt, Comput. Mater. Sci. 81, 446 (2014)

   Truncated Coulomb potentials:
      R. Sundararaman and T.A. Arias, Phys. Rev. B 87, 165122 (2013)

   Van der Waals correction pair-potentials:
      S. Grimme, J. Comput. Chem. 27, 1787 (2006)

   Charge-asymmetric nonlocally-determined local-electric (CANDLE) solvation model:
      R. Sundararaman and W.A. Goddard III, J. Chem. Phys. 142, 064107 (2015)

   Total energy minimization with Auxiliary Hamiltonian:
      C. Freysoldt, S. Boeck, and J. Neugebauer, Phys. Rev. B 79, 241103(R) (2009)

   Grand-canonical (fixed-potential) DFT:
      R. Sundararaman, W. A. Goddard III and T. A. Arias, J. Chem. Phys. 146, 114104 (2017)

This list may not be complete. Please suggest additional citations or
report any other bugs at https://github.com/shankar1729/jdftx/issues

Initialization completed successfully at t[s]:    421.34

Fluid solver invoked on fresh (partially random / LCAO) wavefunctions
Running a vacuum solve first:

-------- Initial electronic minimization -----------
	FillingsUpdate:  mu: +0.210817610  nElectrons: 448.000000  magneticMoment: [ Abs: 1.00459  Tot: -0.70299 ]
ElecMinimize: Iter:   0  G: -1874.493063705446730  |grad|_K:  2.518e-04  alpha:  1.000e+00
	FillingsUpdate:  mu: +0.042000319  nElectrons: 448.000000  magneticMoment: [ Abs: 0.84855  Tot: -0.61768 ]
	SubspaceRotationAdjust: set factor to 1.01
ElecMinimize: Iter:   1  G: -1877.811961562410033  |grad|_K:  1.472e-04  alpha:  3.614e-01  linmin:  8.047e-05  t[s]:    472.98
	FillingsUpdate:  mu: +0.050319837  nElectrons: 448.000000  magneticMoment: [ Abs: 0.69047  Tot: -0.56885 ]
	SubspaceRotationAdjust: set factor to 0.771
ElecMinimize: Iter:   2  G: -1879.544014189978270  |grad|_K:  9.906e-05  alpha:  5.500e-01  linmin: -1.295e-04  t[s]:    502.65
	FillingsUpdate:  mu: +0.007868456  nElectrons: 448.000000  magneticMoment: [ Abs: 0.40867  Tot: -0.35598 ]
	SubspaceRotationAdjust: set factor to 0.614
ElecMinimize: Iter:   3  G: -1880.333946383846524  |grad|_K:  6.535e-05  alpha:  5.391e-01  linmin:  1.468e-04  t[s]:    530.37
	FillingsUpdate:  mu: -0.067072027  nElectrons: 448.000000  magneticMoment: [ Abs: 0.24297  Tot: -0.22839 ]
	SubspaceRotationAdjust: set factor to 0.534
ElecMinimize: Iter:   4  G: -1880.676585057992952  |grad|_K:  3.754e-05  alpha:  5.507e-01  linmin:  4.172e-04  t[s]:    560.72
	FillingsUpdate:  mu: -0.051539784  nElectrons: 448.000000  magneticMoment: [ Abs: 0.19524  Tot: -0.19501 ]
	SubspaceRotationAdjust: set factor to 0.58
ElecMinimize: Iter:   5  G: -1880.799184669996066  |grad|_K:  2.422e-05  alpha:  6.317e-01  linmin:  7.691e-05  t[s]:    592.88
	FillingsUpdate:  mu: -0.048029539  nElectrons: 448.000000  magneticMoment: [ Abs: 0.18030  Tot: -0.18030 ]
	SubspaceRotationAdjust: set factor to 0.618
ElecMinimize: Iter:   6  G: -1880.845063401873631  |grad|_K:  1.803e-05  alpha:  5.531e-01  linmin:  9.753e-06  t[s]:    622.34
	FillingsUpdate:  mu: -0.059674093  nElectrons: 448.000000  magneticMoment: [ Abs: 0.17608  Tot: -0.17608 ]
	SubspaceRotationAdjust: set factor to 0.779
ElecMinimize: Iter:   7  G: -1880.870744939679071  |grad|_K:  1.160e-05  alpha:  5.396e-01  linmin:  1.159e-05  t[s]:    654.06
	FillingsUpdate:  mu: -0.067322312  nElectrons: 448.000000  magneticMoment: [ Abs: 0.18410  Tot: -0.18409 ]
	SubspaceRotationAdjust: set factor to 0.921
ElecMinimize: Iter:   8  G: -1880.883319292462147  |grad|_K:  9.283e-06  alpha:  6.382e-01  linmin:  4.209e-06  t[s]:    682.17
	FillingsUpdate:  mu: -0.064699166  nElectrons: 448.000000  magneticMoment: [ Abs: 0.19763  Tot: -0.19689 ]
	SubspaceRotationAdjust: set factor to 0.964
ElecMinimize: Iter:   9  G: -1880.888857426155255  |grad|_K:  5.780e-06  alpha:  4.378e-01  linmin: -9.002e-07  t[s]:    712.55
	FillingsUpdate:  mu: -0.065629781  nElectrons: 448.000000  magneticMoment: [ Abs: 0.22014  Tot: -0.21639 ]
	SubspaceRotationAdjust: set factor to 1.14
ElecMinimize: Iter:  10  G: -1880.891523000544566  |grad|_K:  3.997e-06  alpha:  5.412e-01  linmin: -1.254e-05  t[s]:    742.98
	FillingsUpdate:  mu: -0.068288510  nElectrons: 448.000000  magneticMoment: [ Abs: 0.24455  Tot: -0.23835 ]
	SubspaceRotationAdjust: set factor to 1.11
ElecMinimize: Iter:  11  G: -1880.892726837786995  |grad|_K:  3.188e-06  alpha:  5.100e-01  linmin: -2.050e-06  t[s]:    773.66
	FillingsUpdate:  mu: -0.066628422  nElectrons: 448.000000  magneticMoment: [ Abs: 0.27179  Tot: -0.26385 ]
	SubspaceRotationAdjust: set factor to 1.03
ElecMinimize: Iter:  12  G: -1880.893365553668446  |grad|_K:  2.307e-06  alpha:  4.263e-01  linmin: -2.880e-07  t[s]:    802.67
	FillingsUpdate:  mu: -0.067566188  nElectrons: 448.000000  magneticMoment: [ Abs: 0.30272  Tot: -0.29337 ]
	SubspaceRotationAdjust: set factor to 1.19
ElecMinimize: Iter:  13  G: -1880.893726104533471  |grad|_K:  1.526e-06  alpha:  4.600e-01  linmin:  9.593e-06  t[s]:    833.91
	FillingsUpdate:  mu: -0.067295236  nElectrons: 448.000000  magneticMoment: [ Abs: 0.33808  Tot: -0.32746 ]
	SubspaceRotationAdjust: set factor to 1.28
ElecMinimize: Iter:  14  G: -1880.893915196183798  |grad|_K:  1.190e-06  alpha:  5.519e-01  linmin:  1.944e-06  t[s]:    863.10
	FillingsUpdate:  mu: -0.067261851  nElectrons: 448.000000  magneticMoment: [ Abs: 0.37362  Tot: -0.36194 ]
	SubspaceRotationAdjust: set factor to 1.28
ElecMinimize: Iter:  15  G: -1880.894003662490604  |grad|_K:  8.298e-07  alpha:  4.249e-01  linmin:  9.649e-08  t[s]:    893.40
	FillingsUpdate:  mu: -0.067583055  nElectrons: 448.000000  magneticMoment: [ Abs: 0.42066  Tot: -0.40770 ]
	SubspaceRotationAdjust: set factor to 1.32
ElecMinimize: Iter:  16  G: -1880.894054413862705  |grad|_K:  6.063e-07  alpha:  5.005e-01  linmin:  1.753e-07  t[s]:    924.00
	FillingsUpdate:  mu: -0.067185694  nElectrons: 448.000000  magneticMoment: [ Abs: 0.46477  Tot: -0.45064 ]
	SubspaceRotationAdjust: set factor to 1.25
ElecMinimize: Iter:  17  G: -1880.894075992739090  |grad|_K:  4.819e-07  alpha:  3.987e-01  linmin: -1.509e-07  t[s]:    954.51
	FillingsUpdate:  mu: -0.067569984  nElectrons: 448.000000  magneticMoment: [ Abs: 0.52037  Tot: -0.50476 ]
	SubspaceRotationAdjust: set factor to 1.16
ElecMinimize: Iter:  18  G: -1880.894089785367896  |grad|_K:  3.612e-07  alpha:  4.033e-01  linmin: -8.500e-08  t[s]:    983.72
	FillingsUpdate:  mu: -0.067475168  nElectrons: 448.000000  magneticMoment: [ Abs: 0.59337  Tot: -0.57574 ]
	SubspaceRotationAdjust: set factor to 1.47
ElecMinimize: Iter:  19  G: -1880.894099132979363  |grad|_K:  2.677e-07  alpha:  4.864e-01  linmin: -4.011e-08  t[s]:   1014.63
	FillingsUpdate:  mu: -0.067414152  nElectrons: 448.000000  magneticMoment: [ Abs: 0.71095  Tot: -0.68988 ]
	SubspaceRotationAdjust: set factor to 1.69
ElecMinimize: Iter:  20  G: -1880.894106939743097  |grad|_K:  2.809e-07  alpha:  7.397e-01  linmin:  1.096e-06  t[s]:   1044.33
	FillingsUpdate:  mu: -0.067584617  nElectrons: 448.000000  magneticMoment: [ Abs: 0.89609  Tot: -0.86972 ]
	SubspaceRotationAdjust: set factor to 1.61
ElecMinimize: Iter:  21  G: -1880.894114325282771  |grad|_K:  3.813e-07  alpha:  6.359e-01  linmin:  1.604e-07  t[s]:   1074.75
	FillingsUpdate:  mu: -0.067133739  nElectrons: 448.000000  magneticMoment: [ Abs: 1.38973  Tot: -1.34959 ]
	SubspaceRotationAdjust: set factor to 1.45
ElecMinimize: Iter:  22  G: -1880.894129306796685  |grad|_K:  6.754e-07  alpha:  7.002e-01  linmin:  1.701e-06  t[s]:   1104.37
ElecMinimize: 	Predicted alpha/alphaT>3.000000, increasing alphaT to 2.100587e+00.
	FillingsUpdate:  mu: -0.067611006  nElectrons: 448.000000  magneticMoment: [ Abs: 4.47955  Tot: -4.35950 ]
	SubspaceRotationAdjust: set factor to 1.52
ElecMinimize: Iter:  23  G: -1880.894259613286749  |grad|_K:  2.143e-06  alpha:  1.257e+00  linmin: -6.157e-05  t[s]:   1142.08
	FillingsUpdate:  mu: -0.067611360  nElectrons: 448.000000  magneticMoment: [ Abs: 4.49761  Tot: -4.37713 ]
	SubspaceRotationAdjust: set factor to 1.77
ElecMinimize: Iter:  24  G: -1880.894260942209485  |grad|_K:  2.173e-06  alpha:  7.123e-04  linmin: -3.151e-04  t[s]:   1172.31
ElecMinimize: 	Wrong curvature in test step, increasing alphaT to 2.136851e-03.
	FillingsUpdate:  mu: -0.067609931  nElectrons: 448.000000  magneticMoment: [ Abs: 4.51667  Tot: -4.39573 ]
	SubspaceRotationAdjust: set factor to 1.9
ElecMinimize: Iter:  25  G: -1880.894263303253865  |grad|_K:  2.255e-06  alpha: -2.342e-01  linmin: -6.416e-04  t[s]:   1199.98
	FillingsUpdate:  mu: -0.067590052  nElectrons: 448.000000  magneticMoment: [ Abs: 4.63060  Tot: -4.50695 ]
	SubspaceRotationAdjust: set factor to 1.96
ElecMinimize: Iter:  26  G: -1880.894282978924366  |grad|_K:  2.303e-06  alpha:  3.847e-03  linmin: -1.102e-03  t[s]:   1230.81
ElecMinimize: 	Wrong curvature in test step, increasing alphaT to 1.154210e-02.
	FillingsUpdate:  mu: -0.067556956  nElectrons: 448.000000  magneticMoment: [ Abs: 4.75286  Tot: -4.62631 ]
	SubspaceRotationAdjust: set factor to 2
ElecMinimize: Iter:  27  G: -1880.894309882668495  |grad|_K:  2.317e-06  alpha: -2.775e-01  linmin: -1.660e-03  t[s]:   1257.52
	FillingsUpdate:  mu: -0.067445018  nElectrons: 448.000000  magneticMoment: [ Abs: 5.06185  Tot: -4.92803 ]
	SubspaceRotationAdjust: set factor to 2.05
ElecMinimize: Iter:  28  G: -1880.894392103114569  |grad|_K:  2.284e-06  alpha:  9.349e-03  linmin: -2.170e-03  t[s]:   1289.24
ElecMinimize: 	Wrong curvature in test step, increasing alphaT to 2.804644e-02.
	FillingsUpdate:  mu: -0.067311500  nElectrons: 448.000000  magneticMoment: [ Abs: 5.37093  Tot: -5.22988 ]
	SubspaceRotationAdjust: set factor to 2.07
ElecMinimize: Iter:  29  G: -1880.894487532999392  |grad|_K:  2.245e-06  alpha: -1.139e+00  linmin: -2.344e-03  t[s]:   1318.42
	FillingsUpdate:  mu: -0.066988157  nElectrons: 448.000000  magneticMoment: [ Abs: 6.04802  Tot: -5.89113 ]
	SubspaceRotationAdjust: set factor to 1.95
ElecMinimize: Iter:  30  G: -1880.894721578415329  |grad|_K:  2.220e-06  alpha:  2.058e-02  linmin: -2.398e-03  t[s]:   1348.05
ElecMinimize: 	Predicted alpha/alphaT>3.000000, increasing alphaT to 6.175401e-02.
ElecMinimize: 	Predicted alpha/alphaT>3.000000, increasing alphaT to 1.852620e-01.
ElecMinimize: 	Predicted alpha/alphaT>3.000000, increasing alphaT to 5.557861e-01.
ElecMinimize: 	Step increased G by 1.321924e-01, reducing alpha to 8.096970e-02.
	FillingsUpdate:  mu: -0.065669369  nElectrons: 448.000000  magneticMoment: [ Abs: 8.70266  Tot: -8.48275 ]
	SubspaceRotationAdjust: set factor to 1.4
ElecMinimize: Iter:  31  G: -1880.895714955481026  |grad|_K:  3.297e-06  alpha:  8.097e-02  linmin: -1.699e-03  t[s]:   1412.76
ElecMinimize: 	Predicted alpha/alphaT>3.000000, increasing alphaT to 2.429091e-01.
	FillingsUpdate:  mu: -0.062118758  nElectrons: 448.000000  magneticMoment: [ Abs: 15.09325  Tot: -14.71307 ]
	SubspaceRotationAdjust: set factor to 1.2
ElecMinimize: Iter:  32  G: -1880.897875032610727  |grad|_K:  6.461e-06  alpha:  9.283e-02  linmin: -2.435e-04  t[s]:   1454.69
	FillingsUpdate:  mu: -0.061962485  nElectrons: 448.000000  magneticMoment: [ Abs: 15.34153  Tot: -14.95480 ]
	SubspaceRotationAdjust: set factor to 1.1
ElecMinimize: Iter:  33  G: -1880.897931217590667  |grad|_K:  6.308e-06  alpha:  9.972e-04  linmin: -2.799e-04  t[s]:   1484.15
ElecMinimize: 	Predicted alpha/alphaT>3.000000, increasing alphaT to 2.991596e-03.
ElecMinimize: 	Predicted alpha/alphaT>3.000000, increasing alphaT to 8.974788e-03.
	FillingsUpdate:  mu: -0.060027495  nElectrons: 448.000000  magneticMoment: [ Abs: 18.39817  Tot: -17.92741 ]
	SubspaceRotationAdjust: set factor to 1.12
ElecMinimize: Iter:  34  G: -1880.898328446788582  |grad|_K:  7.484e-06  alpha:  1.337e-02  linmin:  4.133e-05  t[s]:   1531.87
	FillingsUpdate:  mu: -0.059992805  nElectrons: 448.000000  magneticMoment: [ Abs: 18.45242  Tot: -17.98011 ]
	SubspaceRotationAdjust: set factor to 1.12
ElecMinimize: Iter:  35  G: -1880.898328802310516  |grad|_K:  7.524e-06  alpha:  1.753e-04  linmin: -2.682e-06  t[s]:   1562.91
ElecMinimize: 	Predicted alpha/alphaT>3.000000, increasing alphaT to 5.258942e-04.
	FillingsUpdate:  mu: -0.059735792  nElectrons: 448.000000  magneticMoment: [ Abs: 18.88208  Tot: -18.39720 ]
	SubspaceRotationAdjust: set factor to 1.13
ElecMinimize: Iter:  36  G: -1880.898340799423977  |grad|_K:  7.666e-06  alpha:  1.381e-03  linmin:  1.138e-06  t[s]:   1601.86
	FillingsUpdate:  mu: -0.059523253  nElectrons: 448.000000  magneticMoment: [ Abs: 19.26032  Tot: -18.76411 ]
	SubspaceRotationAdjust: set factor to 1.15
ElecMinimize: Iter:  37  G: -1880.898350820798896  |grad|_K:  7.774e-06  alpha:  1.183e-03  linmin:  3.193e-07  t[s]:   1632.99
	FillingsUpdate:  mu: -0.059328577  nElectrons: 448.000000  magneticMoment: [ Abs: 19.63153  Tot: -19.12395 ]
	SubspaceRotationAdjust: set factor to 1.16
ElecMinimize: Iter:  38  G: -1880.898360904529000  |grad|_K:  7.857e-06  alpha:  1.140e-03  linmin:  4.003e-07  t[s]:   1661.56
	FillingsUpdate:  mu: -0.059155965  nElectrons: 448.000000  magneticMoment: [ Abs: 19.98659  Tot: -19.46785 ]
	SubspaceRotationAdjust: set factor to 1.18
ElecMinimize: Iter:  39  G: -1880.898370630840645  |grad|_K:  7.914e-06  alpha:  1.078e-03  linmin:  3.550e-07  t[s]:   1692.87
	FillingsUpdate:  mu: -0.059004114  nElectrons: 448.000000  magneticMoment: [ Abs: 20.32635  Tot: -19.79668 ]
	SubspaceRotationAdjust: set factor to 1.2
ElecMinimize: Iter:  40  G: -1880.898380038784580  |grad|_K:  7.948e-06  alpha:  1.027e-03  linmin:  3.306e-07  t[s]:   1721.94
	FillingsUpdate:  mu: -0.058872161  nElectrons: 448.000000  magneticMoment: [ Abs: 20.65071  Tot: -20.11035 ]
	SubspaceRotationAdjust: set factor to 1.21
ElecMinimize: Iter:  41  G: -1880.898389113729991  |grad|_K:  7.960e-06  alpha:  9.819e-04  linmin:  3.050e-07  t[s]:   1752.47
	FillingsUpdate:  mu: -0.058759039  nElectrons: 448.000000  magneticMoment: [ Abs: 20.95994  Tot: -20.40913 ]
	SubspaceRotationAdjust: set factor to 1.23
ElecMinimize: Iter:  42  G: -1880.898397855334906  |grad|_K:  7.953e-06  alpha:  9.426e-04  linmin:  2.804e-07  t[s]:   1781.48
	FillingsUpdate:  mu: -0.058663609  nElectrons: 448.000000  magneticMoment: [ Abs: 21.25447  Tot: -20.69344 ]
	SubspaceRotationAdjust: set factor to 1.25
ElecMinimize: Iter:  43  G: -1880.898406267024029  |grad|_K:  7.927e-06  alpha:  9.084e-04  linmin:  2.569e-07  t[s]:   1811.99
	FillingsUpdate:  mu: -0.058584694  nElectrons: 448.000000  magneticMoment: [ Abs: 21.53480  Tot: -20.96379 ]
	SubspaceRotationAdjust: set factor to 1.26
ElecMinimize: Iter:  44  G: -1880.898414354761599  |grad|_K:  7.885e-06  alpha:  8.786e-04  linmin:  2.364e-07  t[s]:   1842.58
	FillingsUpdate:  mu: -0.058521119  nElectrons: 448.000000  magneticMoment: [ Abs: 21.80142  Tot: -21.22068 ]
	SubspaceRotationAdjust: set factor to 1.28
ElecMinimize: Iter:  45  G: -1880.898422124884974  |grad|_K:  7.830e-06  alpha:  8.527e-04  linmin:  2.161e-07  t[s]:   1871.72
	FillingsUpdate:  mu: -0.058471707  nElectrons: 448.000000  magneticMoment: [ Abs: 22.05492  Tot: -21.46468 ]
	SubspaceRotationAdjust: set factor to 1.3
ElecMinimize: Iter:  46  G: -1880.898429586475459  |grad|_K:  7.762e-06  alpha:  8.301e-04  linmin:  1.973e-07  t[s]:   1902.94
	FillingsUpdate:  mu: -0.058435299  nElectrons: 448.000000  magneticMoment: [ Abs: 22.29586  Tot: -21.69636 ]
	SubspaceRotationAdjust: set factor to 1.31
ElecMinimize: Iter:  47  G: -1880.898436748615950  |grad|_K:  7.684e-06  alpha:  8.104e-04  linmin:  1.804e-07  t[s]:   1932.32
	FillingsUpdate:  mu: -0.058410764  nElectrons: 448.000000  magneticMoment: [ Abs: 22.52479  Tot: -21.91626 ]
	SubspaceRotationAdjust: set factor to 1.33
ElecMinimize: Iter:  48  G: -1880.898443620568287  |grad|_K:  7.597e-06  alpha:  7.931e-04  linmin:  1.639e-07  t[s]:   1965.85
	FillingsUpdate:  mu: -0.058397001  nElectrons: 448.000000  magneticMoment: [ Abs: 22.74228  Tot: -22.12494 ]
	SubspaceRotationAdjust: set factor to 1.35
ElecMinimize: Iter:  49  G: -1880.898450212502894  |grad|_K:  7.503e-06  alpha:  7.780e-04  linmin:  1.493e-07  t[s]:   1996.04
	FillingsUpdate:  mu: -0.058392942  nElectrons: 448.000000  magneticMoment: [ Abs: 22.94887  Tot: -22.32294 ]
	SubspaceRotationAdjust: set factor to 1.36
ElecMinimize: Iter:  50  G: -1880.898456534436946  |grad|_K:  7.403e-06  alpha:  7.648e-04  linmin:  1.367e-07  t[s]:   2026.55
	FillingsUpdate:  mu: -0.058397557  nElectrons: 448.000000  magneticMoment: [ Abs: 23.14509  Tot: -22.51078 ]
	SubspaceRotationAdjust: set factor to 1.37
ElecMinimize: Iter:  51  G: -1880.898462596137279  |grad|_K:  7.298e-06  alpha:  7.531e-04  linmin:  1.239e-07  t[s]:   2056.82
	FillingsUpdate:  mu: -0.058409856  nElectrons: 448.000000  magneticMoment: [ Abs: 23.33148  Tot: -22.68898 ]
	SubspaceRotationAdjust: set factor to 1.38
ElecMinimize: Iter:  52  G: -1880.898468408905728  |grad|_K:  7.189e-06  alpha:  7.429e-04  linmin:  1.131e-07  t[s]:   2087.09
	FillingsUpdate:  mu: -0.058428892  nElectrons: 448.000000  magneticMoment: [ Abs: 23.50854  Tot: -22.85807 ]
	SubspaceRotationAdjust: set factor to 1.39
ElecMinimize: Iter:  53  G: -1880.898473983522763  |grad|_K:  7.078e-06  alpha:  7.339e-04  linmin:  1.029e-07  t[s]:   2118.40
	FillingsUpdate:  mu: -0.058453765  nElectrons: 448.000000  magneticMoment: [ Abs: 23.67681  Tot: -23.01854 ]
	SubspaceRotationAdjust: set factor to 1.4
ElecMinimize: Iter:  54  G: -1880.898479331435965  |grad|_K:  6.966e-06  alpha:  7.261e-04  linmin:  9.264e-08  t[s]:   2147.36
	FillingsUpdate:  mu: -0.058483626  nElectrons: 448.000000  magneticMoment: [ Abs: 23.83681  Tot: -23.17091 ]
	SubspaceRotationAdjust: set factor to 1.41
ElecMinimize: Iter:  55  G: -1880.898484464738431  |grad|_K:  6.853e-06  alpha:  7.195e-04  linmin:  8.342e-08  t[s]:   2176.81
	FillingsUpdate:  mu: -0.058517675  nElectrons: 448.000000  magneticMoment: [ Abs: 23.98903  Tot: -23.31568 ]
	SubspaceRotationAdjust: set factor to 1.41
ElecMinimize: Iter:  56  G: -1880.898489395495517  |grad|_K:  6.741e-06  alpha:  7.139e-04  linmin:  7.412e-08  t[s]:   2204.46
	FillingsUpdate:  mu: -0.058555167  nElectrons: 448.000000  magneticMoment: [ Abs: 24.13399  Tot: -23.45334 ]
	SubspaceRotationAdjust: set factor to 1.41
ElecMinimize: Iter:  57  G: -1880.898494136275531  |grad|_K:  6.629e-06  alpha:  7.094e-04  linmin:  6.545e-08  t[s]:   2233.18
	FillingsUpdate:  mu: -0.058595411  nElectrons: 448.000000  magneticMoment: [ Abs: 24.27219  Tot: -23.58437 ]
	SubspaceRotationAdjust: set factor to 1.4
ElecMinimize: Iter:  58  G: -1880.898498699769561  |grad|_K:  6.518e-06  alpha:  7.059e-04  linmin:  5.730e-08  t[s]:   2263.53
	FillingsUpdate:  mu: -0.058637766  nElectrons: 448.000000  magneticMoment: [ Abs: 24.40409  Tot: -23.70925 ]
	SubspaceRotationAdjust: set factor to 1.4
ElecMinimize: Iter:  59  G: -1880.898503098610718  |grad|_K:  6.410e-06  alpha:  7.036e-04  linmin:  4.847e-08  t[s]:   2293.54
	FillingsUpdate:  mu: -0.058681644  nElectrons: 448.000000  magneticMoment: [ Abs: 24.53019  Tot: -23.82843 ]
	SubspaceRotationAdjust: set factor to 1.38
ElecMinimize: Iter:  60  G: -1880.898507345756798  |grad|_K:  6.303e-06  alpha:  7.025e-04  linmin:  4.055e-08  t[s]:   2323.56
	FillingsUpdate:  mu: -0.058726506  nElectrons: 448.000000  magneticMoment: [ Abs: 24.65091  Tot: -23.94234 ]
	SubspaceRotationAdjust: set factor to 1.37
ElecMinimize: Iter:  61  G: -1880.898511453419360  |grad|_K:  6.199e-06  alpha:  7.025e-04  linmin:  3.052e-08  t[s]:   2353.40
	FillingsUpdate:  mu: -0.058771862  nElectrons: 448.000000  magneticMoment: [ Abs: 24.76673  Tot: -24.05142 ]
	SubspaceRotationAdjust: set factor to 1.35
ElecMinimize: Iter:  62  G: -1880.898515434394312  |grad|_K:  6.097e-06  alpha:  7.039e-04  linmin:  2.362e-08  t[s]:   2383.55
	FillingsUpdate:  mu: -0.058817259  nElectrons: 448.000000  magneticMoment: [ Abs: 24.87804  Tot: -24.15606 ]
	SubspaceRotationAdjust: set factor to 1.33
ElecMinimize: Iter:  63  G: -1880.898519300360704  |grad|_K:  5.997e-06  alpha:  7.065e-04  linmin:  1.515e-08  t[s]:   2412.56
	FillingsUpdate:  mu: -0.058862287  nElectrons: 448.000000  magneticMoment: [ Abs: 24.98522  Tot: -24.25663 ]
	SubspaceRotationAdjust: set factor to 1.3
ElecMinimize: Iter:  64  G: -1880.898523062920958  |grad|_K:  5.901e-06  alpha:  7.104e-04  linmin:  6.287e-09  t[s]:   2443.17
	FillingsUpdate:  mu: -0.058906569  nElectrons: 448.000000  magneticMoment: [ Abs: 25.08864  Tot: -24.35348 ]
	SubspaceRotationAdjust: set factor to 1.28
ElecMinimize: Iter:  65  G: -1880.898526733231392  |grad|_K:  5.807e-06  alpha:  7.158e-04  linmin: -1.862e-09  t[s]:   2473.46
	FillingsUpdate:  mu: -0.058949762  nElectrons: 448.000000  magneticMoment: [ Abs: 25.18864  Tot: -24.44695 ]
	SubspaceRotationAdjust: set factor to 1.25
ElecMinimize: Iter:  66  G: -1880.898530321706630  |grad|_K:  5.716e-06  alpha:  7.225e-04  linmin: -8.825e-09  t[s]:   2502.57
	FillingsUpdate:  mu: -0.058991547  nElectrons: 448.000000  magneticMoment: [ Abs: 25.28554  Tot: -24.53733 ]
	SubspaceRotationAdjust: set factor to 1.21
ElecMinimize: Iter:  67  G: -1880.898533838144658  |grad|_K:  5.628e-06  alpha:  7.306e-04  linmin: -1.725e-08  t[s]:   2533.11
	FillingsUpdate:  mu: -0.059031635  nElectrons: 448.000000  magneticMoment: [ Abs: 25.37963  Tot: -24.62490 ]
	SubspaceRotationAdjust: set factor to 1.18
ElecMinimize: Iter:  68  G: -1880.898537291948287  |grad|_K:  5.543e-06  alpha:  7.402e-04  linmin: -2.323e-08  t[s]:   2563.92
	FillingsUpdate:  mu: -0.059069754  nElectrons: 448.000000  magneticMoment: [ Abs: 25.47118  Tot: -24.70992 ]
	SubspaceRotationAdjust: set factor to 1.14
ElecMinimize: Iter:  69  G: -1880.898540691656763  |grad|_K:  5.461e-06  alpha:  7.510e-04  linmin: -2.996e-08  t[s]:   2593.54
	FillingsUpdate:  mu: -0.059105652  nElectrons: 448.000000  magneticMoment: [ Abs: 25.56043  Tot: -24.79261 ]
	SubspaceRotationAdjust: set factor to 1.11
ElecMinimize: Iter:  70  G: -1880.898544045249309  |grad|_K:  5.382e-06  alpha:  7.632e-04  linmin: -3.621e-08  t[s]:   2624.02
	FillingsUpdate:  mu: -0.059139097  nElectrons: 448.000000  magneticMoment: [ Abs: 25.64763  Tot: -24.87319 ]
	SubspaceRotationAdjust: set factor to 1.07
ElecMinimize: Iter:  71  G: -1880.898547360208568  |grad|_K:  5.306e-06  alpha:  7.767e-04  linmin: -3.967e-08  t[s]:   2653.99
	FillingsUpdate:  mu: -0.059169868  nElectrons: 448.000000  magneticMoment: [ Abs: 25.73298  Tot: -24.95183 ]
	SubspaceRotationAdjust: set factor to 1.04
ElecMinimize: Iter:  72  G: -1880.898550643024691  |grad|_K:  5.234e-06  alpha:  7.912e-04  linmin: -4.516e-08  t[s]:   2685.82
	FillingsUpdate:  mu: -0.059197761  nElectrons: 448.000000  magneticMoment: [ Abs: 25.81662  Tot: -25.02871 ]
	SubspaceRotationAdjust: set factor to 1.01
ElecMinimize: Iter:  73  G: -1880.898553900051866  |grad|_K:  5.165e-06  alpha:  8.068e-04  linmin: -4.914e-08  t[s]:   2715.29
	FillingsUpdate:  mu: -0.059222583  nElectrons: 448.000000  magneticMoment: [ Abs: 25.89874  Tot: -25.10397 ]
	SubspaceRotationAdjust: set factor to 0.972
ElecMinimize: Iter:  74  G: -1880.898557136777981  |grad|_K:  5.100e-06  alpha:  8.232e-04  linmin: -5.311e-08  t[s]:   2745.57
	FillingsUpdate:  mu: -0.059244155  nElectrons: 448.000000  magneticMoment: [ Abs: 25.97945  Tot: -25.17774 ]
	SubspaceRotationAdjust: set factor to 0.941
ElecMinimize: Iter:  75  G: -1880.898560358235045  |grad|_K:  5.038e-06  alpha:  8.404e-04  linmin: -5.486e-08  t[s]:   2777.18
	FillingsUpdate:  mu: -0.059262308  nElectrons: 448.000000  magneticMoment: [ Abs: 26.05891  Tot: -25.25014 ]
	SubspaceRotationAdjust: set factor to 0.912
ElecMinimize: Iter:  76  G: -1880.898563568719737  |grad|_K:  4.981e-06  alpha:  8.581e-04  linmin: -5.626e-08  t[s]:   2806.93
	FillingsUpdate:  mu: -0.059276884  nElectrons: 448.000000  magneticMoment: [ Abs: 26.13718  Tot: -25.32125 ]
	SubspaceRotationAdjust: set factor to 0.885
ElecMinimize: Iter:  77  G: -1880.898566772173808  |grad|_K:  4.927e-06  alpha:  8.761e-04  linmin: -5.677e-08  t[s]:   2838.26
	FillingsUpdate:  mu: -0.059287736  nElectrons: 448.000000  magneticMoment: [ Abs: 26.21438  Tot: -25.39117 ]
	SubspaceRotationAdjust: set factor to 0.86
ElecMinimize: Iter:  78  G: -1880.898569971974439  |grad|_K:  4.878e-06  alpha:  8.941e-04  linmin: -5.769e-08  t[s]:   2865.99
	FillingsUpdate:  mu: -0.059294728  nElectrons: 448.000000  magneticMoment: [ Abs: 26.29055  Tot: -25.45996 ]
	SubspaceRotationAdjust: set factor to 0.838
ElecMinimize: Iter:  79  G: -1880.898573171053386  |grad|_K:  4.834e-06  alpha:  9.120e-04  linmin: -5.816e-08  t[s]:   2893.59
	FillingsUpdate:  mu: -0.059297737  nElectrons: 448.000000  magneticMoment: [ Abs: 26.36576  Tot: -25.52766 ]
	SubspaceRotationAdjust: set factor to 0.818
ElecMinimize: Iter:  80  G: -1880.898576371833769  |grad|_K:  4.793e-06  alpha:  9.295e-04  linmin: -5.573e-08  t[s]:   2922.86
	FillingsUpdate:  mu: -0.059296648  nElectrons: 448.000000  magneticMoment: [ Abs: 26.44008  Tot: -25.59433 ]
	SubspaceRotationAdjust: set factor to 0.8
ElecMinimize: Iter:  81  G: -1880.898579576013390  |grad|_K:  4.757e-06  alpha:  9.463e-04  linmin: -5.467e-08  t[s]:   2952.91
	FillingsUpdate:  mu: -0.059291363  nElectrons: 448.000000  magneticMoment: [ Abs: 26.51350  Tot: -25.65998 ]
	SubspaceRotationAdjust: set factor to 0.785
ElecMinimize: Iter:  82  G: -1880.898582785099052  |grad|_K:  4.725e-06  alpha:  9.621e-04  linmin: -5.296e-08  t[s]:   2982.95
	FillingsUpdate:  mu: -0.059281793  nElectrons: 448.000000  magneticMoment: [ Abs: 26.58608  Tot: -25.72464 ]
	SubspaceRotationAdjust: set factor to 0.773
ElecMinimize: Iter:  83  G: -1880.898585999911120  |grad|_K:  4.698e-06  alpha:  9.768e-04  linmin: -5.069e-08  t[s]:   3013.80
	FillingsUpdate:  mu: -0.059267866  nElectrons: 448.000000  magneticMoment: [ Abs: 26.65780  Tot: -25.78830 ]
	SubspaceRotationAdjust: set factor to 0.764
ElecMinimize: Iter:  84  G: -1880.898589220763824  |grad|_K:  4.675e-06  alpha:  9.901e-04  linmin: -4.726e-08  t[s]:   3042.03
	FillingsUpdate:  mu: -0.059249526  nElectrons: 448.000000  magneticMoment: [ Abs: 26.72866  Tot: -25.85096 ]
	SubspaceRotationAdjust: set factor to 0.757
ElecMinimize: Iter:  85  G: -1880.898592447348165  |grad|_K:  4.656e-06  alpha:  1.002e-03  linmin: -4.273e-08  t[s]:   3073.72
	FillingsUpdate:  mu: -0.059226734  nElectrons: 448.000000  magneticMoment: [ Abs: 26.79862  Tot: -25.91260 ]
	SubspaceRotationAdjust: set factor to 0.752
ElecMinimize: Iter:  86  G: -1880.898595678830816  |grad|_K:  4.640e-06  alpha:  1.012e-03  linmin: -3.875e-08  t[s]:   3103.93
	FillingsUpdate:  mu: -0.059199469  nElectrons: 448.000000  magneticMoment: [ Abs: 26.86765  Tot: -25.97317 ]
	SubspaceRotationAdjust: set factor to 0.75
ElecMinimize: Iter:  87  G: -1880.898598914023069  |grad|_K:  4.628e-06  alpha:  1.020e-03  linmin: -3.485e-08  t[s]:   3134.29
	FillingsUpdate:  mu: -0.059167733  nElectrons: 448.000000  magneticMoment: [ Abs: 26.93568  Tot: -26.03266 ]
	SubspaceRotationAdjust: set factor to 0.75
ElecMinimize: Iter:  88  G: -1880.898602151059322  |grad|_K:  4.619e-06  alpha:  1.026e-03  linmin: -3.065e-08  t[s]:   3163.20
	FillingsUpdate:  mu: -0.059131548  nElectrons: 448.000000  magneticMoment: [ Abs: 27.00266  Tot: -26.09100 ]
	SubspaceRotationAdjust: set factor to 0.753
ElecMinimize: Iter:  89  G: -1880.898605387542148  |grad|_K:  4.612e-06  alpha:  1.030e-03  linmin: -2.629e-08  t[s]:   3193.97
	FillingsUpdate:  mu: -0.059090961  nElectrons: 448.000000  magneticMoment: [ Abs: 27.06853  Tot: -26.14814 ]
	SubspaceRotationAdjust: set factor to 0.758
ElecMinimize: Iter:  90  G: -1880.898608620701907  |grad|_K:  4.608e-06  alpha:  1.032e-03  linmin: -2.175e-08  t[s]:   3223.01
	FillingsUpdate:  mu: -0.059046043  nElectrons: 448.000000  magneticMoment: [ Abs: 27.13321  Tot: -26.20403 ]
	SubspaceRotationAdjust: set factor to 0.765
ElecMinimize: Iter:  91  G: -1880.898611847250322  |grad|_K:  4.606e-06  alpha:  1.031e-03  linmin: -1.705e-08  t[s]:   3253.08
	FillingsUpdate:  mu: -0.058996892  nElectrons: 448.000000  magneticMoment: [ Abs: 27.19663  Tot: -26.25858 ]
	SubspaceRotationAdjust: set factor to 0.775
ElecMinimize: Iter:  92  G: -1880.898615063579655  |grad|_K:  4.606e-06  alpha:  1.029e-03  linmin: -1.160e-08  t[s]:   3281.69
	FillingsUpdate:  mu: -0.058943632  nElectrons: 448.000000  magneticMoment: [ Abs: 27.25870  Tot: -26.31174 ]
	SubspaceRotationAdjust: set factor to 0.786
ElecMinimize: Iter:  93  G: -1880.898618265750201  |grad|_K:  4.606e-06  alpha:  1.025e-03  linmin: -7.606e-09  t[s]:   3312.50
	FillingsUpdate:  mu: -0.058886410  nElectrons: 448.000000  magneticMoment: [ Abs: 27.31936  Tot: -26.36344 ]
	SubspaceRotationAdjust: set factor to 0.8
ElecMinimize: Iter:  94  G: -1880.898621449779739  |grad|_K:  4.608e-06  alpha:  1.019e-03  linmin: -3.863e-09  t[s]:   3341.08
	FillingsUpdate:  mu: -0.058825397  nElectrons: 448.000000  magneticMoment: [ Abs: 27.37851  Tot: -26.41361 ]
	SubspaceRotationAdjust: set factor to 0.815
ElecMinimize: Iter:  95  G: -1880.898624611625564  |grad|_K:  4.610e-06  alpha:  1.011e-03  linmin:  5.979e-10  t[s]:   3371.52
	FillingsUpdate:  mu: -0.058760791  nElectrons: 448.000000  magneticMoment: [ Abs: 27.43607  Tot: -26.46219 ]
	SubspaceRotationAdjust: set factor to 0.832
ElecMinimize: Iter:  96  G: -1880.898627747025785  |grad|_K:  4.613e-06  alpha:  1.002e-03  linmin:  4.153e-09  t[s]:   3402.21
	FillingsUpdate:  mu: -0.058692802  nElectrons: 448.000000  magneticMoment: [ Abs: 27.49197  Tot: -26.50912 ]
	SubspaceRotationAdjust: set factor to 0.85
ElecMinimize: Iter:  97  G: -1880.898630852048200  |grad|_K:  4.615e-06  alpha:  9.910e-04  linmin:  8.006e-09  t[s]:   3432.34
	FillingsUpdate:  mu: -0.058621665  nElectrons: 448.000000  magneticMoment: [ Abs: 27.54613  Tot: -26.55434 ]
	SubspaceRotationAdjust: set factor to 0.87
ElecMinimize: Iter:  98  G: -1880.898633923001853  |grad|_K:  4.618e-06  alpha:  9.791e-04  linmin:  1.203e-08  t[s]:   3464.33
	FillingsUpdate:  mu: -0.058547626  nElectrons: 448.000000  magneticMoment: [ Abs: 27.59850  Tot: -26.59782 ]
	SubspaceRotationAdjust: set factor to 0.892
ElecMinimize: Iter:  99  G: -1880.898636956285600  |grad|_K:  4.620e-06  alpha:  9.661e-04  linmin:  1.557e-08  t[s]:   3495.00
	FillingsUpdate:  mu: -0.058470943  nElectrons: 448.000000  magneticMoment: [ Abs: 27.64902  Tot: -26.63952 ]
	SubspaceRotationAdjust: set factor to 0.914
ElecMinimize: Iter: 100  G: -1880.898639948908340  |grad|_K:  4.622e-06  alpha:  9.523e-04  linmin:  1.850e-08  t[s]:   3526.30
	FillingsUpdate:  mu: -0.058391877  nElectrons: 448.000000  magneticMoment: [ Abs: 27.69767  Tot: -26.67941 ]
	SubspaceRotationAdjust: set factor to 0.937
ElecMinimize: Iter: 101  G: -1880.898642898413527  |grad|_K:  4.624e-06  alpha:  9.378e-04  linmin:  2.260e-08  t[s]:   3555.77
	FillingsUpdate:  mu: -0.058310703  nElectrons: 448.000000  magneticMoment: [ Abs: 27.74442  Tot: -26.71748 ]
	SubspaceRotationAdjust: set factor to 0.961
ElecMinimize: Iter: 102  G: -1880.898645802499232  |grad|_K:  4.626e-06  alpha:  9.227e-04  linmin:  2.535e-08  t[s]:   3584.89
	FillingsUpdate:  mu: -0.058227690  nElectrons: 448.000000  magneticMoment: [ Abs: 27.78926  Tot: -26.75372 ]
	SubspaceRotationAdjust: set factor to 0.985
ElecMinimize: Iter: 103  G: -1880.898648659761875  |grad|_K:  4.627e-06  alpha:  9.073e-04  linmin:  2.735e-08  t[s]:   3616.46
	FillingsUpdate:  mu: -0.058143103  nElectrons: 448.000000  magneticMoment: [ Abs: 27.83218  Tot: -26.78813 ]
	SubspaceRotationAdjust: set factor to 1.01
ElecMinimize: Iter: 104  G: -1880.898651469366541  |grad|_K:  4.628e-06  alpha:  8.918e-04  linmin:  3.009e-08  t[s]:   3644.70
	FillingsUpdate:  mu: -0.058057209  nElectrons: 448.000000  magneticMoment: [ Abs: 27.87317  Tot: -26.82073 ]
	SubspaceRotationAdjust: set factor to 1.03
ElecMinimize: Iter: 105  G: -1880.898654230778448  |grad|_K:  4.628e-06  alpha:  8.762e-04  linmin:  3.310e-08  t[s]:   3672.18
	FillingsUpdate:  mu: -0.057970270  nElectrons: 448.000000  magneticMoment: [ Abs: 27.91225  Tot: -26.85153 ]
	SubspaceRotationAdjust: set factor to 1.06
ElecMinimize: Iter: 106  G: -1880.898656944003051  |grad|_K:  4.629e-06  alpha:  8.608e-04  linmin:  3.577e-08  t[s]:   3701.09
	FillingsUpdate:  mu: -0.057882535  nElectrons: 448.000000  magneticMoment: [ Abs: 27.94944  Tot: -26.88056 ]
	SubspaceRotationAdjust: set factor to 1.08
ElecMinimize: Iter: 107  G: -1880.898659609730203  |grad|_K:  4.629e-06  alpha:  8.456e-04  linmin:  3.882e-08  t[s]:   3733.00
	FillingsUpdate:  mu: -0.057794252  nElectrons: 448.000000  magneticMoment: [ Abs: 27.98477  Tot: -26.90785 ]
	SubspaceRotationAdjust: set factor to 1.1
ElecMinimize: Iter: 108  G: -1880.898662228902367  |grad|_K:  4.630e-06  alpha:  8.307e-04  linmin:  4.142e-08  t[s]:   3761.68
	FillingsUpdate:  mu: -0.057705653  nElectrons: 448.000000  magneticMoment: [ Abs: 28.01829  Tot: -26.93343 ]
	SubspaceRotationAdjust: set factor to 1.12
ElecMinimize: Iter: 109  G: -1880.898664803099564  |grad|_K:  4.631e-06  alpha:  8.163e-04  linmin:  4.474e-08  t[s]:   3791.91
	FillingsUpdate:  mu: -0.057616973  nElectrons: 448.000000  magneticMoment: [ Abs: 28.05002  Tot: -26.95736 ]
	SubspaceRotationAdjust: set factor to 1.13
ElecMinimize: Iter: 110  G: -1880.898667333828371  |grad|_K:  4.631e-06  alpha:  8.024e-04  linmin:  4.666e-08  t[s]:   3821.30
	FillingsUpdate:  mu: -0.057528425  nElectrons: 448.000000  magneticMoment: [ Abs: 28.08003  Tot: -26.97966 ]
	SubspaceRotationAdjust: set factor to 1.14
ElecMinimize: Iter: 111  G: -1880.898669823394584  |grad|_K:  4.632e-06  alpha:  7.892e-04  linmin:  4.972e-08  t[s]:   3853.81
	FillingsUpdate:  mu: -0.057440225  nElectrons: 448.000000  magneticMoment: [ Abs: 28.10835  Tot: -27.00039 ]
	SubspaceRotationAdjust: set factor to 1.15
ElecMinimize: Iter: 112  G: -1880.898672273841385  |grad|_K:  4.633e-06  alpha:  7.767e-04  linmin:  5.313e-08  t[s]:   3883.02
	FillingsUpdate:  mu: -0.057352580  nElectrons: 448.000000  magneticMoment: [ Abs: 28.13503  Tot: -27.01959 ]
	SubspaceRotationAdjust: set factor to 1.16
ElecMinimize: Iter: 113  G: -1880.898674687379525  |grad|_K:  4.634e-06  alpha:  7.648e-04  linmin:  5.597e-08  t[s]:   3913.66
	FillingsUpdate:  mu: -0.057265690  nElectrons: 448.000000  magneticMoment: [ Abs: 28.16014  Tot: -27.03730 ]
	SubspaceRotationAdjust: set factor to 1.16
ElecMinimize: Iter: 114  G: -1880.898677066454411  |grad|_K:  4.635e-06  alpha:  7.537e-04  linmin:  5.920e-08  t[s]:   3942.49
	FillingsUpdate:  mu: -0.057179749  nElectrons: 448.000000  magneticMoment: [ Abs: 28.18372  Tot: -27.05358 ]
	SubspaceRotationAdjust: set factor to 1.16
ElecMinimize: Iter: 115  G: -1880.898679413289301  |grad|_K:  4.635e-06  alpha:  7.432e-04  linmin:  6.290e-08  t[s]:   3973.37
	FillingsUpdate:  mu: -0.057094952  nElectrons: 448.000000  magneticMoment: [ Abs: 28.20581  Tot: -27.06847 ]
	SubspaceRotationAdjust: set factor to 1.16
ElecMinimize: Iter: 116  G: -1880.898681730044018  |grad|_K:  4.636e-06  alpha:  7.335e-04  linmin:  6.668e-08  t[s]:   4002.95
	FillingsUpdate:  mu: -0.057011486  nElectrons: 448.000000  magneticMoment: [ Abs: 28.22647  Tot: -27.08202 ]
	SubspaceRotationAdjust: set factor to 1.15
ElecMinimize: Iter: 117  G: -1880.898684018686481  |grad|_K:  4.637e-06  alpha:  7.245e-04  linmin:  7.098e-08  t[s]:   4033.44
	FillingsUpdate:  mu: -0.056929539  nElectrons: 448.000000  magneticMoment: [ Abs: 28.24574  Tot: -27.09425 ]
	SubspaceRotationAdjust: set factor to 1.14
ElecMinimize: Iter: 118  G: -1880.898686280879019  |grad|_K:  4.637e-06  alpha:  7.161e-04  linmin:  7.470e-08  t[s]:   4064.01
	FillingsUpdate:  mu: -0.056849289  nElectrons: 448.000000  magneticMoment: [ Abs: 28.26366  Tot: -27.10523 ]
	SubspaceRotationAdjust: set factor to 1.13
ElecMinimize: Iter: 119  G: -1880.898688518388553  |grad|_K:  4.637e-06  alpha:  7.083e-04  linmin:  7.949e-08  t[s]:   4095.91
	FillingsUpdate:  mu: -0.056770917  nElectrons: 448.000000  magneticMoment: [ Abs: 28.28029  Tot: -27.11499 ]
	SubspaceRotationAdjust: set factor to 1.11
ElecMinimize: Iter: 120  G: -1880.898690732188697  |grad|_K:  4.636e-06  alpha:  7.009e-04  linmin:  8.366e-08  t[s]:   4127.39
	FillingsUpdate:  mu: -0.056694593  nElectrons: 448.000000  magneticMoment: [ Abs: 28.29566  Tot: -27.12358 ]
	SubspaceRotationAdjust: set factor to 1.09
ElecMinimize: Iter: 121  G: -1880.898692923343560  |grad|_K:  4.635e-06  alpha:  6.941e-04  linmin:  8.851e-08  t[s]:   4157.71
	FillingsUpdate:  mu: -0.056620487  nElectrons: 448.000000  magneticMoment: [ Abs: 28.30982  Tot: -27.13102 ]
	SubspaceRotationAdjust: set factor to 1.07
ElecMinimize: Iter: 122  G: -1880.898695092231037  |grad|_K:  4.632e-06  alpha:  6.876e-04  linmin:  9.381e-08  t[s]:   4187.87
	FillingsUpdate:  mu: -0.056548758  nElectrons: 448.000000  magneticMoment: [ Abs: 28.32280  Tot: -27.13737 ]
	SubspaceRotationAdjust: set factor to 1.05
ElecMinimize: Iter: 123  G: -1880.898697239031435  |grad|_K:  4.629e-06  alpha:  6.813e-04  linmin:  9.950e-08  t[s]:   4216.23
	FillingsUpdate:  mu: -0.056479559  nElectrons: 448.000000  magneticMoment: [ Abs: 28.33464  Tot: -27.14266 ]
	SubspaceRotationAdjust: set factor to 1.03
ElecMinimize: Iter: 124  G: -1880.898699363667674  |grad|_K:  4.625e-06  alpha:  6.753e-04  linmin:  1.045e-07  t[s]:   4247.52
	FillingsUpdate:  mu: -0.056413027  nElectrons: 448.000000  magneticMoment: [ Abs: 28.34541  Tot: -27.14694 ]
	SubspaceRotationAdjust: set factor to 1
ElecMinimize: Iter: 125  G: -1880.898701465682961  |grad|_K:  4.620e-06  alpha:  6.693e-04  linmin:  1.103e-07  t[s]:   4275.75
	FillingsUpdate:  mu: -0.056349287  nElectrons: 448.000000  magneticMoment: [ Abs: 28.35512  Tot: -27.15024 ]
	SubspaceRotationAdjust: set factor to 0.975
ElecMinimize: Iter: 126  G: -1880.898703544440650  |grad|_K:  4.614e-06  alpha:  6.635e-04  linmin:  1.164e-07  t[s]:   4302.79
	FillingsUpdate:  mu: -0.056288455  nElectrons: 448.000000  magneticMoment: [ Abs: 28.36380  Tot: -27.15260 ]
	SubspaceRotationAdjust: set factor to 0.949
ElecMinimize: Iter: 127  G: -1880.898705598739070  |grad|_K:  4.607e-06  alpha:  6.576e-04  linmin:  1.226e-07  t[s]:   4330.28
	FillingsUpdate:  mu: -0.056230625  nElectrons: 448.000000  magneticMoment: [ Abs: 28.37151  Tot: -27.15408 ]
	SubspaceRotationAdjust: set factor to 0.922
ElecMinimize: Iter: 128  G: -1880.898707627445219  |grad|_K:  4.598e-06  alpha:  6.516e-04  linmin:  1.284e-07  t[s]:   4359.68
	FillingsUpdate:  mu: -0.056175870  nElectrons: 448.000000  magneticMoment: [ Abs: 28.37829  Tot: -27.15470 ]
	SubspaceRotationAdjust: set factor to 0.895
ElecMinimize: Iter: 129  G: -1880.898709629302857  |grad|_K:  4.588e-06  alpha:  6.455e-04  linmin:  1.353e-07  t[s]:   4390.99
	FillingsUpdate:  mu: -0.056124249  nElectrons: 448.000000  magneticMoment: [ Abs: 28.38416  Tot: -27.15452 ]
	SubspaceRotationAdjust: set factor to 0.868
ElecMinimize: Iter: 130  G: -1880.898711602821550  |grad|_K:  4.577e-06  alpha:  6.392e-04  linmin:  1.422e-07  t[s]:   4420.21
	FillingsUpdate:  mu: -0.056075799  nElectrons: 448.000000  magneticMoment: [ Abs: 28.38917  Tot: -27.15358 ]
	SubspaceRotationAdjust: set factor to 0.841
ElecMinimize: Iter: 131  G: -1880.898713546546560  |grad|_K:  4.565e-06  alpha:  6.327e-04  linmin:  1.492e-07  t[s]:   4448.67
	FillingsUpdate:  mu: -0.056030537  nElectrons: 448.000000  magneticMoment: [ Abs: 28.39335  Tot: -27.15192 ]
	SubspaceRotationAdjust: set factor to 0.815
ElecMinimize: Iter: 132  G: -1880.898715458858533  |grad|_K:  4.551e-06  alpha:  6.261e-04  linmin:  1.558e-07  t[s]:   4480.20
	FillingsUpdate:  mu: -0.055988461  nElectrons: 448.000000  magneticMoment: [ Abs: 28.39675  Tot: -27.14960 ]
	SubspaceRotationAdjust: set factor to 0.789
ElecMinimize: Iter: 133  G: -1880.898717338381175  |grad|_K:  4.535e-06  alpha:  6.192e-04  linmin:  1.616e-07  t[s]:   4509.35
	FillingsUpdate:  mu: -0.055949547  nElectrons: 448.000000  magneticMoment: [ Abs: 28.39940  Tot: -27.14664 ]
	SubspaceRotationAdjust: set factor to 0.763
ElecMinimize: Iter: 134  G: -1880.898719183800722  |grad|_K:  4.518e-06  alpha:  6.122e-04  linmin:  1.672e-07  t[s]:   4540.71
	FillingsUpdate:  mu: -0.055913753  nElectrons: 448.000000  magneticMoment: [ Abs: 28.40136  Tot: -27.14311 ]
	SubspaceRotationAdjust: set factor to 0.738
ElecMinimize: Iter: 135  G: -1880.898720993855477  |grad|_K:  4.500e-06  alpha:  6.050e-04  linmin:  1.737e-07  t[s]:   4569.45
	FillingsUpdate:  mu: -0.055881020  nElectrons: 448.000000  magneticMoment: [ Abs: 28.40266  Tot: -27.13905 ]
	SubspaceRotationAdjust: set factor to 0.713
ElecMinimize: Iter: 136  G: -1880.898722767397885  |grad|_K:  4.480e-06  alpha:  5.977e-04  linmin:  1.812e-07  t[s]:   4600.41
	FillingsUpdate:  mu: -0.055851278  nElectrons: 448.000000  magneticMoment: [ Abs: 28.40334  Tot: -27.13449 ]
	SubspaceRotationAdjust: set factor to 0.689
ElecMinimize: Iter: 137  G: -1880.898724503218091  |grad|_K:  4.459e-06  alpha:  5.902e-04  linmin:  1.878e-07  t[s]:   4629.15
	FillingsUpdate:  mu: -0.055824439  nElectrons: 448.000000  magneticMoment: [ Abs: 28.40343  Tot: -27.12948 ]
	SubspaceRotationAdjust: set factor to 0.666
ElecMinimize: Iter: 138  G: -1880.898726200495048  |grad|_K:  4.437e-06  alpha:  5.827e-04  linmin:  1.943e-07  t[s]:   4660.60
	FillingsUpdate:  mu: -0.055800405  nElectrons: 448.000000  magneticMoment: [ Abs: 28.40299  Tot: -27.12406 ]
	SubspaceRotationAdjust: set factor to 0.643
ElecMinimize: Iter: 139  G: -1880.898727858618031  |grad|_K:  4.413e-06  alpha:  5.751e-04  linmin:  2.002e-07  t[s]:   4690.10
	FillingsUpdate:  mu: -0.055779067  nElectrons: 448.000000  magneticMoment: [ Abs: 28.40204  Tot: -27.11828 ]
	SubspaceRotationAdjust: set factor to 0.621
ElecMinimize: Iter: 140  G: -1880.898729477107054  |grad|_K:  4.388e-06  alpha:  5.675e-04  linmin:  2.067e-07  t[s]:   4722.02
	FillingsUpdate:  mu: -0.055760308  nElectrons: 448.000000  magneticMoment: [ Abs: 28.40063  Tot: -27.11216 ]
	SubspaceRotationAdjust: set factor to 0.599
ElecMinimize: Iter: 141  G: -1880.898731055685175  |grad|_K:  4.361e-06  alpha:  5.600e-04  linmin:  2.140e-07  t[s]:   4753.08
	FillingsUpdate:  mu: -0.055744007  nElectrons: 448.000000  magneticMoment: [ Abs: 28.39880  Tot: -27.10575 ]
	SubspaceRotationAdjust: set factor to 0.578
ElecMinimize: Iter: 142  G: -1880.898732594178227  |grad|_K:  4.333e-06  alpha:  5.525e-04  linmin:  2.196e-07  t[s]:   4782.47
	FillingsUpdate:  mu: -0.055730039  nElectrons: 448.000000  magneticMoment: [ Abs: 28.39657  Tot: -27.09909 ]
	SubspaceRotationAdjust: set factor to 0.557
ElecMinimize: Iter: 143  G: -1880.898734092686936  |grad|_K:  4.304e-06  alpha:  5.452e-04  linmin:  2.259e-07  t[s]:   4813.15
	FillingsUpdate:  mu: -0.055718274  nElectrons: 448.000000  magneticMoment: [ Abs: 28.39398  Tot: -27.09219 ]
	SubspaceRotationAdjust: set factor to 0.537
ElecMinimize: Iter: 144  G: -1880.898735551478921  |grad|_K:  4.273e-06  alpha:  5.380e-04  linmin:  2.324e-07  t[s]:   4841.47
	FillingsUpdate:  mu: -0.055708586  nElectrons: 448.000000  magneticMoment: [ Abs: 28.39106  Tot: -27.08510 ]
	SubspaceRotationAdjust: set factor to 0.517
ElecMinimize: Iter: 145  G: -1880.898736970798609  |grad|_K:  4.242e-06  alpha:  5.309e-04  linmin:  2.368e-07  t[s]:   4873.04
	FillingsUpdate:  mu: -0.055700844  nElectrons: 448.000000  magneticMoment: [ Abs: 28.38784  Tot: -27.07784 ]
	SubspaceRotationAdjust: set factor to 0.498
ElecMinimize: Iter: 146  G: -1880.898738351318116  |grad|_K:  4.209e-06  alpha:  5.242e-04  linmin:  2.422e-07  t[s]:   4903.04
	FillingsUpdate:  mu: -0.055694923  nElectrons: 448.000000  magneticMoment: [ Abs: 28.38436  Tot: -27.07043 ]
	SubspaceRotationAdjust: set factor to 0.479
ElecMinimize: Iter: 147  G: -1880.898739693703419  |grad|_K:  4.175e-06  alpha:  5.176e-04  linmin:  2.492e-07  t[s]:   4932.47
	FillingsUpdate:  mu: -0.055690701  nElectrons: 448.000000  magneticMoment: [ Abs: 28.38063  Tot: -27.06290 ]
	SubspaceRotationAdjust: set factor to 0.461
ElecMinimize: Iter: 148  G: -1880.898740998395851  |grad|_K:  4.141e-06  alpha:  5.113e-04  linmin:  2.540e-07  t[s]:   4960.15
	FillingsUpdate:  mu: -0.055688057  nElectrons: 448.000000  magneticMoment: [ Abs: 28.37668  Tot: -27.05528 ]
	SubspaceRotationAdjust: set factor to 0.443
ElecMinimize: Iter: 149  G: -1880.898742266472482  |grad|_K:  4.105e-06  alpha:  5.053e-04  linmin:  2.585e-07  t[s]:   4991.19
	FillingsUpdate:  mu: -0.055686877  nElectrons: 448.000000  magneticMoment: [ Abs: 28.37253  Tot: -27.04757 ]
	SubspaceRotationAdjust: set factor to 0.426
ElecMinimize: Iter: 150  G: -1880.898743498817794  |grad|_K:  4.068e-06  alpha:  4.997e-04  linmin:  2.635e-07  t[s]:   5022.75
	FillingsUpdate:  mu: -0.055687050  nElectrons: 448.000000  magneticMoment: [ Abs: 28.36820  Tot: -27.03980 ]
	SubspaceRotationAdjust: set factor to 0.409
ElecMinimize: Iter: 151  G: -1880.898744696415179  |grad|_K:  4.031e-06  alpha:  4.944e-04  linmin:  2.686e-07  t[s]:   5052.18
	FillingsUpdate:  mu: -0.055688473  nElectrons: 448.000000  magneticMoment: [ Abs: 28.36371  Tot: -27.03199 ]
	SubspaceRotationAdjust: set factor to 0.393
ElecMinimize: Iter: 152  G: -1880.898745860335566  |grad|_K:  3.993e-06  alpha:  4.894e-04  linmin:  2.728e-07  t[s]:   5083.42
	FillingsUpdate:  mu: -0.055691046  nElectrons: 448.000000  magneticMoment: [ Abs: 28.35908  Tot: -27.02415 ]
	SubspaceRotationAdjust: set factor to 0.377
ElecMinimize: Iter: 153  G: -1880.898746991704456  |grad|_K:  3.954e-06  alpha:  4.848e-04  linmin:  2.774e-07  t[s]:   5111.16
	FillingsUpdate:  mu: -0.055694677  nElectrons: 448.000000  magneticMoment: [ Abs: 28.35433  Tot: -27.01628 ]
	SubspaceRotationAdjust: set factor to 0.362
ElecMinimize: Iter: 154  G: -1880.898748091650305  |grad|_K:  3.914e-06  alpha:  4.807e-04  linmin:  2.822e-07  t[s]:   5139.74
	FillingsUpdate:  mu: -0.055699279  nElectrons: 448.000000  magneticMoment: [ Abs: 28.34948  Tot: -27.00841 ]
	SubspaceRotationAdjust: set factor to 0.347
ElecMinimize: Iter: 155  G: -1880.898749161293836  |grad|_K:  3.874e-06  alpha:  4.769e-04  linmin:  2.851e-07  t[s]:   5168.68
	FillingsUpdate:  mu: -0.055704772  nElectrons: 448.000000  magneticMoment: [ Abs: 28.34452  Tot: -27.00053 ]
	SubspaceRotationAdjust: set factor to 0.332
ElecMinimize: Iter: 156  G: -1880.898750201926532  |grad|_K:  3.834e-06  alpha:  4.736e-04  linmin:  2.896e-07  t[s]:   5200.29
	FillingsUpdate:  mu: -0.055711080  nElectrons: 448.000000  magneticMoment: [ Abs: 28.33949  Tot: -26.99266 ]
	SubspaceRotationAdjust: set factor to 0.318
ElecMinimize: Iter: 157  G: -1880.898751214710501  |grad|_K:  3.793e-06  alpha:  4.707e-04  linmin:  2.920e-07  t[s]:   5229.80
	FillingsUpdate:  mu: -0.055718134  nElectrons: 448.000000  magneticMoment: [ Abs: 28.33437  Tot: -26.98481 ]
	SubspaceRotationAdjust: set factor to 0.305
ElecMinimize: Iter: 158  G: -1880.898752200840590  |grad|_K:  3.751e-06  alpha:  4.683e-04  linmin:  2.927e-07  t[s]:   5260.36
	FillingsUpdate:  mu: -0.055725872  nElectrons: 448.000000  magneticMoment: [ Abs: 28.32919  Tot: -26.97697 ]
	SubspaceRotationAdjust: set factor to 0.291
ElecMinimize: Iter: 159  G: -1880.898753161653758  |grad|_K:  3.710e-06  alpha:  4.663e-04  linmin:  2.977e-07  t[s]:   5290.10
	FillingsUpdate:  mu: -0.055734235  nElectrons: 448.000000  magneticMoment: [ Abs: 28.32395  Tot: -26.96916 ]
	SubspaceRotationAdjust: set factor to 0.279
ElecMinimize: Iter: 160  G: -1880.898754098054042  |grad|_K:  3.667e-06  alpha:  4.648e-04  linmin:  2.977e-07  t[s]:   5320.58
	FillingsUpdate:  mu: -0.055743170  nElectrons: 448.000000  magneticMoment: [ Abs: 28.31865  Tot: -26.96137 ]
	SubspaceRotationAdjust: set factor to 0.267
ElecMinimize: Iter: 161  G: -1880.898755011491176  |grad|_K:  3.625e-06  alpha:  4.638e-04  linmin:  3.021e-07  t[s]:   5349.76
	FillingsUpdate:  mu: -0.055752629  nElectrons: 448.000000  magneticMoment: [ Abs: 28.31331  Tot: -26.95361 ]
	SubspaceRotationAdjust: set factor to 0.255
ElecMinimize: Iter: 162  G: -1880.898755902873290  |grad|_K:  3.583e-06  alpha:  4.632e-04  linmin:  2.997e-07  t[s]:   5379.80
	FillingsUpdate:  mu: -0.055762569  nElectrons: 448.000000  magneticMoment: [ Abs: 28.30792  Tot: -26.94588 ]
	SubspaceRotationAdjust: set factor to 0.244
ElecMinimize: Iter: 163  G: -1880.898756773595096  |grad|_K:  3.540e-06  alpha:  4.632e-04  linmin:  3.025e-07  t[s]:   5410.62
	FillingsUpdate:  mu: -0.055772951  nElectrons: 448.000000  magneticMoment: [ Abs: 28.30250  Tot: -26.93818 ]
	SubspaceRotationAdjust: set factor to 0.233
ElecMinimize: Iter: 164  G: -1880.898757624514474  |grad|_K:  3.497e-06  alpha:  4.636e-04  linmin:  3.014e-07  t[s]:   5440.75
	FillingsUpdate:  mu: -0.055783739  nElectrons: 448.000000  magneticMoment: [ Abs: 28.29704  Tot: -26.93052 ]
	SubspaceRotationAdjust: set factor to 0.222
ElecMinimize: Iter: 165  G: -1880.898758456831501  |grad|_K:  3.454e-06  alpha:  4.646e-04  linmin:  3.021e-07  t[s]:   5470.41
	FillingsUpdate:  mu: -0.055794902  nElectrons: 448.000000  magneticMoment: [ Abs: 28.29155  Tot: -26.92288 ]
	SubspaceRotationAdjust: set factor to 0.212
ElecMinimize: Iter: 166  G: -1880.898759271463859  |grad|_K:  3.412e-06  alpha:  4.660e-04  linmin:  2.987e-07  t[s]:   5499.25
	FillingsUpdate:  mu: -0.055806413  nElectrons: 448.000000  magneticMoment: [ Abs: 28.28604  Tot: -26.91528 ]
	SubspaceRotationAdjust: set factor to 0.203
ElecMinimize: Iter: 167  G: -1880.898760069590708  |grad|_K:  3.369e-06  alpha:  4.680e-04  linmin:  3.004e-07  t[s]:   5531.38
	FillingsUpdate:  mu: -0.055818244  nElectrons: 448.000000  magneticMoment: [ Abs: 28.28049  Tot: -26.90771 ]
	SubspaceRotationAdjust: set factor to 0.193
ElecMinimize: Iter: 168  G: -1880.898760851913948  |grad|_K:  3.326e-06  alpha:  4.703e-04  linmin:  2.937e-07  t[s]:   5560.25
	FillingsUpdate:  mu: -0.055830376  nElectrons: 448.000000  magneticMoment: [ Abs: 28.27492  Tot: -26.90016 ]
	SubspaceRotationAdjust: set factor to 0.184
ElecMinimize: Iter: 169  G: -1880.898761619592960  |grad|_K:  3.284e-06  alpha:  4.733e-04  linmin:  2.933e-07  t[s]:   5590.95
	FillingsUpdate:  mu: -0.055842789  nElectrons: 448.000000  magneticMoment: [ Abs: 28.26932  Tot: -26.89264 ]
	SubspaceRotationAdjust: set factor to 0.176
ElecMinimize: Iter: 170  G: -1880.898762373383761  |grad|_K:  3.242e-06  alpha:  4.768e-04  linmin:  2.967e-07  t[s]:   5619.55
	FillingsUpdate:  mu: -0.055855463  nElectrons: 448.000000  magneticMoment: [ Abs: 28.26370  Tot: -26.88515 ]
	SubspaceRotationAdjust: set factor to 0.168
ElecMinimize: Iter: 171  G: -1880.898763113990071  |grad|_K:  3.200e-06  alpha:  4.806e-04  linmin:  2.913e-07  t[s]:   5651.03
	FillingsUpdate:  mu: -0.055868387  nElectrons: 448.000000  magneticMoment: [ Abs: 28.25806  Tot: -26.87767 ]
	SubspaceRotationAdjust: set factor to 0.16
ElecMinimize: Iter: 172  G: -1880.898763842389144  |grad|_K:  3.159e-06  alpha:  4.851e-04  linmin:  2.871e-07  t[s]:   5682.15
	FillingsUpdate:  mu: -0.055881548  nElectrons: 448.000000  magneticMoment: [ Abs: 28.25239  Tot: -26.87022 ]
	SubspaceRotationAdjust: set factor to 0.153
ElecMinimize: Iter: 173  G: -1880.898764559432948  |grad|_K:  3.118e-06  alpha:  4.900e-04  linmin:  2.870e-07  t[s]:   5710.63
	FillingsUpdate:  mu: -0.055894933  nElectrons: 448.000000  magneticMoment: [ Abs: 28.24670  Tot: -26.86279 ]
	SubspaceRotationAdjust: set factor to 0.146
ElecMinimize: Iter: 174  G: -1880.898765265663314  |grad|_K:  3.077e-06  alpha:  4.953e-04  linmin:  2.792e-07  t[s]:   5739.20
	FillingsUpdate:  mu: -0.055908535  nElectrons: 448.000000  magneticMoment: [ Abs: 28.24099  Tot: -26.85537 ]
	SubspaceRotationAdjust: set factor to 0.139
ElecMinimize: Iter: 175  G: -1880.898765962007928  |grad|_K:  3.038e-06  alpha:  5.012e-04  linmin:  2.738e-07  t[s]:   5767.20
	FillingsUpdate:  mu: -0.055922347  nElectrons: 448.000000  magneticMoment: [ Abs: 28.23524  Tot: -26.84796 ]
	SubspaceRotationAdjust: set factor to 0.133
	SubspaceRotationAdjust: resetting CG because factor has changed by 0.133213
ElecMinimize: 	State modified externally: resetting search direction.
ElecMinimize: Iter: 176  G: -1880.898766649117988  |grad|_K:  2.963e-06  alpha:  5.076e-04
ElecMinimize: 	Predicted alpha/alphaT>3.000000, increasing alphaT to 1.522746e-03.
ElecMinimize: 	Predicted alpha/alphaT>3.000000, increasing alphaT to 4.568239e-03.
ElecMinimize: 	Predicted alpha/alphaT>3.000000, increasing alphaT to 1.370472e-02.
	FillingsUpdate:  mu: -0.056271147  nElectrons: 448.000000  magneticMoment: [ Abs: 28.09246  Tot: -26.73677 ]
	SubspaceRotationAdjust: set factor to 0.19
ElecMinimize: Iter: 177  G: -1880.899933846927752  |grad|_K:  2.571e-06  alpha:  7.700e-01  linmin: -1.484e-03  t[s]:   5864.28
	FillingsUpdate:  mu: -0.057283437  nElectrons: 448.000000  magneticMoment: [ Abs: 27.78497  Tot: -26.48507 ]
	SubspaceRotationAdjust: set factor to 0.23
ElecMinimize: Iter: 178  G: -1880.901102501506330  |grad|_K:  2.774e-06  alpha:  9.638e-01  linmin: -1.706e-04  t[s]:   5893.39
	FillingsUpdate:  mu: -0.057508621  nElectrons: 448.000000  magneticMoment: [ Abs: 27.24843  Tot: -26.02106 ]
	SubspaceRotationAdjust: set factor to 0.284
ElecMinimize: Iter: 179  G: -1880.902186285087055  |grad|_K:  2.355e-06  alpha:  8.971e-01  linmin: -3.868e-05  t[s]:   5922.48
	FillingsUpdate:  mu: -0.058199647  nElectrons: 448.000000  magneticMoment: [ Abs: 26.80155  Tot: -25.61467 ]
	SubspaceRotationAdjust: set factor to 0.343
ElecMinimize: Iter: 180  G: -1880.902736310183627  |grad|_K:  2.080e-06  alpha:  6.613e-01  linmin: -8.025e-07  t[s]:   5952.07
	FillingsUpdate:  mu: -0.058545459  nElectrons: 448.000000  magneticMoment: [ Abs: 26.16923  Tot: -25.02177 ]
	SubspaceRotationAdjust: set factor to 0.402
ElecMinimize: Iter: 181  G: -1880.903247041142549  |grad|_K:  1.913e-06  alpha:  8.021e-01  linmin:  5.455e-06  t[s]:   5982.99
	FillingsUpdate:  mu: -0.058943060  nElectrons: 448.000000  magneticMoment: [ Abs: 25.57871  Tot: -24.46294 ]
	SubspaceRotationAdjust: set factor to 0.474
ElecMinimize: Iter: 182  G: -1880.903587974121592  |grad|_K:  1.624e-06  alpha:  6.340e-01  linmin:  2.383e-06  t[s]:   6011.67
	FillingsUpdate:  mu: -0.059636207  nElectrons: 448.000000  magneticMoment: [ Abs: 24.92054  Tot: -23.84271 ]
	SubspaceRotationAdjust: set factor to 0.559
ElecMinimize: Iter: 183  G: -1880.903867381060309  |grad|_K:  1.533e-06  alpha:  7.207e-01  linmin:  1.435e-06  t[s]:   6043.19
	FillingsUpdate:  mu: -0.059544801  nElectrons: 448.000000  magneticMoment: [ Abs: 24.16850  Tot: -23.14045 ]
	SubspaceRotationAdjust: set factor to 0.655
ElecMinimize: Iter: 184  G: -1880.904125675644082  |grad|_K:  1.319e-06  alpha:  7.476e-01  linmin:  7.933e-07  t[s]:   6072.99
	FillingsUpdate:  mu: -0.059969548  nElectrons: 448.000000  magneticMoment: [ Abs: 23.62121  Tot: -22.63571 ]
	SubspaceRotationAdjust: set factor to 0.76
ElecMinimize: Iter: 185  G: -1880.904287249703884  |grad|_K:  1.016e-06  alpha:  6.306e-01  linmin: -4.225e-08  t[s]:   6104.14
	FillingsUpdate:  mu: -0.060307585  nElectrons: 448.000000  magneticMoment: [ Abs: 23.35108  Tot: -22.39186 ]
	SubspaceRotationAdjust: set factor to 0.803
ElecMinimize: Iter: 186  G: -1880.904361925521243  |grad|_K:  6.114e-07  alpha:  4.910e-01  linmin: -5.003e-07  t[s]:   6133.54
	FillingsUpdate:  mu: -0.060165536  nElectrons: 448.000000  magneticMoment: [ Abs: 23.25518  Tot: -22.31097 ]
	SubspaceRotationAdjust: set factor to 0.812
ElecMinimize: Iter: 187  G: -1880.904391440416475  |grad|_K:  4.329e-07  alpha:  5.360e-01  linmin: -1.248e-06  t[s]:   6162.36
	FillingsUpdate:  mu: -0.060340980  nElectrons: 448.000000  magneticMoment: [ Abs: 23.21913  Tot: -22.28601 ]
	SubspaceRotationAdjust: set factor to 0.885
ElecMinimize: Iter: 188  G: -1880.904408311791258  |grad|_K:  3.069e-07  alpha:  6.107e-01  linmin: -3.110e-07  t[s]:   6192.29
	FillingsUpdate:  mu: -0.060248907  nElectrons: 448.000000  magneticMoment: [ Abs: 23.22515  Tot: -22.29618 ]
	SubspaceRotationAdjust: set factor to 1.04
	SubspaceRotationAdjust: resetting CG because factor has changed by 7.79468
ElecMinimize: 	State modified externally: resetting search direction.
ElecMinimize: Iter: 189  G: -1880.904415788835195  |grad|_K:  2.394e-07  alpha:  5.389e-01
	FillingsUpdate:  mu: -0.060319567  nElectrons: 448.000000  magneticMoment: [ Abs: 23.24068  Tot: -22.31023 ]
	SubspaceRotationAdjust: set factor to 1.4
ElecMinimize: Iter: 190  G: -1880.904418912429264  |grad|_K:  1.706e-07  alpha:  3.700e-01  linmin:  1.470e-08  t[s]:   6271.12
	FillingsUpdate:  mu: -0.060192796  nElectrons: 448.000000  magneticMoment: [ Abs: 23.28899  Tot: -22.35357 ]
	SubspaceRotationAdjust: set factor to 1.31
ElecMinimize: Iter: 191  G: -1880.904422272721604  |grad|_K:  1.314e-07  alpha:  7.852e-01  linmin:  3.285e-06  t[s]:   6299.99
	FillingsUpdate:  mu: -0.060301587  nElectrons: 448.000000  magneticMoment: [ Abs: 23.31566  Tot: -22.37685 ]
	SubspaceRotationAdjust: set factor to 1.03
ElecMinimize: Iter: 192  G: -1880.904423293303807  |grad|_K:  1.162e-07  alpha:  4.024e-01  linmin: -2.533e-07  t[s]:   6329.83
	FillingsUpdate:  mu: -0.060167033  nElectrons: 448.000000  magneticMoment: [ Abs: 23.35231  Tot: -22.40843 ]
	SubspaceRotationAdjust: set factor to 0.849
ElecMinimize: Iter: 193  G: -1880.904424242643472  |grad|_K:  8.973e-08  alpha:  4.773e-01  linmin:  2.126e-07  t[s]:   6359.89
	FillingsUpdate:  mu: -0.060179926  nElectrons: 448.000000  magneticMoment: [ Abs: 23.37841  Tot: -22.43047 ]
	SubspaceRotationAdjust: set factor to 1.03
ElecMinimize: Iter: 194  G: -1880.904424822678038  |grad|_K:  5.041e-08  alpha:  4.894e-01  linmin: -1.604e-08  t[s]:   6389.62
	FillingsUpdate:  mu: -0.060202001  nElectrons: 448.000000  magneticMoment: [ Abs: 23.38678  Tot: -22.43742 ]
	SubspaceRotationAdjust: set factor to 0.961
ElecMinimize: Iter: 195  G: -1880.904424986713366  |grad|_K:  3.343e-08  alpha:  4.383e-01  linmin: -1.293e-07  t[s]:   6421.87
	FillingsUpdate:  mu: -0.060169897  nElectrons: 448.000000  magneticMoment: [ Abs: 23.39164  Tot: -22.44158 ]
	SubspaceRotationAdjust: set factor to 0.764
ElecMinimize: Iter: 196  G: -1880.904425061727352  |grad|_K:  2.437e-08  alpha:  4.558e-01  linmin: -9.195e-09  t[s]:   6450.88
	FillingsUpdate:  mu: -0.060182995  nElectrons: 448.000000  magneticMoment: [ Abs: 23.39509  Tot: -22.44462 ]
	SubspaceRotationAdjust: set factor to 0.687
ElecMinimize: Iter: 197  G: -1880.904425109716385  |grad|_K:  1.833e-08  alpha:  5.478e-01  linmin:  5.020e-08  t[s]:   6481.81
	FillingsUpdate:  mu: -0.060180866  nElectrons: 448.000000  magneticMoment: [ Abs: 23.39709  Tot: -22.44646 ]
	SubspaceRotationAdjust: set factor to 0.769
ElecMinimize: Iter: 198  G: -1880.904425133741825  |grad|_K:  1.305e-08  alpha:  4.858e-01  linmin: -2.373e-07  t[s]:   6510.00
	FillingsUpdate:  mu: -0.060173848  nElectrons: 448.000000  magneticMoment: [ Abs: 23.39823  Tot: -22.44756 ]
	SubspaceRotationAdjust: set factor to 0.701
ElecMinimize: Iter: 199  G: -1880.904425145540017  |grad|_K:  7.624e-09  alpha:  4.678e-01  linmin: -2.042e-07  t[s]:   6538.00
	FillingsUpdate:  mu: -0.060177744  nElectrons: 448.000000  magneticMoment: [ Abs: 23.39876  Tot: -22.44811 ]
	SubspaceRotationAdjust: set factor to 0.659
ElecMinimize: Iter: 200  G: -1880.904425150129327  |grad|_K:  6.020e-09  alpha:  5.360e-01  linmin: -1.198e-07  t[s]:   6569.29
ElecMinimize: None of the convergence criteria satisfied after 200 iterations.
Setting wave functions to eigenvectors of Hamiltonian
Vacuum energy after initial minimize, F = -1880.904425150129327

Shifting auxilliary hamiltonian by -0.111074 to set nElectrons=448.000000
	Linear fluid (dielectric constant: 78.4, screening length: 5.74355 Bohr) occupying 0.729467 of unit cell:	Completed after 13 iterations at t[s]:   6577.62

-------- Electronic minimization -----------
	Linear fluid (dielectric constant: 78.4, screening length: 5.74355 Bohr) occupying 0.729467 of unit cell:	Completed after 0 iterations at t[s]:   6585.91
[...]
	FillingsUpdate:  mu: -0.171251800  nElectrons: 433.196626  magneticMoment: [ Abs: 0.06078  Tot: -0.05580 ]
	SubspaceRotationAdjust: set factor to 0.199
ElecMinimize: Iter:  59  G: -1881.276506769506113  |grad|_K:  5.364e-08  alpha:  1.261e-01  linmin:  3.111e-06  t[s]:   8685.36
	Linear fluid (dielectric constant: 78.4, screening length: 5.74355 Bohr) occupying 0.797341 of unit cell:	Completed after 0 iterations at t[s]:   8695.99
	Linear fluid (dielectric constant: 78.4, screening length: 5.74355 Bohr) occupying 0.797341 of unit cell:	Completed after 0 iterations at t[s]:   8706.48
	FillingsUpdate:  mu: -0.171251800  nElectrons: 433.195373  magneticMoment: [ Abs: 0.05685  Tot: -0.05204 ]
	SubspaceRotationAdjust: set factor to 0.284
ElecMinimize: Iter:  60  G: -1881.276506827313369  |grad|_K:  4.677e-08  alpha:  1.374e-01  linmin: -1.397e-05  t[s]:   8718.20
	Linear fluid (dielectric constant: 78.4, screening length: 5.74355 Bohr) occupying 0.797341 of unit cell:	Completed after 2 iterations at t[s]:   8728.21
	Linear fluid (dielectric constant: 78.4, screening length: 5.74355 Bohr) occupying 0.797341 of unit cell:	Completed after 0 iterations at t[s]:   8738.37
ElecMinimize: 	Step increased G by 1.598892e-09, reducing alpha to 5.228905e-03.
	Linear fluid (dielectric constant: 78.4, screening length: 5.74355 Bohr) occupying 0.797341 of unit cell:	Completed after 0 iterations at t[s]:   8757.67
ElecMinimize: 	Step increased G by 6.918071e-09, reducing alpha to 5.228905e-04.
	Linear fluid (dielectric constant: 78.4, screening length: 5.74355 Bohr) occupying 0.797341 of unit cell:	Completed after 0 iterations at t[s]:   8779.57
ElecMinimize: 	Step increased G by 6.880327e-09, reducing alpha to 5.228905e-05.
ElecMinimize: 	Step failed to reduce G after 3 attempts. Quitting step.
ElecMinimize: 	Undoing step.
	Linear fluid (dielectric constant: 78.4, screening length: 5.74355 Bohr) occupying 0.797341 of unit cell:	Completed after 0 iterations at t[s]:   8798.91
ElecMinimize: 	Step failed: resetting search direction.
	FillingsUpdate:  mu: -0.171251800  nElectrons: 433.195366  magneticMoment: [ Abs: 0.05683  Tot: -0.05203 ]
	SubspaceRotationAdjust: set factor to 0.235
ElecMinimize: Iter:  61  G: -1881.276506820429631  |grad|_K:  5.288e-08  alpha:  5.229e-05
	Linear fluid (dielectric constant: 78.4, screening length: 5.74355 Bohr) occupying 0.797341 of unit cell:	Completed after 2 iterations at t[s]:   8820.80
	Linear fluid (dielectric constant: 78.4, screening length: 5.74355 Bohr) occupying 0.797341 of unit cell:	Completed after 0 iterations at t[s]:   8831.93
	FillingsUpdate:  mu: -0.171251800  nElectrons: 433.196272  magneticMoment: [ Abs: 0.05654  Tot: -0.05173 ]
	SubspaceRotationAdjust: set factor to 0.158
ElecMinimize: Iter:  62  G: -1881.276506834383554  |grad|_K:  4.273e-08  alpha:  8.036e-02  linmin: -1.058e-04  t[s]:   8844.84
	Linear fluid (dielectric constant: 78.4, screening length: 5.74355 Bohr) occupying 0.797341 of unit cell:	Completed after 0 iterations at t[s]:   8854.00
ElecMinimize: 	Predicted alpha/alphaT>3.000000, increasing alphaT to 2.410866e-01.
	Linear fluid (dielectric constant: 78.4, screening length: 5.74355 Bohr) occupying 0.797341 of unit cell:	Completed after 0 iterations at t[s]:   8864.53
	Linear fluid (dielectric constant: 78.4, screening length: 5.74355 Bohr) occupying 0.797341 of unit cell:	Completed after 0 iterations at t[s]:   8874.66
	FillingsUpdate:  mu: -0.171251800  nElectrons: 433.195968  magneticMoment: [ Abs: 0.05518  Tot: -0.05036 ]
	SubspaceRotationAdjust: set factor to 0.145
ElecMinimize: Iter:  63  G: -1881.276506908747933  |grad|_K:  3.314e-08  alpha:  2.522e-01  linmin: -9.067e-08  t[s]:   8887.06
	Linear fluid (dielectric constant: 78.4, screening length: 5.74355 Bohr) occupying 0.797341 of unit cell:	Completed after 0 iterations at t[s]:   8896.69
	Linear fluid (dielectric constant: 78.4, screening length: 5.74355 Bohr) occupying 0.797341 of unit cell:	Completed after 0 iterations at t[s]:   8907.11
	FillingsUpdate:  mu: -0.171251800  nElectrons: 433.194390  magneticMoment: [ Abs: 0.05387  Tot: -0.04908 ]
	SubspaceRotationAdjust: set factor to 0.202
ElecMinimize: Iter:  64  G: -1881.276506947706366  |grad|_K:  2.762e-08  alpha:  2.452e-01  linmin: -1.021e-04  t[s]:   8920.19
	Linear fluid (dielectric constant: 78.4, screening length: 5.74355 Bohr) occupying 0.797341 of unit cell:	Completed after 2 iterations at t[s]:   8929.54
	Linear fluid (dielectric constant: 78.4, screening length: 5.74355 Bohr) occupying 0.797341 of unit cell:	Completed after 0 iterations at t[s]:   8938.89
ElecMinimize: 	Step increased G by 2.850129e-08, reducing alpha to 5.803205e-03.
	Linear fluid (dielectric constant: 78.4, screening length: 5.74355 Bohr) occupying 0.797341 of unit cell:	Completed after 0 iterations at t[s]:   8959.87
ElecMinimize: 	Step increased G by 3.156038e-08, reducing alpha to 5.803205e-04.
	Linear fluid (dielectric constant: 78.4, screening length: 5.74355 Bohr) occupying 0.797341 of unit cell:	Completed after 0 iterations at t[s]:   8978.67
ElecMinimize: 	Step increased G by 3.093692e-08, reducing alpha to 5.803205e-05.
ElecMinimize: 	Step failed to reduce G after 3 attempts. Quitting step.
ElecMinimize: 	Undoing step.
	Linear fluid (dielectric constant: 78.4, screening length: 5.74355 Bohr) occupying 0.797341 of unit cell:	Completed after 0 iterations at t[s]:   8998.77
ElecMinimize: 	Step failed: resetting search direction.
	FillingsUpdate:  mu: -0.171251800  nElectrons: 433.194387  magneticMoment: [ Abs: 0.05387  Tot: -0.04907 ]
	SubspaceRotationAdjust: set factor to 0.136
ElecMinimize: Iter:  65  G: -1881.276506916763083  |grad|_K:  6.054e-08  alpha:  5.803e-05
	Linear fluid (dielectric constant: 78.4, screening length: 5.74355 Bohr) occupying 0.797340 of unit cell:	Completed after 2 iterations at t[s]:   9021.42
	Linear fluid (dielectric constant: 78.4, screening length: 5.74355 Bohr) occupying 0.797341 of unit cell:	Completed after 0 iterations at t[s]:   9032.10
	FillingsUpdate:  mu: -0.171251800  nElectrons: 433.196072  magneticMoment: [ Abs: 0.05357  Tot: -0.04878 ]
	SubspaceRotationAdjust: set factor to 0.0623
ElecMinimize: Iter:  66  G: -1881.276506968866670  |grad|_K:  3.605e-08  alpha:  1.153e-01  linmin:  1.272e-03  t[s]:   9044.77
	Linear fluid (dielectric constant: 78.4, screening length: 5.74355 Bohr) occupying 0.797341 of unit cell:	Completed after 0 iterations at t[s]:   9054.05
ElecMinimize: 	Predicted alpha/alphaT>3.000000, increasing alphaT to 3.457845e-01.
	Linear fluid (dielectric constant: 78.4, screening length: 5.74355 Bohr) occupying 0.797341 of unit cell:	Completed after 2 iterations at t[s]:   9065.14
	Linear fluid (dielectric constant: 78.4, screening length: 5.74355 Bohr) occupying 0.797341 of unit cell:	Completed after 0 iterations at t[s]:   9075.76
ElecMinimize: 	Step increased G by 1.113904e-08, reducing alpha to 1.496114e-02.
	Linear fluid (dielectric constant: 78.4, screening length: 5.74355 Bohr) occupying 0.797341 of unit cell:	Completed after 0 iterations at t[s]:   9096.47
ElecMinimize: 	Step increased G by 2.350157e-08, reducing alpha to 1.496114e-03.
	Linear fluid (dielectric constant: 78.4, screening length: 5.74355 Bohr) occupying 0.797341 of unit cell:	Completed after 0 iterations at t[s]:   9117.18
ElecMinimize: 	Step increased G by 2.533284e-08, reducing alpha to 1.496114e-04.
ElecMinimize: 	Step failed to reduce G after 3 attempts. Quitting step.
ElecMinimize: 	Undoing step.
	Linear fluid (dielectric constant: 78.4, screening length: 5.74355 Bohr) occupying 0.797341 of unit cell:	Completed after 0 iterations at t[s]:   9138.13
ElecMinimize: 	Step failed: resetting search direction.
	FillingsUpdate:  mu: -0.171251800  nElectrons: 433.196070  magneticMoment: [ Abs: 0.05356  Tot: -0.04878 ]
	SubspaceRotationAdjust: set factor to 0.102
ElecMinimize: Iter:  67  G: -1881.276506943500181  |grad|_K:  1.541e-08  alpha:  1.496e-04
	Linear fluid (dielectric constant: 78.4, screening length: 5.74355 Bohr) occupying 0.797341 of unit cell:	Completed after 0 iterations at t[s]:   9159.72
ElecMinimize: 	Predicted alpha/alphaT>3.000000, increasing alphaT to 3.457845e-01.
	Linear fluid (dielectric constant: 78.4, screening length: 5.74355 Bohr) occupying 0.797341 of unit cell:	Completed after 0 iterations at t[s]:   9170.69
	Linear fluid (dielectric constant: 78.4, screening length: 5.74355 Bohr) occupying 0.797341 of unit cell:	Completed after 0 iterations at t[s]:   9182.03
	FillingsUpdate:  mu: -0.171251800  nElectrons: 433.195972  magneticMoment: [ Abs: 0.05326  Tot: -0.04851 ]
	SubspaceRotationAdjust: set factor to 0.107
ElecMinimize: Iter:  68  G: -1881.276506956957974  |grad|_K:  1.037e-08  alpha:  3.859e-01  linmin:  5.412e-05  t[s]:   9193.87
	Linear fluid (dielectric constant: 78.4, screening length: 5.74355 Bohr) occupying 0.797341 of unit cell:	Completed after 0 iterations at t[s]:   9202.60
ElecMinimize: 	Predicted alpha/alphaT>3.000000, increasing alphaT to 1.157622e+00.
	Linear fluid (dielectric constant: 78.4, screening length: 5.74355 Bohr) occupying 0.797341 of unit cell:	Completed after 0 iterations at t[s]:   9212.52
	Linear fluid (dielectric constant: 78.4, screening length: 5.74355 Bohr) occupying 0.797340 of unit cell:	Completed after 0 iterations at t[s]:   9222.80
	FillingsUpdate:  mu: -0.171251800  nElectrons: 433.195022  magneticMoment: [ Abs: 0.05048  Tot: -0.04596 ]
	SubspaceRotationAdjust: set factor to 0.122
ElecMinimize: Iter:  69  G: -1881.276506983339004  |grad|_K:  1.840e-08  alpha:  1.805e+00  linmin:  1.704e-05  t[s]:   9233.97
	Linear fluid (dielectric constant: 78.4, screening length: 5.74355 Bohr) occupying 0.797340 of unit cell:	Completed after 2 iterations at t[s]:   9242.56
	Linear fluid (dielectric constant: 78.4, screening length: 5.74355 Bohr) occupying 0.797340 of unit cell:	Completed after 2 iterations at t[s]:   9254.08
ElecMinimize: 	Step increased G by 1.147964e-08, reducing alpha to 2.667666e-02.
	Linear fluid (dielectric constant: 78.4, screening length: 5.74355 Bohr) occupying 0.797340 of unit cell:	Completed after 0 iterations at t[s]:   9274.49
	FillingsUpdate:  mu: -0.171251800  nElectrons: 433.194968  magneticMoment: [ Abs: 0.05033  Tot: -0.04581 ]
	SubspaceRotationAdjust: set factor to 0.0789
ElecMinimize: Iter:  70  G: -1881.276506986558388  |grad|_K:  4.569e-08  alpha:  2.668e-02  linmin:  4.440e-05  t[s]:   9288.73
	Linear fluid (dielectric constant: 78.4, screening length: 5.74355 Bohr) occupying 0.797340 of unit cell:	Completed after 0 iterations at t[s]:   9297.92
	Linear fluid (dielectric constant: 78.4, screening length: 5.74355 Bohr) occupying 0.797340 of unit cell:	Completed after 0 iterations at t[s]:   9308.02
	FillingsUpdate:  mu: -0.171251800  nElectrons: 433.194803  magneticMoment: [ Abs: 0.04862  Tot: -0.04420 ]
	SubspaceRotationAdjust: set factor to 0.0518
ElecMinimize: Iter:  71  G: -1881.276506994873898  |grad|_K:  3.704e-08  alpha:  4.504e-02  linmin: -8.439e-06  t[s]:   9319.55
ElecMinimize: Converged (|Delta G|<1.000000e-08 for 2 iters).
Setting wave functions to eigenvectors of Hamiltonian
Single-point solvation energy estimate, DeltaG = -0.372081844744571

# Ionic positions in lattice coordinates:
ion Ti   0.166666674541666   0.083333342083333   0.564482119332833 1
ion Ti   0.083333341208333   0.166666675416667   0.435517880667167 1
ion Ti   0.416666674541666   0.083333342083333   0.564482119332833 1
ion Ti   0.333333341208333   0.166666675416667   0.435517880667167 1
ion Ti   0.666666674541666   0.083333342083333   0.564482119332833 1
ion Ti   0.583333341208333   0.166666675416667   0.435517880667167 1
ion Ti   0.916666674541666   0.083333342083333   0.564482119332833 1
ion Ti   0.833333341208333   0.166666675416667   0.435517880667167 1
ion Ti   0.166666674541666   0.333333342083333   0.564482119332833 1
ion Ti   0.083333341208333   0.416666675416667   0.435517880667167 1
ion Ti   0.416666674541666   0.333333342083333   0.564482119332833 1
ion Ti   0.333333341208333   0.416666675416667   0.435517880667167 1
ion Ti   0.666666674541666   0.333333342083333   0.564482119332833 1
ion Ti   0.583333341208333   0.416666675416667   0.435517880667167 1
ion Ti   0.916666674541666   0.333333342083333   0.564482119332833 1
ion Ti   0.833333341208333   0.416666675416667   0.435517880667167 1
ion Ti   0.166666674541666   0.583333342083333   0.564482119332833 1
ion Ti   0.083333341208333   0.666666675416667   0.435517880667167 1
ion Ti   0.416666674541666   0.583333342083333   0.564482119332833 1
ion Ti   0.333333341208333   0.666666675416667   0.435517880667167 1
ion Ti   0.666666674541666   0.583333342083333   0.564482119332833 1
ion Ti   0.583333341208333   0.666666675416667   0.435517880667167 1
ion Ti   0.916666674541666   0.583333342083333   0.564482119332833 1
ion Ti   0.833333341208333   0.666666675416667   0.435517880667167 1
ion Ti   0.166666674541666   0.833333342083333   0.564482119332833 1
ion Ti   0.083333341208333   0.916666675416667   0.435517880667167 1
ion Ti   0.416666674541666   0.833333342083333   0.564482119332833 1
ion Ti   0.333333341208333   0.916666675416667   0.435517880667167 1
ion Ti   0.666666674541666   0.833333342083333   0.564482119332833 1
ion Ti   0.583333341208333   0.916666675416667   0.435517880667167 1
ion Ti   0.916666674541666   0.833333342083333   0.564482119332833 1
ion Ti   0.833333341208333   0.916666675416667   0.435517880667167 1
ion C   0.000000007874999   0.000000008750000   0.500000000000000 1
ion C   0.250000007874999   0.000000008750000   0.500000000000000 1
ion C   0.500000007875000   0.000000008750000   0.500000000000000 1
ion C   0.750000007875000   0.000000008750000   0.500000000000000 1
ion C   0.000000007874999   0.250000008750000   0.500000000000000 1
ion C   0.250000007874999   0.250000008750000   0.500000000000000 1
ion C   0.500000007875000   0.250000008750000   0.500000000000000 1
ion C   0.750000007875000   0.250000008750000   0.500000000000000 1
ion C   0.000000007874999   0.500000008750000   0.500000000000000 1
ion C   0.250000007874999   0.500000008750000   0.500000000000000 1
ion C   0.500000007875000   0.500000008750000   0.500000000000000 1
ion C   0.750000007875000   0.500000008750000   0.500000000000000 1
ion C   1.000000007875000   0.750000008750000   0.500000000000000 1
ion C   0.250000007874999   0.750000008750000   0.500000000000000 1
ion C   0.500000007875000   0.750000008750000   0.500000000000000 1
ion C   0.750000007875000   0.750000008750000   0.500000000000000 1


# Forces in Lattice coordinates:
force Ti   0.000000000000000   0.000000000000000   0.004513857525018 1
force Ti   0.000000000000000   0.000000000000000  -0.004513857525246 1
force Ti   0.000000000000000  -0.000000000000000   0.004513857525245 1
force Ti  -0.000000000000000   0.000000000000000  -0.004513857525245 1
force Ti  -0.000000000000000   0.000000000000000   0.004513857525246 1
force Ti  -0.000000000000000   0.000000000000000  -0.004513857525245 1
force Ti   0.000000000000000  -0.000000000000000   0.004513857525245 1
force Ti  -0.000000000000000  -0.000000000000000  -0.004513857525246 1
force Ti   0.000000000000000  -0.000000000000000   0.004513857525017 1
force Ti   0.000000000000000  -0.000000000000000  -0.004513857525246 1
force Ti   0.000000000000000  -0.000000000000000   0.004513857525018 1
force Ti  -0.000000000000000  -0.000000000000000  -0.004513857525245 1
force Ti  -0.000000000000000  -0.000000000000000   0.004513857525018 1
force Ti  -0.000000000000000   0.000000000000000  -0.004513857525245 1
force Ti   0.000000000000000   0.000000000000000   0.004513857525018 1
force Ti  -0.000000000000000   0.000000000000000  -0.004513857525245 1
force Ti   0.000000000000000   0.000000000000000   0.004513857525018 1
force Ti  -0.000000000000000   0.000000000000000  -0.004513857525245 1
force Ti   0.000000000000000   0.000000000000000   0.004513857525018 1
force Ti   0.000000000000000  -0.000000000000000  -0.004513857525246 1
force Ti  -0.000000000000000  -0.000000000000000   0.004513857525018 1
force Ti  -0.000000000000000   0.000000000000000  -0.004513857525245 1
force Ti   0.000000000000000  -0.000000000000000   0.004513857525019 1
force Ti   0.000000000000000   0.000000000000000  -0.004513857525246 1
force Ti   0.000000000000000  -0.000000000000000   0.004513857525245 1
force Ti  -0.000000000000000   0.000000000000000  -0.004513857525246 1
force Ti  -0.000000000000000  -0.000000000000000   0.004513857525245 1
force Ti  -0.000000000000000   0.000000000000000  -0.004513857525245 1
force Ti  -0.000000000000000  -0.000000000000000   0.004513857525244 1
force Ti   0.000000000000000   0.000000000000000  -0.004513857525246 1
force Ti   0.000000000000000  -0.000000000000000   0.004513857525245 1
force Ti  -0.000000000000000   0.000000000000000  -0.004513857525246 1
force C  -0.000000000000000  -0.000000000000000  -0.000000000000000 1
force C   0.000000000000000  -0.000000000000000  -0.000000000000000 1
force C   0.000000000000000  -0.000000000000000   0.000000000000000 1
force C   0.000000000000000  -0.000000000000000   0.000000000000000 1
force C   0.000000000000000  -0.000000000000000   0.000000000000000 1
force C   0.000000000000000  -0.000000000000000  -0.000000000000000 1
force C  -0.000000000000000   0.000000000000000   0.000000000000000 1
force C  -0.000000000000000   0.000000000000000   0.000000000000000 1
force C  -0.000000000000000  -0.000000000000000  -0.000000000000000 1
force C   0.000000000000000  -0.000000000000000  -0.000000000000000 1
force C  -0.000000000000000   0.000000000000000  -0.000000000000000 1
force C   0.000000000000000  -0.000000000000000  -0.000000000000000 1
force C  -0.000000000000000  -0.000000000000000  -0.000000000000000 1
force C  -0.000000000000000   0.000000000000000  -0.000000000000000 1
force C   0.000000000000000   0.000000000000000  -0.000000000000000 1
force C  -0.000000000000000   0.000000000000000  -0.000000000000000 1

# Energy components:
   A_diel =       -8.6777745696240558
   Eewald =    10490.4824775660490559
       EH =    11530.5522516156943311
     Eloc =   -24338.7173313987550500
      Enl =      188.2055086334514726
      Exc =     -315.9006615067351049
 Exc_core =       42.4415560142854389
       KE =      456.0845719241438587
  MuShift =        0.2204927118695517
-------------------------------------
     Etot =    -1955.3089090096182190
       TS =        0.1529877753230855
-------------------------------------
        F =    -1955.4618967849412456
      muN =      -74.1853897900673189
-------------------------------------
        G =    -1881.2765069948738983

IonicMinimize: Iter:   0  G: -1881.276506994873898  |grad|_K:  6.517e-05  t[s]:   9327.63
IonicMinimize: Converged (|grad|_K<1.000000e-04).

#--- Lowdin population analysis ---
# oxidation-state Ti +1.140 +1.140 +1.140 +1.140 +1.140 +1.140 +1.140 +1.140 +1.140 +1.140 +1.140 +1.140 +1.140 +1.140 +1.140 +1.140 +1.140 +1.140 +1.140 +1.140 +1.140 +1.140 +1.140 +1.140 +1.140 +1.140 +1.140 +1.140 +1.140 +1.140 +1.140 +1.140
# magnetic-moments Ti -0.001 -0.001 -0.001 -0.001 -0.001 -0.001 -0.001 -0.001 -0.001 -0.001 -0.001 -0.001 -0.001 -0.001 -0.001 -0.001 -0.001 -0.001 -0.001 -0.001 -0.001 -0.001 -0.001 -0.001 -0.001 -0.001 -0.001 -0.001 -0.001 -0.001 -0.001 -0.001
# oxidation-state C -1.076 -1.076 -1.076 -1.076 -1.076 -1.076 -1.076 -1.076 -1.076 -1.076 -1.076 -1.076 -1.076 -1.076 -1.076 -1.076
# magnetic-moments C +0.000 +0.000 +0.000 +0.000 +0.000 +0.000 +0.000 +0.000 +0.000 +0.000 +0.000 +0.000 +0.000 +0.000 +0.000 +0.000


Dumping 'NbTe2.fillings' ... done
Dumping 'NbTe2.wfns' ... done
Dumping 'NbTe2.fluidState' ... done
Dumping 'NbTe2.ionpos' ... done
Dumping 'NbTe2.eigenvals' ... done
End date and time: Fri Jan 22 16:21:33 2021  (Duration: 0-2:35:32.38)
Done!
