
*************** JDFTx 1.5.0  ***************

Start date and time: Sat Jul 11 20:37:47 2020
Executable jdftx_gpu with command-line: -i Charged.in -o Charged.out
Running on hosts (process indices):  amax (0-1)
Divided in process groups (process indices):  0 (0)  1 (1)
gpuInit: Found compatible cuda device 0 'Tesla K80'
gpuInit: Found compatible cuda device 1 'Tesla K80'
gpuInit: Selected device 0
Resource initialization completed at t[s]:     13.95
Run totals: 2 processes, 24 threads, 2 GPUs


Input parsed successfully to the following command list (including defaults):

basis kpoint-dependent
cache-projectors no
coords-type Lattice
core-overlap-check none
coulomb-interaction Slab 001
coulomb-truncation-embed 0 0 0.5
davidson-band-ratio 1.1
dump End State
dump-name NbTe2.$VAR
elec-cutoff 20 100
elec-eigen-algo Davidson
elec-ex-corr gga-PBE
elec-smearing Gauss 0.0073499
electronic-minimize  \
	dirUpdateScheme      FletcherReeves \
	linminMethod         DirUpdateRecommended \
	nIterations          500 \
	history              15 \
	knormThreshold       0 \
	energyDiffThreshold  1e-08 \
	nEnergyDiff          2 \
	alphaTstart          1 \
	alphaTmin            1e-10 \
	updateTestStepSize   yes \
	alphaTreduceFactor   0.1 \
	alphaTincreaseFactor 3 \
	nAlphaAdjustMax      3 \
	wolfeEnergy          0.0001 \
	wolfeGradient        0.9 \
	fdTest               no
exchange-regularization WignerSeitzTruncated
fluid LinearPCM 298.000000 1.013250
fluid-anion F- 1 MeanFieldLJ \
	epsBulk 1 \
	pMol 0 \
	epsInf 1 \
	Pvap 0 \
	sigmaBulk 0 \
	Rvdw 2.24877 \
	Res 0 \
	tauNuc 343133
fluid-cation Na+ 1 MeanFieldLJ \
	epsBulk 1 \
	pMol 0 \
	epsInf 1 \
	Pvap 0 \
	sigmaBulk 0 \
	Rvdw 2.19208 \
	Res 0 \
	tauNuc 343133
fluid-ex-corr lda-TF lda-PZ
fluid-gummel-loop 10 1.000000e-05
fluid-minimize  \
	dirUpdateScheme      PolakRibiere \
	linminMethod         DirUpdateRecommended \
	nIterations          400 \
	history              15 \
	knormThreshold       1e-11 \
	energyDiffThreshold  0 \
	nEnergyDiff          2 \
	alphaTstart          1 \
	alphaTmin            1e-10 \
	updateTestStepSize   yes \
	alphaTreduceFactor   0.1 \
	alphaTincreaseFactor 3 \
	nAlphaAdjustMax      6 \
	wolfeEnergy          0.0001 \
	wolfeGradient        0.9 \
	fdTest               no
fluid-solvent H2O 55.338 ScalarEOS \
	epsBulk 78.4 \
	pMol 0.92466 \
	epsInf 1.77 \
	Pvap 1.06736e-10 \
	sigmaBulk 4.62e-05 \
	Rvdw 2.61727 \
	Res 1.42 \
	tauNuc 343133 \
	poleEl 15 7 1
forces-output-coords Positions
initial-state NbTe2.$VAR
ion Nb   0.316382707593535   0.832352197812151   0.502860534584657 0
ion Nb   0.817172633208776   0.833621068701368   0.502870900786417 0
ion Nb   0.371775617302108   0.400395912172553   0.504882456914873 0
ion Nb   0.889859869061175   0.366453593320759   0.488572711151329 0
ion Nb   0.038803679762559   0.006930069606814   0.499712162229435 0
ion Nb   0.536046914647970  -0.002184666709284   0.504141119376251 0
ion Nb   0.102388976694910   0.643588286495656   0.491125885941078 0
ion Nb   0.597097773612296   0.631519860483596   0.502717490786409 0
ion Ir   0.204675175235826   0.194140686387560   0.495834848701013 0
ion Ir   0.708738947555443   0.180820929965800   0.501671264864557 0
ion Se   0.178782573571116   0.025702852017095   0.598716805109567 0
ion Se   0.683438680099768   0.005446365632436   0.601493383038437 0
ion Se   0.048895438143959   0.203574581757229   0.401977887857780 0
ion Se   0.535298209953977   0.211264259758795   0.415897536509177 0
ion Se   0.264914692553872   0.611566595072025   0.589981191160506 0
ion Se   0.794271038269458   0.587240877208956   0.579088294177613 0
ion Se   0.154670442039370   0.813139101496024   0.402569514872446 0
ion Se   0.651536422538857   0.805244759737784   0.408921284517370 0
ion Se   0.364930377238583   0.193969017954565   0.589419225785470 0
ion Se   0.876898580637556   0.191050146862503   0.587834431123045 0
ion Se   0.224529994293994   0.404915297685291   0.408581236106452 0
ion Se   0.718831563428988   0.392844384264681   0.410777009227550 0
ion Se   0.480671570522430   0.807232904001502   0.599764154039184 0
ion Se   0.986124782040520   0.810071855897509   0.593300128618864 0
ion Se   0.350636691478951   0.013569114841482   0.411799242789479 0
ion Se   0.849419354143491   0.010488440933914   0.410240761898390 0
ion Se   0.571411400724791   0.394100953508800   0.576838456125452 0
ion Se   0.436158647363658   0.609450286648146   0.416470541316398 0
ion Se   0.935737974281784   0.599813780484390   0.418570996390810 0
ion-species GBRV/$ID_pbe.uspp
ion-width Ecut
ionic-minimize  \
	dirUpdateScheme      L-BFGS \
	linminMethod         DirUpdateRecommended \
	nIterations          0 \
	history              15 \
	knormThreshold       0.0001 \
	energyDiffThreshold  1e-06 \
	nEnergyDiff          2 \
	alphaTstart          1 \
	alphaTmin            1e-10 \
	updateTestStepSize   yes \
	alphaTreduceFactor   0.1 \
	alphaTincreaseFactor 3 \
	nAlphaAdjustMax      3 \
	wolfeEnergy          0.0001 \
	wolfeGradient        0.9 \
	fdTest               no
kpoint   0.000000000000   0.000000000000   0.000000000000  1.00000000000000
kpoint-folding 3 4 1 
latt-move-scale 1 1 1
latt-scale 1 1 1 
lattice Triclinic 22.7107 17.2398 34.7863 90 90 72.3098
lattice-minimize  \
	dirUpdateScheme      L-BFGS \
	linminMethod         DirUpdateRecommended \
	nIterations          0 \
	history              15 \
	knormThreshold       0 \
	energyDiffThreshold  1e-06 \
	nEnergyDiff          2 \
	alphaTstart          1 \
	alphaTmin            1e-10 \
	updateTestStepSize   yes \
	alphaTreduceFactor   0.1 \
	alphaTincreaseFactor 3 \
	nAlphaAdjustMax      3 \
	wolfeEnergy          0.0001 \
	wolfeGradient        0.9 \
	fdTest               no
lcao-params -1 1e-06 0.0073499
pcm-variant CANDLE
spintype no-spin
subspace-rotation-factor 1 yes
symmetries automatic
symmetry-threshold 0.0001
target-mu -0.171252 no




---------- Setting up symmetries ----------

Found 4 point-group symmetries of the bravais lattice
Found 1 space-group symmetries with basis
Applied RMS atom displacement 0 bohrs to make symmetries exact.

---------- Initializing the Grid ----------
R = 
[    22.7107    5.23865          0  ]
[          0    16.4246          0  ]
[          0          0    34.7863  ]
unit cell volume = 12975.8
G =
[   0.276661 -0.0882418          0  ]
[          0   0.382548          0  ]
[          0          0   0.180622  ]
Minimum fftbox size, Smin = [  104  80  160  ]
Chosen fftbox size, S = [  108  80  160  ]

---------- Initializing tighter grid for wavefunction operations ----------
R = 
[    22.7107    5.23865          0  ]
[          0    16.4246          0  ]
[          0          0    34.7863  ]
unit cell volume = 12975.8
G =
[   0.276661 -0.0882418          0  ]
[          0   0.382548          0  ]
[          0          0   0.180622  ]
Minimum fftbox size, Smin = [  92  72  144  ]
Chosen fftbox size, S = [  96  72  144  ]

---------- Exchange Correlation functional ----------
Initalized PBE GGA exchange.
Initalized PBE GGA correlation.

---------- Setting up pseudopotentials ----------
Width of ionic core gaussian charges (only for fluid interactions / plotting) set to 0.397384

Reading pseudopotential file '/home/guoxy/vasp/jdftx-1.5.0/build/pseudopotentials/GBRV/nb_pbe.uspp':
  Title: Nb.  Created by USPP 7.3.6 on 14-9-2013
  Reference state energy: -58.592548.  13 valence electrons in orbitals:
    |400>  occupation: 2  eigenvalue: -2.145853
    |410>  occupation: 6  eigenvalue: -1.268635
    |420>  occupation: 4  eigenvalue: -0.111734
    |500>  occupation: 1  eigenvalue: -0.146332
    |510>  occupation: 0  eigenvalue: -0.040820
  lMax: 2  lLocal: 3  QijEcut: 5
  6 projectors sampled on a log grid with 627 points:
    l: 0  eig: -2.145854  rCut: 1.8
    l: 0  eig: -0.146334  rCut: 1.8
    l: 1  eig: -1.268634  rCut: 2
    l: 1  eig: 0.150000  rCut: 2
    l: 2  eig: -0.040820  rCut: 2.2
    l: 2  eig: 0.150000  rCut: 2.2
  Partial core density with radius 1.2
  Transforming core density to a uniform radial grid of dG=0.02 with 1450 points.
  Transforming local potential to a uniform radial grid of dG=0.02 with 1450 points.
  Transforming nonlocal projectors to a uniform radial grid of dG=0.02 with 432 points.
  Transforming density augmentations to a uniform radial grid of dG=0.02 with 1450 points.
  Transforming atomic orbitals to a uniform radial grid of dG=0.02 with 432 points.
  Core radius for overlap checks: 2.20 bohrs.

Reading pseudopotential file '/home/guoxy/vasp/jdftx-1.5.0/build/pseudopotentials/GBRV/ir_pbe.uspp':
  Title: Ir.  Created by USPP 7.3.6 on 3-2-2014
  Reference state energy: -90.436894.  15 valence electrons in orbitals:
    |510>  occupation: 6  eigenvalue: -2.019590
    |520>  occupation: 8.5  eigenvalue: -0.306422
    |600>  occupation: 0  eigenvalue: -0.312524
    |610>  occupation: 0  eigenvalue: -0.124096
  lMax: 2  lLocal: 3  QijEcut: 5
  7 projectors sampled on a log grid with 745 points:
    l: 0  eig: -0.312523  rCut: 2.55
    l: 0  eig: 0.250000  rCut: 2.55
    l: 1  eig: -2.019590  rCut: 1.62
    l: 1  eig: -0.124096  rCut: 1.62
    l: 1  eig: 1.000000  rCut: 1.62
    l: 2  eig: -0.500000  rCut: 1.65
    l: 2  eig: -0.306421  rCut: 1.65
  Partial core density with radius 1.15
  Transforming core density to a uniform radial grid of dG=0.02 with 1450 points.
  Transforming local potential to a uniform radial grid of dG=0.02 with 1450 points.
  Transforming nonlocal projectors to a uniform radial grid of dG=0.02 with 432 points.
  Transforming density augmentations to a uniform radial grid of dG=0.02 with 1450 points.
  Transforming atomic orbitals to a uniform radial grid of dG=0.02 with 432 points.
  Core radius for overlap checks: 2.55 bohrs.

Reading pseudopotential file '/home/guoxy/vasp/jdftx-1.5.0/build/pseudopotentials/GBRV/se_pbe.uspp':
  Title: Se.  Created by USPP 7.3.6 on 14-9-2013
  Reference state energy: -21.672887.  6 valence electrons in orbitals:
    |400>  occupation: 2  eigenvalue: -0.635284
    |410>  occupation: 4  eigenvalue: -0.239295
  lMax: 2  lLocal: 3  QijEcut: 5
  6 projectors sampled on a log grid with 625 points:
    l: 0  eig: -0.635278  rCut: 1.5
    l: 0  eig: 0.500000  rCut: 1.5
    l: 1  eig: -0.239295  rCut: 1.5
    l: 1  eig: 0.500000  rCut: 1.5
    l: 2  eig: 0.000000  rCut: 1.8
    l: 2  eig: 1.000000  rCut: 1.8
  Partial core density with radius 1.2
  Transforming core density to a uniform radial grid of dG=0.02 with 1450 points.
  Transforming local potential to a uniform radial grid of dG=0.02 with 1450 points.
  Transforming nonlocal projectors to a uniform radial grid of dG=0.02 with 432 points.
  Transforming density augmentations to a uniform radial grid of dG=0.02 with 1450 points.
  Transforming atomic orbitals to a uniform radial grid of dG=0.02 with 432 points.
  Core radius for overlap checks: 1.80 bohrs.

Initialized 3 species with 29 total atoms.

Folded 1 k-points by 3x4x1 to 12 k-points.

---------- Setting up k-points, bands, fillings ----------
Adding inversion symmetry to k-mesh for non-inversion-symmetric unit cell.
Reduced to 7 k-points under symmetry. 
Computing the number of bands and number of electrons
Reading initial fillings from file NbTe2.fillings.
nElectrons: 248.000000   nBands: 204   nStates: 7

----- Setting up reduced wavefunction bases (one per k-point) -----
average nbasis = 55418.583 , ideal nbasis = 55433.492

---------- Setting up coulomb interaction ----------
Fluid mode embedding: using embedded box, but periodic Coulomb kernel.
(Fluid response is responsible for (approximate) separation between periodic images.)
Setting up double-sized grid for truncated Coulomb potentials:
R = 
[    22.7107    5.23865          0  ]
[          0    16.4246          0  ]
[          0          0    69.5726  ]
unit cell volume = 25951.5
G =
[   0.276661 -0.0882418          0  ]
[          0   0.382548          0  ]
[          0          0  0.0903112  ]
Chosen fftbox size, S = [  108  80  320  ]
Integer grid location selected as the embedding center:
   Grid: [  0  0  80  ]
   Lattice: [  0  0  0.5  ]
   Cartesian: [  0  0  17.3932  ]
Constructing Wigner-Seitz cell: 8 faces (6 quadrilaterals, 2 hexagons)
Range-separation parameter for embedded mesh potentials due to point charges: 0.58824 bohrs.

Initializing van der Waals corrections
	NOTE: vdW corrections apply only for interactions with fluid.
	Nb:  C6:  427.91 Eh-a0^6  R0: 3.097 a0
	Ir:  C6:  815.23 Eh-a0^6  R0: 3.326 a0 (WARNING: beyond Grimme's data set)
	Se:  C6:  219.24 Eh-a0^6  R0: 3.347 a0

---------- Setting up ewald sum ----------
Optimum gaussian width for ewald sums = 6.738525 bohr.
Real space sum over 495 unit cells with max indices [  4  5  2  ]
Reciprocal space sum over 5775 terms with max indices [  7  5  17  ]

---------- Allocating electronic variables ----------
Initializing wave functions:  reading from 'NbTe2.wfns'

*************** JDFTx 1.5.0  ***************

Start date and time: Sat Jul 11 20:38:47 2020
Executable jdftx_gpu with command-line: -i Charged.in -o Charged.out
Running on hosts (process indices):  amax (0-1)
Divided in process groups (process indices):  0 (0)  1 (1)
gpuInit: Found compatible cuda device 0 'Tesla K80'
gpuInit: Found compatible cuda device 1 'Tesla K80'
gpuInit: Selected device 0
Resource initialization completed at t[s]:      9.45
Run totals: 2 processes, 24 threads, 2 GPUs


Input parsed successfully to the following command list (including defaults):

basis kpoint-dependent
cache-projectors no
coords-type Lattice
core-overlap-check none
coulomb-interaction Slab 001
coulomb-truncation-embed 0 0 0.5
davidson-band-ratio 1.1
dump End State
dump-name NbTe2.$VAR
elec-cutoff 20 100
elec-eigen-algo Davidson
elec-ex-corr gga-PBE
elec-smearing Gauss 0.0073499
electronic-minimize  \
	dirUpdateScheme      FletcherReeves \
	linminMethod         DirUpdateRecommended \
	nIterations          500 \
	history              15 \
	knormThreshold       0 \
	energyDiffThreshold  1e-08 \
	nEnergyDiff          2 \
	alphaTstart          1 \
	alphaTmin            1e-10 \
	updateTestStepSize   yes \
	alphaTreduceFactor   0.1 \
	alphaTincreaseFactor 3 \
	nAlphaAdjustMax      3 \
	wolfeEnergy          0.0001 \
	wolfeGradient        0.9 \
	fdTest               no
exchange-regularization WignerSeitzTruncated
fluid LinearPCM 298.000000 1.013250
fluid-anion F- 1 MeanFieldLJ \
	epsBulk 1 \
	pMol 0 \
	epsInf 1 \
	Pvap 0 \
	sigmaBulk 0 \
	Rvdw 2.24877 \
	Res 0 \
	tauNuc 343133
fluid-cation Na+ 1 MeanFieldLJ \
	epsBulk 1 \
	pMol 0 \
	epsInf 1 \
	Pvap 0 \
	sigmaBulk 0 \
	Rvdw 2.19208 \
	Res 0 \
	tauNuc 343133
fluid-ex-corr lda-TF lda-PZ
fluid-gummel-loop 10 1.000000e-05
fluid-minimize  \
	dirUpdateScheme      PolakRibiere \
	linminMethod         DirUpdateRecommended \
	nIterations          400 \
	history              15 \
	knormThreshold       1e-11 \
	energyDiffThreshold  0 \
	nEnergyDiff          2 \
	alphaTstart          1 \
	alphaTmin            1e-10 \
	updateTestStepSize   yes \
	alphaTreduceFactor   0.1 \
	alphaTincreaseFactor 3 \
	nAlphaAdjustMax      6 \
	wolfeEnergy          0.0001 \
	wolfeGradient        0.9 \
	fdTest               no
fluid-solvent H2O 55.338 ScalarEOS \
	epsBulk 78.4 \
	pMol 0.92466 \
	epsInf 1.77 \
	Pvap 1.06736e-10 \
	sigmaBulk 4.62e-05 \
	Rvdw 2.61727 \
	Res 1.42 \
	tauNuc 343133 \
	poleEl 15 7 1
forces-output-coords Positions
initial-state NbTe2.$VAR
ion Nb   0.316382707593535   0.832352197812151   0.502860534584657 0
ion Nb   0.817172633208776   0.833621068701368   0.502870900786417 0
ion Nb   0.371775617302108   0.400395912172553   0.504882456914873 0
ion Nb   0.889859869061175   0.366453593320759   0.488572711151329 0
ion Nb   0.038803679762559   0.006930069606814   0.499712162229435 0
ion Nb   0.536046914647970  -0.002184666709284   0.504141119376251 0
ion Nb   0.102388976694910   0.643588286495656   0.491125885941078 0
ion Nb   0.597097773612296   0.631519860483596   0.502717490786409 0
ion Ir   0.204675175235826   0.194140686387560   0.495834848701013 0
ion Ir   0.708738947555443   0.180820929965800   0.501671264864557 0
ion Se   0.178782573571116   0.025702852017095   0.598716805109567 0
ion Se   0.683438680099768   0.005446365632436   0.601493383038437 0
ion Se   0.048895438143959   0.203574581757229   0.401977887857780 0
ion Se   0.535298209953977   0.211264259758795   0.415897536509177 0
ion Se   0.264914692553872   0.611566595072025   0.589981191160506 0
ion Se   0.794271038269458   0.587240877208956   0.579088294177613 0
ion Se   0.154670442039370   0.813139101496024   0.402569514872446 0
ion Se   0.651536422538857   0.805244759737784   0.408921284517370 0
ion Se   0.364930377238583   0.193969017954565   0.589419225785470 0
ion Se   0.876898580637556   0.191050146862503   0.587834431123045 0
ion Se   0.224529994293994   0.404915297685291   0.408581236106452 0
ion Se   0.718831563428988   0.392844384264681   0.410777009227550 0
ion Se   0.480671570522430   0.807232904001502   0.599764154039184 0
ion Se   0.986124782040520   0.810071855897509   0.593300128618864 0
ion Se   0.350636691478951   0.013569114841482   0.411799242789479 0
ion Se   0.849419354143491   0.010488440933914   0.410240761898390 0
ion Se   0.571411400724791   0.394100953508800   0.576838456125452 0
ion Se   0.436158647363658   0.609450286648146   0.416470541316398 0
ion Se   0.935737974281784   0.599813780484390   0.418570996390810 0
ion-species GBRV/$ID_pbe.uspp
ion-width Ecut
ionic-minimize  \
	dirUpdateScheme      L-BFGS \
	linminMethod         DirUpdateRecommended \
	nIterations          0 \
	history              15 \
	knormThreshold       0.0001 \
	energyDiffThreshold  1e-06 \
	nEnergyDiff          2 \
	alphaTstart          1 \
	alphaTmin            1e-10 \
	updateTestStepSize   yes \
	alphaTreduceFactor   0.1 \
	alphaTincreaseFactor 3 \
	nAlphaAdjustMax      3 \
	wolfeEnergy          0.0001 \
	wolfeGradient        0.9 \
	fdTest               no
kpoint   0.000000000000   0.000000000000   0.000000000000  1.00000000000000
kpoint-folding 3 4 1 
latt-move-scale 1 1 1
latt-scale 1 1 1 
lattice Triclinic 22.7107 17.2398 34.7863 90 90 72.3098
lattice-minimize  \
	dirUpdateScheme      L-BFGS \
	linminMethod         DirUpdateRecommended \
	nIterations          0 \
	history              15 \
	knormThreshold       0 \
	energyDiffThreshold  1e-06 \
	nEnergyDiff          2 \
	alphaTstart          1 \
	alphaTmin            1e-10 \
	updateTestStepSize   yes \
	alphaTreduceFactor   0.1 \
	alphaTincreaseFactor 3 \
	nAlphaAdjustMax      3 \
	wolfeEnergy          0.0001 \
	wolfeGradient        0.9 \
	fdTest               no
lcao-params -1 1e-06 0.0073499
pcm-variant CANDLE
spintype no-spin
subspace-rotation-factor 1 yes
symmetries automatic
symmetry-threshold 0.0001
target-mu -0.24475 no




---------- Setting up symmetries ----------

Found 4 point-group symmetries of the bravais lattice
Found 1 space-group symmetries with basis
Applied RMS atom displacement 0 bohrs to make symmetries exact.

---------- Initializing the Grid ----------
R = 
[    22.7107    5.23865          0  ]
[          0    16.4246          0  ]
[          0          0    34.7863  ]
unit cell volume = 12975.8
G =
[   0.276661 -0.0882418          0  ]
[          0   0.382548          0  ]
[          0          0   0.180622  ]
Minimum fftbox size, Smin = [  104  80  160  ]
Chosen fftbox size, S = [  108  80  160  ]

---------- Initializing tighter grid for wavefunction operations ----------
R = 
[    22.7107    5.23865          0  ]
[          0    16.4246          0  ]
[          0          0    34.7863  ]
unit cell volume = 12975.8
G =
[   0.276661 -0.0882418          0  ]
[          0   0.382548          0  ]
[          0          0   0.180622  ]
Minimum fftbox size, Smin = [  92  72  144  ]
Chosen fftbox size, S = [  96  72  144  ]

---------- Exchange Correlation functional ----------
Initalized PBE GGA exchange.
Initalized PBE GGA correlation.

---------- Setting up pseudopotentials ----------
Width of ionic core gaussian charges (only for fluid interactions / plotting) set to 0.397384

Reading pseudopotential file '/home/guoxy/vasp/jdftx-1.5.0/build/pseudopotentials/GBRV/nb_pbe.uspp':
  Title: Nb.  Created by USPP 7.3.6 on 14-9-2013
  Reference state energy: -58.592548.  13 valence electrons in orbitals:
    |400>  occupation: 2  eigenvalue: -2.145853
    |410>  occupation: 6  eigenvalue: -1.268635
    |420>  occupation: 4  eigenvalue: -0.111734
    |500>  occupation: 1  eigenvalue: -0.146332
    |510>  occupation: 0  eigenvalue: -0.040820
  lMax: 2  lLocal: 3  QijEcut: 5
  6 projectors sampled on a log grid with 627 points:
    l: 0  eig: -2.145854  rCut: 1.8
    l: 0  eig: -0.146334  rCut: 1.8
    l: 1  eig: -1.268634  rCut: 2
    l: 1  eig: 0.150000  rCut: 2
    l: 2  eig: -0.040820  rCut: 2.2
    l: 2  eig: 0.150000  rCut: 2.2
  Partial core density with radius 1.2
  Transforming core density to a uniform radial grid of dG=0.02 with 1450 points.
  Transforming local potential to a uniform radial grid of dG=0.02 with 1450 points.
  Transforming nonlocal projectors to a uniform radial grid of dG=0.02 with 432 points.
  Transforming density augmentations to a uniform radial grid of dG=0.02 with 1450 points.
  Transforming atomic orbitals to a uniform radial grid of dG=0.02 with 432 points.
  Core radius for overlap checks: 2.20 bohrs.

Reading pseudopotential file '/home/guoxy/vasp/jdftx-1.5.0/build/pseudopotentials/GBRV/ir_pbe.uspp':
  Title: Ir.  Created by USPP 7.3.6 on 3-2-2014
  Reference state energy: -90.436894.  15 valence electrons in orbitals:
    |510>  occupation: 6  eigenvalue: -2.019590
    |520>  occupation: 8.5  eigenvalue: -0.306422
    |600>  occupation: 0  eigenvalue: -0.312524
    |610>  occupation: 0  eigenvalue: -0.124096
  lMax: 2  lLocal: 3  QijEcut: 5
  7 projectors sampled on a log grid with 745 points:
    l: 0  eig: -0.312523  rCut: 2.55
    l: 0  eig: 0.250000  rCut: 2.55
    l: 1  eig: -2.019590  rCut: 1.62
    l: 1  eig: -0.124096  rCut: 1.62
    l: 1  eig: 1.000000  rCut: 1.62
    l: 2  eig: -0.500000  rCut: 1.65
    l: 2  eig: -0.306421  rCut: 1.65
  Partial core density with radius 1.15
  Transforming core density to a uniform radial grid of dG=0.02 with 1450 points.
  Transforming local potential to a uniform radial grid of dG=0.02 with 1450 points.
  Transforming nonlocal projectors to a uniform radial grid of dG=0.02 with 432 points.
  Transforming density augmentations to a uniform radial grid of dG=0.02 with 1450 points.
  Transforming atomic orbitals to a uniform radial grid of dG=0.02 with 432 points.
  Core radius for overlap checks: 2.55 bohrs.

Reading pseudopotential file '/home/guoxy/vasp/jdftx-1.5.0/build/pseudopotentials/GBRV/se_pbe.uspp':
  Title: Se.  Created by USPP 7.3.6 on 14-9-2013
  Reference state energy: -21.672887.  6 valence electrons in orbitals:
    |400>  occupation: 2  eigenvalue: -0.635284
    |410>  occupation: 4  eigenvalue: -0.239295
  lMax: 2  lLocal: 3  QijEcut: 5
  6 projectors sampled on a log grid with 625 points:
    l: 0  eig: -0.635278  rCut: 1.5
    l: 0  eig: 0.500000  rCut: 1.5
    l: 1  eig: -0.239295  rCut: 1.5
    l: 1  eig: 0.500000  rCut: 1.5
    l: 2  eig: 0.000000  rCut: 1.8
    l: 2  eig: 1.000000  rCut: 1.8
  Partial core density with radius 1.2
  Transforming core density to a uniform radial grid of dG=0.02 with 1450 points.
  Transforming local potential to a uniform radial grid of dG=0.02 with 1450 points.
  Transforming nonlocal projectors to a uniform radial grid of dG=0.02 with 432 points.
  Transforming density augmentations to a uniform radial grid of dG=0.02 with 1450 points.
  Transforming atomic orbitals to a uniform radial grid of dG=0.02 with 432 points.
  Core radius for overlap checks: 1.80 bohrs.

Initialized 3 species with 29 total atoms.

Folded 1 k-points by 3x4x1 to 12 k-points.

---------- Setting up k-points, bands, fillings ----------
Adding inversion symmetry to k-mesh for non-inversion-symmetric unit cell.
Reduced to 7 k-points under symmetry. 
Computing the number of bands and number of electrons
Reading initial fillings from file NbTe2.fillings.
nElectrons: 248.000000   nBands: 204   nStates: 7

----- Setting up reduced wavefunction bases (one per k-point) -----
average nbasis = 55418.583 , ideal nbasis = 55433.492

---------- Setting up coulomb interaction ----------
Fluid mode embedding: using embedded box, but periodic Coulomb kernel.
(Fluid response is responsible for (approximate) separation between periodic images.)
Setting up double-sized grid for truncated Coulomb potentials:
R = 
[    22.7107    5.23865          0  ]
[          0    16.4246          0  ]
[          0          0    69.5726  ]
unit cell volume = 25951.5
G =
[   0.276661 -0.0882418          0  ]
[          0   0.382548          0  ]
[          0          0  0.0903112  ]
Chosen fftbox size, S = [  108  80  320  ]
Integer grid location selected as the embedding center:
   Grid: [  0  0  80  ]
   Lattice: [  0  0  0.5  ]
   Cartesian: [  0  0  17.3932  ]
Constructing Wigner-Seitz cell: 8 faces (6 quadrilaterals, 2 hexagons)
Range-separation parameter for embedded mesh potentials due to point charges: 0.58824 bohrs.

Initializing van der Waals corrections
	NOTE: vdW corrections apply only for interactions with fluid.
	Nb:  C6:  427.91 Eh-a0^6  R0: 3.097 a0
	Ir:  C6:  815.23 Eh-a0^6  R0: 3.326 a0 (WARNING: beyond Grimme's data set)
	Se:  C6:  219.24 Eh-a0^6  R0: 3.347 a0

---------- Setting up ewald sum ----------
Optimum gaussian width for ewald sums = 6.738525 bohr.
Real space sum over 495 unit cells with max indices [  4  5  2  ]
Reciprocal space sum over 5775 terms with max indices [  7  5  17  ]

---------- Allocating electronic variables ----------
Initializing wave functions:  reading from 'NbTe2.wfns'
----- createFluidSolver() ----- (Fluid-side solver setup)
   Initializing fluid molecule 'H2O'
     Initializing site 'O'
       Electron density: proportional to exp(-r/0.36935)*erfc((r-0.51523)/0.36823) with norm 6.826
       Charge density: gaussian nuclear width 0.478731 with net site charge 0.826
       Polarizability: cuspless exponential with width 0.32 and norm 3.73
       Hard sphere radius: 2.57003 bohrs
       Positions in reference frame:
         [ +0.000000 +0.000000 +0.000000 ]
     Initializing site 'H'
       Electron density: proportional to exp(-r/0.34641)*erfc((r-0)/0.390882) with norm 0.587
       Charge density: gaussian nuclear width 0.377945 with net site charge -0.413
       Polarizability: cuspless exponential with width 0.39 and norm 3.3
       Positions in reference frame:
         [ +0.000000 -1.441945 +1.122523 ]
         [ +0.000000 +1.441945 +1.122523 ]
     Net charge: 0   dipole magnitude: 0.927204
     Initializing spherical shell mfKernel with radius 2.61727 Bohr
     deltaS corrections:
       site 'O': -7.54299
       site 'H': -6.83917
   Initializing fluid molecule 'Na+'
     Initializing site 'Na'
       Electron density: proportional to exp(-r/0.19682)*erfc((r-0.71491)/0.41314) with norm 8.1383
       Charge density: gaussian nuclear width 0.365347 with net site charge -1
       Hard sphere radius: 1.86327 bohrs
       Positions in reference frame:
         [ +0.000000 +0.000000 +0.000000 ]
     Net charge: -1   dipole magnitude: 0
     Initializing gaussian mfKernel with width: 1.55004 Bohr
     deltaS corrections:
       site 'Na': -22.3555
   Initializing fluid molecule 'F-'
     Initializing site 'F'
       Electron density: proportional to exp(-r/0.38886)*erfc((r-0)/0.438782) with norm 8
       Charge density: gaussian nuclear width 0.374796 with net site charge 1
       Hard sphere radius: 2.39995 bohrs
       Positions in reference frame:
         [ +0.000000 +0.000000 +0.000000 ]
     Net charge: 1   dipole magnitude: 0
     Initializing gaussian mfKernel with width: 1.59012 Bohr
     deltaS corrections:
       site 'F': -9.04335

Correction to mu due to finite nuclear width = -0.00948174
   Cavity determined by nc: 0.00142 and sigma: 0.707107
   Nonlocal vdW cavity from gaussian model electron density with norm = 8 and sigma = 0.993594 bohr
   Charge asymmetry in cavity with sensitivity pCavity = 36.5 e-bohr/Eh
   Electrostatic cavity expanded by eta = 1.46 bohrs
   Weighted density cavitation model constrained by Nbulk: 0.0049383 bohr^-3, Pvap: 3.14029 kPa, Rvdw: 2.61727 bohr and sigmaBulk: 4.62e-05 Eh/bohr^2 at T: 298 K.
   Weighted density dispersion model using vdW pair potentials with single solvent site with sqrtC6eff: 0.77 SI.
Reading fluid state from 'NbTe2.fluidState'


---- Citations for features of the code used in this run ----

   Software package:
      R. Sundararaman, K. Letchworth-Weaver, K.A. Schwarz, D. Gunceler, Y. Ozhabes and T.A. Arias, 'JDFTx: software for joint density-functional theory', SoftwareX 6, 278 (2017)

   gga-PBE exchange-correlation functional:
      J.P. Perdew, K. Burke and M. Ernzerhof, Phys. Rev. Lett. 77, 3865 (1996)

   Pseudopotentials:
      KF Garrity, JW Bennett, KM Rabe and D Vanderbilt, Comput. Mater. Sci. 81, 446 (2014)

   Truncated Coulomb potentials:
      R. Sundararaman and T.A. Arias, Phys. Rev. B 87, 165122 (2013)

   Van der Waals correction pair-potentials:
      S. Grimme, J. Comput. Chem. 27, 1787 (2006)

   Charge-asymmetric nonlocally-determined local-electric (CANDLE) solvation model:
      R. Sundararaman and W.A. Goddard III, J. Chem. Phys. 142, 064107 (2015)

   Total energy minimization with Auxiliary Hamiltonian:
      C. Freysoldt, S. Boeck, and J. Neugebauer, Phys. Rev. B 79, 241103(R) (2009)

   Grand-canonical (fixed-potential) DFT:
      R. Sundararaman, W. A. Goddard III and T. A. Arias, J. Chem. Phys. 146, 114104 (2017)

This list may not be complete. Please suggest additional citations or
report any other bugs at https://github.com/shankar1729/jdftx/issues

Initialization completed successfully at t[s]:     23.91

Shifting auxilliary hamiltonian by -0.073627 to set nElectrons=248.000000
	Linear fluid (dielectric constant: 78.4, screening length: 5.74355 Bohr) occupying 0.753258 of unit cell:	Completed after 0 iterations at t[s]:     28.38

-------- Electronic minimization -----------
	Linear fluid (dielectric constant: 78.4, screening length: 5.74355 Bohr) occupying 0.753258 of unit cell:	Completed after 0 iterations at t[s]:     33.69
	FillingsUpdate:  mu: -0.244750400  nElectrons: 248.000000
ElecMinimize: Iter:   0  G: -732.900317952492969  |grad|_K:  9.792e-05  alpha:  1.000e+00
	Linear fluid (dielectric constant: 78.4, screening length: 5.74355 Bohr) occupying 0.760121 of unit cell:	Completed after 29 iterations at t[s]:     54.35
	Linear fluid (dielectric constant: 78.4, screening length: 5.74355 Bohr) occupying 0.753346 of unit cell:	Completed after 26 iterations at t[s]:     64.52
	FillingsUpdate:  mu: -0.244750400  nElectrons: 247.513757
	SubspaceRotationAdjust: set factor to 0.507
ElecMinimize: Iter:   1  G: -732.927103785396184  |grad|_K:  5.300e-05  alpha:  2.299e-02  linmin: -5.019e-02  t[s]:     73.38
	Linear fluid (dielectric constant: 78.4, screening length: 5.74355 Bohr) occupying 0.753494 of unit cell:	Completed after 16 iterations at t[s]:     81.56
	Linear fluid (dielectric constant: 78.4, screening length: 5.74355 Bohr) occupying 0.753582 of unit cell:	Completed after 14 iterations at t[s]:     92.76
	FillingsUpdate:  mu: -0.244750400  nElectrons: 246.870716
	SubspaceRotationAdjust: set factor to 0.316
ElecMinimize: Iter:   2  G: -732.939175174479033  |grad|_K:  2.979e-05  alpha:  3.651e-02  linmin:  1.344e-03  t[s]:    101.02
	Linear fluid (dielectric constant: 78.4, screening length: 5.74355 Bohr) occupying 0.753782 of unit cell:	Completed after 12 iterations at t[s]:    109.24
ElecMinimize: 	Predicted alpha/alphaT>3.000000, increasing alphaT to 1.095197e-01.
	Linear fluid (dielectric constant: 78.4, screening length: 5.74355 Bohr) occupying 0.754177 of unit cell:	Completed after 14 iterations at t[s]:    117.43
	Linear fluid (dielectric constant: 78.4, screening length: 5.74355 Bohr) occupying 0.754428 of unit cell:	Completed after 14 iterations at t[s]:    130.19
	FillingsUpdate:  mu: -0.244750400  nElectrons: 246.147414
	SubspaceRotationAdjust: set factor to 0.186
ElecMinimize: Iter:   3  G: -732.949008997662077  |grad|_K:  3.906e-05  alpha:  1.561e-01  linmin:  5.945e-04  t[s]:    139.24
	Linear fluid (dielectric constant: 78.4, screening length: 5.74355 Bohr) occupying 0.756202 of unit cell:	Completed after 18 iterations at t[s]:    148.29
	Linear fluid (dielectric constant: 78.4, screening length: 5.74355 Bohr) occupying 0.755700 of unit cell:	Completed after 15 iterations at t[s]:    157.77
	FillingsUpdate:  mu: -0.244750400  nElectrons: 245.624709
	SubspaceRotationAdjust: set factor to 0.127
	SubspaceRotationAdjust: resetting CG because factor has changed by 0.126697
	Linear fluid (dielectric constant: 78.4, screening length: 5.74355 Bohr) occupying 0.755700 of unit cell:	Completed after 0 iterations at t[s]:    170.84
ElecMinimize: 	State modified externally: resetting search direction.
ElecMinimize: Iter:   4  G: -732.961784873870783  |grad|_K:  2.377e-05  alpha:  1.110e-01
	Linear fluid (dielectric constant: 78.4, screening length: 5.74355 Bohr) occupying 0.755878 of unit cell:	Completed after 14 iterations at t[s]:    184.84
	Linear fluid (dielectric constant: 78.4, screening length: 5.74355 Bohr) occupying 0.756219 of unit cell:	Completed after 16 iterations at t[s]:    191.58
	FillingsUpdate:  mu: -0.244750400  nElectrons: 246.091479
	SubspaceRotationAdjust: set factor to 0.0497
ElecMinimize: Iter:   5  G: -732.976513830482645  |grad|_K:  9.583e-06  alpha:  3.238e-01  linmin: -2.425e-03  t[s]:    198.69
	Linear fluid (dielectric constant: 78.4, screening length: 5.74355 Bohr) occupying 0.756679 of unit cell:	Completed after 11 iterations at t[s]:    205.92
	Linear fluid (dielectric constant: 78.4, screening length: 5.74355 Bohr) occupying 0.757188 of unit cell:	Completed after 12 iterations at t[s]:    212.74
	FillingsUpdate:  mu: -0.244750400  nElectrons: 245.999596
	SubspaceRotationAdjust: set factor to 0.0608
ElecMinimize: Iter:   6  G: -732.981642746449211  |grad|_K:  6.057e-06  alpha:  6.839e-01  linmin: -8.192e-05  t[s]:    219.76
	Linear fluid (dielectric constant: 78.4, screening length: 5.74355 Bohr) occupying 0.757945 of unit cell:	Completed after 12 iterations at t[s]:    226.57
	Linear fluid (dielectric constant: 78.4, screening length: 5.74355 Bohr) occupying 0.758007 of unit cell:	Completed after 3 iterations at t[s]:    233.05
	FillingsUpdate:  mu: -0.244750400  nElectrons: 245.935012
	SubspaceRotationAdjust: set factor to 0.0762
ElecMinimize: Iter:   7  G: -732.983804305913054  |grad|_K:  4.517e-06  alpha:  7.406e-01  linmin: -3.719e-05  t[s]:    240.17
	Linear fluid (dielectric constant: 78.4, screening length: 5.74355 Bohr) occupying 0.758638 of unit cell:	Completed after 12 iterations at t[s]:    246.89
	Linear fluid (dielectric constant: 78.4, screening length: 5.74355 Bohr) occupying 0.758985 of unit cell:	Completed after 10 iterations at t[s]:    253.35
	FillingsUpdate:  mu: -0.244750400  nElectrons: 245.804074
	SubspaceRotationAdjust: set factor to 0.1
ElecMinimize: Iter:   8  G: -732.985687633960993  |grad|_K:  3.844e-06  alpha:  1.161e+00  linmin: -2.170e-05  t[s]:    260.58
	Linear fluid (dielectric constant: 78.4, screening length: 5.74355 Bohr) occupying 0.759625 of unit cell:	Completed after 13 iterations at t[s]:    268.37
	Linear fluid (dielectric constant: 78.4, screening length: 5.74355 Bohr) occupying 0.759615 of unit cell:	Completed after 2 iterations at t[s]:    274.39
	FillingsUpdate:  mu: -0.244750400  nElectrons: 245.650206
	SubspaceRotationAdjust: set factor to 0.117
ElecMinimize: Iter:   9  G: -732.987029358330460  |grad|_K:  4.293e-06  alpha:  1.143e+00  linmin: -7.397e-06  t[s]:    281.26
	Linear fluid (dielectric constant: 78.4, screening length: 5.74355 Bohr) occupying 0.760314 of unit cell:	Completed after 14 iterations at t[s]:    288.17
	Linear fluid (dielectric constant: 78.4, screening length: 5.74355 Bohr) occupying 0.760145 of unit cell:	Completed after 8 iterations at t[s]:    295.27
	FillingsUpdate:  mu: -0.244750400  nElectrons: 245.574725
	SubspaceRotationAdjust: set factor to 0.133
ElecMinimize: Iter:  10  G: -732.988262270692758  |grad|_K:  4.159e-06  alpha:  8.448e-01  linmin: -4.172e-06  t[s]:    302.28
	Linear fluid (dielectric constant: 78.4, screening length: 5.74355 Bohr) occupying 0.760640 of unit cell:	Completed after 10 iterations at t[s]:    308.98
	Linear fluid (dielectric constant: 78.4, screening length: 5.74355 Bohr) occupying 0.760677 of unit cell:	Completed after 2 iterations at t[s]:    314.67
	FillingsUpdate:  mu: -0.244750400  nElectrons: 245.487750
	SubspaceRotationAdjust: set factor to 0.143
ElecMinimize: Iter:  11  G: -732.989517433382730  |grad|_K:  3.534e-06  alpha:  9.137e-01  linmin: -3.190e-05  t[s]:    321.47
	Linear fluid (dielectric constant: 78.4, screening length: 5.74355 Bohr) occupying 0.761112 of unit cell:	Completed after 12 iterations at t[s]:    328.04
	Linear fluid (dielectric constant: 78.4, screening length: 5.74355 Bohr) occupying 0.761015 of unit cell:	Completed after 6 iterations at t[s]:    333.96
	FillingsUpdate:  mu: -0.244750400  nElectrons: 245.444604
	SubspaceRotationAdjust: set factor to 0.151
ElecMinimize: Iter:  12  G: -732.990213977944109  |grad|_K:  2.477e-06  alpha:  6.995e-01  linmin: -6.093e-06  t[s]:    340.67
	Linear fluid (dielectric constant: 78.4, screening length: 5.74355 Bohr) occupying 0.761212 of unit cell:	Completed after 12 iterations at t[s]:    347.26
	Linear fluid (dielectric constant: 78.4, screening length: 5.74355 Bohr) occupying 0.761167 of unit cell:	Completed after 9 iterations at t[s]:    353.21
	FillingsUpdate:  mu: -0.244750400  nElectrons: 245.473317
	SubspaceRotationAdjust: set factor to 0.116
ElecMinimize: Iter:  13  G: -732.990475585565036  |grad|_K:  1.497e-06  alpha:  5.386e-01  linmin: -2.296e-05  t[s]:    359.85
	Linear fluid (dielectric constant: 78.4, screening length: 5.74355 Bohr) occupying 0.761212 of unit cell:	Completed after 12 iterations at t[s]:    366.45
	Linear fluid (dielectric constant: 78.4, screening length: 5.74355 Bohr) occupying 0.761209 of unit cell:	Completed after 3 iterations at t[s]:    372.23
	FillingsUpdate:  mu: -0.244750400  nElectrons: 245.453280
	SubspaceRotationAdjust: set factor to 0.0814
ElecMinimize: Iter:  14  G: -732.990564950201019  |grad|_K:  9.561e-07  alpha:  5.016e-01  linmin:  6.590e-05  t[s]:    378.97
	Linear fluid (dielectric constant: 78.4, screening length: 5.74355 Bohr) occupying 0.761215 of unit cell:	Completed after 8 iterations at t[s]:    385.23
	Linear fluid (dielectric constant: 78.4, screening length: 5.74355 Bohr) occupying 0.761216 of unit cell:	Completed after 2 iterations at t[s]:    390.80
	FillingsUpdate:  mu: -0.244750400  nElectrons: 245.464962
	SubspaceRotationAdjust: set factor to 0.0894
ElecMinimize: Iter:  15  G: -732.990604057210589  |grad|_K:  5.215e-07  alpha:  5.415e-01  linmin: -2.434e-04  t[s]:    397.42
	Linear fluid (dielectric constant: 78.4, screening length: 5.74355 Bohr) occupying 0.761207 of unit cell:	Completed after 7 iterations at t[s]:    403.69
	Linear fluid (dielectric constant: 78.4, screening length: 5.74355 Bohr) occupying 0.761206 of unit cell:	Completed after 0 iterations at t[s]:    409.03
	FillingsUpdate:  mu: -0.244750400  nElectrons: 245.470378
	SubspaceRotationAdjust: set factor to 0.0976
ElecMinimize: Iter:  16  G: -732.990617277441174  |grad|_K:  3.536e-07  alpha:  6.036e-01  linmin: -3.161e-04  t[s]:    415.73
	Linear fluid (dielectric constant: 78.4, screening length: 5.74355 Bohr) occupying 0.761194 of unit cell:	Completed after 7 iterations at t[s]:    421.96
	Linear fluid (dielectric constant: 78.4, screening length: 5.74355 Bohr) occupying 0.761194 of unit cell:	Completed after 0 iterations at t[s]:    427.28
	FillingsUpdate:  mu: -0.244750400  nElectrons: 245.468155
	SubspaceRotationAdjust: set factor to 0.117
ElecMinimize: Iter:  17  G: -732.990623330611584  |grad|_K:  2.305e-07  alpha:  5.990e-01  linmin:  1.101e-04  t[s]:    433.83
	Linear fluid (dielectric constant: 78.4, screening length: 5.74355 Bohr) occupying 0.761186 of unit cell:	Completed after 2 iterations at t[s]:    439.67
	Linear fluid (dielectric constant: 78.4, screening length: 5.74355 Bohr) occupying 0.761184 of unit cell:	Completed after 0 iterations at t[s]:    445.09
	FillingsUpdate:  mu: -0.244750400  nElectrons: 245.468249
	SubspaceRotationAdjust: set factor to 0.154
ElecMinimize: Iter:  18  G: -732.990626489052033  |grad|_K:  1.783e-07  alpha:  7.553e-01  linmin: -1.422e-04  t[s]:    451.70
	Linear fluid (dielectric constant: 78.4, screening length: 5.74355 Bohr) occupying 0.761178 of unit cell:	Completed after 3 iterations at t[s]:    457.68
	Linear fluid (dielectric constant: 78.4, screening length: 5.74355 Bohr) occupying 0.761178 of unit cell:	Completed after 0 iterations at t[s]:    463.06
	FillingsUpdate:  mu: -0.244750400  nElectrons: 245.471878
	SubspaceRotationAdjust: set factor to 0.192
ElecMinimize: Iter:  19  G: -732.990628638010094  |grad|_K:  1.712e-07  alpha:  8.305e-01  linmin: -6.654e-05  t[s]:    469.76
	Linear fluid (dielectric constant: 78.4, screening length: 5.74355 Bohr) occupying 0.761171 of unit cell:	Completed after 2 iterations at t[s]:    475.83
	Linear fluid (dielectric constant: 78.4, screening length: 5.74355 Bohr) occupying 0.761172 of unit cell:	Completed after 0 iterations at t[s]:    481.08
	FillingsUpdate:  mu: -0.244750400  nElectrons: 245.475281
	SubspaceRotationAdjust: set factor to 0.228
ElecMinimize: Iter:  20  G: -732.990630388917566  |grad|_K:  1.681e-07  alpha:  7.362e-01  linmin:  1.393e-05  t[s]:    487.71
	Linear fluid (dielectric constant: 78.4, screening length: 5.74355 Bohr) occupying 0.761165 of unit cell:	Completed after 3 iterations at t[s]:    493.73
	Linear fluid (dielectric constant: 78.4, screening length: 5.74355 Bohr) occupying 0.761167 of unit cell:	Completed after 0 iterations at t[s]:    499.00
	FillingsUpdate:  mu: -0.244750400  nElectrons: 245.474663
	SubspaceRotationAdjust: set factor to 0.199
ElecMinimize: Iter:  21  G: -732.990631639541448  |grad|_K:  1.637e-07  alpha:  5.407e-01  linmin:  1.605e-04  t[s]:    505.74
	Linear fluid (dielectric constant: 78.4, screening length: 5.74355 Bohr) occupying 0.761160 of unit cell:	Completed after 4 iterations at t[s]:    511.80
	Linear fluid (dielectric constant: 78.4, screening length: 5.74355 Bohr) occupying 0.761162 of unit cell:	Completed after 2 iterations at t[s]:    517.19
	FillingsUpdate:  mu: -0.244750400  nElectrons: 245.477387
	SubspaceRotationAdjust: set factor to 0.148
ElecMinimize: Iter:  22  G: -732.990632190598490  |grad|_K:  1.151e-07  alpha:  3.333e-01  linmin: -9.038e-06  t[s]:    543.05
	Linear fluid (dielectric constant: 78.4, screening length: 5.74355 Bohr) occupying 0.761159 of unit cell:	Completed after 1 iterations at t[s]:    548.86
	Linear fluid (dielectric constant: 78.4, screening length: 5.74355 Bohr) occupying 0.761158 of unit cell:	Completed after 2 iterations at t[s]:    554.55
	FillingsUpdate:  mu: -0.244750400  nElectrons: 245.476759
	SubspaceRotationAdjust: set factor to 0.154
ElecMinimize: Iter:  23  G: -732.990632711213948  |grad|_K:  7.378e-08  alpha:  5.239e-01  linmin:  3.733e-05  t[s]:    561.23
	Linear fluid (dielectric constant: 78.4, screening length: 5.74355 Bohr) occupying 0.761155 of unit cell:	Completed after 0 iterations at t[s]:    566.97
	Linear fluid (dielectric constant: 78.4, screening length: 5.74355 Bohr) occupying 0.761155 of unit cell:	Completed after 0 iterations at t[s]:    583.08
	FillingsUpdate:  mu: -0.244750400  nElectrons: 245.476526
	SubspaceRotationAdjust: set factor to 0.181
ElecMinimize: Iter:  24  G: -732.990632964234123  |grad|_K:  4.990e-08  alpha:  5.950e-01  linmin: -8.198e-05  t[s]:    590.38
	Linear fluid (dielectric constant: 78.4, screening length: 5.74355 Bohr) occupying 0.761153 of unit cell:	Completed after 0 iterations at t[s]:    596.61
	Linear fluid (dielectric constant: 78.4, screening length: 5.74355 Bohr) occupying 0.761153 of unit cell:	Completed after 2 iterations at t[s]:    602.54
	FillingsUpdate:  mu: -0.244750400  nElectrons: 245.476781
	SubspaceRotationAdjust: set factor to 0.216
ElecMinimize: Iter:  25  G: -732.990633060225491  |grad|_K:  4.949e-08  alpha:  7.115e-01  linmin:  1.275e-04  t[s]:    610.14
	Linear fluid (dielectric constant: 78.4, screening length: 5.74355 Bohr) occupying 0.761152 of unit cell:	Completed after 2 iterations at t[s]:    616.73
	Linear fluid (dielectric constant: 78.4, screening length: 5.74355 Bohr) occupying 0.761153 of unit cell:
*************** JDFTx 1.5.0  ***************

Start date and time: Sun Jul 12 17:08:37 2020
Executable jdftx_gpu with command-line: -i Charged.in -o Charged.out
Running on hosts (process indices):  amax (0-3)
Divided in process groups (process indices):  0 (0)  1 (1)  2 (2)  3 (3)
gpuInit: Found compatible cuda device 0 'Tesla K80'
gpuInit: Found compatible cuda device 1 'Tesla K80'
gpuInit: Found compatible cuda device 2 'Tesla K80'
gpuInit: Found compatible cuda device 3 'Tesla K80'
gpuInit: Selected device 0
Resource initialization completed at t[s]:     17.04
Run totals: 4 processes, 24 threads, 4 GPUs


Input parsed successfully to the following command list (including defaults):

basis kpoint-dependent
cache-projectors no
coords-type Lattice
core-overlap-check none
coulomb-interaction Slab 001
coulomb-truncation-embed 0 0 0.5
davidson-band-ratio 1.1
dump End State
dump-name NbTe2.$VAR
elec-cutoff 20 100
elec-eigen-algo Davidson
elec-ex-corr gga-PBE
elec-smearing Gauss 0.0073499
electronic-minimize  \
	dirUpdateScheme      FletcherReeves \
	linminMethod         DirUpdateRecommended \
	nIterations          500 \
	history              15 \
	knormThreshold       0 \
	energyDiffThreshold  1e-08 \
	nEnergyDiff          2 \
	alphaTstart          1 \
	alphaTmin            1e-10 \
	updateTestStepSize   yes \
	alphaTreduceFactor   0.1 \
	alphaTincreaseFactor 3 \
	nAlphaAdjustMax      3 \
	wolfeEnergy          0.0001 \
	wolfeGradient        0.9 \
	fdTest               no
exchange-regularization WignerSeitzTruncated
fluid LinearPCM 298.000000 1.013250
fluid-anion F- 1 MeanFieldLJ \
	epsBulk 1 \
	pMol 0 \
	epsInf 1 \
	Pvap 0 \
	sigmaBulk 0 \
	Rvdw 2.24877 \
	Res 0 \
	tauNuc 343133
fluid-cation Na+ 1 MeanFieldLJ \
	epsBulk 1 \
	pMol 0 \
	epsInf 1 \
	Pvap 0 \
	sigmaBulk 0 \
	Rvdw 2.19208 \
	Res 0 \
	tauNuc 343133
fluid-ex-corr lda-TF lda-PZ
fluid-gummel-loop 10 1.000000e-05
fluid-minimize  \
	dirUpdateScheme      PolakRibiere \
	linminMethod         DirUpdateRecommended \
	nIterations          400 \
	history              15 \
	knormThreshold       1e-11 \
	energyDiffThreshold  0 \
	nEnergyDiff          2 \
	alphaTstart          1 \
	alphaTmin            1e-10 \
	updateTestStepSize   yes \
	alphaTreduceFactor   0.1 \
	alphaTincreaseFactor 3 \
	nAlphaAdjustMax      6 \
	wolfeEnergy          0.0001 \
	wolfeGradient        0.9 \
	fdTest               no
fluid-solvent H2O 55.338 ScalarEOS \
	epsBulk 78.4 \
	pMol 0.92466 \
	epsInf 1.77 \
	Pvap 1.06736e-10 \
	sigmaBulk 4.62e-05 \
	Rvdw 2.61727 \
	Res 1.42 \
	tauNuc 343133 \
	poleEl 15 7 1
forces-output-coords Positions
initial-state NbTe2.$VAR
ion Nb   0.316382707593535   0.832352197812151   0.502860534584657 0
ion Nb   0.817172633208776   0.833621068701368   0.502870900786417 0
ion Nb   0.371775617302108   0.400395912172553   0.504882456914873 0
ion Nb   0.889859869061175   0.366453593320759   0.488572711151329 0
ion Nb   0.038803679762559   0.006930069606814   0.499712162229435 0
ion Nb   0.536046914647970  -0.002184666709284   0.504141119376251 0
ion Nb   0.102388976694910   0.643588286495656   0.491125885941078 0
ion Nb   0.597097773612296   0.631519860483596   0.502717490786409 0
ion Ir   0.204675175235826   0.194140686387560   0.495834848701013 0
ion Ir   0.708738947555443   0.180820929965800   0.501671264864557 0
ion Se   0.178782573571116   0.025702852017095   0.598716805109567 0
ion Se   0.683438680099768   0.005446365632436   0.601493383038437 0
ion Se   0.048895438143959   0.203574581757229   0.401977887857780 0
ion Se   0.535298209953977   0.211264259758795   0.415897536509177 0
ion Se   0.264914692553872   0.611566595072025   0.589981191160506 0
ion Se   0.794271038269458   0.587240877208956   0.579088294177613 0
ion Se   0.154670442039370   0.813139101496024   0.402569514872446 0
ion Se   0.651536422538857   0.805244759737784   0.408921284517370 0
ion Se   0.364930377238583   0.193969017954565   0.589419225785470 0
ion Se   0.876898580637556   0.191050146862503   0.587834431123045 0
ion Se   0.224529994293994   0.404915297685291   0.408581236106452 0
ion Se   0.718831563428988   0.392844384264681   0.410777009227550 0
ion Se   0.480671570522430   0.807232904001502   0.599764154039184 0
ion Se   0.986124782040520   0.810071855897509   0.593300128618864 0
ion Se   0.350636691478951   0.013569114841482   0.411799242789479 0
ion Se   0.849419354143491   0.010488440933914   0.410240761898390 0
ion Se   0.571411400724791   0.394100953508800   0.576838456125452 0
ion Se   0.436158647363658   0.609450286648146   0.416470541316398 0
ion Se   0.935737974281784   0.599813780484390   0.418570996390810 0
ion-species GBRV/$ID_pbe.uspp
ion-width Ecut
ionic-minimize  \
	dirUpdateScheme      L-BFGS \
	linminMethod         DirUpdateRecommended \
	nIterations          0 \
	history              15 \
	knormThreshold       0.0001 \
	energyDiffThreshold  1e-06 \
	nEnergyDiff          2 \
	alphaTstart          1 \
	alphaTmin            1e-10 \
	updateTestStepSize   yes \
	alphaTreduceFactor   0.1 \
	alphaTincreaseFactor 3 \
	nAlphaAdjustMax      3 \
	wolfeEnergy          0.0001 \
	wolfeGradient        0.9 \
	fdTest               no
kpoint   0.000000000000   0.000000000000   0.000000000000  1.00000000000000
kpoint-folding 3 4 1 
latt-move-scale 1 1 1
latt-scale 1 1 1 
lattice Triclinic 22.7107 17.2398 34.7863 90 90 72.3098
lattice-minimize  \
	dirUpdateScheme      L-BFGS \
	linminMethod         DirUpdateRecommended \
	nIterations          0 \
	history              15 \
	knormThreshold       0 \
	energyDiffThreshold  1e-06 \
	nEnergyDiff          2 \
	alphaTstart          1 \
	alphaTmin            1e-10 \
	updateTestStepSize   yes \
	alphaTreduceFactor   0.1 \
	alphaTincreaseFactor 3 \
	nAlphaAdjustMax      3 \
	wolfeEnergy          0.0001 \
	wolfeGradient        0.9 \
	fdTest               no
lcao-params -1 1e-06 0.0073499
pcm-variant CANDLE
spintype no-spin
subspace-rotation-factor 1 yes
symmetries automatic
symmetry-threshold 0.0001
target-mu -0.24475 no




---------- Setting up symmetries ----------

Found 4 point-group symmetries of the bravais lattice
Found 1 space-group symmetries with basis
Applied RMS atom displacement 0 bohrs to make symmetries exact.

---------- Initializing the Grid ----------
R = 
[    22.7107    5.23865          0  ]
[          0    16.4246          0  ]
[          0          0    34.7863  ]
unit cell volume = 12975.8
G =
[   0.276661 -0.0882418          0  ]
[          0   0.382548          0  ]
[          0          0   0.180622  ]
Minimum fftbox size, Smin = [  104  80  160  ]
Chosen fftbox size, S = [  108  80  160  ]

---------- Initializing tighter grid for wavefunction operations ----------
R = 
[    22.7107    5.23865          0  ]
[          0    16.4246          0  ]
[          0          0    34.7863  ]
unit cell volume = 12975.8
G =
[   0.276661 -0.0882418          0  ]
[          0   0.382548          0  ]
[          0          0   0.180622  ]
Minimum fftbox size, Smin = [  92  72  144  ]
Chosen fftbox size, S = [  96  72  144  ]

---------- Exchange Correlation functional ----------
Initalized PBE GGA exchange.
Initalized PBE GGA correlation.

---------- Setting up pseudopotentials ----------
Width of ionic core gaussian charges (only for fluid interactions / plotting) set to 0.397384

Reading pseudopotential file '/home/guoxy/vasp/jdftx-1.5.0/build/pseudopotentials/GBRV/nb_pbe.uspp':
  Title: Nb.  Created by USPP 7.3.6 on 14-9-2013
  Reference state energy: -58.592548.  13 valence electrons in orbitals:
    |400>  occupation: 2  eigenvalue: -2.145853
    |410>  occupation: 6  eigenvalue: -1.268635
    |420>  occupation: 4  eigenvalue: -0.111734
    |500>  occupation: 1  eigenvalue: -0.146332
    |510>  occupation: 0  eigenvalue: -0.040820
  lMax: 2  lLocal: 3  QijEcut: 5
  6 projectors sampled on a log grid with 627 points:
    l: 0  eig: -2.145854  rCut: 1.8
    l: 0  eig: -0.146334  rCut: 1.8
    l: 1  eig: -1.268634  rCut: 2
    l: 1  eig: 0.150000  rCut: 2
    l: 2  eig: -0.040820  rCut: 2.2
    l: 2  eig: 0.150000  rCut: 2.2
  Partial core density with radius 1.2
  Transforming core density to a uniform radial grid of dG=0.02 with 1450 points.
  Transforming local potential to a uniform radial grid of dG=0.02 with 1450 points.
  Transforming nonlocal projectors to a uniform radial grid of dG=0.02 with 432 points.
  Transforming density augmentations to a uniform radial grid of dG=0.02 with 1450 points.
  Transforming atomic orbitals to a uniform radial grid of dG=0.02 with 432 points.
  Core radius for overlap checks: 2.20 bohrs.

Reading pseudopotential file '/home/guoxy/vasp/jdftx-1.5.0/build/pseudopotentials/GBRV/ir_pbe.uspp':
  Title: Ir.  Created by USPP 7.3.6 on 3-2-2014
  Reference state energy: -90.436894.  15 valence electrons in orbitals:
    |510>  occupation: 6  eigenvalue: -2.019590
    |520>  occupation: 8.5  eigenvalue: -0.306422
    |600>  occupation: 0  eigenvalue: -0.312524
    |610>  occupation: 0  eigenvalue: -0.124096
  lMax: 2  lLocal: 3  QijEcut: 5
  7 projectors sampled on a log grid with 745 points:
    l: 0  eig: -0.312523  rCut: 2.55
    l: 0  eig: 0.250000  rCut: 2.55
    l: 1  eig: -2.019590  rCut: 1.62
    l: 1  eig: -0.124096  rCut: 1.62
    l: 1  eig: 1.000000  rCut: 1.62
    l: 2  eig: -0.500000  rCut: 1.65
    l: 2  eig: -0.306421  rCut: 1.65
  Partial core density with radius 1.15
  Transforming core density to a uniform radial grid of dG=0.02 with 1450 points.
  Transforming local potential to a uniform radial grid of dG=0.02 with 1450 points.
  Transforming nonlocal projectors to a uniform radial grid of dG=0.02 with 432 points.
  Transforming density augmentations to a uniform radial grid of dG=0.02 with 1450 points.
  Transforming atomic orbitals to a uniform radial grid of dG=0.02 with 432 points.
  Core radius for overlap checks: 2.55 bohrs.

Reading pseudopotential file '/home/guoxy/vasp/jdftx-1.5.0/build/pseudopotentials/GBRV/se_pbe.uspp':
  Title: Se.  Created by USPP 7.3.6 on 14-9-2013
  Reference state energy: -21.672887.  6 valence electrons in orbitals:
    |400>  occupation: 2  eigenvalue: -0.635284
    |410>  occupation: 4  eigenvalue: -0.239295
  lMax: 2  lLocal: 3  QijEcut: 5
  6 projectors sampled on a log grid with 625 points:
    l: 0  eig: -0.635278  rCut: 1.5
    l: 0  eig: 0.500000  rCut: 1.5
    l: 1  eig: -0.239295  rCut: 1.5
    l: 1  eig: 0.500000  rCut: 1.5
    l: 2  eig: 0.000000  rCut: 1.8
    l: 2  eig: 1.000000  rCut: 1.8
  Partial core density with radius 1.2
  Transforming core density to a uniform radial grid of dG=0.02 with 1450 points.
  Transforming local potential to a uniform radial grid of dG=0.02 with 1450 points.
  Transforming nonlocal projectors to a uniform radial grid of dG=0.02 with 432 points.
  Transforming density augmentations to a uniform radial grid of dG=0.02 with 1450 points.
  Transforming atomic orbitals to a uniform radial grid of dG=0.02 with 432 points.
  Core radius for overlap checks: 1.80 bohrs.

Initialized 3 species with 29 total atoms.

Folded 1 k-points by 3x4x1 to 12 k-points.

---------- Setting up k-points, bands, fillings ----------
Adding inversion symmetry to k-mesh for non-inversion-symmetric unit cell.
Reduced to 7 k-points under symmetry. 
Computing the number of bands and number of electrons
Reading initial fillings from file NbTe2.fillings.
nElectrons: 248.000000   nBands: 204   nStates: 7

----- Setting up reduced wavefunction bases (one per k-point) -----
average nbasis = 55418.583 , ideal nbasis = 55433.492

---------- Setting up coulomb interaction ----------
Fluid mode embedding: using embedded box, but periodic Coulomb kernel.
(Fluid response is responsible for (approximate) separation between periodic images.)
Setting up double-sized grid for truncated Coulomb potentials:
R = 
[    22.7107    5.23865          0  ]
[          0    16.4246          0  ]
[          0          0    69.5726  ]
unit cell volume = 25951.5
G =
[   0.276661 -0.0882418          0  ]
[          0   0.382548          0  ]
[          0          0  0.0903112  ]
Chosen fftbox size, S = [  108  80  320  ]
Integer grid location selected as the embedding center:
   Grid: [  0  0  80  ]
   Lattice: [  0  0  0.5  ]
   Cartesian: [  0  0  17.3932  ]
Constructing Wigner-Seitz cell: 8 faces (6 quadrilaterals, 2 hexagons)
Range-separation parameter for embedded mesh potentials due to point charges: 0.58824 bohrs.

Initializing van der Waals corrections
	NOTE: vdW corrections apply only for interactions with fluid.
	Nb:  C6:  427.91 Eh-a0^6  R0: 3.097 a0
	Ir:  C6:  815.23 Eh-a0^6  R0: 3.326 a0 (WARNING: beyond Grimme's data set)
	Se:  C6:  219.24 Eh-a0^6  R0: 3.347 a0

---------- Setting up ewald sum ----------
Optimum gaussian width for ewald sums = 6.738525 bohr.
Real space sum over 495 unit cells with max indices [  4  5  2  ]
Reciprocal space sum over 5775 terms with max indices [  7  5  17  ]

---------- Allocating electronic variables ----------
Initializing wave functions:  reading from 'NbTe2.wfns'
----- createFluidSolver() ----- (Fluid-side solver setup)
   Initializing fluid molecule 'H2O'
     Initializing site 'O'
       Electron density: proportional to exp(-r/0.36935)*erfc((r-0.51523)/0.36823) with norm 6.826
       Charge density: gaussian nuclear width 0.478731 with net site charge 0.826
       Polarizability: cuspless exponential with width 0.32 and norm 3.73
       Hard sphere radius: 2.57003 bohrs
       Positions in reference frame:
         [ +0.000000 +0.000000 +0.000000 ]
     Initializing site 'H'
       Electron density: proportional to exp(-r/0.34641)*erfc((r-0)/0.390882) with norm 0.587
       Charge density: gaussian nuclear width 0.377945 with net site charge -0.413
       Polarizability: cuspless exponential with width 0.39 and norm 3.3
       Positions in reference frame:
         [ +0.000000 -1.441945 +1.122523 ]
         [ +0.000000 +1.441945 +1.122523 ]
     Net charge: 0   dipole magnitude: 0.927204
     Initializing spherical shell mfKernel with radius 2.61727 Bohr
     deltaS corrections:
       site 'O': -7.54299
       site 'H': -6.83917
   Initializing fluid molecule 'Na+'
     Initializing site 'Na'
       Electron density: proportional to exp(-r/0.19682)*erfc((r-0.71491)/0.41314) with norm 8.1383
       Charge density: gaussian nuclear width 0.365347 with net site charge -1
       Hard sphere radius: 1.86327 bohrs
       Positions in reference frame:
         [ +0.000000 +0.000000 +0.000000 ]
     Net charge: -1   dipole magnitude: 0
     Initializing gaussian mfKernel with width: 1.55004 Bohr
     deltaS corrections:
       site 'Na': -22.3555
   Initializing fluid molecule 'F-'
     Initializing site 'F'
       Electron density: proportional to exp(-r/0.38886)*erfc((r-0)/0.438782) with norm 8
       Charge density: gaussian nuclear width 0.374796 with net site charge 1
       Hard sphere radius: 2.39995 bohrs
       Positions in reference frame:
         [ +0.000000 +0.000000 +0.000000 ]
     Net charge: 1   dipole magnitude: 0
     Initializing gaussian mfKernel with width: 1.59012 Bohr
     deltaS corrections:
       site 'F': -9.04335

Correction to mu due to finite nuclear width = -0.00948174
   Cavity determined by nc: 0.00142 and sigma: 0.707107
   Nonlocal vdW cavity from gaussian model electron density with norm = 8 and sigma = 0.993594 bohr
   Charge asymmetry in cavity with sensitivity pCavity = 36.5 e-bohr/Eh
   Electrostatic cavity expanded by eta = 1.46 bohrs
   Weighted density cavitation model constrained by Nbulk: 0.0049383 bohr^-3, Pvap: 3.14029 kPa, Rvdw: 2.61727 bohr and sigmaBulk: 4.62e-05 Eh/bohr^2 at T: 298 K.
   Weighted density dispersion model using vdW pair potentials with single solvent site with sqrtC6eff: 0.77 SI.
Reading fluid state from 'NbTe2.fluidState'


---- Citations for features of the code used in this run ----

   Software package:
      R. Sundararaman, K. Letchworth-Weaver, K.A. Schwarz, D. Gunceler, Y. Ozhabes and T.A. Arias, 'JDFTx: software for joint density-functional theory', SoftwareX 6, 278 (2017)

   gga-PBE exchange-correlation functional:
      J.P. Perdew, K. Burke and M. Ernzerhof, Phys. Rev. Lett. 77, 3865 (1996)

   Pseudopotentials:
      KF Garrity, JW Bennett, KM Rabe and D Vanderbilt, Comput. Mater. Sci. 81, 446 (2014)

   Truncated Coulomb potentials:
      R. Sundararaman and T.A. Arias, Phys. Rev. B 87, 165122 (2013)

   Van der Waals correction pair-potentials:
      S. Grimme, J. Comput. Chem. 27, 1787 (2006)

   Charge-asymmetric nonlocally-determined local-electric (CANDLE) solvation model:
      R. Sundararaman and W.A. Goddard III, J. Chem. Phys. 142, 064107 (2015)

   Total energy minimization with Auxiliary Hamiltonian:
      C. Freysoldt, S. Boeck, and J. Neugebauer, Phys. Rev. B 79, 241103(R) (2009)

   Grand-canonical (fixed-potential) DFT:
      R. Sundararaman, W. A. Goddard III and T. A. Arias, J. Chem. Phys. 146, 114104 (2017)

This list may not be complete. Please suggest additional citations or
report any other bugs at https://github.com/shankar1729/jdftx/issues

Initialization completed successfully at t[s]:     32.49

Shifting auxilliary hamiltonian by -0.073627 to set nElectrons=248.000000
	Linear fluid (dielectric constant: 78.4, screening length: 5.74355 Bohr) occupying 0.753258 of unit cell:	Completed after 0 iterations at t[s]:     34.99

-------- Electronic minimization -----------
	Linear fluid (dielectric constant: 78.4, screening length: 5.74355 Bohr) occupying 0.753258 of unit cell:	Completed after 0 iterations at t[s]:     37.94
	FillingsUpdate:  mu: -0.244750400  nElectrons: 248.000000
ElecMinimize: Iter:   0  G: -732.900317952498654  |grad|_K:  9.792e-05  alpha:  1.000e+00
	Linear fluid (dielectric constant: 78.4, screening length: 5.74355 Bohr) occupying 0.760121 of unit cell:	Completed after 29 iterations at t[s]:     48.11
	Linear fluid (dielectric constant: 78.4, screening length: 5.74355 Bohr) occupying 0.753346 of unit cell:	Completed after 26 iterations at t[s]:     53.81
	FillingsUpdate:  mu: -0.244750400  nElectrons: 247.513757
	SubspaceRotationAdjust: set factor to 0.507
ElecMinimize: Iter:   1  G: -732.927103785394706  |grad|_K:  5.300e-05  alpha:  2.299e-02  linmin: -5.019e-02  t[s]:     58.26
	Linear fluid (dielectric constant: 78.4, screening length: 5.74355 Bohr) occupying 0.753494 of unit cell:	Completed after 16 iterations at t[s]:     63.02
	Linear fluid (dielectric constant: 78.4, screening length: 5.74355 Bohr) occupying 0.753582 of unit cell:	Completed after 14 iterations at t[s]:     67.98
	FillingsUpdate:  mu: -0.244750400  nElectrons: 246.870716
	SubspaceRotationAdjust: set factor to 0.316
ElecMinimize: Iter:   2  G: -732.939175174467664  |grad|_K:  2.979e-05  alpha:  3.651e-02  linmin:  1.344e-03  t[s]:     72.39
	Linear fluid (dielectric constant: 78.4, screening length: 5.74355 Bohr) occupying 0.753782 of unit cell:	Completed after 12 iterations at t[s]:     76.89
ElecMinimize: 	Predicted alpha/alphaT>3.000000, increasing alphaT to 1.095197e-01.
	Linear fluid (dielectric constant: 78.4, screening length: 5.74355 Bohr) occupying 0.754177 of unit cell:	Completed after 14 iterations at t[s]:     81.36
	Linear fluid (dielectric constant: 78.4, screening length: 5.74355 Bohr) occupying 0.754428 of unit cell:	Completed after 14 iterations at t[s]:     86.26
	FillingsUpdate:  mu: -0.244750400  nElectrons: 246.147414
	SubspaceRotationAdjust: set factor to 0.186
ElecMinimize: Iter:   3  G: -732.949008997673445  |grad|_K:  3.906e-05  alpha:  1.561e-01  linmin:  5.945e-04  t[s]:     90.67
	Linear fluid (dielectric constant: 78.4, screening length: 5.74355 Bohr) occupying 0.756202 of unit cell:	Completed after 18 iterations at t[s]:     95.64
	Linear fluid (dielectric constant: 78.4, screening length: 5.74355 Bohr) occupying 0.755700 of unit cell:	Completed after 15 iterations at t[s]:    100.75
	FillingsUpdate:  mu: -0.244750400  nElectrons: 245.624709
	SubspaceRotationAdjust: set factor to 0.127
	SubspaceRotationAdjust: resetting CG because factor has changed by 0.126697
	Linear fluid (dielectric constant: 78.4, screening length: 5.74355 Bohr) occupying 0.755700 of unit cell:	Completed after 0 iterations at t[s]:    107.27
ElecMinimize: 	State modified externally: resetting search direction.
ElecMinimize: Iter:   4  G: -732.961784873800866  |grad|_K:  2.377e-05  alpha:  1.110e-01
	Linear fluid (dielectric constant: 78.4, screening length: 5.74355 Bohr) occupying 0.755878 of unit cell:	Completed after 14 iterations at t[s]:    116.00
	Linear fluid (dielectric constant: 78.4, screening length: 5.74355 Bohr) occupying 0.756219 of unit cell:	Completed after 16 iterations at t[s]:    120.97
	FillingsUpdate:  mu: -0.244750400  nElectrons: 246.091479
	SubspaceRotationAdjust: set factor to 0.0497
ElecMinimize: Iter:   5  G: -732.976513830478325  |grad|_K:  9.583e-06  alpha:  3.238e-01  linmin: -2.425e-03  t[s]:    125.42
	Linear fluid (dielectric constant: 78.4, screening length: 5.74355 Bohr) occupying 0.756679 of unit cell:	Completed after 11 iterations at t[s]:    129.99
	Linear fluid (dielectric constant: 78.4, screening length: 5.74355 Bohr) occupying 0.757188 of unit cell:	Completed after 12 iterations at t[s]:    134.92
	FillingsUpdate:  mu: -0.244750400  nElectrons: 245.999596
	SubspaceRotationAdjust: set factor to 0.0608
ElecMinimize: Iter:   6  G: -732.981642746452508  |grad|_K:  6.057e-06  alpha:  6.839e-01  linmin: -8.192e-05  t[s]:    139.29
	Linear fluid (dielectric constant: 78.4, screening length: 5.74355 Bohr) occupying 0.757945 of unit cell:	Completed after 12 iterations at t[s]:    143.74
	Linear fluid (dielectric constant: 78.4, screening length: 5.74355 Bohr) occupying 0.758007 of unit cell:	Completed after 3 iterations at t[s]:    147.65
	FillingsUpdate:  mu: -0.244750400  nElectrons: 245.935012
	SubspaceRotationAdjust: set factor to 0.0762
ElecMinimize: Iter:   7  G: -732.983804305902595  |grad|_K:  4.517e-06  alpha:  7.406e-01  linmin: -3.719e-05  t[s]:    151.95
	Linear fluid (dielectric constant: 78.4, screening length: 5.74355 Bohr) occupying 0.758638 of unit cell:	Completed after 12 iterations at t[s]:    156.37
	Linear fluid (dielectric constant: 78.4, screening length: 5.74355 Bohr) occupying 0.758985 of unit cell:	Completed after 10 iterations at t[s]:    161.17
	FillingsUpdate:  mu: -0.244750400  nElectrons: 245.804074
	SubspaceRotationAdjust: set factor to 0.1
ElecMinimize: Iter:   8  G: -732.985687633956104  |grad|_K:  3.844e-06  alpha:  1.161e+00  linmin: -2.170e-05  t[s]:    165.68
	Linear fluid (dielectric constant: 78.4, screening length: 5.74355 Bohr) occupying 0.759625 of unit cell:	Completed after 13 iterations at t[s]:    170.25
	Linear fluid (dielectric constant: 78.4, screening length: 5.74355 Bohr) occupying 0.759615 of unit cell:	Completed after 2 iterations at t[s]:    174.15
	FillingsUpdate:  mu: -0.244750400  nElectrons: 245.650206
	SubspaceRotationAdjust: set factor to 0.117
ElecMinimize: Iter:   9  G: -732.987029358323866  |grad|_K:  4.293e-06  alpha:  1.143e+00  linmin: -7.397e-06  t[s]:    178.53
	Linear fluid (dielectric constant: 78.4, screening length: 5.74355 Bohr) occupying 0.760314 of unit cell:	Completed after 14 iterations at t[s]:    183.26
	Linear fluid (dielectric constant: 78.4, screening length: 5.74355 Bohr) occupying 0.760145 of unit cell:	Completed after 8 iterations at t[s]:    187.75
	FillingsUpdate:  mu: -0.244750400  nElectrons: 245.574725
	SubspaceRotationAdjust: set factor to 0.133
ElecMinimize: Iter:  10  G: -732.988262270668542  |grad|_K:  4.159e-06  alpha:  8.448e-01  linmin: -4.172e-06  t[s]:    192.21
	Linear fluid (dielectric constant: 78.4, screening length: 5.74355 Bohr) occupying 0.760640 of unit cell:	Completed after 10 iterations at t[s]:    196.64
	Linear fluid (dielectric constant: 78.4, screening length: 5.74355 Bohr) occupying 0.760677 of unit cell:	Completed after 2 iterations at t[s]:    200.67
	FillingsUpdate:  mu: -0.244750400  nElectrons: 245.487750
	SubspaceRotationAdjust: set factor to 0.143
ElecMinimize: Iter:  11  G: -732.989517433372839  |grad|_K:  3.534e-06  alpha:  9.137e-01  linmin: -3.190e-05  t[s]:    204.92
	Linear fluid (dielectric constant: 78.4, screening length: 5.74355 Bohr) occupying 0.761112 of unit cell:	Completed after 12 iterations at t[s]:    209.46
	Linear fluid (dielectric constant: 78.4, screening length: 5.74355 Bohr) occupying 0.761015 of unit cell:	Completed after 6 iterations at t[s]:    213.79
	FillingsUpdate:  mu: -0.244750400  nElectrons: 245.444604
	SubspaceRotationAdjust: set factor to 0.151
ElecMinimize: Iter:  12  G: -732.990213977952976  |grad|_K:  2.477e-06  alpha:  6.995e-01  linmin: -6.093e-06  t[s]:    218.19
	Linear fluid (dielectric constant: 78.4, screening length: 5.74355 Bohr) occupying 0.761212 of unit cell:	Completed after 12 iterations at t[s]:    222.87
	Linear fluid (dielectric constant: 78.4, screening length: 5.74355 Bohr) occupying 0.761167 of unit cell:	Completed after 9 iterations at t[s]:    227.52
	FillingsUpdate:  mu: -0.244750400  nElectrons: 245.473317
	SubspaceRotationAdjust: set factor to 0.116
ElecMinimize: Iter:  13  G: -732.990475585552417  |grad|_K:  1.497e-06  alpha:  5.386e-01  linmin: -2.297e-05  t[s]:    232.03
	Linear fluid (dielectric constant: 78.4, screening length: 5.74355 Bohr) occupying 0.761212 of unit cell:	Completed after 12 iterations at t[s]:    236.40
	Linear fluid (dielectric constant: 78.4, screening length: 5.74355 Bohr) occupying 0.761209 of unit cell:	Completed after 3 iterations at t[s]:    240.44
	FillingsUpdate:  mu: -0.244750400  nElectrons: 245.453280
	SubspaceRotationAdjust: set factor to 0.0814
ElecMinimize: Iter:  14  G: -732.990564950198973  |grad|_K:  9.561e-07  alpha:  5.016e-01  linmin:  6.591e-05  t[s]:    244.92
	Linear fluid (dielectric constant: 78.4, screening length: 5.74355 Bohr) occupying 0.761215 of unit cell:	Completed after 8 iterations at t[s]:    249.22
	Linear fluid (dielectric constant: 78.4, screening length: 5.74355 Bohr) occupying 0.761216 of unit cell:	Completed after 2 iterations at t[s]:    253.42
	FillingsUpdate:  mu: -0.244750400  nElectrons: 245.464962
	SubspaceRotationAdjust: set factor to 0.0894
ElecMinimize: Iter:  15  G: -732.990604057199334  |grad|_K:  5.215e-07  alpha:  5.415e-01  linmin: -2.434e-04  t[s]:    257.94
	Linear fluid (dielectric constant: 78.4, screening length: 5.74355 Bohr) occupying 0.761207 of unit cell:	Completed after 7 iterations at t[s]:    262.08
	Linear fluid (dielectric constant: 78.4, screening length: 5.74355 Bohr) occupying 0.761206 of unit cell:	Completed after 0 iterations at t[s]:    265.74
	FillingsUpdate:  mu: -0.244750400  nElectrons: 245.470378
	SubspaceRotationAdjust: set factor to 0.0976
ElecMinimize: Iter:  16  G: -732.990617277443562  |grad|_K:  3.536e-07  alpha:  6.036e-01  linmin: -3.161e-04  t[s]:    270.20
	Linear fluid (dielectric constant: 78.4, screening length: 5.74355 Bohr) occupying 0.761194 of unit cell:	Completed after 7 iterations at t[s]:    274.35
	Linear fluid (dielectric constant: 78.4, screening length: 5.74355 Bohr) occupying 0.761194 of unit cell:	Completed after 0 iterations at t[s]:    278.09
	FillingsUpdate:  mu: -0.244750400  nElectrons: 245.468155
	SubspaceRotationAdjust: set factor to 0.117
ElecMinimize: Iter:  17  G: -732.990623330604535  |grad|_K:  2.305e-07  alpha:  5.990e-01  linmin:  1.101e-04  t[s]:    282.59
	Linear fluid (dielectric constant: 78.4, screening length: 5.74355 Bohr) occupying 0.761186 of unit cell:	Completed after 2 iterations at t[s]:    286.42
	Linear fluid (dielectric constant: 78.4, screening length: 5.74355 Bohr) occupying 0.761184 of unit cell:	Completed after 0 iterations at t[s]:    290.43
	FillingsUpdate:  mu: -0.244750400  nElectrons: 245.468249
	SubspaceRotationAdjust: set factor to 0.154
ElecMinimize: Iter:  18  G: -732.990626489044985  |grad|_K:  1.783e-07  alpha:  7.553e-01  linmin: -1.422e-04  t[s]:    294.80
	Linear fluid (dielectric constant: 78.4, screening length: 5.74355 Bohr) occupying 0.761178 of unit cell:	Completed after 3 iterations at t[s]:    298.55
	Linear fluid (dielectric constant: 78.4, screening length: 5.74355 Bohr) occupying 0.761178 of unit cell:	Completed after 0 iterations at t[s]:    302.21
	FillingsUpdate:  mu: -0.244750400  nElectrons: 245.471878
	SubspaceRotationAdjust: set factor to 0.192
ElecMinimize: Iter:  19  G: -732.990628637995542  |grad|_K:  1.712e-07  alpha:  8.305e-01  linmin: -6.653e-05  t[s]:    306.48
	Linear fluid (dielectric constant: 78.4, screening length: 5.74355 Bohr) occupying 0.761171 of unit cell:	Completed after 2 iterations at t[s]:    310.06
	Linear fluid (dielectric constant: 78.4, screening length: 5.74355 Bohr) occupying 0.761172 of unit cell:	Completed after 0 iterations at t[s]:    313.52
	FillingsUpdate:  mu: -0.244750400  nElectrons: 245.475281
	SubspaceRotationAdjust: set factor to 0.228
ElecMinimize: Iter:  20  G: -732.990630388911086  |grad|_K:  1.681e-07  alpha:  7.362e-01  linmin:  1.395e-05  t[s]:    317.72
	Linear fluid (dielectric constant: 78.4, screening length: 5.74355 Bohr) occupying 0.761165 of unit cell:	Completed after 3 iterations at t[s]:    321.46
	Linear fluid (dielectric constant: 78.4, screening length: 5.74355 Bohr) occupying 0.761167 of unit cell:	Completed after 0 iterations at t[s]:    325.14
	FillingsUpdate:  mu: -0.244750400  nElectrons: 245.474663
	SubspaceRotationAdjust: set factor to 0.199
ElecMinimize: Iter:  21  G: -732.990631639531330  |grad|_K:  1.637e-07  alpha:  5.407e-01  linmin:  1.606e-04  t[s]:    329.47
	Linear fluid (dielectric constant: 78.4, screening length: 5.74355 Bohr) occupying 0.761160 of unit cell:	Completed after 4 iterations at t[s]:    333.53
	Linear fluid (dielectric constant: 78.4, screening length: 5.74355 Bohr) occupying 0.761162 of unit cell:	Completed after 2 iterations at t[s]:    337.55
	FillingsUpdate:  mu: -0.244750400  nElectrons: 245.477387
	SubspaceRotationAdjust: set factor to 0.148
ElecMinimize: Iter:  22  G: -732.990632190591441  |grad|_K:  1.151e-07  alpha:  3.333e-01  linmin: -9.037e-06  t[s]:    341.95
	Linear fluid (dielectric constant: 78.4, screening length: 5.74355 Bohr) occupying 0.761159 of unit cell:	Completed after 1 iterations at t[s]:    345.80
	Linear fluid (dielectric constant: 78.4, screening length: 5.74355 Bohr) occupying 0.761158 of unit cell:	Completed after 2 iterations at t[s]:    349.79
	FillingsUpdate:  mu: -0.244750400  nElectrons: 245.476759
	SubspaceRotationAdjust: set factor to 0.154
ElecMinimize: Iter:  23  G: -732.990632711202352  |grad|_K:  7.378e-08  alpha:  5.239e-01  linmin:  3.721e-05  t[s]:    354.13
	Linear fluid (dielectric constant: 78.4, screening length: 5.74355 Bohr) occupying 0.761155 of unit cell:	Completed after 0 iterations at t[s]:    357.71
	Linear fluid (dielectric constant: 78.4, screening length: 5.74355 Bohr) occupying 0.761155 of unit cell:	Completed after 0 iterations at t[s]:    361.45
	FillingsUpdate:  mu: -0.244750400  nElectrons: 245.476526
	SubspaceRotationAdjust: set factor to 0.181
ElecMinimize: Iter:  24  G: -732.990632964253336  |grad|_K:  4.990e-08  alpha:  5.951e-01  linmin: -8.184e-05  t[s]:    365.80
	Linear fluid (dielectric constant: 78.4, screening length: 5.74355 Bohr) occupying 0.761153 of unit cell:	Completed after 0 iterations at t[s]:    369.52
	Linear fluid (dielectric constant: 78.4, screening length: 5.74355 Bohr) occupying 0.761153 of unit cell:	Completed after 0 iterations at t[s]:    373.17
	FillingsUpdate:  mu: -0.244750400  nElectrons: 245.476759
	SubspaceRotationAdjust: set factor to 0.24
ElecMinimize: Iter:  25  G: -732.990633100979608  |grad|_K:  3.908e-08  alpha:  6.518e-01  linmin: -1.261e-04  t[s]:    377.60
	Linear fluid (dielectric constant: 78.4, screening length: 5.74355 Bohr) occupying 0.761153 of unit cell:	Completed after 2 iterations at t[s]:    381.52
	Linear fluid (dielectric constant: 78.4, screening length: 5.74355 Bohr) occupying 0.761153 of unit cell:	Completed after 0 iterations at t[s]:    385.38
	FillingsUpdate:  mu: -0.244750400  nElectrons: 245.477137
	SubspaceRotationAdjust: set factor to 0.237
ElecMinimize: Iter:  26  G: -732.990633134443442  |grad|_K:  4.212e-08  alpha:  3.788e-01  linmin: -5.891e-05  t[s]:    389.82
	Linear fluid (dielectric constant: 78.4, screening length: 5.74355 Bohr) occupying 0.761153 of unit cell:	Completed after 0 iterations at t[s]:    393.22
	Linear fluid (dielectric constant: 78.4, screening length: 5.74355 Bohr) occupying 0.761153 of unit cell:	Completed after 0 iterations at t[s]:    396.84
	FillingsUpdate:  mu: -0.244750400  nElectrons: 245.476901
	SubspaceRotationAdjust: set factor to 0.265
ElecMinimize: Iter:  27  G: -732.990633193540248  |grad|_K:  4.218e-08  alpha:  4.008e-01  linmin:  1.480e-07  t[s]:    401.20
	Linear fluid (dielectric constant: 78.4, screening length: 5.74355 Bohr) occupying 0.761152 of unit cell:	Completed after 2 iterations at t[s]:    405.03
	Linear fluid (dielectric constant: 78.4, screening length: 5.74355 Bohr) occupying 0.761153 of unit cell:	Completed after 1 iterations at t[s]:    408.87
ElecMinimize: 	Step increased G by 2.188824e-08, reducing alpha to 1.000647e-02.
	Linear fluid (dielectric constant: 78.4, screening length: 5.74355 Bohr) occupying 0.761153 of unit cell:	Completed after 0 iterations at t[s]:    416.22
ElecMinimize: 	Step increased G by 5.796778e-09, reducing alpha to 1.000647e-03.
	Linear fluid (dielectric constant: 78.4, screening length: 5.74355 Bohr) occupying 0.761153 of unit cell:	Completed after 0 iterations at t[s]:    423.86
ElecMinimize: 	Step increased G by 4.455615e-09, reducing alpha to 1.000647e-04.
ElecMinimize: 	Step failed to reduce G after 3 attempts. Quitting step.
ElecMinimize: 	Undoing step.
	Linear fluid (dielectric constant: 78.4, screening length: 5.74355 Bohr) occupying 0.761153 of unit cell:	Completed after 0 iterations at t[s]:    431.32
ElecMinimize: 	Step failed: resetting search direction.
	FillingsUpdate:  mu: -0.244750400  nElectrons: 245.476899
	SubspaceRotationAdjust: set factor to 0.199
ElecMinimize: Iter:  28  G: -732.990633189096911  |grad|_K:  5.989e-08  alpha:  1.001e-04
	Linear fluid (dielectric constant: 78.4, screening length: 5.74355 Bohr) occupying 0.761153 of unit cell:	Completed after 3 iterations at t[s]:    439.46
	Linear fluid (dielectric constant: 78.4, screening length: 5.74355 Bohr) occupying 0.761153 of unit cell:	Completed after 0 iterations at t[s]:    443.09
	FillingsUpdate:  mu: -0.244750400  nElectrons: 245.477537
	SubspaceRotationAdjust: set factor to 0.122
ElecMinimize: Iter:  29  G: -732.990633244265041  |grad|_K:  7.799e-08  alpha:  1.402e-01  linmin:  5.197e-03  t[s]:    447.38
	Linear fluid (dielectric constant: 78.4, screening length: 5.74355 Bohr) occupying 0.761153 of unit cell:	Completed after 0 iterations at t[s]:    451.07
	Linear fluid (dielectric constant: 78.4, screening length: 5.74355 Bohr) occupying 0.761153 of unit cell:	Completed after 0 iterations at t[s]:    454.77
	FillingsUpdate:  mu: -0.244750400  nElectrons: 245.477622
	SubspaceRotationAdjust: set factor to 0.0862
ElecMinimize: Iter:  30  G: -732.990633245586650  |grad|_K:  6.415e-08  alpha:  3.892e-02  linmin:  2.185e-07  t[s]:    459.23
	Linear fluid (dielectric constant: 78.4, screening length: 5.74355 Bohr) occupying 0.761153 of unit cell:	Completed after 1 iterations at t[s]:    463.09
	Linear fluid (dielectric constant: 78.4, screening length: 5.74355 Bohr) occupying 0.761153 of unit cell:	Completed after 0 iterations at t[s]:    466.98
ElecMinimize: 	Step increased G by 4.811261e-08, reducing alpha to 7.967525e-04.
	Linear fluid (dielectric constant: 78.4, screening length: 5.74355 Bohr) occupying 0.761153 of unit cell:	Completed after 0 iterations at t[s]:    474.27
ElecMinimize: 	Step increased G by 5.093295e-08, reducing alpha to 7.967525e-05.
	Linear fluid (dielectric constant: 78.4, screening length: 5.74355 Bohr) occupying 0.761153 of unit cell:	Completed after 0 iterations at t[s]:    481.61
ElecMinimize: 	Step increased G by 5.122217e-08, reducing alpha to 7.967525e-06.
ElecMinimize: 	Step failed to reduce G after 3 attempts. Quitting step.
ElecMinimize: 	Undoing step.
	Linear fluid (dielectric constant: 78.4, screening length: 5.74355 Bohr) occupying 0.761153 of unit cell:	Completed after 0 iterations at t[s]:    488.83
ElecMinimize: 	Step failed: resetting search direction.
	FillingsUpdate:  mu: -0.244750400  nElectrons: 245.477622
	SubspaceRotationAdjust: set factor to 0.0938
ElecMinimize: Iter:  31  G: -732.990633194354245  |grad|_K:  2.925e-08  alpha:  7.968e-06
	Linear fluid (dielectric constant: 78.4, screening length: 5.74355 Bohr) occupying 0.761153 of unit cell:	Completed after 0 iterations at t[s]:    496.78
ElecMinimize: 	Predicted alpha/alphaT>3.000000, increasing alphaT to 1.167587e-01.
	Linear fluid (dielectric constant: 78.4, screening length: 5.74355 Bohr) occupying 0.761153 of unit cell:	Completed after 0 iterations at t[s]:    500.78
ElecMinimize: 	Predicted alpha/alphaT>3.000000, increasing alphaT to 3.502762e-01.
	Linear fluid (dielectric constant: 78.4, screening length: 5.74355 Bohr) occupying 0.761153 of unit cell:	Completed after 0 iterations at t[s]:    504.72
ElecMinimize: 	Predicted alpha/alphaT>3.000000, increasing alphaT to 1.050829e+00.
	Linear fluid (dielectric constant: 78.4, screening length: 5.74355 Bohr) occupying 0.761154 of unit cell:	Completed after 3 iterations at t[s]:    508.80
ElecMinimize: 	Step increased G by 2.124079e-07, reducing alpha to 1.795706e-01.
	Linear fluid (dielectric constant: 78.4, screening length: 5.74355 Bohr) occupying 0.761153 of unit cell:	Completed after 2 iterations at t[s]:    516.31
	FillingsUpdate:  mu: -0.244750400  nElectrons: 245.477468
	SubspaceRotationAdjust: set factor to 0.122
ElecMinimize: Iter:  32  G: -732.990633208103532  |grad|_K:  1.640e-08  alpha:  1.796e-01  linmin: -3.266e-03  t[s]:    520.69
	Linear fluid (dielectric constant: 78.4, screening length: 5.74355 Bohr) occupying 0.761153 of unit cell:	Completed after 0 iterations at t[s]:    524.40
ElecMinimize: 	Predicted alpha/alphaT>3.000000, increasing alphaT to 5.387119e-01.
	Linear fluid (dielectric constant: 78.4, screening length: 5.74355 Bohr) occupying 0.761153 of unit cell:	Completed after 0 iterations at t[s]:    528.03
	Linear fluid (dielectric constant: 78.4, screening length: 5.74355 Bohr) occupying 0.761154 of unit cell:	Completed after 0 iterations at t[s]:    531.79
	FillingsUpdate:  mu: -0.244750400  nElectrons: 245.477332
	SubspaceRotationAdjust: set factor to 0.16
ElecMinimize: Iter:  33  G: -732.990633238576834  |grad|_K:  1.835e-08  alpha:  1.027e+00  linmin: -2.144e-06  t[s]:    536.17
	Linear fluid (dielectric constant: 78.4, screening length: 5.74355 Bohr) occupying 0.761155 of unit cell:	Completed after 1 iterations at t[s]:    539.99
	Linear fluid (dielectric constant: 78.4, screening length: 5.74355 Bohr) occupying 0.761154 of unit cell:	Completed after 0 iterations at t[s]:    544.06
ElecMinimize: 	Step increased G by 1.188698e-08, reducing alpha to 1.790469e-02.
	Linear fluid (dielectric constant: 78.4, screening length: 5.74355 Bohr) occupying 0.761154 of unit cell:	Completed after 0 iterations at t[s]:    551.44
	FillingsUpdate:  mu: -0.244750400  nElectrons: 245.477333
	SubspaceRotationAdjust: set factor to 0.146
ElecMinimize: Iter:  34  G: -732.990633239581030  |grad|_K:  5.067e-08  alpha:  1.790e-02  linmin:  6.014e-04  t[s]:    555.83
ElecMinimize: 	Bad step direction: g.d > 0.
ElecMinimize: 	Undoing step.
	Linear fluid (dielectric constant: 78.4, screening length: 5.74355 Bohr) occupying 0.761154 of unit cell:	Completed after 0 iterations at t[s]:    559.49
ElecMinimize: 	Step failed: resetting search direction.
	FillingsUpdate:  mu: -0.244750400  nElectrons: 245.477333
	SubspaceRotationAdjust: set factor to 0.138
ElecMinimize: Iter:  35  G: -732.990633239582962  |grad|_K:  4.940e-08  alpha:  0.000e+00
ElecMinimize: Converged (|Delta G|<1.000000e-08 for 2 iters).
Setting wave functions to eigenvectors of Hamiltonian

# Ionic positions in lattice coordinates:
ion Nb   0.316382707593535   0.832352197812151   0.502860534584657 0
ion Nb   0.817172633208776   0.833621068701368   0.502870900786417 0
ion Nb   0.371775617302108   0.400395912172553   0.504882456914873 0
ion Nb   0.889859869061175   0.366453593320759   0.488572711151329 0
ion Nb   0.038803679762559   0.006930069606814   0.499712162229435 0
ion Nb   0.536046914647970  -0.002184666709284   0.504141119376251 0
ion Nb   0.102388976694910   0.643588286495656   0.491125885941078 0
ion Nb   0.597097773612296   0.631519860483596   0.502717490786409 0
ion Ir   0.204675175235826   0.194140686387560   0.495834848701013 0
ion Ir   0.708738947555443   0.180820929965800   0.501671264864557 0
ion Se   0.178782573571116   0.025702852017095   0.598716805109567 0
ion Se   0.683438680099768   0.005446365632436   0.601493383038437 0
ion Se   0.048895438143959   0.203574581757229   0.401977887857780 0
ion Se   0.535298209953977   0.211264259758795   0.415897536509177 0
ion Se   0.264914692553872   0.611566595072025   0.589981191160506 0
ion Se   0.794271038269458   0.587240877208956   0.579088294177613 0
ion Se   0.154670442039370   0.813139101496024   0.402569514872446 0
ion Se   0.651536422538857   0.805244759737784   0.408921284517370 0
ion Se   0.364930377238583   0.193969017954565   0.589419225785470 0
ion Se   0.876898580637556   0.191050146862503   0.587834431123045 0
ion Se   0.224529994293994   0.404915297685291   0.408581236106452 0
ion Se   0.718831563428988   0.392844384264681   0.410777009227550 0
ion Se   0.480671570522430   0.807232904001502   0.599764154039184 0
ion Se   0.986124782040520   0.810071855897509   0.593300128618864 0
ion Se   0.350636691478951   0.013569114841482   0.411799242789479 0
ion Se   0.849419354143491   0.010488440933914   0.410240761898390 0
ion Se   0.571411400724791   0.394100953508800   0.576838456125452 0
ion Se   0.436158647363658   0.609450286648146   0.416470541316398 0
ion Se   0.935737974281784   0.599813780484390   0.418570996390810 0


# Forces in Lattice coordinates:
force Nb   0.026487577512696  -0.004062590696524   0.147808183068453 0
force Nb   0.031243311359497   0.052297800259753   0.009082190998470 0
force Nb   0.001408463648054   0.051331121924905   0.075519190079225 0
force Nb  -0.341838562429269   0.069869463785247  -0.173486350022928 0
force Nb   0.005994947170098   0.088892824590768   0.081823203847882 0
force Nb   0.065464226505072   0.196784876961017  -0.052552191738753 0
force Nb   0.071662282432624   0.017195691892864  -0.079896206076382 0
force Nb   0.022279321533849  -0.153159460747334   0.132095351865709 0
force Ir   0.165035111490483  -0.098781641544935  -0.139272715467765 0
force Ir  -0.022367678370715  -0.003311963647918  -0.046987039080681 0
force Se  -0.049918212287909  -0.059662369887860  -0.037816583273884 0
force Se  -0.042042079994693  -0.029046574327187   0.027292977533003 0
force Se   0.036026832214700  -0.006769976416200   0.084553404570309 0
force Se   0.066189649554790  -0.053824583897510   0.053637262619470 0
force Se  -0.051388848308682  -0.012333022938011  -0.077976628303611 0
force Se  -0.118986100501832  -0.054541850487082  -0.097162663398859 0
force Se  -0.014418530792549  -0.028748301504025   0.027429180620902 0
force Se   0.012197803489536   0.019067029675237   0.092216681951826 0
force Se  -0.007508547088647  -0.013358140648192  -0.026425423644437 0
force Se  -0.039382969307453  -0.027951452480733  -0.016914572870659 0
force Se   0.023282306984136  -0.018799062603246   0.078933616488338 0
force Se   0.145297541171951  -0.001021767163830   0.093138958565383 0
force Se  -0.088864401136994  -0.015624254557946  -0.133128133768012 0
force Se  -0.051982587230479   0.012868018824304  -0.083495573308309 0
force Se  -0.011967846913383   0.034623089340548   0.010050595419555 0
force Se   0.019182790263024   0.001199162024445   0.003927181135479 0
force Se  -0.002147052467732   0.003994989556139  -0.025897934977539 0
force Se   0.028449914557360   0.011457245633476  -0.002081824562989 0
force Se   0.125534177201608   0.009196404183302   0.072077395303175 0

# Energy components:
   A_diel =       -0.1174016933725690
   Eewald =     4121.8138339924244065
       EH =     4704.6756687480901746
     Eloc =    -9832.5373594045395294
      Enl =      128.5277313297682724
      Exc =     -405.3738952594687248
 Exc_core =      274.8869693900819016
       KE =      215.0668685711656849
  MuShift =        0.0239192763991073
-------------------------------------
     Etot =     -793.0336650494514288
       TS =        0.0376435219485483
-------------------------------------
        F =     -793.0713085713999817
      muN =      -60.0806753318169910
-------------------------------------
        G =     -732.9906332395829622

IonicMinimize: Iter:   0  G: -732.990633239582962  |grad|_K:  0.000e+00  t[s]:    567.17
IonicMinimize: Converged (|grad|_K<1.000000e-04).

#--- Lowdin population analysis ---
# oxidation-state Nb -0.494 -0.492 -0.471 -0.388 -0.526 -0.500 -0.414 -0.487
# oxidation-state Ir -0.777 -0.864
# oxidation-state Se +0.546 +0.565 +0.521 +0.486 +0.416 +0.327 +0.516 +0.438 +0.513 +0.525 +0.493 +0.521 +0.465 +0.457 +0.561 +0.499 +0.356 +0.365 +0.364


Dumping 'NbTe2.fillings' ... done
Dumping 'NbTe2.wfns' ... done
Dumping 'NbTe2.fluidState' ... done
Dumping 'NbTe2.eigenvals' ... done
End date and time: Sun Jul 12 17:18:06 2020  (Duration: 0-0:09:29.77)
Done!
