
*************** JDFTx 1.5.0  ***************

Start date and time: Wed Feb 10 07:17:05 2021
Executable jdftx_gpu with command-line: -i Charged.in -o Charged.out
Running on hosts (process indices):  amax (0-6)
Divided in process groups (process indices):  0 (0)  1 (1)  2 (2)  3 (3)  4 (4)  5 (5)  6 (6)
gpuInit: Found compatible cuda device 0 'Tesla K80'
gpuInit: Found compatible cuda device 1 'Tesla K80'
gpuInit: Found compatible cuda device 2 'Tesla K80'
gpuInit: Found compatible cuda device 3 'Tesla K80'
gpuInit: Found compatible cuda device 4 'Tesla K80'
gpuInit: Found compatible cuda device 5 'Tesla K80'
gpuInit: Found compatible cuda device 6 'Tesla K80'
gpuInit: Selected device 0
Resource initialization completed at t[s]:      3.80
Run totals: 7 processes, 24 threads, 7 GPUs


Input parsed successfully to the following command list (including defaults):

basis kpoint-dependent
cache-projectors no
coords-type Lattice
core-overlap-check none
coulomb-interaction Slab 001
coulomb-truncation-embed 0.5 0.5 0.5
davidson-band-ratio 1.1
dump End State
dump-name NbTe2.$VAR
elec-cutoff 20
elec-eigen-algo Davidson
elec-ex-corr gga-PBE
elec-initial-magnetization 10.000000 no
elec-smearing Gauss 0.0073499
electronic-minimize  \
	dirUpdateScheme      FletcherReeves \
	linminMethod         DirUpdateRecommended \
	nIterations          200 \
	history              15 \
	knormThreshold       0 \
	energyDiffThreshold  1e-08 \
	nEnergyDiff          2 \
	alphaTstart          1 \
	alphaTmin            1e-10 \
	updateTestStepSize   yes \
	alphaTreduceFactor   0.1 \
	alphaTincreaseFactor 3 \
	nAlphaAdjustMax      3 \
	wolfeEnergy          0.0001 \
	wolfeGradient        0.9 \
	fdTest               no
exchange-regularization WignerSeitzTruncated
fluid LinearPCM 298.000000 1.013250
fluid-anion F- 1 MeanFieldLJ \
	epsBulk 1 \
	pMol 0 \
	epsInf 1 \
	Pvap 0 \
	sigmaBulk 0 \
	Rvdw 2.24877 \
	Res 0 \
	tauNuc 343133
fluid-cation Na+ 1 MeanFieldLJ \
	epsBulk 1 \
	pMol 0 \
	epsInf 1 \
	Pvap 0 \
	sigmaBulk 0 \
	Rvdw 2.19208 \
	Res 0 \
	tauNuc 343133
fluid-ex-corr lda-TF lda-PZ
fluid-gummel-loop 10 1.000000e-05
fluid-minimize  \
	dirUpdateScheme      PolakRibiere \
	linminMethod         DirUpdateRecommended \
	nIterations          400 \
	history              15 \
	knormThreshold       1e-11 \
	energyDiffThreshold  0 \
	nEnergyDiff          2 \
	alphaTstart          1 \
	alphaTmin            1e-10 \
	updateTestStepSize   yes \
	alphaTreduceFactor   0.1 \
	alphaTincreaseFactor 3 \
	nAlphaAdjustMax      6 \
	wolfeEnergy          0.0001 \
	wolfeGradient        0.9 \
	fdTest               no
fluid-solvent H2O 55.338 ScalarEOS \
	epsBulk 78.4 \
	pMol 0.92466 \
	epsInf 1.77 \
	Pvap 1.06736e-10 \
	sigmaBulk 4.62e-05 \
	Rvdw 2.61727 \
	Res 1.42 \
	tauNuc 343133 \
	poleEl 15 7 1
forces-output-coords Positions
initial-state NbTe2.$VAR
ion Zr   0.125023173401341   0.000024078439152   0.599650032587145 1
ion Zr  -0.000037795141089   0.125009496183930   0.400239538989995 1
ion Zr   0.375008349133415   0.000023824098765   0.599717041847323 1
ion Zr   0.250102032678508   0.125095826295960   0.400409940270833 1
ion Zr   0.625029891509308   0.000017948428454   0.599667321308383 1
ion Zr   0.499856000418498   0.125050532478382   0.400390615638088 1
ion Zr   0.874991840935635   0.000026912385560   0.599513300477952 1
ion Zr   0.750025085300945   0.124984306218264   0.400208985050610 1
ion Zr   0.124852290146110   0.249843067854344   0.599527182153697 1
ion Zr  -0.000001949231153   0.375078264863329   0.400394638042963 1
ion Zr   0.375050273453832   0.251015503926243   0.600549571986772 1
ion Zr   0.250046576324293   0.375046463663227   0.400585335393672 1
ion Zr   0.625272283308774   0.249807698803252   0.599498366720024 1
ion Zr   0.499940243405483   0.375029825302605   0.400556262833865 1
ion Zr   0.874970609350591   0.250038965374616   0.599673601448410 1
ion Zr   0.749982522154133   0.375058064264726   0.400355862338059 1
ion Zr   0.126039960904936   0.500037513475680   0.600541079748124 1
ion Zr   0.000001341761645   0.624935148409067   0.400386406534085 1
ion Zr   0.375078681200503   0.500093412133502   0.602911819834108 1
ion Zr   0.250041247235668   0.624979606498306   0.400575191519543 1
ion Zr   0.624139607756522   0.500045058903710   0.600501612921338 1
ion Zr   0.499955278074885   0.624995537419039   0.400545052947040 1
ion Zr   0.875008650511171   0.500019488203711   0.599700470696013 1
ion Zr   0.749990291221232   0.624953049408153   0.400346235535336 1
ion Zr   0.124831798652123   0.750228682504485   0.599507541834270 1
ion Zr  -0.000041761688208   0.875024502696412   0.400229840663714 1
ion Zr   0.375049378974120   0.749058192875962   0.600539233900775 1
ion Zr   0.250104099276407   0.874933787843752   0.400397807458281 1
ion Zr   0.625316223727684   0.750266446061863   0.599483074894286 1
ion Zr   0.499864283785840   0.874966402981288   0.400383237294585 1
ion Zr   0.874987052492157   0.750005479423509   0.599663919015528 1
ion Zr   0.750039832496761   0.875038449267786   0.400201230167723 1
ion Si   0.000119739967797   0.000014571896535   0.499865880080100 1
ion Si   0.124970670827311   0.125075683869683   0.499936701272347 1
ion Si   0.250106357176675   0.000010106603505   0.499980841807798 1
ion Si   0.374997281350607   0.125223375338320   0.500194038893816 1
ion Si   0.499879015617415   0.000002248621915   0.499984117740019 1
ion Si   0.625047295233251   0.124991993143151   0.499915102254518 1
ion Si   0.749926943638728   0.000011942048177   0.499860390839339 1
ion Si   0.875022282880406   0.125064337726477   0.499851156106629 1
ion Si   0.000008175281274   0.249939325006694   0.499945160126201 1
ion Si   0.125178126611498   0.375212392791997   0.500145428757707 1
ion Si   0.250338419824135   0.250334266339628   0.500168731424976 1
ion Si   0.375063577723772   0.375016750466846   0.500421900776212 1
ion Si   0.499815341215828   0.250206625455441   0.500133915799099 1
ion Si   0.624883984134295   0.375157767899196   0.500115790908151 1
ion Si   0.750004227397937   0.249717654045726   0.499865215275343 1
ion Si   0.874963857966914   0.375077458061721   0.499977216136181 1
ion Si   0.000169566491396   0.500006165822667   0.500157641639729 1
ion Si   0.125176191943090   0.624811794933012   0.500139714982356 1
ion Si   0.249962482106529   0.500017173926819   0.500437504121164 1
ion Si   0.375069539999796   0.625023205516287   0.500414214466204 1
ion Si   0.500126916793931   0.500020699519617   0.500373392348964 1
ion Si   0.624899372916919   0.624875492822756   0.500106964762683 1
ion Si   0.749828081634730   0.500008955527238   0.500126403899947 1
ion Si   0.874974640527665   0.624929771738207   0.499971943798446 1
ion Si   0.000006157182873   0.750079386786096   0.499934282598345 1
ion Si   0.124969787147616   0.874950644975018   0.499930902591325 1
ion Si   0.250331609278261   0.749691098910665   0.500159633731516 1
ion Si   0.374988073992156   0.874801642521401   0.500180707922262 1
ion Si   0.499825966490950   0.749836667078442   0.500117911956274 1
ion Si   0.625063521511381   0.875028439348097   0.499898267835041 1
ion Si   0.750028930183805   0.750299049766027   0.499853000915687 1
ion Si   0.875032347916041   0.874963371453643   0.499843549829648 1
ion Se  -0.000118126012499   0.124942604302023   0.653697640251672 1
ion Se   0.125132972844312   0.000035630946369   0.346168999408228 1
ion Se   0.249947147750626   0.124737262428157   0.653734518554771 1
ion Se   0.374966686034665   0.000011365771756   0.346088734651869 1
ion Se   0.500088697928589   0.124787875735949   0.653624493698097 1
ion Se   0.624871088048180   0.000009469450618   0.346109582538561 1
ion Se   0.750154257438169   0.124873102374234   0.653901153618019 1
ion Se   0.875001123039149   0.000011572848379   0.345771791684069 1
ion Se  -0.000211352246283   0.375002410785208   0.653631988189080 1
ion Se   0.125100571202619   0.250194261398891   0.346118829661259 1
ion Se   0.248353730425964   0.373208556393017   0.654815012242862 1
ion Se   0.374976255245481   0.250033433395447   0.346120710182983 1
ion Se   0.501914078997938   0.373348961490946   0.654658548603649 1
ion Se   0.624764592017539   0.250183361728877   0.346091382255105 1
ion Se   0.750318727427285   0.375006242665827   0.653769282716760 1
ion Se   0.875027712630331   0.250112038654531   0.345901102575711 1
ion Se  -0.000215027460512   0.625051703450438   0.653634472014307 1
ion Se   0.125054325239399   0.500005146313425   0.346307310402715 1
ion Se   0.248339967435365   0.626914071491690   0.654798460740771 1
ion Se   0.374989263340847   0.500005937664537   0.346481759381290 1
ion Se   0.501931463386669   0.626766836095924   0.654638161724128 1
ion Se   0.624951789551929   0.500003604810703   0.346306148064740 1
ion Se   0.750347897204250   0.625066663673976   0.653773639346828 1
ion Se   0.874995581559388   0.499999416708813   0.346073662375893 1
ion Se  -0.000130232026463   0.875114078623643   0.653688277052683 1
ion Se   0.125084874063694   0.749847791702988   0.346105898991814 1
ion Se   0.249960684879177   0.875389301055206   0.653721528083442 1
ion Se   0.374979145553488   0.749979142434169   0.346116269828418 1
ion Se   0.500095901474233   0.875252152618864   0.653622576529437 1
ion Se   0.624776096851551   0.749832623594078   0.346077197284748 1
ion Se   0.750192562014089   0.875229908168190   0.653889772109683 1
ion Se   0.875032763997658   0.749894529649752   0.345893993432272 1
ion H   0.375688899666119   0.500627356925330   0.689687785153651 1
ion-species GBRV/$ID_pbe.uspp
ion-width Ecut
ionic-minimize  \
	dirUpdateScheme      L-BFGS \
	linminMethod         DirUpdateRecommended \
	nIterations          500 \
	history              15 \
	knormThreshold       0.0001 \
	energyDiffThreshold  1e-06 \
	nEnergyDiff          2 \
	alphaTstart          1 \
	alphaTmin            1e-10 \
	updateTestStepSize   yes \
	alphaTreduceFactor   0.1 \
	alphaTincreaseFactor 3 \
	nAlphaAdjustMax      3 \
	wolfeEnergy          0.0001 \
	wolfeGradient        0.9 \
	fdTest               no
kpoint   0.000000000000   0.000000000000   0.000000000000  1.00000000000000
kpoint-folding 2 2 1 
latt-move-scale 1 1 1
latt-scale 1.88973 1.88973 1.88973 
lattice Triclinic 14.0807 14.0807 21.7064 90 90 90
lattice-minimize  \
	dirUpdateScheme      L-BFGS \
	linminMethod         DirUpdateRecommended \
	nIterations          0 \
	history              15 \
	knormThreshold       0 \
	energyDiffThreshold  1e-06 \
	nEnergyDiff          2 \
	alphaTstart          1 \
	alphaTmin            1e-10 \
	updateTestStepSize   yes \
	alphaTreduceFactor   0.1 \
	alphaTincreaseFactor 3 \
	nAlphaAdjustMax      3 \
	wolfeEnergy          0.0001 \
	wolfeGradient        0.9 \
	fdTest               no
lcao-params -1 1e-06 0.0073499
pcm-variant CANDLE
spintype z-spin
subspace-rotation-factor 1 yes
symmetries automatic
symmetry-threshold 0.0001
target-mu -0.171252 no




---------- Setting up symmetries ----------

Found 16 point-group symmetries of the bravais lattice
Found 1 space-group symmetries with basis
Applied RMS atom displacement 0 bohrs to make symmetries exact.

---------- Initializing the Grid ----------
R = 
[    26.6087          0          0  ]
[          0    26.6087          0  ]
[          0          0    41.0191  ]
unit cell volume = 29042.4
G =
[   0.236133          0          0  ]
[          0   0.236133          0  ]
[          0          0   0.153177  ]
Minimum fftbox size, Smin = [  108  108  168  ]
Chosen fftbox size, S = [  108  108  168  ]

---------- Exchange Correlation functional ----------
Initalized PBE GGA exchange.
Initalized PBE GGA correlation.

---------- Setting up pseudopotentials ----------
Width of ionic core gaussian charges (only for fluid interactions / plotting) set to 0.397384

Reading pseudopotential file '/home/guoxy/vasp/jdftx-1.5.0/build/pseudopotentials/GBRV/zr_pbe.uspp':
  Title: Zr.  Created by USPP 7.3.6 on 14-9-2013
  Reference state energy: -49.308156.  12 valence electrons in orbitals:
    |400>  occupation: 2  eigenvalue: -2.002953
    |410>  occupation: 6  eigenvalue: -1.192957
    |420>  occupation: 2  eigenvalue: -0.132269
    |500>  occupation: 2  eigenvalue: -0.163143
    |510>  occupation: 0  eigenvalue: -0.053997
  lMax: 2  lLocal: 3  QijEcut: 5
  6 projectors sampled on a log grid with 625 points:
    l: 0  eig: -2.002953  rCut: 1.8
    l: 0  eig: -0.132269  rCut: 1.8
    l: 1  eig: -1.192956  rCut: 2
    l: 1  eig: 0.150000  rCut: 2
    l: 2  eig: -0.163145  rCut: 2.2
    l: 2  eig: 0.150000  rCut: 2.2
  Partial core density with radius 1.2
  Transforming core density to a uniform radial grid of dG=0.02 with 1113 points.
  Transforming local potential to a uniform radial grid of dG=0.02 with 1113 points.
  Transforming nonlocal projectors to a uniform radial grid of dG=0.02 with 432 points.
  Transforming density augmentations to a uniform radial grid of dG=0.02 with 1113 points.
  Transforming atomic orbitals to a uniform radial grid of dG=0.02 with 432 points.
  Core radius for overlap checks: 2.20 bohrs.

Reading pseudopotential file '/home/guoxy/vasp/jdftx-1.5.0/build/pseudopotentials/GBRV/si_pbe.uspp':
  Title: Si.  Created by USPP 7.3.6 on 14-9-2013
  Reference state energy: -4.599342.  4 valence electrons in orbitals:
    |300>  occupation: 2  eigenvalue: -0.397366
    |310>  occupation: 2  eigenvalue: -0.149981
  lMax: 2  lLocal: 3  QijEcut: 5
  6 projectors sampled on a log grid with 627 points:
    l: 0  eig: -0.397364  rCut: 1.6
    l: 0  eig: 1.000000  rCut: 1.6
    l: 1  eig: -0.149982  rCut: 1.6
    l: 1  eig: 1.000000  rCut: 1.6
    l: 2  eig: -0.100000  rCut: 1.7
    l: 2  eig: 0.100000  rCut: 1.7
  Partial core density with radius 1.45
  Transforming core density to a uniform radial grid of dG=0.02 with 1113 points.
  Transforming local potential to a uniform radial grid of dG=0.02 with 1113 points.
  Transforming nonlocal projectors to a uniform radial grid of dG=0.02 with 432 points.
  Transforming density augmentations to a uniform radial grid of dG=0.02 with 1113 points.
  Transforming atomic orbitals to a uniform radial grid of dG=0.02 with 432 points.
  Core radius for overlap checks: 1.70 bohrs.

Reading pseudopotential file '/home/guoxy/vasp/jdftx-1.5.0/build/pseudopotentials/GBRV/se_pbe.uspp':
  Title: Se.  Created by USPP 7.3.6 on 14-9-2013
  Reference state energy: -21.672887.  6 valence electrons in orbitals:
    |400>  occupation: 2  eigenvalue: -0.635284
    |410>  occupation: 4  eigenvalue: -0.239295
  lMax: 2  lLocal: 3  QijEcut: 5
  6 projectors sampled on a log grid with 625 points:
    l: 0  eig: -0.635278  rCut: 1.5
    l: 0  eig: 0.500000  rCut: 1.5
    l: 1  eig: -0.239295  rCut: 1.5
    l: 1  eig: 0.500000  rCut: 1.5
    l: 2  eig: 0.000000  rCut: 1.8
    l: 2  eig: 1.000000  rCut: 1.8
  Partial core density with radius 1.2
  Transforming core density to a uniform radial grid of dG=0.02 with 1113 points.
  Transforming local potential to a uniform radial grid of dG=0.02 with 1113 points.
  Transforming nonlocal projectors to a uniform radial grid of dG=0.02 with 432 points.
  Transforming density augmentations to a uniform radial grid of dG=0.02 with 1113 points.
  Transforming atomic orbitals to a uniform radial grid of dG=0.02 with 432 points.
  Core radius for overlap checks: 1.80 bohrs.

Reading pseudopotential file '/home/guoxy/vasp/jdftx-1.5.0/build/pseudopotentials/GBRV/h_pbe.uspp':
  Title: H.  Created by USPP 7.3.6 on 2-4-15
  Reference state energy: -0.458849.  1 valence electrons in orbitals:
    |100>  occupation: 1  eigenvalue: -0.238595
  lMax: 0  lLocal: 1  QijEcut: 6
  2 projectors sampled on a log grid with 395 points:
    l: 0  eig: -0.238595  rCut: 1.2
    l: 0  eig: 1.000000  rCut: 1.2
  Transforming local potential to a uniform radial grid of dG=0.02 with 1113 points.
  Transforming nonlocal projectors to a uniform radial grid of dG=0.02 with 432 points.
  Transforming density augmentations to a uniform radial grid of dG=0.02 with 1113 points.
  Transforming atomic orbitals to a uniform radial grid of dG=0.02 with 432 points.
  Core radius for overlap checks: 1.20 bohrs.

Initialized 4 species with 97 total atoms.

Folded 1 k-points by 2x2x1 to 4 k-points.

---------- Setting up k-points, bands, fillings ----------
No reducable k-points. 
Computing the number of bands and number of electrons
Calculating initial fillings.
nElectrons: 705.000000   nBands: 673   nStates: 8

----- Setting up reduced wavefunction bases (one per k-point) -----
average nbasis = 124108.750 , ideal nbasis = 124071.433

---------- Setting up coulomb interaction ----------
Fluid mode embedding: using embedded box, but periodic Coulomb kernel.
(Fluid response is responsible for (approximate) separation between periodic images.)
Setting up double-sized grid for truncated Coulomb potentials:
R = 
[    26.6087          0          0  ]
[          0    26.6087          0  ]
[          0          0    82.0383  ]
unit cell volume = 58084.8
G =
[   0.236133          0          0  ]
[          0   0.236133          0  ]
[          0          0  0.0765884  ]
Chosen fftbox size, S = [  108  108  336  ]
Integer grid location selected as the embedding center:
   Grid: [  54  54  84  ]
   Lattice: [  0.5  0.5  0.5  ]
   Cartesian: [  13.3043  13.3043  20.5096  ]
Constructing Wigner-Seitz cell: 6 faces (6 quadrilaterals, 0 hexagons)
Range-separation parameter for embedded mesh potentials due to point charges: 0.626195 bohrs.

Initializing van der Waals corrections
	NOTE: vdW corrections apply only for interactions with fluid.
	Zr:  C6:  427.91 Eh-a0^6  R0: 3.097 a0
	Si:  C6:  160.10 Eh-a0^6  R0: 3.243 a0
	Se:  C6:  219.24 Eh-a0^6  R0: 3.347 a0
	 H:  C6:    2.43 Eh-a0^6  R0: 1.892 a0

---------- Setting up ewald sum ----------
Optimum gaussian width for ewald sums = 7.207794 bohr.
Real space sum over 405 unit cells with max indices [  4  4  2  ]
Reciprocal space sum over 8775 terms with max indices [  7  7  19  ]

---------- Allocating electronic variables ----------
Initializing wave functions:  linear combination of atomic orbitals
Zr pseudo-atom occupations:   s ( 2 2 )  p ( 6 0 )  d ( 2 )
Si pseudo-atom occupations:   s ( 2 )  p ( 2 )
Se pseudo-atom occupations:   s ( 2 )  p ( 4 )
H pseudo-atom occupations:   s ( 1 )
	FillingsUpdate:  mu: -0.171251800  nElectrons: 705.000000  magneticMoment: [ Abs: 1.95306  Tot: +1.84190 ]
LCAOMinimize: Iter:   0  G: -1812.4477630404669526  |grad|_K:  1.113e-02  alpha:  1.000e+00
LCAOMinimize: 	Step increased G by 2.119326e+00, reducing alpha to 1.066868e-02.
	FillingsUpdate:  mu: -0.171251800  nElectrons: 705.000000  magneticMoment: [ Abs: 1.91037  Tot: +1.80454 ]
LCAOMinimize: Iter:   1  G: -1816.5769558204096938  |grad|_K:  8.204e-03  alpha:  1.067e-02  linmin: -2.629e-01  cgtest:  1.009e+00  t[s]:    354.80
LCAOMinimize: Encountered beta<0, resetting CG.
LCAOMinimize: 	Predicted alpha/alphaT>3.000000, increasing alphaT to 3.200605e-02.
	FillingsUpdate:  mu: -0.171251800  nElectrons: 705.000000  magneticMoment: [ Abs: 1.72481  Tot: +1.61554 ]
LCAOMinimize: Iter:   2  G: -1822.3971218067474638  |grad|_K:  3.796e-03  alpha:  4.647e-02  linmin: -5.149e-02  cgtest:  1.695e-01  t[s]:    463.68
	FillingsUpdate:  mu: -0.171251800  nElectrons: 705.000000  magneticMoment: [ Abs: 1.29292  Tot: +1.13924 ]
LCAOMinimize: Iter:   3  G: -1825.3889279203535807  |grad|_K:  1.314e-03  alpha:  1.027e-01  linmin: -1.095e-01  cgtest:  1.680e-01  t[s]:    550.08
	FillingsUpdate:  mu: -0.171251800  nElectrons: 705.000000  magneticMoment: [ Abs: 1.13374  Tot: +0.97013 ]
LCAOMinimize: Iter:   4  G: -1825.6786370499305576  |grad|_K:  6.618e-04  alpha:  8.799e-02  linmin: -1.912e-02  cgtest: -5.744e-02  t[s]:    636.06
	FillingsUpdate:  mu: -0.171251800  nElectrons: 705.000000  magneticMoment: [ Abs: 0.98797  Tot: +0.81424 ]
LCAOMinimize: Iter:   5  G: -1825.7616803247135522  |grad|_K:  2.512e-04  alpha:  9.930e-02  linmin: -2.159e-02  cgtest: -7.979e-03  t[s]:    722.12
	FillingsUpdate:  mu: -0.171251800  nElectrons: 705.000000  magneticMoment: [ Abs: 0.86428  Tot: +0.69209 ]
LCAOMinimize: Iter:   6  G: -1825.7768831516748378  |grad|_K:  1.022e-04  alpha:  1.301e-01  linmin:  4.600e-02  cgtest: -2.379e-01  t[s]:    809.12
	FillingsUpdate:  mu: -0.171251800  nElectrons: 705.000000  magneticMoment: [ Abs: 0.71389  Tot: +0.54978 ]
LCAOMinimize: Iter:   7  G: -1825.7796313157487020  |grad|_K:  5.719e-05  alpha:  1.777e-01  linmin:  1.719e-01  cgtest: -3.457e-01  t[s]:    895.50
	FillingsUpdate:  mu: -0.171251800  nElectrons: 705.000000  magneticMoment: [ Abs: 0.63022  Tot: +0.47223 ]
LCAOMinimize: Iter:   8  G: -1825.7799511967293711  |grad|_K:  4.961e-05  alpha:  9.132e-02  linmin:  6.177e-02  cgtest:  5.629e-01  t[s]:    981.55
	FillingsUpdate:  mu: -0.171251800  nElectrons: 705.000000  magneticMoment: [ Abs: 0.49483  Tot: +0.34902 ]
LCAOMinimize: Iter:   9  G: -1825.7808721294870793  |grad|_K:  2.034e-05  alpha:  2.014e-01  linmin: -9.134e-02  cgtest:  2.451e-01  t[s]:   1067.77
	FillingsUpdate:  mu: -0.171251800  nElectrons: 705.000000  magneticMoment: [ Abs: 0.44509  Tot: +0.30648 ]
LCAOMinimize: Iter:  10  G: -1825.7809773891844998  |grad|_K:  1.409e-05  alpha:  1.300e-01  linmin:  1.585e-02  cgtest: -1.486e-01  t[s]:   1154.58
	FillingsUpdate:  mu: -0.171251800  nElectrons: 705.000000  magneticMoment: [ Abs: 0.37222  Tot: +0.24498 ]
LCAOMinimize: Iter:  11  G: -1825.7810250338272908  |grad|_K:  1.199e-05  alpha:  1.391e-01  linmin: -2.694e-02  cgtest:  2.946e-01  t[s]:   1241.41
LCAOMinimize: 	Predicted alpha/alphaT>3.000000, increasing alphaT to 4.174199e-01.
	FillingsUpdate:  mu: -0.171251800  nElectrons: 705.000000  magneticMoment: [ Abs: 0.26221  Tot: +0.15322 ]
LCAOMinimize: Iter:  12  G: -1825.7811141927538756  |grad|_K:  1.466e-05  alpha:  2.239e-01  linmin:  8.583e-02  cgtest: -5.407e-01  t[s]:   1350.09
LCAOMinimize: 	Wrong curvature in test step, increasing alphaT to 6.716869e-01.
	FillingsUpdate:  mu: -0.171251800  nElectrons: 705.000000  magneticMoment: [ Abs: 0.07754  Tot: -0.07263 ]
LCAOMinimize: Iter:  13  G: -1825.7811712527575310  |grad|_K:  2.565e-05  alpha: -6.410e-01  linmin:  7.476e-02  cgtest:  8.893e-01  t[s]:   1434.98
	FillingsUpdate:  mu: -0.171251800  nElectrons: 705.000000  magneticMoment: [ Abs: 0.16732  Tot: -0.16038 ]
LCAOMinimize: Iter:  14  G: -1825.7812425473562143  |grad|_K:  1.446e-05  alpha:  6.034e-02  linmin:  3.761e-03  cgtest:  8.969e-01  t[s]:   1521.37
LCAOMinimize: Encountered beta<0, resetting CG.
	FillingsUpdate:  mu: -0.171251800  nElectrons: 705.000000  magneticMoment: [ Abs: 0.15619  Tot: -0.14921 ]
LCAOMinimize: Iter:  15  G: -1825.7812758846109773  |grad|_K:  6.632e-06  alpha:  8.138e-02  linmin: -1.812e-01  cgtest:  6.516e-01  t[s]:   1607.64
LCAOMinimize: Encountered beta<0, resetting CG.
	FillingsUpdate:  mu: -0.171251800  nElectrons: 705.000000  magneticMoment: [ Abs: 0.14832  Tot: -0.14131 ]
LCAOMinimize: Iter:  16  G: -1825.7812795404477129  |grad|_K:  5.629e-06  alpha:  6.198e-02  linmin: -2.903e-01  cgtest:  9.862e-01  t[s]:   1693.34
LCAOMinimize: Encountered beta<0, resetting CG.
	FillingsUpdate:  mu: -0.171251800  nElectrons: 705.000000  magneticMoment: [ Abs: 0.14357  Tot: -0.13655 ]
LCAOMinimize: Iter:  17  G: -1825.7812806306053517  |grad|_K:  5.195e-06  alpha:  3.957e-02  linmin: -2.848e-01  cgtest:  9.977e-01  t[s]:   1779.66
LCAOMinimize: Encountered beta<0, resetting CG.
	FillingsUpdate:  mu: -0.171251800  nElectrons: 705.000000  magneticMoment: [ Abs: 0.14097  Tot: -0.13394 ]
LCAOMinimize: Iter:  18  G: -1825.7812809208583076  |grad|_K:  4.987e-06  alpha:  2.239e-02  linmin: -2.810e-01  cgtest:  9.995e-01  t[s]:   1865.52
LCAOMinimize: Encountered beta<0, resetting CG.
	FillingsUpdate:  mu: -0.171251800  nElectrons: 705.000000  magneticMoment: [ Abs: 0.13960  Tot: -0.13257 ]
LCAOMinimize: Iter:  19  G: -1825.7812810024288410  |grad|_K:  4.885e-06  alpha:  1.199e-02  linmin: -2.789e-01  cgtest:  9.999e-01  t[s]:   1952.06
LCAOMinimize: Encountered beta<0, resetting CG.
LCAOMinimize: Converged (|Delta G|<1.000000e-06 for 2 iters).
----- createFluidSolver() ----- (Fluid-side solver setup)
   Initializing fluid molecule 'H2O'
     Initializing site 'O'
       Electron density: proportional to exp(-r/0.36935)*erfc((r-0.51523)/0.36823) with norm 6.826
       Charge density: gaussian nuclear width 0.478731 with net site charge 0.826
       Polarizability: cuspless exponential with width 0.32 and norm 3.73
       Hard sphere radius: 2.57003 bohrs
       Positions in reference frame:
         [ +0.000000 +0.000000 +0.000000 ]
     Initializing site 'H'
       Electron density: proportional to exp(-r/0.34641)*erfc((r-0)/0.390882) with norm 0.587
       Charge density: gaussian nuclear width 0.377945 with net site charge -0.413
       Polarizability: cuspless exponential with width 0.39 and norm 3.3
       Positions in reference frame:
         [ +0.000000 -1.441945 +1.122523 ]
         [ +0.000000 +1.441945 +1.122523 ]
     Net charge: 0   dipole magnitude: 0.927204
     Initializing spherical shell mfKernel with radius 2.61727 Bohr
     deltaS corrections:
       site 'O': -7.54299
       site 'H': -6.83917
   Initializing fluid molecule 'Na+'
     Initializing site 'Na'
       Electron density: proportional to exp(-r/0.19682)*erfc((r-0.71491)/0.41314) with norm 8.1383
       Charge density: gaussian nuclear width 0.365347 with net site charge -1
       Hard sphere radius: 1.86327 bohrs
       Positions in reference frame:
         [ +0.000000 +0.000000 +0.000000 ]
     Net charge: -1   dipole magnitude: 0
     Initializing gaussian mfKernel with width: 1.55004 Bohr
     deltaS corrections:
       site 'Na': -22.3555
   Initializing fluid molecule 'F-'
     Initializing site 'F'
       Electron density: proportional to exp(-r/0.38886)*erfc((r-0)/0.438782) with norm 8
       Charge density: gaussian nuclear width 0.374796 with net site charge 1
       Hard sphere radius: 2.39995 bohrs
       Positions in reference frame:
         [ +0.000000 +0.000000 +0.000000 ]
     Net charge: 1   dipole magnitude: 0
     Initializing gaussian mfKernel with width: 1.59012 Bohr
     deltaS corrections:
       site 'F': -9.04335

Correction to mu due to finite nuclear width = -0.0120428
   Cavity determined by nc: 0.00142 and sigma: 0.707107
   Nonlocal vdW cavity from gaussian model electron density with norm = 8 and sigma = 0.993594 bohr
   Charge asymmetry in cavity with sensitivity pCavity = 36.5 e-bohr/Eh
   Electrostatic cavity expanded by eta = 1.46 bohrs
   Weighted density cavitation model constrained by Nbulk: 0.0049383 bohr^-3, Pvap: 3.14029 kPa, Rvdw: 2.61727 bohr and sigmaBulk: 4.62e-05 Eh/bohr^2 at T: 298 K.
   Weighted density dispersion model using vdW pair potentials with single solvent site with sqrtC6eff: 0.77 SI.


---- Citations for features of the code used in this run ----

   Software package:
      R. Sundararaman, K. Letchworth-Weaver, K.A. Schwarz, D. Gunceler, Y. Ozhabes and T.A. Arias, 'JDFTx: software for joint density-functional theory', SoftwareX 6, 278 (2017)

   gga-PBE exchange-correlation functional:
      J.P. Perdew, K. Burke and M. Ernzerhof, Phys. Rev. Lett. 77, 3865 (1996)

   Pseudopotentials:
      KF Garrity, JW Bennett, KM Rabe and D Vanderbilt, Comput. Mater. Sci. 81, 446 (2014)

   Truncated Coulomb potentials:
      R. Sundararaman and T.A. Arias, Phys. Rev. B 87, 165122 (2013)

   Van der Waals correction pair-potentials:
      S. Grimme, J. Comput. Chem. 27, 1787 (2006)

   Charge-asymmetric nonlocally-determined local-electric (CANDLE) solvation model:
      R. Sundararaman and W.A. Goddard III, J. Chem. Phys. 142, 064107 (2015)

   Total energy minimization with Auxiliary Hamiltonian:
      C. Freysoldt, S. Boeck, and J. Neugebauer, Phys. Rev. B 79, 241103(R) (2009)

   Grand-canonical (fixed-potential) DFT:
      R. Sundararaman, W. A. Goddard III and T. A. Arias, J. Chem. Phys. 146, 114104 (2017)

This list may not be complete. Please suggest additional citations or
report any other bugs at https://github.com/shankar1729/jdftx/issues

Initialization completed successfully at t[s]:   1976.02

Fluid solver invoked on fresh (partially random / LCAO) wavefunctions
Running a vacuum solve first:

-------- Initial electronic minimization -----------

*************** JDFTx 1.5.0  ***************

Start date and time: Thu Feb 11 09:46:52 2021
Executable jdftx_gpu with command-line: -i Charged.in -o Charged.out
Running on hosts (process indices):  amax (0-7)
Divided in process groups (process indices):  0 (0)  1 (1)  2 (2)  3 (3)  4 (4)  5 (5)  6 (6)  7 (7)
gpuInit: Found compatible cuda device 0 'Tesla K80'
gpuInit: Found compatible cuda device 1 'Tesla K80'
gpuInit: Found compatible cuda device 2 'Tesla K80'
gpuInit: Found compatible cuda device 3 'Tesla K80'
gpuInit: Found compatible cuda device 4 'Tesla K80'
gpuInit: Found compatible cuda device 5 'Tesla K80'
gpuInit: Found compatible cuda device 6 'Tesla K80'
gpuInit: Found compatible cuda device 7 'Tesla K80'
gpuInit: Selected device 0
Resource initialization completed at t[s]:      3.92
Run totals: 8 processes, 24 threads, 8 GPUs


Input parsed successfully to the following command list (including defaults):

basis kpoint-dependent
cache-projectors no
coords-type Lattice
core-overlap-check none
coulomb-interaction Slab 001
coulomb-truncation-embed 0.5 0.5 0.5
davidson-band-ratio 1.1
dump End State
dump-name NbTe2.$VAR
elec-cutoff 20
elec-eigen-algo Davidson
elec-ex-corr gga-PBE
elec-initial-magnetization 10.000000 no
elec-smearing Gauss 0.0073499
electronic-minimize  \
	dirUpdateScheme      FletcherReeves \
	linminMethod         DirUpdateRecommended \
	nIterations          200 \
	history              15 \
	knormThreshold       0 \
	energyDiffThreshold  1e-08 \
	nEnergyDiff          2 \
	alphaTstart          1 \
	alphaTmin            1e-10 \
	updateTestStepSize   yes \
	alphaTreduceFactor   0.1 \
	alphaTincreaseFactor 3 \
	nAlphaAdjustMax      3 \
	wolfeEnergy          0.0001 \
	wolfeGradient        0.9 \
	fdTest               no
exchange-regularization WignerSeitzTruncated
fluid LinearPCM 298.000000 1.013250
fluid-anion F- 1 MeanFieldLJ \
	epsBulk 1 \
	pMol 0 \
	epsInf 1 \
	Pvap 0 \
	sigmaBulk 0 \
	Rvdw 2.24877 \
	Res 0 \
	tauNuc 343133
fluid-cation Na+ 1 MeanFieldLJ \
	epsBulk 1 \
	pMol 0 \
	epsInf 1 \
	Pvap 0 \
	sigmaBulk 0 \
	Rvdw 2.19208 \
	Res 0 \
	tauNuc 343133
fluid-ex-corr lda-TF lda-PZ
fluid-gummel-loop 10 1.000000e-05
fluid-minimize  \
	dirUpdateScheme      PolakRibiere \
	linminMethod         DirUpdateRecommended \
	nIterations          400 \
	history              15 \
	knormThreshold       1e-11 \
	energyDiffThreshold  0 \
	nEnergyDiff          2 \
	alphaTstart          1 \
	alphaTmin            1e-10 \
	updateTestStepSize   yes \
	alphaTreduceFactor   0.1 \
	alphaTincreaseFactor 3 \
	nAlphaAdjustMax      6 \
	wolfeEnergy          0.0001 \
	wolfeGradient        0.9 \
	fdTest               no
fluid-solvent H2O 55.338 ScalarEOS \
	epsBulk 78.4 \
	pMol 0.92466 \
	epsInf 1.77 \
	Pvap 1.06736e-10 \
	sigmaBulk 4.62e-05 \
	Rvdw 2.61727 \
	Res 1.42 \
	tauNuc 343133 \
	poleEl 15 7 1
forces-output-coords Positions
initial-state NbTe2.$VAR
ion Zr   0.125023173401341   0.000024078439152   0.599650032587145 1
ion Zr  -0.000037795141089   0.125009496183930   0.400239538989995 1
ion Zr   0.375008349133415   0.000023824098765   0.599717041847323 1
ion Zr   0.250102032678508   0.125095826295960   0.400409940270833 1
ion Zr   0.625029891509308   0.000017948428454   0.599667321308383 1
ion Zr   0.499856000418498   0.125050532478382   0.400390615638088 1
ion Zr   0.874991840935635   0.000026912385560   0.599513300477952 1
ion Zr   0.750025085300945   0.124984306218264   0.400208985050610 1
ion Zr   0.124852290146110   0.249843067854344   0.599527182153697 1
ion Zr  -0.000001949231153   0.375078264863329   0.400394638042963 1
ion Zr   0.375050273453832   0.251015503926243   0.600549571986772 1
ion Zr   0.250046576324293   0.375046463663227   0.400585335393672 1
ion Zr   0.625272283308774   0.249807698803252   0.599498366720024 1
ion Zr   0.499940243405483   0.375029825302605   0.400556262833865 1
ion Zr   0.874970609350591   0.250038965374616   0.599673601448410 1
ion Zr   0.749982522154133   0.375058064264726   0.400355862338059 1
ion Zr   0.126039960904936   0.500037513475680   0.600541079748124 1
ion Zr   0.000001341761645   0.624935148409067   0.400386406534085 1
ion Zr   0.375078681200503   0.500093412133502   0.602911819834108 1
ion Zr   0.250041247235668   0.624979606498306   0.400575191519543 1
ion Zr   0.624139607756522   0.500045058903710   0.600501612921338 1
ion Zr   0.499955278074885   0.624995537419039   0.400545052947040 1
ion Zr   0.875008650511171   0.500019488203711   0.599700470696013 1
ion Zr   0.749990291221232   0.624953049408153   0.400346235535336 1
ion Zr   0.124831798652123   0.750228682504485   0.599507541834270 1
ion Zr  -0.000041761688208   0.875024502696412   0.400229840663714 1
ion Zr   0.375049378974120   0.749058192875962   0.600539233900775 1
ion Zr   0.250104099276407   0.874933787843752   0.400397807458281 1
ion Zr   0.625316223727684   0.750266446061863   0.599483074894286 1
ion Zr   0.499864283785840   0.874966402981288   0.400383237294585 1
ion Zr   0.874987052492157   0.750005479423509   0.599663919015528 1
ion Zr   0.750039832496761   0.875038449267786   0.400201230167723 1
ion Si   0.000119739967797   0.000014571896535   0.499865880080100 1
ion Si   0.124970670827311   0.125075683869683   0.499936701272347 1
ion Si   0.250106357176675   0.000010106603505   0.499980841807798 1
ion Si   0.374997281350607   0.125223375338320   0.500194038893816 1
ion Si   0.499879015617415   0.000002248621915   0.499984117740019 1
ion Si   0.625047295233251   0.124991993143151   0.499915102254518 1
ion Si   0.749926943638728   0.000011942048177   0.499860390839339 1
ion Si   0.875022282880406   0.125064337726477   0.499851156106629 1
ion Si   0.000008175281274   0.249939325006694   0.499945160126201 1
ion Si   0.125178126611498   0.375212392791997   0.500145428757707 1
ion Si   0.250338419824135   0.250334266339628   0.500168731424976 1
ion Si   0.375063577723772   0.375016750466846   0.500421900776212 1
ion Si   0.499815341215828   0.250206625455441   0.500133915799099 1
ion Si   0.624883984134295   0.375157767899196   0.500115790908151 1
ion Si   0.750004227397937   0.249717654045726   0.499865215275343 1
ion Si   0.874963857966914   0.375077458061721   0.499977216136181 1
ion Si   0.000169566491396   0.500006165822667   0.500157641639729 1
ion Si   0.125176191943090   0.624811794933012   0.500139714982356 1
ion Si   0.249962482106529   0.500017173926819   0.500437504121164 1
ion Si   0.375069539999796   0.625023205516287   0.500414214466204 1
ion Si   0.500126916793931   0.500020699519617   0.500373392348964 1
ion Si   0.624899372916919   0.624875492822756   0.500106964762683 1
ion Si   0.749828081634730   0.500008955527238   0.500126403899947 1
ion Si   0.874974640527665   0.624929771738207   0.499971943798446 1
ion Si   0.000006157182873   0.750079386786096   0.499934282598345 1
ion Si   0.124969787147616   0.874950644975018   0.499930902591325 1
ion Si   0.250331609278261   0.749691098910665   0.500159633731516 1
ion Si   0.374988073992156   0.874801642521401   0.500180707922262 1
ion Si   0.499825966490950   0.749836667078442   0.500117911956274 1
ion Si   0.625063521511381   0.875028439348097   0.499898267835041 1
ion Si   0.750028930183805   0.750299049766027   0.499853000915687 1
ion Si   0.875032347916041   0.874963371453643   0.499843549829648 1
ion Se  -0.000118126012499   0.124942604302023   0.653697640251672 1
ion Se   0.125132972844312   0.000035630946369   0.346168999408228 1
ion Se   0.249947147750626   0.124737262428157   0.653734518554771 1
ion Se   0.374966686034665   0.000011365771756   0.346088734651869 1
ion Se   0.500088697928589   0.124787875735949   0.653624493698097 1
ion Se   0.624871088048180   0.000009469450618   0.346109582538561 1
ion Se   0.750154257438169   0.124873102374234   0.653901153618019 1
ion Se   0.875001123039149   0.000011572848379   0.345771791684069 1
ion Se  -0.000211352246283   0.375002410785208   0.653631988189080 1
ion Se   0.125100571202619   0.250194261398891   0.346118829661259 1
ion Se   0.248353730425964   0.373208556393017   0.654815012242862 1
ion Se   0.374976255245481   0.250033433395447   0.346120710182983 1
ion Se   0.501914078997938   0.373348961490946   0.654658548603649 1
ion Se   0.624764592017539   0.250183361728877   0.346091382255105 1
ion Se   0.750318727427285   0.375006242665827   0.653769282716760 1
ion Se   0.875027712630331   0.250112038654531   0.345901102575711 1
ion Se  -0.000215027460512   0.625051703450438   0.653634472014307 1
ion Se   0.125054325239399   0.500005146313425   0.346307310402715 1
ion Se   0.248339967435365   0.626914071491690   0.654798460740771 1
ion Se   0.374989263340847   0.500005937664537   0.346481759381290 1
ion Se   0.501931463386669   0.626766836095924   0.654638161724128 1
ion Se   0.624951789551929   0.500003604810703   0.346306148064740 1
ion Se   0.750347897204250   0.625066663673976   0.653773639346828 1
ion Se   0.874995581559388   0.499999416708813   0.346073662375893 1
ion Se  -0.000130232026463   0.875114078623643   0.653688277052683 1
ion Se   0.125084874063694   0.749847791702988   0.346105898991814 1
ion Se   0.249960684879177   0.875389301055206   0.653721528083442 1
ion Se   0.374979145553488   0.749979142434169   0.346116269828418 1
ion Se   0.500095901474233   0.875252152618864   0.653622576529437 1
ion Se   0.624776096851551   0.749832623594078   0.346077197284748 1
ion Se   0.750192562014089   0.875229908168190   0.653889772109683 1
ion Se   0.875032763997658   0.749894529649752   0.345893993432272 1
ion H   0.375688899666119   0.500627356925330   0.689687785153651 1
ion-species GBRV/$ID_pbe.uspp
ion-width Ecut
ionic-minimize  \
	dirUpdateScheme      L-BFGS \
	linminMethod         DirUpdateRecommended \
	nIterations          500 \
	history              15 \
	knormThreshold       0.0001 \
	energyDiffThreshold  1e-06 \
	nEnergyDiff          2 \
	alphaTstart          1 \
	alphaTmin            1e-10 \
	updateTestStepSize   yes \
	alphaTreduceFactor   0.1 \
	alphaTincreaseFactor 3 \
	nAlphaAdjustMax      3 \
	wolfeEnergy          0.0001 \
	wolfeGradient        0.9 \
	fdTest               no
kpoint   0.000000000000   0.000000000000   0.000000000000  1.00000000000000
kpoint-folding 2 2 1 
latt-move-scale 1 1 1
latt-scale 1.88973 1.88973 1.88973 
lattice Triclinic 14.0807 14.0807 21.7064 90 90 90
lattice-minimize  \
	dirUpdateScheme      L-BFGS \
	linminMethod         DirUpdateRecommended \
	nIterations          0 \
	history              15 \
	knormThreshold       0 \
	energyDiffThreshold  1e-06 \
	nEnergyDiff          2 \
	alphaTstart          1 \
	alphaTmin            1e-10 \
	updateTestStepSize   yes \
	alphaTreduceFactor   0.1 \
	alphaTincreaseFactor 3 \
	nAlphaAdjustMax      3 \
	wolfeEnergy          0.0001 \
	wolfeGradient        0.9 \
	fdTest               no
lcao-params -1 1e-06 0.0073499
pcm-variant CANDLE
spintype z-spin
subspace-rotation-factor 1 yes
symmetries automatic
symmetry-threshold 0.0001
target-mu -0.171252 no




---------- Setting up symmetries ----------

Found 16 point-group symmetries of the bravais lattice
Found 1 space-group symmetries with basis
Applied RMS atom displacement 0 bohrs to make symmetries exact.

---------- Initializing the Grid ----------
R = 
[    26.6087          0          0  ]
[          0    26.6087          0  ]
[          0          0    41.0191  ]
unit cell volume = 29042.4
G =
[   0.236133          0          0  ]
[          0   0.236133          0  ]
[          0          0   0.153177  ]
Minimum fftbox size, Smin = [  108  108  168  ]
Chosen fftbox size, S = [  108  108  168  ]

---------- Exchange Correlation functional ----------
Initalized PBE GGA exchange.
Initalized PBE GGA correlation.

---------- Setting up pseudopotentials ----------
Width of ionic core gaussian charges (only for fluid interactions / plotting) set to 0.397384

Reading pseudopotential file '/home/guoxy/vasp/jdftx-1.5.0/build/pseudopotentials/GBRV/zr_pbe.uspp':
  Title: Zr.  Created by USPP 7.3.6 on 14-9-2013
  Reference state energy: -49.308156.  12 valence electrons in orbitals:
    |400>  occupation: 2  eigenvalue: -2.002953
    |410>  occupation: 6  eigenvalue: -1.192957
    |420>  occupation: 2  eigenvalue: -0.132269
    |500>  occupation: 2  eigenvalue: -0.163143
    |510>  occupation: 0  eigenvalue: -0.053997
  lMax: 2  lLocal: 3  QijEcut: 5
  6 projectors sampled on a log grid with 625 points:
    l: 0  eig: -2.002953  rCut: 1.8
    l: 0  eig: -0.132269  rCut: 1.8
    l: 1  eig: -1.192956  rCut: 2
    l: 1  eig: 0.150000  rCut: 2
    l: 2  eig: -0.163145  rCut: 2.2
    l: 2  eig: 0.150000  rCut: 2.2
  Partial core density with radius 1.2
  Transforming core density to a uniform radial grid of dG=0.02 with 1113 points.
  Transforming local potential to a uniform radial grid of dG=0.02 with 1113 points.
  Transforming nonlocal projectors to a uniform radial grid of dG=0.02 with 432 points.
  Transforming density augmentations to a uniform radial grid of dG=0.02 with 1113 points.
  Transforming atomic orbitals to a uniform radial grid of dG=0.02 with 432 points.
  Core radius for overlap checks: 2.20 bohrs.

Reading pseudopotential file '/home/guoxy/vasp/jdftx-1.5.0/build/pseudopotentials/GBRV/si_pbe.uspp':
  Title: Si.  Created by USPP 7.3.6 on 14-9-2013
  Reference state energy: -4.599342.  4 valence electrons in orbitals:
    |300>  occupation: 2  eigenvalue: -0.397366
    |310>  occupation: 2  eigenvalue: -0.149981
  lMax: 2  lLocal: 3  QijEcut: 5
  6 projectors sampled on a log grid with 627 points:
    l: 0  eig: -0.397364  rCut: 1.6
    l: 0  eig: 1.000000  rCut: 1.6
    l: 1  eig: -0.149982  rCut: 1.6
    l: 1  eig: 1.000000  rCut: 1.6
    l: 2  eig: -0.100000  rCut: 1.7
    l: 2  eig: 0.100000  rCut: 1.7
  Partial core density with radius 1.45
  Transforming core density to a uniform radial grid of dG=0.02 with 1113 points.
  Transforming local potential to a uniform radial grid of dG=0.02 with 1113 points.
  Transforming nonlocal projectors to a uniform radial grid of dG=0.02 with 432 points.
  Transforming density augmentations to a uniform radial grid of dG=0.02 with 1113 points.
  Transforming atomic orbitals to a uniform radial grid of dG=0.02 with 432 points.
  Core radius for overlap checks: 1.70 bohrs.

Reading pseudopotential file '/home/guoxy/vasp/jdftx-1.5.0/build/pseudopotentials/GBRV/se_pbe.uspp':
  Title: Se.  Created by USPP 7.3.6 on 14-9-2013
  Reference state energy: -21.672887.  6 valence electrons in orbitals:
    |400>  occupation: 2  eigenvalue: -0.635284
    |410>  occupation: 4  eigenvalue: -0.239295
  lMax: 2  lLocal: 3  QijEcut: 5
  6 projectors sampled on a log grid with 625 points:
    l: 0  eig: -0.635278  rCut: 1.5
    l: 0  eig: 0.500000  rCut: 1.5
    l: 1  eig: -0.239295  rCut: 1.5
    l: 1  eig: 0.500000  rCut: 1.5
    l: 2  eig: 0.000000  rCut: 1.8
    l: 2  eig: 1.000000  rCut: 1.8
  Partial core density with radius 1.2
  Transforming core density to a uniform radial grid of dG=0.02 with 1113 points.
  Transforming local potential to a uniform radial grid of dG=0.02 with 1113 points.
  Transforming nonlocal projectors to a uniform radial grid of dG=0.02 with 432 points.
  Transforming density augmentations to a uniform radial grid of dG=0.02 with 1113 points.
  Transforming atomic orbitals to a uniform radial grid of dG=0.02 with 432 points.
  Core radius for overlap checks: 1.80 bohrs.

Reading pseudopotential file '/home/guoxy/vasp/jdftx-1.5.0/build/pseudopotentials/GBRV/h_pbe.uspp':
  Title: H.  Created by USPP 7.3.6 on 2-4-15
  Reference state energy: -0.458849.  1 valence electrons in orbitals:
    |100>  occupation: 1  eigenvalue: -0.238595
  lMax: 0  lLocal: 1  QijEcut: 6
  2 projectors sampled on a log grid with 395 points:
    l: 0  eig: -0.238595  rCut: 1.2
    l: 0  eig: 1.000000  rCut: 1.2
  Transforming local potential to a uniform radial grid of dG=0.02 with 1113 points.
  Transforming nonlocal projectors to a uniform radial grid of dG=0.02 with 432 points.
  Transforming density augmentations to a uniform radial grid of dG=0.02 with 1113 points.
  Transforming atomic orbitals to a uniform radial grid of dG=0.02 with 432 points.
  Core radius for overlap checks: 1.20 bohrs.

Initialized 4 species with 97 total atoms.

Folded 1 k-points by 2x2x1 to 4 k-points.

---------- Setting up k-points, bands, fillings ----------
No reducable k-points. 
Computing the number of bands and number of electrons
Calculating initial fillings.
nElectrons: 705.000000   nBands: 673   nStates: 8

----- Setting up reduced wavefunction bases (one per k-point) -----
average nbasis = 124108.750 , ideal nbasis = 124071.433

---------- Setting up coulomb interaction ----------
Fluid mode embedding: using embedded box, but periodic Coulomb kernel.
(Fluid response is responsible for (approximate) separation between periodic images.)
Setting up double-sized grid for truncated Coulomb potentials:
R = 
[    26.6087          0          0  ]
[          0    26.6087          0  ]
[          0          0    82.0383  ]
unit cell volume = 58084.8
G =
[   0.236133          0          0  ]
[          0   0.236133          0  ]
[          0          0  0.0765884  ]
Chosen fftbox size, S = [  108  108  336  ]
Integer grid location selected as the embedding center:
   Grid: [  54  54  84  ]
   Lattice: [  0.5  0.5  0.5  ]
   Cartesian: [  13.3043  13.3043  20.5096  ]
Constructing Wigner-Seitz cell: 6 faces (6 quadrilaterals, 0 hexagons)
Range-separation parameter for embedded mesh potentials due to point charges: 0.626195 bohrs.

Initializing van der Waals corrections
	NOTE: vdW corrections apply only for interactions with fluid.
	Zr:  C6:  427.91 Eh-a0^6  R0: 3.097 a0
	Si:  C6:  160.10 Eh-a0^6  R0: 3.243 a0
	Se:  C6:  219.24 Eh-a0^6  R0: 3.347 a0
	 H:  C6:    2.43 Eh-a0^6  R0: 1.892 a0

---------- Setting up ewald sum ----------
Optimum gaussian width for ewald sums = 7.207794 bohr.
Real space sum over 405 unit cells with max indices [  4  4  2  ]
Reciprocal space sum over 8775 terms with max indices [  7  7  19  ]

---------- Allocating electronic variables ----------
Initializing wave functions:  linear combination of atomic orbitals
Zr pseudo-atom occupations:   s ( 2 2 )  p ( 6 0 )  d ( 2 )
Si pseudo-atom occupations:   s ( 2 )  p ( 2 )
Se pseudo-atom occupations:   s ( 2 )  p ( 4 )
H pseudo-atom occupations:   s ( 1 )
	FillingsUpdate:  mu: -0.171251800  nElectrons: 705.000000  magneticMoment: [ Abs: 1.95315  Tot: +1.84195 ]
LCAOMinimize: Iter:   0  G: -1812.4475421062068108  |grad|_K:  1.113e-02  alpha:  1.000e+00
LCAOMinimize: 	Step increased G by 2.121420e+00, reducing alpha to 1.066903e-02.
	FillingsUpdate:  mu: -0.171251800  nElectrons: 705.000000  magneticMoment: [ Abs: 1.91046  Tot: +1.80460 ]
LCAOMinimize: Iter:   1  G: -1816.5770276207908864  |grad|_K:  8.205e-03  alpha:  1.067e-02  linmin: -2.629e-01  cgtest:  1.009e+00  t[s]:    339.27
LCAOMinimize: Encountered beta<0, resetting CG.
LCAOMinimize: 	Predicted alpha/alphaT>3.000000, increasing alphaT to 3.200709e-02.
	FillingsUpdate:  mu: -0.171251800  nElectrons: 705.000000  magneticMoment: [ Abs: 1.72486  Tot: +1.61557 ]
LCAOMinimize: Iter:   2  G: -1822.3971486890270626  |grad|_K:  3.796e-03  alpha:  4.647e-02  linmin: -5.149e-02  cgtest:  1.695e-01  t[s]:    442.58
	FillingsUpdate:  mu: -0.171251800  nElectrons: 705.000000  magneticMoment: [ Abs: 1.29296  Tot: +1.13925 ]
LCAOMinimize: Iter:   3  G: -1825.3889436977269725  |grad|_K:  1.314e-03  alpha:  1.027e-01  linmin: -1.095e-01  cgtest:  1.680e-01  t[s]:    524.91
	FillingsUpdate:  mu: -0.171251800  nElectrons: 705.000000  magneticMoment: [ Abs: 1.13377  Tot: +0.97014 ]
LCAOMinimize: Iter:   4  G: -1825.6786340953938179  |grad|_K:  6.618e-04  alpha:  8.798e-02  linmin: -1.912e-02  cgtest: -5.744e-02  t[s]:    607.21
	FillingsUpdate:  mu: -0.171251800  nElectrons: 705.000000  magneticMoment: [ Abs: 0.98799  Tot: +0.81425 ]
LCAOMinimize: Iter:   5  G: -1825.7616808705224685  |grad|_K:  2.512e-04  alpha:  9.930e-02  linmin: -2.159e-02  cgtest: -7.966e-03  t[s]:    689.76
	FillingsUpdate:  mu: -0.171251800  nElectrons: 705.000000  magneticMoment: [ Abs: 0.86429  Tot: +0.69209 ]
LCAOMinimize: Iter:   6  G: -1825.7768824492341082  |grad|_K:  1.022e-04  alpha:  1.301e-01  linmin:  4.601e-02  cgtest: -2.379e-01  t[s]:    772.46
	FillingsUpdate:  mu: -0.171251800  nElectrons: 705.000000  magneticMoment: [ Abs: 0.71389  Tot: +0.54978 ]
LCAOMinimize: Iter:   7  G: -1825.7796306208695114  |grad|_K:  5.720e-05  alpha:  1.777e-01  linmin:  1.719e-01  cgtest: -3.458e-01  t[s]:    855.66
	FillingsUpdate:  mu: -0.171251800  nElectrons: 705.000000  magneticMoment: [ Abs: 0.63024  Tot: +0.47224 ]
LCAOMinimize: Iter:   8  G: -1825.7799504496783811  |grad|_K:  4.961e-05  alpha:  9.129e-02  linmin:  6.176e-02  cgtest:  5.632e-01  t[s]:    938.25
	FillingsUpdate:  mu: -0.171251800  nElectrons: 705.000000  magneticMoment: [ Abs: 0.49497  Tot: +0.34915 ]
LCAOMinimize: Iter:   9  G: -1825.7808712597245631  |grad|_K:  2.035e-05  alpha:  2.013e-01  linmin: -9.162e-02  cgtest:  2.462e-01  t[s]:   1021.12
	FillingsUpdate:  mu: -0.171251800  nElectrons: 705.000000  magneticMoment: [ Abs: 0.44526  Tot: +0.30663 ]
LCAOMinimize: Iter:  10  G: -1825.7809765601145955  |grad|_K:  1.411e-05  alpha:  1.300e-01  linmin:  1.589e-02  cgtest: -1.483e-01  t[s]:   1103.49
	FillingsUpdate:  mu: -0.171251800  nElectrons: 705.000000  magneticMoment: [ Abs: 0.37245  Tot: +0.24518 ]
LCAOMinimize: Iter:  11  G: -1825.7810242428888614  |grad|_K:  1.199e-05  alpha:  1.389e-01  linmin: -2.718e-02  cgtest:  2.961e-01  t[s]:   1186.42
LCAOMinimize: 	Predicted alpha/alphaT>3.000000, increasing alphaT to 4.166985e-01.
	FillingsUpdate:  mu: -0.171251800  nElectrons: 705.000000  magneticMoment: [ Abs: 0.26277  Tot: +0.15370 ]
LCAOMinimize: Iter:  12  G: -1825.7811132771503253  |grad|_K:  1.466e-05  alpha:  2.239e-01  linmin:  8.596e-02  cgtest: -5.407e-01  t[s]:   1290.02
LCAOMinimize: 	Wrong curvature in test step, increasing alphaT to 6.716185e-01.
	FillingsUpdate:  mu: -0.171251800  nElectrons: 705.000000  magneticMoment: [ Abs: 0.07682  Tot: -0.07178 ]
LCAOMinimize: Iter:  13  G: -1825.7811703899801614  |grad|_K:  2.570e-05  alpha: -6.297e-01  linmin:  7.466e-02  cgtest:  8.898e-01  t[s]:   1371.13
	FillingsUpdate:  mu: -0.171251800  nElectrons: 705.000000  magneticMoment: [ Abs: 0.16687  Tot: -0.16003 ]
LCAOMinimize: Iter:  14  G: -1825.7812421545406778  |grad|_K:  1.450e-05  alpha:  6.040e-02  linmin:  3.741e-03  cgtest:  8.976e-01  t[s]:   1454.52
LCAOMinimize: Encountered beta<0, resetting CG.
	FillingsUpdate:  mu: -0.171251800  nElectrons: 705.000000  magneticMoment: [ Abs: 0.15578  Tot: -0.14890 ]
LCAOMinimize: Iter:  15  G: -1825.7812755737322732  |grad|_K:  6.629e-06  alpha:  8.121e-02  linmin: -1.815e-01  cgtest:  6.526e-01  t[s]:   1537.15
LCAOMinimize: Encountered beta<0, resetting CG.
	FillingsUpdate:  mu: -0.171251800  nElectrons: 705.000000  magneticMoment: [ Abs: 0.14797  Tot: -0.14106 ]
LCAOMinimize: Iter:  16  G: -1825.7812791869198463  |grad|_K:  5.628e-06  alpha:  6.164e-02  linmin: -2.904e-01  cgtest:  9.863e-01  t[s]:   1619.62
LCAOMinimize: Encountered beta<0, resetting CG.
	FillingsUpdate:  mu: -0.171251800  nElectrons: 705.000000  magneticMoment: [ Abs: 0.14326  Tot: -0.13634 ]
LCAOMinimize: Iter:  17  G: -1825.7812802565315451  |grad|_K:  5.196e-06  alpha:  3.923e-02  linmin: -2.850e-01  cgtest:  9.977e-01  t[s]:   1702.32
LCAOMinimize: Encountered beta<0, resetting CG.
	FillingsUpdate:  mu: -0.171251800  nElectrons: 705.000000  magneticMoment: [ Abs: 0.14069  Tot: -0.13377 ]
LCAOMinimize: Iter:  18  G: -1825.7812805406920234  |grad|_K:  4.990e-06  alpha:  2.216e-02  linmin: -2.812e-01  cgtest:  9.995e-01  t[s]:   1784.67
LCAOMinimize: Encountered beta<0, resetting CG.
	FillingsUpdate:  mu: -0.171251800  nElectrons: 705.000000  magneticMoment: [ Abs: 0.13934  Tot: -0.13242 ]
LCAOMinimize: Iter:  19  G: -1825.7812806202316551  |grad|_K:  4.888e-06  alpha:  1.186e-02  linmin: -2.792e-01  cgtest:  9.999e-01  t[s]:   1867.14
LCAOMinimize: Encountered beta<0, resetting CG.
LCAOMinimize: Converged (|Delta G|<1.000000e-06 for 2 iters).
----- createFluidSolver() ----- (Fluid-side solver setup)
   Initializing fluid molecule 'H2O'
     Initializing site 'O'
       Electron density: proportional to exp(-r/0.36935)*erfc((r-0.51523)/0.36823) with norm 6.826
       Charge density: gaussian nuclear width 0.478731 with net site charge 0.826
       Polarizability: cuspless exponential with width 0.32 and norm 3.73
       Hard sphere radius: 2.57003 bohrs
       Positions in reference frame:
         [ +0.000000 +0.000000 +0.000000 ]
     Initializing site 'H'
       Electron density: proportional to exp(-r/0.34641)*erfc((r-0)/0.390882) with norm 0.587
       Charge density: gaussian nuclear width 0.377945 with net site charge -0.413
       Polarizability: cuspless exponential with width 0.39 and norm 3.3
       Positions in reference frame:
         [ +0.000000 -1.441945 +1.122523 ]
         [ +0.000000 +1.441945 +1.122523 ]
     Net charge: 0   dipole magnitude: 0.927204
     Initializing spherical shell mfKernel with radius 2.61727 Bohr
     deltaS corrections:
       site 'O': -7.54299
       site 'H': -6.83917
   Initializing fluid molecule 'Na+'
     Initializing site 'Na'
       Electron density: proportional to exp(-r/0.19682)*erfc((r-0.71491)/0.41314) with norm 8.1383
       Charge density: gaussian nuclear width 0.365347 with net site charge -1
       Hard sphere radius: 1.86327 bohrs
       Positions in reference frame:
         [ +0.000000 +0.000000 +0.000000 ]
     Net charge: -1   dipole magnitude: 0
     Initializing gaussian mfKernel with width: 1.55004 Bohr
     deltaS corrections:
       site 'Na': -22.3555
   Initializing fluid molecule 'F-'
     Initializing site 'F'
       Electron density: proportional to exp(-r/0.38886)*erfc((r-0)/0.438782) with norm 8
       Charge density: gaussian nuclear width 0.374796 with net site charge 1
       Hard sphere radius: 2.39995 bohrs
       Positions in reference frame:
         [ +0.000000 +0.000000 +0.000000 ]
     Net charge: 1   dipole magnitude: 0
     Initializing gaussian mfKernel with width: 1.59012 Bohr
     deltaS corrections:
       site 'F': -9.04335

Correction to mu due to finite nuclear width = -0.0120428
   Cavity determined by nc: 0.00142 and sigma: 0.707107
   Nonlocal vdW cavity from gaussian model electron density with norm = 8 and sigma = 0.993594 bohr
   Charge asymmetry in cavity with sensitivity pCavity = 36.5 e-bohr/Eh
   Electrostatic cavity expanded by eta = 1.46 bohrs
   Weighted density cavitation model constrained by Nbulk: 0.0049383 bohr^-3, Pvap: 3.14029 kPa, Rvdw: 2.61727 bohr and sigmaBulk: 4.62e-05 Eh/bohr^2 at T: 298 K.
   Weighted density dispersion model using vdW pair potentials with single solvent site with sqrtC6eff: 0.77 SI.


---- Citations for features of the code used in this run ----

   Software package:
      R. Sundararaman, K. Letchworth-Weaver, K.A. Schwarz, D. Gunceler, Y. Ozhabes and T.A. Arias, 'JDFTx: software for joint density-functional theory', SoftwareX 6, 278 (2017)

   gga-PBE exchange-correlation functional:
      J.P. Perdew, K. Burke and M. Ernzerhof, Phys. Rev. Lett. 77, 3865 (1996)

   Pseudopotentials:
      KF Garrity, JW Bennett, KM Rabe and D Vanderbilt, Comput. Mater. Sci. 81, 446 (2014)

   Truncated Coulomb potentials:
      R. Sundararaman and T.A. Arias, Phys. Rev. B 87, 165122 (2013)

   Van der Waals correction pair-potentials:
      S. Grimme, J. Comput. Chem. 27, 1787 (2006)

   Charge-asymmetric nonlocally-determined local-electric (CANDLE) solvation model:
      R. Sundararaman and W.A. Goddard III, J. Chem. Phys. 142, 064107 (2015)

   Total energy minimization with Auxiliary Hamiltonian:
      C. Freysoldt, S. Boeck, and J. Neugebauer, Phys. Rev. B 79, 241103(R) (2009)

   Grand-canonical (fixed-potential) DFT:
      R. Sundararaman, W. A. Goddard III and T. A. Arias, J. Chem. Phys. 146, 114104 (2017)

This list may not be complete. Please suggest additional citations or
report any other bugs at https://github.com/shankar1729/jdftx/issues

Initialization completed successfully at t[s]:   1889.59

Fluid solver invoked on fresh (partially random / LCAO) wavefunctions
Running a vacuum solve first:

-------- Initial electronic minimization -----------
	FillingsUpdate:  mu: -0.077685591  nElectrons: 705.000000  magneticMoment: [ Abs: 0.13934  Tot: -0.13242 ]
ElecMinimize: Iter:   0  G: -1825.619185042079835  |grad|_K:  5.094e-05  alpha:  1.000e+00
	FillingsUpdate:  mu: -0.020838977  nElectrons: 705.000000  magneticMoment: [ Abs: 0.03904  Tot: -0.02051 ]
	SubspaceRotationAdjust: set factor to 1
ElecMinimize: Iter:   1  G: -1827.346689335011661  |grad|_K:  2.528e-05  alpha:  9.936e-01  linmin: -6.453e-05  t[s]:   2122.27
	FillingsUpdate:  mu: -0.071712357  nElectrons: 705.000000  magneticMoment: [ Abs: 0.02586  Tot: -0.00661 ]
	SubspaceRotationAdjust: set factor to 0.676
ElecMinimize: Iter:   2  G: -1827.492553317349575  |grad|_K:  2.144e-05  alpha:  3.335e-01  linmin: -6.788e-05  t[s]:   2267.34
	FillingsUpdate:  mu: -0.049216281  nElectrons: 705.000000  magneticMoment: [ Abs: 0.01425  Tot: +0.01248 ]
	SubspaceRotationAdjust: set factor to 0.399
ElecMinimize: Iter:   3  G: -1827.640875597368449  |grad|_K:  8.689e-06  alpha:  4.834e-01  linmin:  3.925e-04  t[s]:   2411.87
	FillingsUpdate:  mu: -0.053047617  nElectrons: 705.000000  magneticMoment: [ Abs: 0.01365  Tot: +0.01235 ]
	SubspaceRotationAdjust: set factor to 0.251
ElecMinimize: Iter:   4  G: -1827.666854894205699  |grad|_K:  9.070e-06  alpha:  5.465e-01  linmin:  9.139e-05  t[s]:   2556.34
	FillingsUpdate:  mu: -0.052481976  nElectrons: 705.000000  magneticMoment: [ Abs: 0.01274  Tot: +0.01143 ]
	SubspaceRotationAdjust: set factor to 0.182
ElecMinimize: Iter:   5  G: -1827.677870739727496  |grad|_K:  4.242e-06  alpha:  1.957e-01  linmin: -1.585e-04  t[s]:   2701.03
ElecMinimize: 	Predicted alpha/alphaT>3.000000, increasing alphaT to 5.870750e-01.
	FillingsUpdate:  mu: -0.049381846  nElectrons: 705.000000  magneticMoment: [ Abs: 0.01059  Tot: +0.00921 ]
	SubspaceRotationAdjust: set factor to 0.153
ElecMinimize: Iter:   6  G: -1827.685485086509743  |grad|_K:  3.249e-06  alpha:  6.158e-01  linmin:  4.138e-05  t[s]:   2881.93
	FillingsUpdate:  mu: -0.048579990  nElectrons: 705.000000  magneticMoment: [ Abs: 0.00921  Tot: +0.00761 ]
	SubspaceRotationAdjust: set factor to 0.146
ElecMinimize: Iter:   7  G: -1827.688631714232315  |grad|_K:  2.158e-06  alpha:  4.469e-01  linmin:  2.364e-06  t[s]:   3026.15
	FillingsUpdate:  mu: -0.049580789  nElectrons: 705.000000  magneticMoment: [ Abs: 0.00792  Tot: +0.00619 ]
	SubspaceRotationAdjust: set factor to 0.166
ElecMinimize: Iter:   8  G: -1827.690351941152358  |grad|_K:  1.474e-06  alpha:  5.522e-01  linmin:  1.266e-05  t[s]:   3170.55
	FillingsUpdate:  mu: -0.050625074  nElectrons: 705.000000  magneticMoment: [ Abs: 0.00680  Tot: +0.00501 ]
	SubspaceRotationAdjust: set factor to 0.148
ElecMinimize: Iter:   9  G: -1827.691222498580828  |grad|_K:  1.285e-06  alpha:  6.001e-01  linmin:  6.181e-06  t[s]:   3314.77
	FillingsUpdate:  mu: -0.050916244  nElectrons: 705.000000  magneticMoment: [ Abs: 0.00567  Tot: +0.00385 ]
	SubspaceRotationAdjust: set factor to 0.179
ElecMinimize: Iter:  10  G: -1827.691809131562650  |grad|_K:  9.127e-07  alpha:  5.313e-01  linmin:  3.000e-06  t[s]:   3458.96
	FillingsUpdate:  mu: -0.050362314  nElectrons: 705.000000  magneticMoment: [ Abs: 0.00445  Tot: +0.00270 ]
	SubspaceRotationAdjust: set factor to 0.156
ElecMinimize: Iter:  11  G: -1827.692213481889667  |grad|_K:  9.506e-07  alpha:  7.262e-01  linmin:  4.187e-06  t[s]:   3603.84
	FillingsUpdate:  mu: -0.049855724  nElectrons: 705.000000  magneticMoment: [ Abs: 0.00340  Tot: +0.00171 ]
	SubspaceRotationAdjust: set factor to 0.154
ElecMinimize: Iter:  12  G: -1827.692500230687301  |grad|_K:  6.633e-07  alpha:  4.743e-01  linmin:  8.706e-08  t[s]:   3748.97
	FillingsUpdate:  mu: -0.049856564  nElectrons: 705.000000  magneticMoment: [ Abs: 0.00250  Tot: +0.00091 ]
	SubspaceRotationAdjust: set factor to 0.161
ElecMinimize: Iter:  13  G: -1827.692690855448745  |grad|_K:  5.947e-07  alpha:  6.469e-01  linmin:  5.440e-07  t[s]:   3893.73
	FillingsUpdate:  mu: -0.050011328  nElectrons: 705.000000  magneticMoment: [ Abs: 0.00189  Tot: +0.00040 ]
	SubspaceRotationAdjust: set factor to 0.152
ElecMinimize: Iter:  14  G: -1827.692802598859544  |grad|_K:  3.950e-07  alpha:  4.720e-01  linmin: -2.719e-07  t[s]:   4038.86
	FillingsUpdate:  mu: -0.050109360  nElectrons: 705.000000  magneticMoment: [ Abs: 0.00144  Tot: +0.00009 ]
	SubspaceRotationAdjust: set factor to 0.174
ElecMinimize: Iter:  15  G: -1827.692862457267211  |grad|_K:  3.171e-07  alpha:  5.723e-01  linmin: -4.866e-07  t[s]:   4183.75
	FillingsUpdate:  mu: -0.050104514  nElectrons: 705.000000  magneticMoment: [ Abs: 0.00114  Tot: -0.00007 ]
	SubspaceRotationAdjust: set factor to 0.167
ElecMinimize: Iter:  16  G: -1827.692895394594871  |grad|_K:  2.263e-07  alpha:  4.886e-01  linmin: -2.053e-07  t[s]:   4328.38
	FillingsUpdate:  mu: -0.050052967  nElectrons: 705.000000  magneticMoment: [ Abs: 0.00090  Tot: -0.00016 ]
	SubspaceRotationAdjust: set factor to 0.198
ElecMinimize: Iter:  17  G: -1827.692915655830120  |grad|_K:  1.816e-07  alpha:  5.903e-01  linmin: -1.783e-08  t[s]:   4473.29
	FillingsUpdate:  mu: -0.050034366  nElectrons: 705.000000  magneticMoment: [ Abs: 0.00073  Tot: -0.00020 ]
	SubspaceRotationAdjust: set factor to 0.197
ElecMinimize: Iter:  18  G: -1827.692926739890481  |grad|_K:  1.484e-07  alpha:  5.013e-01  linmin:  9.546e-08  t[s]:   4618.32
	FillingsUpdate:  mu: -0.050059230  nElectrons: 705.000000  magneticMoment: [ Abs: 0.00057  Tot: -0.00021 ]
	SubspaceRotationAdjust: set factor to 0.266
ElecMinimize: Iter:  19  G: -1827.692935884771032  |grad|_K:  1.235e-07  alpha:  6.204e-01  linmin:  6.971e-07  t[s]:   4763.31
	FillingsUpdate:  mu: -0.050090594  nElectrons: 705.000000  magneticMoment: [ Abs: 0.00046  Tot: -0.00019 ]
	SubspaceRotationAdjust: set factor to 0.27
ElecMinimize: Iter:  20  G: -1827.692941764651323  |grad|_K:  1.240e-07  alpha:  5.765e-01  linmin:  4.603e-07  t[s]:   4908.64
	FillingsUpdate:  mu: -0.050100434  nElectrons: 705.000000  magneticMoment: [ Abs: 0.00037  Tot: -0.00016 ]
	SubspaceRotationAdjust: set factor to 0.256
ElecMinimize: Iter:  21  G: -1827.692946043265692  |grad|_K:  9.453e-08  alpha:  4.150e-01  linmin:  1.320e-07  t[s]:   5053.48
	FillingsUpdate:  mu: -0.050087180  nElectrons: 705.000000  magneticMoment: [ Abs: 0.00029  Tot: -0.00011 ]
	SubspaceRotationAdjust: set factor to 0.291
ElecMinimize: Iter:  22  G: -1827.692949316162185  |grad|_K:  7.142e-08  alpha:  5.479e-01  linmin:  6.717e-07  t[s]:   5198.34
	FillingsUpdate:  mu: -0.050083717  nElectrons: 705.000000  magneticMoment: [ Abs: 0.00023  Tot: -0.00008 ]
	SubspaceRotationAdjust: set factor to 0.262
ElecMinimize: Iter:  23  G: -1827.692950980578871  |grad|_K:  6.597e-08  alpha:  4.891e-01  linmin:  4.626e-08  t[s]:   5343.96
	FillingsUpdate:  mu: -0.050088618  nElectrons: 705.000000  magneticMoment: [ Abs: 0.00018  Tot: -0.00005 ]
	SubspaceRotationAdjust: set factor to 0.229
ElecMinimize: Iter:  24  G: -1827.692951997808223  |grad|_K:  4.294e-08  alpha:  3.490e-01  linmin: -1.913e-08  t[s]:   5488.68
	FillingsUpdate:  mu: -0.050097354  nElectrons: 705.000000  magneticMoment: [ Abs: 0.00014  Tot: -0.00003 ]
	SubspaceRotationAdjust: set factor to 0.307
ElecMinimize: Iter:  25  G: -1827.692952727004695  |grad|_K:  3.346e-08  alpha:  5.902e-01  linmin: -3.838e-08  t[s]:   5633.55
	FillingsUpdate:  mu: -0.050096738  nElectrons: 705.000000  magneticMoment: [ Abs: 0.00012  Tot: -0.00001 ]
	SubspaceRotationAdjust: set factor to 0.276
ElecMinimize: Iter:  26  G: -1827.692953099984152  |grad|_K:  3.038e-08  alpha:  4.971e-01  linmin: -7.303e-10  t[s]:   5778.88
	FillingsUpdate:  mu: -0.050090388  nElectrons: 705.000000  magneticMoment: [ Abs: 0.00011  Tot: -0.00000 ]
	SubspaceRotationAdjust: set factor to 0.301
ElecMinimize: Iter:  27  G: -1827.692953343474755  |grad|_K:  2.349e-08  alpha:  3.936e-01  linmin:  2.428e-08  t[s]:   5924.08
	FillingsUpdate:  mu: -0.050084401  nElectrons: 705.000000  magneticMoment: [ Abs: 0.00009  Tot: +0.00001 ]
	SubspaceRotationAdjust: set factor to 0.378
ElecMinimize: Iter:  28  G: -1827.692953557268538  |grad|_K:  1.906e-08  alpha:  5.788e-01  linmin:  1.478e-07  t[s]:   6069.00
	FillingsUpdate:  mu: -0.050085981  nElectrons: 705.000000  magneticMoment: [ Abs: 0.00008  Tot: +0.00001 ]
	SubspaceRotationAdjust: set factor to 0.437
ElecMinimize: Iter:  29  G: -1827.692953691612274  |grad|_K:  1.613e-08  alpha:  5.535e-01  linmin:  5.303e-08  t[s]:   6213.81
	FillingsUpdate:  mu: -0.050087693  nElectrons: 705.000000  magneticMoment: [ Abs: 0.00007  Tot: +0.00001 ]
	SubspaceRotationAdjust: set factor to 0.372
ElecMinimize: Iter:  30  G: -1827.692953754561813  |grad|_K:  1.608e-08  alpha:  3.613e-01  linmin:  1.828e-08  t[s]:   6358.70
	FillingsUpdate:  mu: -0.050087713  nElectrons: 705.000000  magneticMoment: [ Abs: 0.00006  Tot: +0.00001 ]
	SubspaceRotationAdjust: set factor to 0.291
ElecMinimize: Iter:  31  G: -1827.692953801685690  |grad|_K:  1.039e-08  alpha:  2.721e-01  linmin:  3.052e-09  t[s]:   6503.60
	FillingsUpdate:  mu: -0.050084857  nElectrons: 705.000000  magneticMoment: [ Abs: 0.00004  Tot: +0.00001 ]
	SubspaceRotationAdjust: set factor to 0.327
ElecMinimize: Iter:  32  G: -1827.692953839016582  |grad|_K:  7.492e-09  alpha:  5.174e-01  linmin:  7.084e-08  t[s]:   6647.98
	FillingsUpdate:  mu: -0.050084948  nElectrons: 705.000000  magneticMoment: [ Abs: 0.00003  Tot: +0.00001 ]
	SubspaceRotationAdjust: set factor to 0.372
ElecMinimize: Iter:  33  G: -1827.692953860238049  |grad|_K:  6.405e-09  alpha:  5.665e-01  linmin:  1.007e-08  t[s]:   6793.44
	FillingsUpdate:  mu: -0.050086991  nElectrons: 705.000000  magneticMoment: [ Abs: 0.00002  Tot: +0.00000 ]
	SubspaceRotationAdjust: set factor to 0.337
ElecMinimize: Iter:  34  G: -1827.692953871598093  |grad|_K:  6.186e-09  alpha:  4.146e-01  linmin:  4.332e-08  t[s]:   6938.35
	FillingsUpdate:  mu: -0.050088751  nElectrons: 705.000000  magneticMoment: [ Abs: 0.00002  Tot: +0.00000 ]
	SubspaceRotationAdjust: set factor to 0.352
ElecMinimize: Iter:  35  G: -1827.692953880881532  |grad|_K:  4.789e-09  alpha:  3.621e-01  linmin:  8.572e-08  t[s]:   7082.98
	FillingsUpdate:  mu: -0.050088380  nElectrons: 705.000000  magneticMoment: [ Abs: 0.00002  Tot: -0.00000 ]
	SubspaceRotationAdjust: set factor to 0.439
ElecMinimize: Iter:  36  G: -1827.692953888644979  |grad|_K:  3.771e-09  alpha:  5.121e-01  linmin:  9.437e-08  t[s]:   7228.27
ElecMinimize: Converged (|Delta G|<1.000000e-08 for 2 iters).
Setting wave functions to eigenvectors of Hamiltonian
Vacuum energy after initial minimize, F = -1827.692953888644979

Shifting auxilliary hamiltonian by -0.121163 to set nElectrons=705.000000
	Linear fluid (dielectric constant: 78.4, screening length: 5.74355 Bohr) occupying 0.712084 of unit cell:	Completed after 21 iterations at t[s]:   7254.76

-------- Electronic minimization -----------
	Linear fluid (dielectric constant: 78.4, screening length: 5.74355 Bohr) occupying 0.712084 of unit cell:	Completed after 0 iterations at t[s]:   7283.16
	FillingsUpdate:  mu: -0.171251800  nElectrons: 705.000000  magneticMoment: [ Abs: 0.00001  Tot: +0.00000 ]
ElecMinimize: Iter:   0  G: -1827.683257179673774  |grad|_K:  1.761e-06  alpha:  1.000e+00
	Linear fluid (dielectric constant: 78.4, screening length: 5.74355 Bohr) occupying 0.712398 of unit cell:	Completed after 18 iterations at t[s]:   7407.66
	Linear fluid (dielectric constant: 78.4, screening length: 5.74355 Bohr) occupying 0.712120 of unit cell:	Completed after 18 iterations at t[s]:   7456.51
	FillingsUpdate:  mu: -0.171251800  nElectrons: 704.895494  magneticMoment: [ Abs: 0.00001  Tot: +0.00000 ]
	SubspaceRotationAdjust: set factor to 0.26
ElecMinimize: Iter:   1  G: -1827.683496608174892  |grad|_K:  1.155e-06  alpha:  1.189e-01  linmin:  6.191e-04  t[s]:   7522.32
	Linear fluid (dielectric constant: 78.4, screening length: 5.74355 Bohr) occupying 0.712186 of unit cell:	Completed after 7 iterations at t[s]:   7573.56
ElecMinimize: 	Predicted alpha/alphaT>3.000000, increasing alphaT to 3.566543e-01.
	Linear fluid (dielectric constant: 78.4, screening length: 5.74355 Bohr) occupying 0.712315 of unit cell:	Completed after 11 iterations at t[s]:   7617.60
	Linear fluid (dielectric constant: 78.4, screening length: 5.74355 Bohr) occupying 0.712422 of unit cell:	Completed after 9 iterations at t[s]:   7662.99
	FillingsUpdate:  mu: -0.171251800  nElectrons: 704.830105  magneticMoment: [ Abs: 0.00007  Tot: +0.00000 ]
	SubspaceRotationAdjust: set factor to 0.176
ElecMinimize: Iter:   2  G: -1827.683980180792332  |grad|_K:  7.605e-07  alpha:  5.537e-01  linmin: -1.951e-04  t[s]:   7726.58
	Linear fluid (dielectric constant: 78.4, screening length: 5.74355 Bohr) occupying 0.712635 of unit cell:	Completed after 11 iterations at t[s]:   7778.54
	Linear fluid (dielectric constant: 78.4, screening length: 5.74355 Bohr) occupying 0.712679 of unit cell:	Completed after 4 iterations at t[s]:   7822.75
	FillingsUpdate:  mu: -0.171251800  nElectrons: 704.763599  magneticMoment: [ Abs: 0.00013  Tot: +0.00000 ]
	SubspaceRotationAdjust: set factor to 0.136
ElecMinimize: Iter:   3  G: -1827.684242896044907  |grad|_K:  4.368e-07  alpha:  6.669e-01  linmin: -1.854e-05  t[s]:   7886.00
	Linear fluid (dielectric constant: 78.4, screening length: 5.74355 Bohr) occupying 0.712802 of unit cell:	Completed after 9 iterations at t[s]:   7937.74
	Linear fluid (dielectric constant: 78.4, screening length: 5.74355 Bohr) occupying 0.712849 of unit cell:	Completed after 3 iterations at t[s]:   7981.15
	FillingsUpdate:  mu: -0.171251800  nElectrons: 704.751398  magneticMoment: [ Abs: 0.00022  Tot: +0.00000 ]
	SubspaceRotationAdjust: set factor to 0.178
ElecMinimize: Iter:   4  G: -1827.684360698674254  |grad|_K:  2.178e-07  alpha:  9.215e-01  linmin:  1.437e-05  t[s]:   8043.62
	Linear fluid (dielectric constant: 78.4, screening length: 5.74355 Bohr) occupying 0.712907 of unit cell:	Completed after 6 iterations at t[s]:   8094.62
	Linear fluid (dielectric constant: 78.4, screening length: 5.74355 Bohr) occupying 0.712911 of unit cell:	Completed after 0 iterations at t[s]:   8136.48
	FillingsUpdate:  mu: -0.171251800  nElectrons: 704.742795  magneticMoment: [ Abs: 0.00026  Tot: +0.00000 ]
	SubspaceRotationAdjust: set factor to 0.218
ElecMinimize: Iter:   5  G: -1827.684391786389142  |grad|_K:  1.373e-07  alpha:  9.776e-01  linmin: -1.594e-04  t[s]:   8197.63
	Linear fluid (dielectric constant: 78.4, screening length: 5.74355 Bohr) occupying 0.712943 of unit cell:	Completed after 4 iterations at t[s]:   8248.19
	Linear fluid (dielectric constant: 78.4, screening length: 5.74355 Bohr) occupying 0.712946 of unit cell:	Completed after 0 iterations at t[s]:   8289.76
	FillingsUpdate:  mu: -0.171251800  nElectrons: 704.733158  magneticMoment: [ Abs: 0.00023  Tot: +0.00000 ]
	SubspaceRotationAdjust: set factor to 0.262
ElecMinimize: Iter:   6  G: -1827.684405288830249  |grad|_K:  1.060e-07  alpha:  1.043e+00  linmin: -3.156e-05  t[s]:   8351.03
	Linear fluid (dielectric constant: 78.4, screening length: 5.74355 Bohr) occupying 0.712973 of unit cell:	Completed after 4 iterations at t[s]:   8401.51
	Linear fluid (dielectric constant: 78.4, screening length: 5.74355 Bohr) occupying 0.712966 of unit cell:	Completed after 2 iterations at t[s]:   8443.79
	FillingsUpdate:  mu: -0.171251800  nElectrons: 704.734895  magneticMoment: [ Abs: 0.00019  Tot: +0.00000 ]
	SubspaceRotationAdjust: set factor to 0.247
ElecMinimize: Iter:   7  G: -1827.684411341160967  |grad|_K:  8.133e-08  alpha:  8.026e-01  linmin:  2.392e-05  t[s]:   8505.96
	Linear fluid (dielectric constant: 78.4, screening length: 5.74355 Bohr) occupying 0.712981 of unit cell:	Completed after 6 iterations at t[s]:   8556.88
	Linear fluid (dielectric constant: 78.4, screening length: 5.74355 Bohr) occupying 0.712975 of unit cell:	Completed after 3 iterations at t[s]:   8599.98
	FillingsUpdate:  mu: -0.171251800  nElectrons: 704.728840  magneticMoment: [ Abs: 0.00015  Tot: +0.00000 ]
	SubspaceRotationAdjust: set factor to 0.161
ElecMinimize: Iter:   8  G: -1827.684413350218392  |grad|_K:  8.814e-08  alpha:  4.412e-01  linmin:  7.442e-05  t[s]:   8662.13
	Linear fluid (dielectric constant: 78.4, screening length: 5.74355 Bohr) occupying 0.712987 of unit cell:	Completed after 8 iterations at t[s]:   8713.58
	Linear fluid (dielectric constant: 78.4, screening length: 5.74355 Bohr) occupying 0.712981 of unit cell:	Completed after 3 iterations at t[s]:   8757.04
	FillingsUpdate:  mu: -0.171251800  nElectrons: 704.731839  magneticMoment: [ Abs: 0.00012  Tot: +0.00000 ]
	SubspaceRotationAdjust: set factor to 0.0844
ElecMinimize: Iter:   9  G: -1827.684414304462052  |grad|_K:  4.497e-08  alpha:  2.295e-01  linmin:  3.876e-05  t[s]:   8819.55
	Linear fluid (dielectric constant: 78.4, screening length: 5.74355 Bohr) occupying 0.712983 of unit cell:	Completed after 0 iterations at t[s]:   8869.22
ElecMinimize: 	Predicted alpha/alphaT>3.000000, increasing alphaT to 6.884372e-01.
	Linear fluid (dielectric constant: 78.4, screening length: 5.74355 Bohr) occupying 0.712987 of unit cell:	Completed after 3 iterations at t[s]:   8910.03
	Linear fluid (dielectric constant: 78.4, screening length: 5.74355 Bohr) occupying 0.712986 of unit cell:	Completed after 0 iterations at t[s]:   8951.70
	FillingsUpdate:  mu: -0.171251800  nElectrons: 704.729493  magneticMoment: [ Abs: 0.00008  Tot: +0.00000 ]
	SubspaceRotationAdjust: set factor to 0.0848
ElecMinimize: Iter:  10  G: -1827.684414981311420  |grad|_K:  2.599e-08  alpha:  5.471e-01  linmin:  5.636e-07  t[s]:   9012.99
	Linear fluid (dielectric constant: 78.4, screening length: 5.74355 Bohr) occupying 0.712988 of unit cell:	Completed after 0 iterations at t[s]:   9062.78
	Linear fluid (dielectric constant: 78.4, screening length: 5.74355 Bohr) occupying 0.712989 of unit cell:	Completed after 2 iterations at t[s]:   9103.99
	FillingsUpdate:  mu: -0.171251800  nElectrons: 704.728580  magneticMoment: [ Abs: 0.00004  Tot: +0.00000 ]
	SubspaceRotationAdjust: set factor to 0.0976
ElecMinimize: Iter:  11  G: -1827.684415190605932  |grad|_K:  1.825e-08  alpha:  8.757e-01  linmin:  9.588e-05  t[s]:   9166.18
	Linear fluid (dielectric constant: 78.4, screening length: 5.74355 Bohr) occupying 0.712991 of unit cell:	Completed after 0 iterations at t[s]:   9215.82
	Linear fluid (dielectric constant: 78.4, screening length: 5.74355 Bohr) occupying 0.712991 of unit cell:	Completed after 0 iterations at t[s]:   9256.69
	FillingsUpdate:  mu: -0.171251800  nElectrons: 704.728816  magneticMoment: [ Abs: 0.00003  Tot: +0.00000 ]
	SubspaceRotationAdjust: set factor to 0.123
ElecMinimize: Iter:  12  G: -1827.684415316651666  |grad|_K:  1.209e-08  alpha:  7.702e-01  linmin: -2.449e-05  t[s]:   9318.20
	Linear fluid (dielectric constant: 78.4, screening length: 5.74355 Bohr) occupying 0.712991 of unit cell:	Completed after 0 iterations at t[s]:   9367.74
	Linear fluid (dielectric constant: 78.4, screening length: 5.74355 Bohr) occupying 0.712992 of unit cell:	Completed after 0 iterations at t[s]:   9408.23
	FillingsUpdate:  mu: -0.171251800  nElectrons: 704.729718  magneticMoment: [ Abs: 0.00002  Tot: +0.00000 ]
	SubspaceRotationAdjust: set factor to 0.164
ElecMinimize: Iter:  13  G: -1827.684415413878924  |grad|_K:  1.017e-08  alpha:  9.279e-01  linmin:  5.719e-08  t[s]:   9469.67
	Linear fluid (dielectric constant: 78.4, screening length: 5.74355 Bohr) occupying 0.712993 of unit cell:	Completed after 3 iterations at t[s]:   9519.84
	Linear fluid (dielectric constant: 78.4, screening length: 5.74355 Bohr) occupying 0.712992 of unit cell:	Completed after 0 iterations at t[s]:   9561.24
ElecMinimize: 	Step increased G by 1.133292e-07, reducing alpha to 1.148563e-02.
	Linear fluid (dielectric constant: 78.4, screening length: 5.74355 Bohr) occupying 0.712992 of unit cell:	Completed after 0 iterations at t[s]:   9658.34
ElecMinimize: 	Step increased G by 8.330812e-08, reducing alpha to 1.148563e-03.
	Linear fluid (dielectric constant: 78.4, screening length: 5.74355 Bohr) occupying 0.712992 of unit cell:	Completed after 0 iterations at t[s]:   9755.37
ElecMinimize: 	Step increased G by 8.041320e-08, reducing alpha to 1.148563e-04.
ElecMinimize: 	Step failed to reduce G after 3 attempts. Quitting step.
ElecMinimize: 	Undoing step.
	Linear fluid (dielectric constant: 78.4, screening length: 5.74355 Bohr) occupying 0.712992 of unit cell:	Completed after 0 iterations at t[s]:   9852.38
ElecMinimize: 	Step failed: resetting search direction.
	FillingsUpdate:  mu: -0.171251800  nElectrons: 704.729720  magneticMoment: [ Abs: 0.00002  Tot: +0.00000 ]
	SubspaceRotationAdjust: set factor to 0.111
ElecMinimize: Iter:  14  G: -1827.684415333501192  |grad|_K:  3.725e-08  alpha:  1.149e-04
	Linear fluid (dielectric constant: 78.4, screening length: 5.74355 Bohr) occupying 0.712992 of unit cell:	Completed after 6 iterations at t[s]:   9964.32
	Linear fluid (dielectric constant: 78.4, screening length: 5.74355 Bohr) occupying 0.712992 of unit cell:	Completed after 4 iterations at t[s]:  10007.39
	FillingsUpdate:  mu: -0.171251800  nElectrons: 704.727858  magneticMoment: [ Abs: 0.00002  Tot: +0.00000 ]
	SubspaceRotationAdjust: set factor to 0.0535
	SubspaceRotationAdjust: resetting CG because factor has changed by 0.12185
	Linear fluid (dielectric constant: 78.4, screening length: 5.74355 Bohr) occupying 0.712992 of unit cell:	Completed after 0 iterations at t[s]:  10089.35
ElecMinimize: 	State modified externally: resetting search direction.
ElecMinimize: Iter:  15  G: -1827.684415508571874  |grad|_K:  2.198e-08  alpha:  2.017e-01
	Linear fluid (dielectric constant: 78.4, screening length: 5.74355 Bohr) occupying 0.712992 of unit cell:	Completed after 0 iterations at t[s]:  10199.97
ElecMinimize: 	Predicted alpha/alphaT>3.000000, increasing alphaT to 6.052470e-01.
	Linear fluid (dielectric constant: 78.4, screening length: 5.74355 Bohr) occupying 0.712992 of unit cell:	Completed after 4 iterations at t[s]:  10240.78
	Linear fluid (dielectric constant: 78.4, screening length: 5.74355 Bohr) occupying 0.712992 of unit cell:	Completed after 0 iterations at t[s]:  10281.52
ElecMinimize: 	Step increased G by 3.306877e-08, reducing alpha to 2.247143e-02.
	Linear fluid (dielectric constant: 78.4, screening length: 5.74355 Bohr) occupying 0.712992 of unit cell:	Completed after 2 iterations at t[s]:  10379.17
ElecMinimize: 	Step increased G by 1.535864e-07, reducing alpha to 2.247143e-03.
	Linear fluid (dielectric constant: 78.4, screening length: 5.74355 Bohr) occupying 0.712992 of unit cell:	Completed after 0 iterations at t[s]:  10476.74
ElecMinimize: 	Step increased G by 1.557075e-07, reducing alpha to 2.247143e-04.
ElecMinimize: 	Step failed to reduce G after 3 attempts. Quitting step.
ElecMinimize: 	Undoing step.
	Linear fluid (dielectric constant: 78.4, screening length: 5.74355 Bohr) occupying 0.712992 of unit cell:	Completed after 0 iterations at t[s]:  10573.90
ElecMinimize: 	Step failed along negative gradient direction.
ElecMinimize: Probably at roundoff error limit. (Stopping)
Setting wave functions to eigenvectors of Hamiltonian
Single-point solvation energy estimate, DeltaG = +0.008538535809294

[...]
	FillingsUpdate:  mu: -0.171251800  nElectrons: 704.700018  magneticMoment: [ Abs: 0.00001  Tot: -0.00000 ]
	SubspaceRotationAdjust: set factor to 0.0183
ElecMinimize: Iter:  22  G: -1827.686896485679426  |grad|_K:  3.063e-09  alpha:  6.404e-01  linmin:  6.890e-06  t[s]:  54753.43
	Linear fluid (dielectric constant: 78.4, screening length: 5.74355 Bohr) occupying 0.712073 of unit cell:	Completed after 0 iterations at t[s]:  54805.26
	Linear fluid (dielectric constant: 78.4, screening length: 5.74355 Bohr) occupying 0.712073 of unit cell:	Completed after 0 iterations at t[s]:  54848.35
	FillingsUpdate:  mu: -0.171251800  nElectrons: 704.700039  magneticMoment: [ Abs: 0.00001  Tot: -0.00000 ]
	SubspaceRotationAdjust: set factor to 0.024
ElecMinimize: Iter:  23  G: -1827.686896492581354  |grad|_K:  2.213e-09  alpha:  1.091e+00  linmin: -3.352e-05  t[s]:  54912.62
	Linear fluid (dielectric constant: 78.4, screening length: 5.74355 Bohr) occupying 0.712073 of unit cell:	Completed after 0 iterations at t[s]:  54964.11
	Linear fluid (dielectric constant: 78.4, screening length: 5.74355 Bohr) occupying 0.712073 of unit cell:	Completed after 0 iterations at t[s]:  55007.09
ElecMinimize: 	Step increased G by 1.324611e-08, reducing alpha to 1.598862e-01.
	Linear fluid (dielectric constant: 78.4, screening length: 5.74355 Bohr) occupying 0.712073 of unit cell:	Completed after 0 iterations at t[s]:  55107.60
ElecMinimize: 	Step increased G by 1.664307e-08, reducing alpha to 1.598862e-02.
	Linear fluid (dielectric constant: 78.4, screening length: 5.74355 Bohr) occupying 0.712073 of unit cell:	Completed after 0 iterations at t[s]:  55207.48
ElecMinimize: 	Step increased G by 1.743410e-08, reducing alpha to 1.598862e-03.
ElecMinimize: 	Step failed to reduce G after 3 attempts. Quitting step.
ElecMinimize: 	Undoing step.
	Linear fluid (dielectric constant: 78.4, screening length: 5.74355 Bohr) occupying 0.712073 of unit cell:	Completed after 0 iterations at t[s]:  55307.67
ElecMinimize: 	Step failed: resetting search direction.
	FillingsUpdate:  mu: -0.171251800  nElectrons: 704.700039  magneticMoment: [ Abs: 0.00001  Tot: -0.00000 ]
	SubspaceRotationAdjust: set factor to 0.0276
ElecMinimize: Iter:  24  G: -1827.686896475108369  |grad|_K:  2.376e-09  alpha:  1.599e-03
	Linear fluid (dielectric constant: 78.4, screening length: 5.74355 Bohr) occupying 0.712073 of unit cell:	Completed after 0 iterations at t[s]:  55421.78
	Linear fluid (dielectric constant: 78.4, screening length: 5.74355 Bohr) occupying 0.712073 of unit cell:	Completed after 0 iterations at t[s]:  55464.61
	FillingsUpdate:  mu: -0.171251800  nElectrons: 704.700057  magneticMoment: [ Abs: 0.00001  Tot: -0.00000 ]
	SubspaceRotationAdjust: set factor to 0.031
ElecMinimize: Iter:  25  G: -1827.686896479122652  |grad|_K:  2.466e-09  alpha:  1.053e+00  linmin: -1.346e-05  t[s]:  55528.12
	Linear fluid (dielectric constant: 78.4, screening length: 5.74355 Bohr) occupying 0.712073 of unit cell:	Completed after 0 iterations at t[s]:  55578.79
	Linear fluid (dielectric constant: 78.4, screening length: 5.74355 Bohr) occupying 0.712073 of unit cell:	Completed after 0 iterations at t[s]:  55621.05
	FillingsUpdate:  mu: -0.171251800  nElectrons: 704.700138  magneticMoment: [ Abs: 0.00001  Tot: -0.00000 ]
	SubspaceRotationAdjust: set factor to 0.0351
ElecMinimize: Iter:  26  G: -1827.686896488117554  |grad|_K:  4.422e-09  alpha:  2.216e+00  linmin:  7.595e-06  t[s]:  55685.10
ElecMinimize: Converged (|Delta G|<1.000000e-08 for 2 iters).
Setting wave functions to eigenvectors of Hamiltonian

# Ionic positions in lattice coordinates:
ion Zr   0.125027697811083   0.000025785168293   0.600480696795862 1
ion Zr  -0.000028483585003   0.124975812703021   0.399425908642524 1
ion Zr   0.375026676097740   0.000023641885755   0.600558893925122 1
ion Zr   0.250079502950087   0.125018910617318   0.399574061029149 1
ion Zr   0.625032896376810   0.000025605717443   0.600466942025874 1
ion Zr   0.499932253888466   0.125015211550450   0.399565297331254 1
ion Zr   0.875025150940979   0.000021818178368   0.600339397188630 1
ion Zr   0.750052442992274   0.124966444680126   0.399416157079648 1
ion Zr   0.124748175374041   0.249779969468395   0.600338965293285 1
ion Zr   0.000009009871099   0.375100875648213   0.399572396462283 1
ion Zr   0.375041958524770   0.250784004629596   0.601219960744766 1
ion Zr   0.250014153643990   0.375021869813206   0.399708966586930 1
ion Zr   0.625326731293425   0.249756668510944   0.600318227713058 1
ion Zr   0.500014613054319   0.375012774119453   0.399699980854155 1
ion Zr   0.875030389949447   0.250029762273845   0.600478902797311 1
ion Zr   0.750013765875140   0.375097645418607   0.399559033046981 1
ion Zr   0.125911593888801   0.500030389903217   0.601222747312022 1
ion Zr   0.000008305396498   0.624933091287217   0.399567078033982 1
ion Zr   0.375082576168078   0.500052437355185   0.603529450976730 1
ion Zr   0.250013459983838   0.625017751092622   0.399704720410759 1
ion Zr   0.624177701862998   0.500030307571533   0.601208507953588 1
ion Zr   0.500016958816748   0.625026294497063   0.399694897814424 1
ion Zr   0.875027328278044   0.500021891023408   0.600554733121015 1
ion Zr   0.750016040015394   0.624936453943747   0.399552927699649 1
ion Zr   0.124733055942492   0.750278587002481   0.600325176851281 1
ion Zr  -0.000030076122380   0.875065743204584   0.399421642560507 1
ion Zr   0.375043268540827   0.749280638256626   0.601210383755054 1
ion Zr   0.250080373170054   0.875022840834301   0.399569316369707 1
ion Zr   0.625344902347866   0.750301887449584   0.600304154025292 1
ion Zr   0.499934645241136   0.875024427340907   0.399559847727118 1
ion Zr   0.875034545594670   0.750016268964560   0.600472336675235 1
ion Zr   0.750055299493028   0.875073774109013   0.399410954762795 1
ion Si   0.000105041962239   0.000023578930197   0.499867506614961 1
ion Si   0.124975577535895   0.124978433560355   0.499921080871693 1
ion Si   0.250118378316781   0.000021696285749   0.500008896869041 1
ion Si   0.375014851072601   0.125197259821809   0.500141324146437 1
ion Si   0.499910095265473   0.000020468567836   0.500002703215904 1
ion Si   0.625060619582649   0.124969172547435   0.499903615751878 1
ion Si   0.749931417496288   0.000021826979145   0.499855747691296 1
ion Si   0.875015272209247   0.125107864944799   0.499864871176857 1
ion Si  -0.000032727623476   0.249986718941136   0.499918452203927 1
ion Si   0.125155934445589   0.375177563569998   0.500102390584135 1
ion Si   0.250164132764486   0.250155639037065   0.500103400146046 1
ion Si   0.375028890107708   0.374875656099527   0.500318795462883 1
ion Si   0.499877719849387   0.250145941977324   0.500093327894186 1
ion Si   0.624891454371405   0.375165208486806   0.500086092986770 1
ion Si   0.750074472021600   0.249981777399797   0.499904889878057 1
ion Si   0.875017150039987   0.375130747450025   0.500004603805459 1
ion Si   0.000204112802199   0.500020145329452   0.500148975554194 1
ion Si   0.125153010729360   0.624867597643952   0.500095561305193 1
ion Si   0.249907511307368   0.500025319938176   0.500315180016771 1
ion Si   0.375028135484003   0.625172641823402   0.500313420909265 1
ion Si   0.500152658782881   0.500024945386597   0.500303620982334 1
ion Si   0.624896045137064   0.624879656517169   0.500079032586580 1
ion Si   0.749839480373480   0.500020356114081   0.500128766366234 1
ion Si   0.875019584339651   0.624907105052669   0.499999742301315 1
ion Si  -0.000036159057101   0.750056965215590   0.499908436711790 1
ion Si   0.124973218250129   0.875070276333225   0.499914872851310 1
ion Si   0.250158965929610   0.749892880021101   0.500095308700643 1
ion Si   0.375015303243102   0.874847729962662   0.500133733654110 1
ion Si   0.499884048598806   0.749900326276443   0.500085639466175 1
ion Si   0.625065192274986   0.875076356336115   0.499897134975660 1
ion Si   0.750083748763817   0.750060303526805   0.499895222405363 1
ion Si   0.875017556120944   0.874937345535060   0.499860603194464 1
ion Se  -0.000117862898352   0.124881734523291   0.654876645042055 1
ion Se   0.125106833592328   0.000020301278282   0.345087793468000 1
ion Se   0.249947212671407   0.124796974862681   0.654806903189883 1
ion Se   0.374993349781539   0.000021138945578   0.345065068560234 1
ion Se   0.500122445688756   0.124785772785756   0.654786717150483 1
ion Se   0.624898657393800   0.000020318361622   0.345073525719388 1
ion Se   0.750175034580266   0.124873181778256   0.654894516554789 1
ion Se   0.875020248103790   0.000021254266493   0.344825646634870 1
ion Se  -0.000184141012548   0.374970441218797   0.654782886210290 1
ion Se   0.125083978920059   0.250093340097479   0.345181008499860 1
ion Se   0.248399236509473   0.373325551986656   0.655555596821473 1
ion Se   0.375004720049535   0.250007065880290   0.345179772430232 1
ion Se   0.501730471244812   0.373302314970942   0.655515065545590 1
ion Se   0.624935810074422   0.250080626688053   0.345164658992780 1
ion Se   0.750249293681982   0.374960974118259   0.654787998415324 1
ion Se   0.875013047504181   0.250105780423542   0.345066426894004 1
ion Se  -0.000184760759675   0.625084382900408   0.654779859871430 1
ion Se   0.124993512559786   0.500015506165141   0.345200211802054 1
ion Se   0.248390728745891   0.626765179415452   0.655532464721023 1
ion Se   0.375013360802574   0.500016854693239   0.345427968378848 1
ion Se   0.501741896317967   0.626791497885920   0.655494102933598 1
ion Se   0.625023670312053   0.500013094263392   0.345178596259832 1
ion Se   0.750254691468825   0.625093800315759   0.654784319235039 1
ion Se   0.875010976507384   0.500011718672755   0.345053475883306 1
ion Se  -0.000120083311790   0.875172718882550   0.654874489627192 1
ion Se   0.125083498066841   0.749941749194039   0.345173836009323 1
ion Se   0.249941967440547   0.875256796842440   0.654800917217959 1
ion Se   0.375003500817447   0.750029955257029   0.345174702170469 1
ion Se   0.500130509512195   0.875271946138631   0.654781743241247 1
ion Se   0.624939906547640   0.749953439595262   0.345159903107302 1
ion Se   0.750180671315982   0.875175117895014   0.654892464068197 1
ion Se   0.875016502353523   0.749927972833843   0.345061076414796 1
ion H   0.375393505242438   0.500332419032555   0.690553685082291 1


# Forces in Lattice coordinates:
force Zr  -0.000041590112707   0.000052953430087   0.007048144667767 1
force Zr  -0.000193248767690   0.000451402159127  -0.008362756151702 1
force Zr  -0.000412183909674   0.000019694167245   0.006587846736610 1
force Zr   0.000282434928250   0.000398092356461  -0.007814131355139 1
force Zr   0.001025865522680  -0.000030701662336   0.007697597728462 1
force Zr  -0.000071024396540   0.000255937494039  -0.008028221233600 1
force Zr  -0.000536194778576   0.000122940232880   0.010898251174208 1
force Zr   0.000490841156865   0.000699085238694  -0.008540746279493 1
force Zr  -0.000829852819607  -0.001793407407145   0.004495514548255 1
force Zr  -0.000404294791443  -0.000476188742008  -0.007737655371947 1
force Zr  -0.000549616428502  -0.001922414537813   0.004304366782227 1
force Zr   0.000301971349461  -0.000448554286725  -0.004008186937703 1
force Zr   0.001991343116720  -0.001677857898344   0.004830459098647 1
force Zr  -0.000126941232110  -0.000189851080051  -0.004218185195265 1
force Zr  -0.000540769336437  -0.000545729549611   0.006863281074416 1
force Zr   0.000578337247272  -0.000508948354966  -0.007553484607901 1
force Zr  -0.000983320631401  -0.000080998728444   0.004570458029958 1
force Zr  -0.000362242259991   0.000611176367322  -0.007753851745488 1
force Zr  -0.000992520875110  -0.000340087514194   0.028827896888348 1
force Zr   0.000221720584101   0.000531234843144  -0.004084105104980 1
force Zr   0.001697856311030   0.000132645240644   0.003855983127979 1
force Zr  -0.000185544676599   0.000225551890205  -0.004024695469140 1
force Zr  -0.000409035438510   0.000052685874560   0.006404620422378 1
force Zr   0.000574616594108   0.000586407576429  -0.007340563813235 1
force Zr  -0.000748431255884   0.001538659398568   0.004801798604861 1
force Zr  -0.000040039949472  -0.000336653337693  -0.008427127841970 1
force Zr  -0.000405657590357   0.001812450454363   0.004345495922512 1
force Zr   0.000115569794821  -0.000271041916578  -0.007912731166817 1
force Zr   0.001806125112527   0.001312274809416   0.005313915040428 1
force Zr  -0.000134981605035  -0.000061091673110  -0.007926740494481 1
force Zr  -0.000711143516478   0.000415506382832   0.006934848846254 1
force Zr   0.000535050628192  -0.000505176313878  -0.008390545772638 1
force Si  -0.000016579673247  -0.000016139412779   0.001169762896204 1
force Si  -0.000084754112652  -0.000105816452334   0.000662191125080 1
force Si  -0.000606384314639   0.000055441906752   0.000517540685656 1
force Si   0.000175566068543   0.000261218712469  -0.000144977080253 1
force Si   0.000934609042481   0.000010412876938   0.000193824037486 1
force Si   0.000213759562293  -0.000078173326727   0.000970492988727 1
force Si   0.000224350760374   0.000028243800878   0.001805966411030 1
force Si   0.000262641148009   0.000208595275514   0.001335784158714 1
force Si   0.000042186074262  -0.000078923203300   0.000442057482535 1
force Si   0.001325506981494   0.000489885678361  -0.001846829270419 1
force Si   0.000751264609954   0.001026674372483  -0.001923940007208 1
force Si  -0.000030955800797  -0.000742747498754  -0.002688190683337 1
force Si  -0.000608835851427   0.001074671080210  -0.001968888373328 1
force Si  -0.001200205273591   0.000920125887524  -0.001156095537091 1
force Si   0.000193199465647  -0.000223836472550   0.000713524590736 1
force Si   0.000090801217158  -0.000659379826502   0.000441544388771 1
force Si   0.000701545889443   0.000048527704959  -0.000268872476856 1
force Si   0.001304429798536  -0.000492662958196  -0.001705213307281 1
force Si  -0.000886186315787  -0.000041040223268  -0.002494954893149 1
force Si   0.000071492897119   0.000861694727799  -0.002696491539900 1
force Si   0.000821784925886   0.000028360835868  -0.002712562076151 1
force Si  -0.001309367316970  -0.000869494833159  -0.001053355239982 1
force Si  -0.000664833053460   0.000057670462699   0.001047210267558 1
force Si  -0.000062454943152   0.000733703692884   0.000539587604700 1
force Si   0.000078117772375   0.000113254909829   0.000607349207877 1
force Si  -0.000078922254352   0.000049802894102   0.000670017847629 1
force Si   0.000852360731715  -0.001009474556512  -0.001736756254592 1
force Si   0.000197290482060  -0.000203783708997  -0.000014379046916 1
force Si  -0.000731085372269  -0.001093625568152  -0.001967903711218 1
force Si   0.000169329711577   0.000230885881288   0.000995019904142 1
force Si   0.000112676758423   0.000253406159473   0.000861624252361 1
force Si   0.000222071524992  -0.000178867607532   0.001317155042667 1
force Se   0.000226340491494   0.000332714545873   0.000591627385811 1
force Se  -0.001280360266412   0.000209095576970  -0.002401871950079 1
force Se   0.000117781901217   0.000386057750754  -0.002103004275105 1
force Se   0.000562389203285   0.000086463963023  -0.001721999545548 1
force Se  -0.000370307803572   0.000865161086637  -0.001073228082144 1
force Se   0.002087042445676   0.000003992937430  -0.001910450792803 1
force Se  -0.000108717269881   0.000533252922966  -0.000916676403419 1
force Se  -0.000255664556784   0.000050945753087  -0.002258494435939 1
force Se   0.000868301486141   0.000186809604857  -0.000683305264825 1
force Se  -0.000756565616328  -0.000647953224640  -0.001717196992421 1
force Se  -0.000790745906673  -0.001070769333284  -0.005151942096323 1
force Se   0.000132287041120  -0.000634562826159  -0.001530494539383 1
force Se  -0.000060136409151  -0.000224326974334  -0.003237936982336 1
force Se   0.000848225125927  -0.000351555559803  -0.001132719047671 1
force Se  -0.000857224346319   0.000416092395442  -0.001514543964543 1
force Se   0.000268387623424  -0.000885638847996  -0.000402485460165 1
force Se   0.000895496439724  -0.000298057466850  -0.000775273073104 1
force Se   0.000233853632388   0.000084701679060  -0.002692651055849 1
force Se  -0.000763273427086   0.000637290917502  -0.004634857633965 1
force Se  -0.000144918487774   0.000054716466160  -0.004067931221400 1
force Se  -0.000186145744449  -0.000408333238910  -0.002559347037257 1
force Se   0.000365156694159   0.000143467438610  -0.001716282112841 1
force Se  -0.000946440783607  -0.000497126501801  -0.001535438132464 1
force Se   0.000428159095406   0.000154454970964  -0.001191178652995 1
force Se   0.000197976026200  -0.000555161578777   0.000883865676707 1
force Se  -0.000763944064096   0.000847936917736  -0.001421708673377 1
force Se   0.000206000339801  -0.000359171634723  -0.001981521914976 1
force Se   0.000238661110657   0.000755386258849  -0.001437156843172 1
force Se  -0.000500966532676  -0.001047046276657  -0.001081695922727 1
force Se   0.000841893874212   0.000673155332395  -0.001179520718731 1
force Se  -0.000115613045013  -0.000369507694980  -0.000993974329139 1
force Se   0.000035391028190   0.001064379924609  -0.000384426401409 1
force H  -0.002734474391784  -0.002556725974363  -0.007996117943956 1

# Energy components:
   A_diel =        0.0376789954409581
   Eewald =    18090.2029283539413882
       EH =    19680.5233002402637794
     Eloc =   -40264.4725876382872229
      Enl =      286.5981701047272736
      Exc =     -831.6551627330562724
 Exc_core =      493.5807814264118178
       KE =      596.8736791299063498
  MuShift =        0.0036111703032103
-------------------------------------
     Etot =    -1948.3076009503511159
       TS =        0.0604625563176560
-------------------------------------
        F =    -1948.3680635066687046
      muN =     -120.6811670185511645
-------------------------------------
        G =    -1827.6868964881175543

IonicMinimize: Iter:   7  G: -1827.686896488117554  |grad|_K:  7.430e-05  alpha:  1.000e+00  linmin: -6.711e-01  t[s]:  55728.05
IonicMinimize: Converged (|grad|_K<1.000000e-04).

#--- Lowdin population analysis ---
# oxidation-state Zr -0.442 -0.442 -0.441 -0.442 -0.443 -0.442 -0.441 -0.442 -0.448 -0.442 -0.438 -0.439 -0.448 -0.439 -0.442 -0.442 -0.437 -0.442 -0.578 -0.439 -0.437 -0.439 -0.442 -0.442 -0.448 -0.442 -0.438 -0.442 -0.449 -0.442 -0.442 -0.441
# magnetic-moments Zr -0.000 -0.000 +0.000 -0.000 -0.000 -0.000 -0.000 -0.000 -0.000 -0.000 +0.000 -0.000 +0.000 +0.000 -0.000 -0.000 -0.000 +0.000 +0.000 +0.000 -0.000 +0.000 +0.000 +0.000 -0.000 -0.000 -0.000 +0.000 +0.000 +0.000 -0.000 +0.000
# oxidation-state Si +0.315 +0.315 +0.316 +0.312 +0.316 +0.315 +0.315 +0.315 +0.315 +0.315 +0.315 +0.299 +0.315 +0.315 +0.315 +0.316 +0.312 +0.315 +0.299 +0.299 +0.299 +0.315 +0.312 +0.316 +0.315 +0.315 +0.315 +0.312 +0.315 +0.315 +0.315 +0.315
# magnetic-moments Si +0.000 -0.000 -0.000 +0.000 -0.000 +0.000 +0.000 +0.000 +0.000 -0.000 +0.000 +0.000 -0.000 +0.000 +0.000 +0.000 -0.000 +0.000 -0.000 +0.000 -0.000 +0.000 -0.000 -0.000 -0.000 +0.000 -0.000 +0.000 -0.000 +0.000 -0.000 -0.000
# oxidation-state Se +0.219 +0.219 +0.220 +0.220 +0.221 +0.219 +0.219 +0.219 +0.221 +0.219 +0.258 +0.219 +0.259 +0.219 +0.221 +0.219 +0.221 +0.219 +0.259 +0.219 +0.259 +0.219 +0.221 +0.220 +0.219 +0.219 +0.221 +0.219 +0.221 +0.219 +0.219 +0.219
# magnetic-moments Se +0.000 -0.000 +0.000 -0.000 +0.000 -0.000 -0.000 +0.000 -0.000 +0.000 +0.000 +0.000 -0.000 +0.000 -0.000 +0.000 +0.000 -0.000 -0.000 -0.000 +0.000 +0.000 +0.000 +0.000 +0.000 -0.000 +0.000 -0.000 +0.000 -0.000 -0.000 -0.000
# oxidation-state H -0.052
# magnetic-moments H +0.000


Dumping 'NbTe2.fillings' ... done
Dumping 'NbTe2.wfns' ... done
Dumping 'NbTe2.fluidState' ... done
Dumping 'NbTe2.ionpos' ... done
Dumping 'NbTe2.eigenvals' ... done
End date and time: Fri Feb 12 01:16:38 2021  (Duration: 0-15:29:46.37)
Done!
