
*************** JDFTx 1.5.0  ***************

Start date and time: Sun Jan 17 20:30:56 2021
Executable jdftx_gpu with command-line: -i Charged.in -o Charged.out
Running on hosts (process indices):  amax (0-4)
Divided in process groups (process indices):  0 (0)  1 (1)  2 (2)  3 (3)  4 (4)
gpuInit: Found compatible cuda device 0 'Tesla K80'
gpuInit: Found compatible cuda device 1 'Tesla K80'
gpuInit: Found compatible cuda device 2 'Tesla K80'
gpuInit: Found compatible cuda device 3 'Tesla K80'
gpuInit: Found compatible cuda device 4 'Tesla K80'
gpuInit: Selected device 0
Resource initialization completed at t[s]:      2.77
Run totals: 5 processes, 24 threads, 5 GPUs


Input parsed successfully to the following command list (including defaults):

basis kpoint-dependent
cache-projectors no
coords-type Lattice
core-overlap-check none
coulomb-interaction Slab 001
coulomb-truncation-embed 0.5 0.5 0.5
davidson-band-ratio 1.1
dump End State
dump-name NbTe2.$VAR
elec-cutoff 20
elec-eigen-algo Davidson
elec-ex-corr gga-PBE
elec-initial-charge -1.000000
elec-initial-magnetization 5.000000 no
elec-smearing Gauss 0.0073499
electronic-minimize  \
	dirUpdateScheme      FletcherReeves \
	linminMethod         DirUpdateRecommended \
	nIterations          200 \
	history              15 \
	knormThreshold       0 \
	energyDiffThreshold  1e-08 \
	nEnergyDiff          2 \
	alphaTstart          1 \
	alphaTmin            1e-10 \
	updateTestStepSize   yes \
	alphaTreduceFactor   0.1 \
	alphaTincreaseFactor 3 \
	nAlphaAdjustMax      3 \
	wolfeEnergy          0.0001 \
	wolfeGradient        0.9 \
	fdTest               no
exchange-regularization WignerSeitzTruncated
fluid LinearPCM 298.000000 1.013250
fluid-anion F- 1 MeanFieldLJ \
	epsBulk 1 \
	pMol 0 \
	epsInf 1 \
	Pvap 0 \
	sigmaBulk 0 \
	Rvdw 2.24877 \
	Res 0 \
	tauNuc 343133
fluid-cation Na+ 1 MeanFieldLJ \
	epsBulk 1 \
	pMol 0 \
	epsInf 1 \
	Pvap 0 \
	sigmaBulk 0 \
	Rvdw 2.19208 \
	Res 0 \
	tauNuc 343133
fluid-ex-corr lda-TF lda-PZ
fluid-gummel-loop 10 1.000000e-05
fluid-minimize  \
	dirUpdateScheme      PolakRibiere \
	linminMethod         DirUpdateRecommended \
	nIterations          400 \
	history              15 \
	knormThreshold       1e-11 \
	energyDiffThreshold  0 \
	nEnergyDiff          2 \
	alphaTstart          1 \
	alphaTmin            1e-10 \
	updateTestStepSize   yes \
	alphaTreduceFactor   0.1 \
	alphaTincreaseFactor 3 \
	nAlphaAdjustMax      6 \
	wolfeEnergy          0.0001 \
	wolfeGradient        0.9 \
	fdTest               no
fluid-solvent H2O 55.338 ScalarEOS \
	epsBulk 78.4 \
	pMol 0.92466 \
	epsInf 1.77 \
	Pvap 1.06736e-10 \
	sigmaBulk 4.62e-05 \
	Rvdw 2.61727 \
	Res 1.42 \
	tauNuc 343133 \
	poleEl 15 7 1
forces-output-coords Positions
initial-state NbTe2.$VAR
ion W   0.083333770193438   0.166666215384150   0.500000009000000 1
ion W   0.333333770193438   0.166666215384150   0.500000009000000 1
ion W   0.583333770193438   0.166666215384150   0.500000009000000 1
ion W   0.833333770193438   0.166666215384150   0.500000009000000 1
ion W   0.083333770193438   0.416666215384150   0.500000009000000 1
ion W   0.333333770193438   0.416666215384150   0.500000009000000 1
ion W   0.583333770193438   0.416666215384150   0.500000009000000 1
ion W   0.833333770193438   0.416666215384150   0.500000009000000 1
ion W   0.083333770193438   0.666666215384150   0.500000009000000 1
ion W   0.333333770193438   0.666666215384150   0.500000009000000 1
ion W   0.583333770193438   0.666666215384150   0.500000009000000 1
ion W   0.833333770193438   0.666666215384150   0.500000009000000 1
ion W   0.083333770193438   0.916666215384150   0.500000009000000 1
ion W   0.333333770193438   0.916666215384150   0.500000009000000 1
ion W   0.583333770193438   0.916666215384150   0.500000009000000 1
ion W   0.833333770193438   0.916666215384150   0.500000009000000 1
ion S   0.166668108840782   0.083331876557926   0.413136339362868 1
ion S   0.166668108840782   0.083331876557926   0.586863678637132 1
ion S   0.416668108840782   0.083331876557926   0.413136339362868 1
ion S   0.416668108840782   0.083331876557926   0.586863678637132 1
ion S   0.666668108840782   0.083331876557926   0.413136339362868 1
ion S   0.666668108840782   0.083331876557926   0.586863678637132 1
ion S   0.916668108840782   0.083331876557926   0.413136339362868 1
ion S   0.916668108840782   0.083331876557926   0.586863678637132 1
ion S   0.166668108840782   0.333331876557926   0.413136339362868 1
ion S   0.166668108840782   0.333331876557926   0.586863678637132 1
ion S   0.416668108840782   0.333331876557926   0.413136339362868 1
ion S   0.416668108840782   0.333331876557926   0.586863678637132 1
ion S   0.666668108840782   0.333331876557926   0.413136339362868 1
ion S   0.666668108840782   0.333331876557926   0.586863678637132 1
ion S   0.916668108840782   0.333331876557926   0.413136339362868 1
ion S   0.916668108840782   0.333331876557926   0.586863678637132 1
ion S   0.166668108840782   0.583331876557926   0.413136339362868 1
ion S   0.166668108840782   0.583331876557926   0.586863678637132 1
ion S   0.416668108840782   0.583331876557926   0.413136339362868 1
ion S   0.416668108840782   0.583331876557926   0.586863678637132 1
ion S   0.666668108840782   0.583331876557926   0.413136339362868 1
ion S   0.666668108840782   0.583331876557926   0.586863678637132 1
ion S   0.916668108840782   0.583331876557926   0.413136339362868 1
ion S   0.916668108840782   0.583331876557926   0.586863678637132 1
ion S   0.166668108840782   0.833331876557926   0.413136339362868 1
ion S   0.166668108840782   0.833331876557926   0.586863678637132 1
ion S   0.416668108840782   0.833331876557926   0.413136339362868 1
ion S   0.416668108840782   0.833331876557926   0.586863678637132 1
ion S   0.666668108840782   0.833331876557926   0.413136339362868 1
ion S   0.666668108840782   0.833331876557926   0.586863678637132 1
ion S   0.916668108840782   0.833331876557926   0.413136339362868 1
ion S   0.916668108840782   0.833331876557926   0.586863678637132 1
ion-species GBRV/$ID_pbe.uspp
ion-width Ecut
ionic-minimize  \
	dirUpdateScheme      L-BFGS \
	linminMethod         DirUpdateRecommended \
	nIterations          500 \
	history              15 \
	knormThreshold       0.0001 \
	energyDiffThreshold  1e-06 \
	nEnergyDiff          2 \
	alphaTstart          1 \
	alphaTmin            1e-10 \
	updateTestStepSize   yes \
	alphaTreduceFactor   0.1 \
	alphaTincreaseFactor 3 \
	nAlphaAdjustMax      3 \
	wolfeEnergy          0.0001 \
	wolfeGradient        0.9 \
	fdTest               no
kpoint   0.000000000000   0.000000000000   0.000000000000  1.00000000000000
kpoint-folding 5 5 1 
latt-move-scale 1 1 1
latt-scale 1.88973 1.88973 1.88973 
lattice Triclinic 12.7007 12.7008 18.1461 90 90 120
lattice-minimize  \
	dirUpdateScheme      L-BFGS \
	linminMethod         DirUpdateRecommended \
	nIterations          0 \
	history              15 \
	knormThreshold       0 \
	energyDiffThreshold  1e-06 \
	nEnergyDiff          2 \
	alphaTstart          1 \
	alphaTmin            1e-10 \
	updateTestStepSize   yes \
	alphaTreduceFactor   0.1 \
	alphaTincreaseFactor 3 \
	nAlphaAdjustMax      3 \
	wolfeEnergy          0.0001 \
	wolfeGradient        0.9 \
	fdTest               no
lcao-params -1 1e-06 0.0073499
pcm-variant CANDLE
spintype z-spin
subspace-rotation-factor 1 yes
symmetries automatic
symmetry-threshold 0.0001



---------- Setting up symmetries ----------

Found 24 point-group symmetries of the bravais lattice
Found 192 space-group symmetries with basis
Applied RMS atom displacement 1.97026e-05 bohrs to make symmetries exact.

---------- Initializing the Grid ----------
R = 
[    24.0008   -12.0005          0  ]
[          0    20.7855          0  ]
[          0          0    34.2912  ]
unit cell volume = 17106.8
G =
[    0.26179   0.151145         -0  ]
[          0   0.302287          0  ]
[          0         -0    0.18323  ]
Minimum fftbox size, Smin = [  100  100  140  ]
Chosen fftbox size, S = [  100  100  140  ]

---------- Exchange Correlation functional ----------
Initalized PBE GGA exchange.
Initalized PBE GGA correlation.

---------- Setting up pseudopotentials ----------
Width of ionic core gaussian charges (only for fluid interactions / plotting) set to 0.397384

Reading pseudopotential file '/home/guoxy/vasp/jdftx-1.5.0/build/pseudopotentials/GBRV/w_pbe.uspp':
  Title: W.  Created by USPP 7.3.6 on 3-2-2014
  Reference state energy: -79.133630.  14 valence electrons in orbitals:
    |500>  occupation: 2  eigenvalue: -2.938934
    |510>  occupation: 6  eigenvalue: -1.620730
    |520>  occupation: 3.9  eigenvalue: -0.194511
    |600>  occupation: 2  eigenvalue: -0.234858
    |610>  occupation: 0  eigenvalue: -0.069444
  lMax: 3  lLocal: 3  QijEcut: 5
  8 projectors sampled on a log grid with 667 points:
    l: 0  eig: -2.938934  rCut: 1.45
    l: 0  eig: -0.234859  rCut: 1.45
    l: 0  eig: 0.500000  rCut: 1.45
    l: 1  eig: -1.620730  rCut: 1.5
    l: 1  eig: -0.069446  rCut: 1.5
    l: 2  eig: -0.194511  rCut: 1.7
    l: 2  eig: 0.150000  rCut: 1.7
    l: 3  eig: 0.500000  rCut: 2.3
  Partial core density with radius 1.2
  Transforming core density to a uniform radial grid of dG=0.02 with 1463 points.
  Transforming local potential to a uniform radial grid of dG=0.02 with 1463 points.
  Transforming nonlocal projectors to a uniform radial grid of dG=0.02 with 432 points.
  Transforming density augmentations to a uniform radial grid of dG=0.02 with 1463 points.
  Transforming atomic orbitals to a uniform radial grid of dG=0.02 with 432 points.
  Core radius for overlap checks: 2.30 bohrs.

Reading pseudopotential file '/home/guoxy/vasp/jdftx-1.5.0/build/pseudopotentials/GBRV/s_pbe.uspp':
  Title: S.  Created by USPP 7.3.6 on 1-4-15
  Reference state energy: -11.898476.  6 valence electrons in orbitals:
    |300>  occupation: 2  eigenvalue: -0.634167
    |310>  occupation: 4  eigenvalue: -0.257568
  lMax: 2  lLocal: 3  QijEcut: 6
  6 projectors sampled on a log grid with 635 points:
    l: 0  eig: -0.634161  rCut: 1.5
    l: 0  eig: 1.500000  rCut: 1.5
    l: 1  eig: -0.257567  rCut: 1.5
    l: 1  eig: 1.500000  rCut: 1.5
    l: 2  eig: -1.000000  rCut: 1.5
    l: 2  eig: 1.500000  rCut: 1.5
  Partial core density with radius 1.15
  Transforming core density to a uniform radial grid of dG=0.02 with 1463 points.
  Transforming local potential to a uniform radial grid of dG=0.02 with 1463 points.
  Transforming nonlocal projectors to a uniform radial grid of dG=0.02 with 432 points.
  Transforming density augmentations to a uniform radial grid of dG=0.02 with 1463 points.
  Transforming atomic orbitals to a uniform radial grid of dG=0.02 with 432 points.
  Core radius for overlap checks: 1.50 bohrs.

Initialized 2 species with 48 total atoms.

Folded 1 k-points by 5x5x1 to 25 k-points.

---------- Setting up k-points, bands, fillings ----------
Adding inversion symmetry to k-mesh for non-inversion-symmetric unit cell.
Reduced to 5 k-points under symmetry. 
Computing the number of bands and number of electrons
Calculating initial fillings.
nElectrons: 415.000000   nBands: 336   nStates: 10

----- Setting up reduced wavefunction bases (one per k-point) -----
average nbasis = 73092.360 , ideal nbasis = 73081.621

---------- Setting up coulomb interaction ----------
Fluid mode embedding: using embedded box, but periodic Coulomb kernel.
(Fluid response is responsible for (approximate) separation between periodic images.)
Setting up double-sized grid for truncated Coulomb potentials:
R = 
[    24.0008   -12.0005          0  ]
[          0    20.7855          0  ]
[          0          0    68.5823  ]
unit cell volume = 34213.6
G =
[    0.26179   0.151145         -0  ]
[          0   0.302287          0  ]
[          0         -0  0.0916152  ]
Chosen fftbox size, S = [  100  100  280  ]
Integer grid location selected as the embedding center:
   Grid: [  50  50  70  ]
   Lattice: [  0.5  0.5  0.5  ]
   Cartesian: [  6.00016  10.3928  17.1456  ]
Constructing Wigner-Seitz cell: 8 faces (6 quadrilaterals, 2 hexagons)
Range-separation parameter for embedded mesh potentials due to point charges: 0.624363 bohrs.

Initializing van der Waals corrections
	NOTE: vdW corrections apply only for interactions with fluid.
	 W:  C6:  815.23 Eh-a0^6  R0: 3.326 a0 (WARNING: beyond Grimme's data set)
	 S:  C6:   96.61 Eh-a0^6  R0: 3.180 a0

---------- Setting up ewald sum ----------
Optimum gaussian width for ewald sums = 6.793646 bohr.
Real space sum over 605 unit cells with max indices [  5  5  2  ]
Reciprocal space sum over 7875 terms with max indices [  7  7  17  ]

---------- Allocating electronic variables ----------
Initializing wave functions:  linear combination of atomic orbitals
W pseudo-atom occupations:   s ( 2 2 )  p ( 6 0 )  d ( 4 )
S pseudo-atom occupations:   s ( 2 )  p ( 4 )
	FillingsUpdate:  mu: +0.999464498  nElectrons: 415.000000  magneticMoment: [ Abs: 1.07604  Tot: +1.06526 ]
LCAOMinimize: Iter:   0  F: -1378.8989081700378847  |grad|_K:  2.355e-02  alpha:  1.000e+00
	FillingsUpdate:  mu: -0.862054577  nElectrons: 415.000000  magneticMoment: [ Abs: 0.89222  Tot: +0.87354 ]
LCAOMinimize: Iter:   1  F: -1388.1065328353565747  |grad|_K:  1.393e-02  alpha:  4.527e-01  linmin:  1.367e-01  cgtest: -1.763e+00  t[s]:    220.64
LCAOMinimize: 	Bad step direction: g.d > 0.
LCAOMinimize: 	Undoing step.
LCAOMinimize: 	Step failed: resetting search direction.
	FillingsUpdate:  mu: -0.862054577  nElectrons: 415.000000  magneticMoment: [ Abs: 0.89222  Tot: +0.87354 ]
LCAOMinimize: Iter:   2  F: -1388.1065328353565747  |grad|_K:  1.393e-02  alpha:  0.000e+00
	FillingsUpdate:  mu: -0.551847117  nElectrons: 415.000000  magneticMoment: [ Abs: 0.35806  Tot: +0.24242 ]
LCAOMinimize: Iter:   3  F: -1416.1045691263009303  |grad|_K:  7.707e-03  alpha:  1.870e-01  linmin: -3.918e-01  cgtest:  9.153e-01  t[s]:    337.86
LCAOMinimize: Encountered beta<0, resetting CG.
LCAOMinimize: 	Predicted alpha/alphaT>3.000000, increasing alphaT to 5.608972e-01.
	FillingsUpdate:  mu: -0.453085165  nElectrons: 415.000000  magneticMoment: [ Abs: 0.39205  Tot: +0.23965 ]
LCAOMinimize: Iter:   4  F: -1423.1363573681180696  |grad|_K:  5.688e-03  alpha:  1.075e-01  linmin: -4.028e-01  cgtest:  8.325e-01  t[s]:    426.74
LCAOMinimize: Encountered beta<0, resetting CG.
LCAOMinimize: 	Predicted alpha/alphaT>3.000000, increasing alphaT to 3.223867e-01.
	FillingsUpdate:  mu: -0.265023971  nElectrons: 415.000000  magneticMoment: [ Abs: 0.36045  Tot: +0.14435 ]
LCAOMinimize: Iter:   5  F: -1427.7867078384788329  |grad|_K:  2.285e-04  alpha:  2.033e-01  linmin: -4.326e-01  cgtest:  7.460e-01  t[s]:    515.88
LCAOMinimize: Encountered beta<0, resetting CG.
	FillingsUpdate:  mu: -0.253840826  nElectrons: 415.000000  magneticMoment: [ Abs: 0.31086  Tot: +0.11635 ]
LCAOMinimize: Iter:   6  F: -1427.7926821685828145  |grad|_K:  6.195e-05  alpha:  2.016e-01  linmin:  1.152e-02  cgtest: -3.092e-02  t[s]:    585.28
LCAOMinimize: 	Predicted alpha/alphaT>3.000000, increasing alphaT to 6.046678e-01.
	FillingsUpdate:  mu: -0.252567654  nElectrons: 415.000000  magneticMoment: [ Abs: 0.14066  Tot: +0.03550 ]
LCAOMinimize: Iter:   7  F: -1427.7942764796684969  |grad|_K:  8.921e-06  alpha:  7.372e-01  linmin:  9.586e-04  cgtest:  1.873e-01  t[s]:    674.26
LCAOMinimize: Encountered beta<0, resetting CG.
	FillingsUpdate:  mu: -0.253108727  nElectrons: 415.000000  magneticMoment: [ Abs: 0.10732  Tot: +0.02536 ]
LCAOMinimize: Iter:   8  F: -1427.7942924708634109  |grad|_K:  6.808e-06  alpha:  3.537e-01  linmin: -1.030e-04  cgtest: -3.780e-04  t[s]:    742.87
	FillingsUpdate:  mu: -0.252939206  nElectrons: 415.000000  magneticMoment: [ Abs: 0.04677  Tot: +0.00754 ]
LCAOMinimize: Iter:   9  F: -1427.7943050669205149  |grad|_K:  1.689e-06  alpha:  4.786e-01  linmin:  8.751e-04  cgtest:  7.122e-04  t[s]:    812.45
	FillingsUpdate:  mu: -0.252930545  nElectrons: 415.000000  magneticMoment: [ Abs: 0.00697  Tot: -0.00073 ]
LCAOMinimize: Iter:  10  F: -1427.7943067422188506  |grad|_K:  3.273e-07  alpha:  1.035e+00  linmin: -1.124e-03  cgtest:  8.874e-03  t[s]:    881.71
	FillingsUpdate:  mu: -0.252936045  nElectrons: 415.000000  magneticMoment: [ Abs: 0.00174  Tot: -0.00022 ]
LCAOMinimize: Iter:  11  F: -1427.7943068022218540  |grad|_K:  1.466e-07  alpha:  9.855e-01  linmin:  1.278e-04  cgtest: -1.436e-03  t[s]:    950.66
	FillingsUpdate:  mu: -0.252929267  nElectrons: 415.000000  magneticMoment: [ Abs: 0.00147  Tot: -0.00016 ]
LCAOMinimize: Iter:  12  F: -1427.7943068046306507  |grad|_K:  3.044e-08  alpha:  1.990e-01  linmin: -5.692e-04  cgtest:  2.678e-03  t[s]:   1019.75
LCAOMinimize: Converged (|Delta F|<1.000000e-06 for 2 iters).
----- createFluidSolver() ----- (Fluid-side solver setup)
   Initializing fluid molecule 'H2O'
     Initializing site 'O'
       Electron density: proportional to exp(-r/0.36935)*erfc((r-0.51523)/0.36823) with norm 6.826
       Charge density: gaussian nuclear width 0.478731 with net site charge 0.826
       Polarizability: cuspless exponential with width 0.32 and norm 3.73
       Hard sphere radius: 2.57003 bohrs
       Positions in reference frame:
         [ +0.000000 +0.000000 +0.000000 ]
     Initializing site 'H'
       Electron density: proportional to exp(-r/0.34641)*erfc((r-0)/0.390882) with norm 0.587
       Charge density: gaussian nuclear width 0.377945 with net site charge -0.413
       Polarizability: cuspless exponential with width 0.39 and norm 3.3
       Positions in reference frame:
         [ +0.000000 -1.441945 +1.122523 ]
         [ +0.000000 +1.441945 +1.122523 ]
     Net charge: 0   dipole magnitude: 0.927204
     Initializing spherical shell mfKernel with radius 2.61727 Bohr
     deltaS corrections:
       site 'O': -7.54299
       site 'H': -6.83917
   Initializing fluid molecule 'Na+'
     Initializing site 'Na'
       Electron density: proportional to exp(-r/0.19682)*erfc((r-0.71491)/0.41314) with norm 8.1383
       Charge density: gaussian nuclear width 0.365347 with net site charge -1
       Hard sphere radius: 1.86327 bohrs
       Positions in reference frame:
         [ +0.000000 +0.000000 +0.000000 ]
     Net charge: -1   dipole magnitude: 0
     Initializing gaussian mfKernel with width: 1.55004 Bohr
     deltaS corrections:
       site 'Na': -22.3555
   Initializing fluid molecule 'F-'
     Initializing site 'F'
       Electron density: proportional to exp(-r/0.38886)*erfc((r-0)/0.438782) with norm 8
       Charge density: gaussian nuclear width 0.374796 with net site charge 1
       Hard sphere radius: 2.39995 bohrs
       Positions in reference frame:
         [ +0.000000 +0.000000 +0.000000 ]
     Net charge: 1   dipole magnitude: 0
     Initializing gaussian mfKernel with width: 1.59012 Bohr
     deltaS corrections:
       site 'F': -9.04335

Correction to mu due to finite nuclear width = -0.0120641
   Cavity determined by nc: 0.00142 and sigma: 0.707107
   Nonlocal vdW cavity from gaussian model electron density with norm = 8 and sigma = 0.993594 bohr
   Charge asymmetry in cavity with sensitivity pCavity = 36.5 e-bohr/Eh
   Electrostatic cavity expanded by eta = 1.46 bohrs
   Weighted density cavitation model constrained by Nbulk: 0.0049383 bohr^-3, Pvap: 3.14029 kPa, Rvdw: 2.61727 bohr and sigmaBulk: 4.62e-05 Eh/bohr^2 at T: 298 K.
   Weighted density dispersion model using vdW pair potentials with single solvent site with sqrtC6eff: 0.77 SI.


---- Citations for features of the code used in this run ----

   Software package:
      R. Sundararaman, K. Letchworth-Weaver, K.A. Schwarz, D. Gunceler, Y. Ozhabes and T.A. Arias, 'JDFTx: software for joint density-functional theory', SoftwareX 6, 278 (2017)

   gga-PBE exchange-correlation functional:
      J.P. Perdew, K. Burke and M. Ernzerhof, Phys. Rev. Lett. 77, 3865 (1996)

   Pseudopotentials:
      KF Garrity, JW Bennett, KM Rabe and D Vanderbilt, Comput. Mater. Sci. 81, 446 (2014)

   Truncated Coulomb potentials:
      R. Sundararaman and T.A. Arias, Phys. Rev. B 87, 165122 (2013)

   Van der Waals correction pair-potentials:
      S. Grimme, J. Comput. Chem. 27, 1787 (2006)

   Charge-asymmetric nonlocally-determined local-electric (CANDLE) solvation model:
      R. Sundararaman and W.A. Goddard III, J. Chem. Phys. 142, 064107 (2015)

   Total energy minimization with Auxiliary Hamiltonian:
      C. Freysoldt, S. Boeck, and J. Neugebauer, Phys. Rev. B 79, 241103(R) (2009)

This list may not be complete. Please suggest additional citations or
report any other bugs at https://github.com/shankar1729/jdftx/issues

Initialization completed successfully at t[s]:   1029.42

Fluid solver invoked on fresh (partially random / LCAO) wavefunctions
Running a vacuum solve first:

-------- Initial electronic minimization -----------
	FillingsUpdate:  mu: -0.252929267  nElectrons: 415.000000  magneticMoment: [ Abs: 0.00147  Tot: -0.00016 ]
ElecMinimize: Iter:   0  F: -1427.794306804648386  |grad|_K:  9.203e-05  alpha:  1.000e+00
	FillingsUpdate:  mu: -0.155484882  nElectrons: 415.000000  magneticMoment: [ Abs: 0.00088  Tot: -0.00005 ]
	SubspaceRotationAdjust: set factor to 1
ElecMinimize: Iter:   1  F: -1429.405441584886603  |grad|_K:  4.773e-05  alpha:  7.763e-01  linmin: -1.472e-05  t[s]:   1180.58
	FillingsUpdate:  mu: -0.212809627  nElectrons: 415.000000  magneticMoment: [ Abs: 0.00061  Tot: -0.00002 ]
	SubspaceRotationAdjust: set factor to 0.726
ElecMinimize: Iter:   2  F: -1429.652906524459468  |grad|_K:  3.558e-05  alpha:  4.527e-01  linmin:  8.644e-05  t[s]:   1272.72
	FillingsUpdate:  mu: -0.182032696  nElectrons: 415.000000  magneticMoment: [ Abs: 0.00041  Tot: +0.00001 ]
	SubspaceRotationAdjust: set factor to 0.514
ElecMinimize: Iter:   3  F: -1429.763723754885859  |grad|_K:  1.620e-05  alpha:  3.548e-01  linmin:  5.712e-05  t[s]:   1364.61
	FillingsUpdate:  mu: -0.188322136  nElectrons: 415.000000  magneticMoment: [ Abs: 0.00026  Tot: +0.00001 ]
	SubspaceRotationAdjust: set factor to 0.58
ElecMinimize: Iter:   4  F: -1429.798135759274373  |grad|_K:  9.853e-06  alpha:  5.385e-01  linmin:  2.942e-05  t[s]:   1456.61
	FillingsUpdate:  mu: -0.195201145  nElectrons: 415.000000  magneticMoment: [ Abs: 0.00016  Tot: +0.00001 ]
	SubspaceRotationAdjust: set factor to 0.611
ElecMinimize: Iter:   5  F: -1429.811533846525208  |grad|_K:  5.904e-06  alpha:  5.650e-01  linmin:  2.606e-05  t[s]:   1549.22
	FillingsUpdate:  mu: -0.190204037  nElectrons: 415.000000  magneticMoment: [ Abs: 0.00010  Tot: +0.00001 ]
	SubspaceRotationAdjust: set factor to 0.646
ElecMinimize: Iter:   6  F: -1429.816280257293101  |grad|_K:  3.730e-06  alpha:  5.557e-01  linmin:  1.456e-05  t[s]:   1641.76
	FillingsUpdate:  mu: -0.191408716  nElectrons: 415.000000  magneticMoment: [ Abs: 0.00005  Tot: +0.00001 ]
	SubspaceRotationAdjust: set factor to 0.826
ElecMinimize: Iter:   7  F: -1429.818205969540259  |grad|_K:  2.229e-06  alpha:  5.650e-01  linmin:  5.336e-06  t[s]:   1734.02
	FillingsUpdate:  mu: -0.192289909  nElectrons: 415.000000  magneticMoment: [ Abs: 0.00003  Tot: +0.00000 ]
	SubspaceRotationAdjust: set factor to 0.922
ElecMinimize: Iter:   8  F: -1429.818845793281071  |grad|_K:  1.273e-06  alpha:  5.246e-01  linmin:  2.335e-06  t[s]:   1826.58
	FillingsUpdate:  mu: -0.191226575  nElectrons: 415.000000  magneticMoment: [ Abs: 0.00002  Tot: +0.00000 ]
	SubspaceRotationAdjust: set factor to 0.796
ElecMinimize: Iter:   9  F: -1429.819037545064020  |grad|_K:  8.909e-07  alpha:  4.808e-01  linmin:  2.043e-06  t[s]:   1918.84
	FillingsUpdate:  mu: -0.192106209  nElectrons: 415.000000  magneticMoment: [ Abs: 0.00001  Tot: +0.00000 ]
	SubspaceRotationAdjust: set factor to 0.644
ElecMinimize: Iter:  10  F: -1429.819118829600939  |grad|_K:  4.817e-07  alpha:  4.165e-01  linmin:  1.685e-06  t[s]:   2011.54
	FillingsUpdate:  mu: -0.191959961  nElectrons: 415.000000  magneticMoment: [ Abs: 0.00001  Tot: -0.00000 ]
	SubspaceRotationAdjust: set factor to 0.721
ElecMinimize: Iter:  11  F: -1429.819149702635968  |grad|_K:  3.072e-07  alpha:  5.416e-01  linmin:  2.012e-06  t[s]:   2103.76
	FillingsUpdate:  mu: -0.191915787  nElectrons: 415.000000  magneticMoment: [ Abs: 0.00001  Tot: -0.00000 ]
	SubspaceRotationAdjust: set factor to 0.86
ElecMinimize: Iter:  12  F: -1429.819161801802920  |grad|_K:  1.979e-07  alpha:  5.217e-01  linmin:  8.879e-07  t[s]:   2195.97
	FillingsUpdate:  mu: -0.192069652  nElectrons: 415.000000  magneticMoment: [ Abs: 0.00000  Tot: -0.00000 ]
	SubspaceRotationAdjust: set factor to 0.855
ElecMinimize: Iter:  13  F: -1429.819167078232795  |grad|_K:  1.343e-07  alpha:  5.478e-01  linmin:  1.024e-06  t[s]:   2288.02
	FillingsUpdate:  mu: -0.191962267  nElectrons: 415.000000  magneticMoment: [ Abs: 0.00000  Tot: -0.00000 ]
	SubspaceRotationAdjust: set factor to 0.782
ElecMinimize: Iter:  14  F: -1429.819169012395378  |grad|_K:  8.039e-08  alpha:  4.359e-01  linmin:  7.342e-08  t[s]:   2380.51
	FillingsUpdate:  mu: -0.191992200  nElectrons: 415.000000  magneticMoment: [ Abs: 0.00000  Tot: -0.00000 ]
	SubspaceRotationAdjust: set factor to 0.824
ElecMinimize: Iter:  15  F: -1429.819169815127907  |grad|_K:  4.661e-08  alpha:  5.047e-01  linmin:  2.213e-07  t[s]:   2472.80
	FillingsUpdate:  mu: -0.191992609  nElectrons: 415.000000  magneticMoment: [ Abs: 0.00000  Tot: -0.00000 ]
	SubspaceRotationAdjust: set factor to 0.911
ElecMinimize: Iter:  16  F: -1429.819170126207382  |grad|_K:  3.249e-08  alpha:  5.822e-01  linmin:  1.566e-07  t[s]:   2565.62
	FillingsUpdate:  mu: -0.191973968  nElectrons: 415.000000  magneticMoment: [ Abs: 0.00000  Tot: +0.00000 ]
	SubspaceRotationAdjust: set factor to 0.954
ElecMinimize: Iter:  17  F: -1429.819170263184105  |grad|_K:  2.255e-08  alpha:  5.274e-01  linmin:  7.334e-08  t[s]:   2657.81
	FillingsUpdate:  mu: -0.191989433  nElectrons: 415.000000  magneticMoment: [ Abs: 0.00000  Tot: +0.00000 ]
	SubspaceRotationAdjust: set factor to 0.888
ElecMinimize: Iter:  18  F: -1429.819170326415588  |grad|_K:  1.541e-08  alpha:  5.052e-01  linmin:  1.134e-08  t[s]:   2749.94
	FillingsUpdate:  mu: -0.191977364  nElectrons: 415.000000  magneticMoment: [ Abs: 0.00000  Tot: +0.00000 ]
	SubspaceRotationAdjust: set factor to 0.755
ElecMinimize: Iter:  19  F: -1429.819170353443724  |grad|_K:  1.014e-08  alpha:  4.620e-01  linmin: -4.901e-08  t[s]:   2842.73
	FillingsUpdate:  mu: -0.191984876  nElectrons: 415.000000  magneticMoment: [ Abs: 0.00000  Tot: +0.00000 ]
	SubspaceRotationAdjust: set factor to 0.72
ElecMinimize: Iter:  20  F: -1429.819170367019979  |grad|_K:  6.867e-09  alpha:  5.358e-01  linmin: -1.210e-08  t[s]:   2935.34
	FillingsUpdate:  mu: -0.191984156  nElectrons: 415.000000  magneticMoment: [ Abs: 0.00000  Tot: +0.00000 ]
	SubspaceRotationAdjust: set factor to 0.82
ElecMinimize: Iter:  21  F: -1429.819170373159977  |grad|_K:  4.773e-09  alpha:  5.296e-01  linmin: -6.299e-08  t[s]:   3027.36
	FillingsUpdate:  mu: -0.191982563  nElectrons: 415.000000  magneticMoment: [ Abs: 0.00000  Tot: -0.00000 ]
	SubspaceRotationAdjust: set factor to 0.897
ElecMinimize: Iter:  22  F: -1429.819170376294323  |grad|_K:  3.412e-09  alpha:  5.548e-01  linmin:  9.673e-08  t[s]:   3119.37
ElecMinimize: Converged (|Delta F|<1.000000e-08 for 2 iters).
Setting wave functions to eigenvectors of Hamiltonian
Vacuum energy after initial minimize, F = -1429.819170376294323

	Linear fluid (dielectric constant: 78.4, screening length: 5.74355 Bohr) occupying 0.756740 of unit cell:	Completed after 15 iterations at t[s]:   3141.12

-------- Electronic minimization -----------
	Linear fluid (dielectric constant: 78.4, screening length: 5.74355 Bohr) occupying 0.756740 of unit cell:	Completed after 0 iterations at t[s]:   3165.54
	FillingsUpdate:  mu: -0.224764145  nElectrons: 415.000000  magneticMoment: [ Abs: 0.00000  Tot: +0.00000 ]
ElecMinimize: Iter:   0  F: -1429.748415004315120  |grad|_K:  1.877e-06  alpha:  1.000e+00
	Linear fluid (dielectric constant: 78.4, screening length: 5.74355 Bohr) occupying 0.757393 of unit cell:	Completed after 10 iterations at t[s]:   3238.19
	Linear fluid (dielectric constant: 78.4, screening length: 5.74355 Bohr) occupying 0.756931 of unit cell:	Completed after 10 iterations at t[s]:   3271.08
	FillingsUpdate:  mu: -0.221162506  nElectrons: 415.000000  magneticMoment: [ Abs: 0.00000  Tot: -0.00000 ]
	SubspaceRotationAdjust: set factor to 0.669
ElecMinimize: Iter:   1  F: -1429.748665462158215  |grad|_K:  1.051e-06  alpha:  2.896e-01  linmin:  2.667e-06  t[s]:   3313.99
	Linear fluid (dielectric constant: 78.4, screening length: 5.74355 Bohr) occupying 0.757082 of unit cell:	Completed after 9 iterations at t[s]:   3342.57
	Linear fluid (dielectric constant: 78.4, screening length: 5.74355 Bohr) occupying 0.757213 of unit cell:	Completed after 8 iterations at t[s]:   3374.51
	FillingsUpdate:  mu: -0.220482265  nElectrons: 415.000000  magneticMoment: [ Abs: 0.00001  Tot: -0.00000 ]
	SubspaceRotationAdjust: set factor to 0.558
ElecMinimize: Iter:   2  F: -1429.748814019321117  |grad|_K:  3.601e-07  alpha:  5.434e-01  linmin: -9.380e-06  t[s]:   3417.52
	Linear fluid (dielectric constant: 78.4, screening length: 5.74355 Bohr) occupying 0.757279 of unit cell:	Completed after 3 iterations at t[s]:   3445.22
	Linear fluid (dielectric constant: 78.4, screening length: 5.74355 Bohr) occupying 0.757299 of unit cell:	Completed after 2 iterations at t[s]:   3475.24
	FillingsUpdate:  mu: -0.220426938  nElectrons: 415.000000  magneticMoment: [ Abs: 0.00001  Tot: -0.00000 ]
	SubspaceRotationAdjust: set factor to 0.63
ElecMinimize: Iter:   3  F: -1429.748836696794797  |grad|_K:  2.057e-07  alpha:  7.020e-01  linmin:  1.882e-06  t[s]:   3516.89
	Linear fluid (dielectric constant: 78.4, screening length: 5.74355 Bohr) occupying 0.757335 of unit cell:	Completed after 3 iterations at t[s]:   3544.93
	Linear fluid (dielectric constant: 78.4, screening length: 5.74355 Bohr) occupying 0.757330 of unit cell:	Completed after 0 iterations at t[s]:   3574.71
	FillingsUpdate:  mu: -0.220399806  nElectrons: 415.000000  magneticMoment: [ Abs: 0.00001  Tot: -0.00000 ]
	SubspaceRotationAdjust: set factor to 0.701
ElecMinimize: Iter:   4  F: -1429.748843032625928  |grad|_K:  1.356e-07  alpha:  6.109e-01  linmin:  2.620e-06  t[s]:   3615.40
	Linear fluid (dielectric constant: 78.4, screening length: 5.74355 Bohr) occupying 0.757337 of unit cell:	Completed after 2 iterations at t[s]:   3643.23
	Linear fluid (dielectric constant: 78.4, screening length: 5.74355 Bohr) occupying 0.757337 of unit cell:	Completed after 0 iterations at t[s]:   3672.72
	FillingsUpdate:  mu: -0.220333399  nElectrons: 415.000000  magneticMoment: [ Abs: 0.00000  Tot: -0.00000 ]
	SubspaceRotationAdjust: set factor to 0.825
ElecMinimize: Iter:   5  F: -1429.748845761490884  |grad|_K:  8.808e-08  alpha:  6.057e-01  linmin: -1.967e-05  t[s]:   3713.48
	Linear fluid (dielectric constant: 78.4, screening length: 5.74355 Bohr) occupying 0.757330 of unit cell:	Completed after 2 iterations at t[s]:   3741.52
	Linear fluid (dielectric constant: 78.4, screening length: 5.74355 Bohr) occupying 0.757331 of unit cell:	Completed after 0 iterations at t[s]:   3770.65
	FillingsUpdate:  mu: -0.220353470  nElectrons: 415.000000  magneticMoment: [ Abs: 0.00000  Tot: -0.00000 ]
	SubspaceRotationAdjust: set factor to 0.949
ElecMinimize: Iter:   6  F: -1429.748846716736352  |grad|_K:  5.832e-08  alpha:  4.914e-01  linmin: -7.768e-07  t[s]:   3811.56
	Linear fluid (dielectric constant: 78.4, screening length: 5.74355 Bohr) occupying 0.757323 of unit cell:	Completed after 0 iterations at t[s]:   3838.79
	Linear fluid (dielectric constant: 78.4, screening length: 5.74355 Bohr) occupying 0.757323 of unit cell:	Completed after 0 iterations at t[s]:   3867.25
	FillingsUpdate:  mu: -0.220353404  nElectrons: 415.000000  magneticMoment: [ Abs: 0.00000  Tot: -0.00000 ]
	SubspaceRotationAdjust: set factor to 1.09
ElecMinimize: Iter:   7  F: -1429.748847106996436  |grad|_K:  3.497e-08  alpha:  4.651e-01  linmin:  2.316e-07  t[s]:   3907.87
	Linear fluid (dielectric constant: 78.4, screening length: 5.74355 Bohr) occupying 0.757319 of unit cell:	Completed after 0 iterations at t[s]:   3935.12
	Linear fluid (dielectric constant: 78.4, screening length: 5.74355 Bohr) occupying 0.757318 of unit cell:	Completed after 0 iterations at t[s]:   3963.66
	FillingsUpdate:  mu: -0.220353691  nElectrons: 415.000000  magneticMoment: [ Abs: 0.00000  Tot: -0.00000 ]
	SubspaceRotationAdjust: set factor to 1.2
ElecMinimize: Iter:   8  F: -1429.748847254881866  |grad|_K:  2.133e-08  alpha:  4.917e-01  linmin:  1.625e-07  t[s]:   4004.41
	Linear fluid (dielectric constant: 78.4, screening length: 5.74355 Bohr) occupying 0.757316 of unit cell:	Completed after 3 iterations at t[s]:   4032.27
	Linear fluid (dielectric constant: 78.4, screening length: 5.74355 Bohr) occupying 0.757318 of unit cell:	Completed after 0 iterations at t[s]:   4061.96
ElecMinimize: 	Step increased F by 4.593471e-08, reducing alpha to 1.300717e-02.
	Linear fluid (dielectric constant: 78.4, screening length: 5.74355 Bohr) occupying 0.757318 of unit cell:	Completed after 0 iterations at t[s]:   4125.33
ElecMinimize: 	Step increased F by 3.994910e-08, reducing alpha to 1.300717e-03.
	Linear fluid (dielectric constant: 78.4, screening length: 5.74355 Bohr) occupying 0.757318 of unit cell:	Completed after 0 iterations at t[s]:   4188.40
ElecMinimize: 	Step increased F by 3.961350e-08, reducing alpha to 1.300717e-04.
ElecMinimize: 	Step failed to reduce F after 3 attempts. Quitting step.
ElecMinimize: 	Undoing step.
	Linear fluid (dielectric constant: 78.4, screening length: 5.74355 Bohr) occupying 0.757318 of unit cell:	Completed after 0 iterations at t[s]:   4250.90
ElecMinimize: 	Step failed: resetting search direction.
	FillingsUpdate:  mu: -0.220307587  nElectrons: 415.000000  magneticMoment: [ Abs: 0.00000  Tot: -0.00000 ]
	SubspaceRotationAdjust: set factor to 0.78
ElecMinimize: Iter:   9  F: -1429.748847215236310  |grad|_K:  5.362e-08  alpha:  1.301e-04
	Linear fluid (dielectric constant: 78.4, screening length: 5.74355 Bohr) occupying 0.757317 of unit cell:	Completed after 1 iterations at t[s]:   4318.85
	Linear fluid (dielectric constant: 78.4, screening length: 5.74355 Bohr) occupying 0.757318 of unit cell:	Completed after 2 iterations at t[s]:   4348.38
	FillingsUpdate:  mu: -0.220376304  nElectrons: 415.000000  magneticMoment: [ Abs: 0.00000  Tot: -0.00000 ]
	SubspaceRotationAdjust: set factor to 0.327
ElecMinimize: Iter:  10  F: -1429.748847243362206  |grad|_K:  2.202e-08  alpha:  1.344e-01  linmin:  2.681e-04  t[s]:   4389.64
	Linear fluid (dielectric constant: 78.4, screening length: 5.74355 Bohr) occupying 0.757318 of unit cell:	Completed after 0 iterations at t[s]:   4416.98
ElecMinimize: 	Predicted alpha/alphaT>3.000000, increasing alphaT to 4.031995e-01.
	Linear fluid (dielectric constant: 78.4, screening length: 5.74355 Bohr) occupying 0.757318 of unit cell:	Completed after 0 iterations at t[s]:   4445.36
	Linear fluid (dielectric constant: 78.4, screening length: 5.74355 Bohr) occupying 0.757318 of unit cell:	Completed after 0 iterations at t[s]:   4474.07
	FillingsUpdate:  mu: -0.220376670  nElectrons: 415.000000  magneticMoment: [ Abs: 0.00000  Tot: -0.00000 ]
	SubspaceRotationAdjust: set factor to 0.498
ElecMinimize: Iter:  11  F: -1429.748847305510481  |grad|_K:  2.180e-08  alpha:  6.856e-01  linmin: -2.509e-08  t[s]:   4514.68
	Linear fluid (dielectric constant: 78.4, screening length: 5.74355 Bohr) occupying 0.757319 of unit cell:	Completed after 2 iterations at t[s]:   4542.04
	Linear fluid (dielectric constant: 78.4, screening length: 5.74355 Bohr) occupying 0.757319 of unit cell:	Completed after 0 iterations at t[s]:   4571.57
ElecMinimize: 	Step increased F by 3.390142e-09, reducing alpha to 1.840472e-02.
	Linear fluid (dielectric constant: 78.4, screening length: 5.74355 Bohr) occupying 0.757318 of unit cell:	Completed after 0 iterations at t[s]:   4634.78
	FillingsUpdate:  mu: -0.220305906  nElectrons: 415.000000  magneticMoment: [ Abs: 0.00000  Tot: -0.00000 ]
	SubspaceRotationAdjust: set factor to 0.432
ElecMinimize: Iter:  12  F: -1429.748847326971145  |grad|_K:  3.670e-08  alpha:  1.840e-02  linmin:  4.315e-05  t[s]:   4675.53
	Linear fluid (dielectric constant: 78.4, screening length: 5.74355 Bohr) occupying 0.757318 of unit cell:	Completed after 0 iterations at t[s]:   4702.93
ElecMinimize: 	Predicted alpha/alphaT>3.000000, increasing alphaT to 5.521415e-02.
	Linear fluid (dielectric constant: 78.4, screening length: 5.74355 Bohr) occupying 0.757318 of unit cell:	Completed after 0 iterations at t[s]:   4731.23
	Linear fluid (dielectric constant: 78.4, screening length: 5.74355 Bohr) occupying 0.757318 of unit cell:	Completed after 0 iterations at t[s]:   4760.03
	FillingsUpdate:  mu: -0.220305990  nElectrons: 415.000000  magneticMoment: [ Abs: 0.00000  Tot: -0.00000 ]
	SubspaceRotationAdjust: set factor to 0.329
ElecMinimize: Iter:  13  F: -1429.748847336564495  |grad|_K:  3.153e-08  alpha:  5.872e-02  linmin:  6.086e-08  t[s]:   4800.45
	Linear fluid (dielectric constant: 78.4, screening length: 5.74355 Bohr) occupying 0.757318 of unit cell:	Completed after 0 iterations at t[s]:   4827.94
	Linear fluid (dielectric constant: 78.4, screening length: 5.74355 Bohr) occupying 0.757318 of unit cell:	Completed after 1 iterations at t[s]:   4857.03
ElecMinimize: 	Step increased F by 3.416426e-08, reducing alpha to 1.236445e-02.
	Linear fluid (dielectric constant: 78.4, screening length: 5.74355 Bohr) occupying 0.757318 of unit cell:	Completed after 0 iterations at t[s]:   4920.59
ElecMinimize: 	Step increased F by 3.752166e-08, reducing alpha to 1.236445e-03.
	Linear fluid (dielectric constant: 78.4, screening length: 5.74355 Bohr) occupying 0.757318 of unit cell:	Completed after 0 iterations at t[s]:   4983.56
ElecMinimize: 	Step increased F by 4.055755e-08, reducing alpha to 1.236445e-04.
ElecMinimize: 	Step failed to reduce F after 3 attempts. Quitting step.
ElecMinimize: 	Undoing step.
	Linear fluid (dielectric constant: 78.4, screening length: 5.74355 Bohr) occupying 0.757318 of unit cell:	Completed after 0 iterations at t[s]:   5046.71
ElecMinimize: 	Step failed: resetting search direction.
	FillingsUpdate:  mu: -0.220334363  nElectrons: 415.000000  magneticMoment: [ Abs: 0.00000  Tot: -0.00000 ]
	SubspaceRotationAdjust: set factor to 0.569
ElecMinimize: Iter:  14  F: -1429.748847295957603  |grad|_K:  1.360e-08  alpha:  1.236e-04
	Linear fluid (dielectric constant: 78.4, screening length: 5.74355 Bohr) occupying 0.757318 of unit cell:	Completed after 0 iterations at t[s]:   5114.26
ElecMinimize: 	Predicted alpha/alphaT>3.000000, increasing alphaT to 1.761663e-01.
	Linear fluid (dielectric constant: 78.4, screening length: 5.74355 Bohr) occupying 0.757318 of unit cell:	Completed after 0 iterations at t[s]:   5142.77
ElecMinimize: 	Predicted alpha/alphaT>3.000000, increasing alphaT to 5.284989e-01.
	Linear fluid (dielectric constant: 78.4, screening length: 5.74355 Bohr) occupying 0.757318 of unit cell:	Completed after 0 iterations at t[s]:   5171.14
	Linear fluid (dielectric constant: 78.4, screening length: 5.74355 Bohr) occupying 0.757318 of unit cell:	Completed after 0 iterations at t[s]:   5199.89
	FillingsUpdate:  mu: -0.220334138  nElectrons: 415.000000  magneticMoment: [ Abs: 0.00000  Tot: -0.00000 ]
	SubspaceRotationAdjust: set factor to 0.687
ElecMinimize: Iter:  15  F: -1429.748847330178478  |grad|_K:  1.543e-08  alpha:  7.514e-01  linmin: -3.220e-08  t[s]:   5240.36
	Linear fluid (dielectric constant: 78.4, screening length: 5.74355 Bohr) occupying 0.757316 of unit cell:	Completed after 3 iterations at t[s]:   5268.22
	Linear fluid (dielectric constant: 78.4, screening length: 5.74355 Bohr) occupying 0.757318 of unit cell:	Completed after 0 iterations at t[s]:   5297.94
	FillingsUpdate:  mu: -0.220431397  nElectrons: 415.000000  magneticMoment: [ Abs: 0.00000  Tot: -0.00000 ]
	SubspaceRotationAdjust: set factor to 0.449
ElecMinimize: Iter:  16  F: -1429.748847387980277  |grad|_K:  5.521e-08  alpha:  9.724e-02  linmin:  1.677e-04  t[s]:   5338.66
ElecMinimize: 	Bad step direction: g.d > 0.
ElecMinimize: 	Undoing step.
	Linear fluid (dielectric constant: 78.4, screening length: 5.74355 Bohr) occupying 0.757318 of unit cell:	Completed after 0 iterations at t[s]:   5365.93
ElecMinimize: 	Step failed: resetting search direction.
	FillingsUpdate:  mu: -0.220431397  nElectrons: 415.000000  magneticMoment: [ Abs: 0.00000  Tot: -0.00000 ]
	SubspaceRotationAdjust: set factor to 0.329
ElecMinimize: Iter:  17  F: -1429.748847387956403  |grad|_K:  4.731e-08  alpha:  0.000e+00
	Linear fluid (dielectric constant: 78.4, screening length: 5.74355 Bohr) occupying 0.757318 of unit cell:	Completed after 1 iterations at t[s]:   5433.97
	Linear fluid (dielectric constant: 78.4, screening length: 5.74355 Bohr) occupying 0.757318 of unit cell:	Completed after 0 iterations at t[s]:   5462.99
ElecMinimize: 	Step increased F by 8.637380e-08, reducing alpha to 2.832202e-03.
	Linear fluid (dielectric constant: 78.4, screening length: 5.74355 Bohr) occupying 0.757318 of unit cell:	Completed after 0 iterations at t[s]:   5526.54
ElecMinimize: 	Step increased F by 9.077212e-08, reducing alpha to 2.832202e-04.
	Linear fluid (dielectric constant: 78.4, screening length: 5.74355 Bohr) occupying 0.757318 of unit cell:	Completed after 0 iterations at t[s]:   5589.33
ElecMinimize: 	Step increased F by 9.120026e-08, reducing alpha to 2.832202e-05.
ElecMinimize: 	Step failed to reduce F after 3 attempts. Quitting step.
ElecMinimize: 	Undoing step.
	Linear fluid (dielectric constant: 78.4, screening length: 5.74355 Bohr) occupying 0.757318 of unit cell:	Completed after 0 iterations at t[s]:   5652.36
ElecMinimize: 	Step failed along negative gradient direction.
ElecMinimize: Probably at roundoff error limit. (Stopping)
Setting wave functions to eigenvectors of Hamiltonian
Single-point solvation energy estimate, DeltaF = +0.070323079537502

# Ionic positions in lattice coordinates:
ion W   0.083334440402778   0.166665545055556   0.500000009000000 1
ion W   0.333334440402778   0.166665545055556   0.500000009000000 1
ion W   0.583334440402778   0.166665545055556   0.500000009000000 1
ion W   0.833334440402778   0.166665545055556   0.500000009000000 1
ion W   0.083334440402778   0.416665545055556   0.500000009000000 1
ion W   0.333334440402778   0.416665545055556   0.500000009000000 1
ion W   0.583334440402778   0.416665545055556   0.500000009000000 1
ion W   0.833334440402778   0.416665545055556   0.500000009000000 1
ion W   0.083334440402778   0.666665545055556   0.500000009000000 1
ion W   0.333334440402778   0.666665545055556   0.500000009000000 1
ion W   0.583334440402778   0.666665545055556   0.500000009000000 1
ion W   0.833334440402778   0.666665545055556   0.500000009000000 1
ion W   0.083334440402778   0.916665545055556   0.500000009000000 1
ion W   0.333334440402778   0.916665545055556   0.500000009000000 1
ion W   0.583334440402778   0.916665545055556   0.500000009000000 1
ion W   0.833334440402778   0.916665545055556   0.500000009000000 1
ion S   0.166667773736112   0.083332211722223   0.413136339362868 1
ion S   0.166667773736112   0.083332211722223   0.586863678637132 1
ion S   0.416667773736112   0.083332211722223   0.413136339362868 1
ion S   0.416667773736112   0.083332211722223   0.586863678637132 1
ion S   0.666667773736112   0.083332211722223   0.413136339362868 1
ion S   0.666667773736112   0.083332211722223   0.586863678637132 1
ion S   0.916667773736112   0.083332211722223   0.413136339362868 1
ion S   0.916667773736112   0.083332211722223   0.586863678637132 1
ion S   0.166667773736112   0.333332211722223   0.413136339362868 1
ion S   0.166667773736112   0.333332211722223   0.586863678637132 1
ion S   0.416667773736112   0.333332211722223   0.413136339362868 1
ion S   0.416667773736112   0.333332211722223   0.586863678637132 1
ion S   0.666667773736112   0.333332211722223   0.413136339362868 1
ion S   0.666667773736112   0.333332211722223   0.586863678637132 1
ion S   0.916667773736112   0.333332211722223   0.413136339362868 1
ion S   0.916667773736112   0.333332211722223   0.586863678637132 1
ion S   0.166667773736112   0.583332211722223   0.413136339362868 1
ion S   0.166667773736112   0.583332211722223   0.586863678637132 1
ion S   0.416667773736112   0.583332211722223   0.413136339362868 1
ion S   0.416667773736112   0.583332211722223   0.586863678637132 1
ion S   0.666667773736112   0.583332211722223   0.413136339362868 1
ion S   0.666667773736112   0.583332211722223   0.586863678637132 1
ion S   0.916667773736112   0.583332211722223   0.413136339362868 1
ion S   0.916667773736112   0.583332211722223   0.586863678637132 1
ion S   0.166667773736112   0.833332211722223   0.413136339362868 1
ion S   0.166667773736112   0.833332211722223   0.586863678637132 1
ion S   0.416667773736112   0.833332211722223   0.413136339362868 1
ion S   0.416667773736112   0.833332211722223   0.586863678637132 1
ion S   0.666667773736112   0.833332211722223   0.413136339362868 1
ion S   0.666667773736112   0.833332211722223   0.586863678637132 1
ion S   0.916667773736112   0.833332211722223   0.413136339362868 1
ion S   0.916667773736112   0.833332211722223   0.586863678637132 1


# Forces in Lattice coordinates:
force W   0.000000000000000  -0.000000000000000   0.000000000000000 1
force W   0.000000000000000   0.000000000000000   0.000000000000000 1
force W  -0.000000000000000   0.000000000000000   0.000000000000000 1
force W   0.000000000000000   0.000000000000000   0.000000000000000 1
force W  -0.000000000000000  -0.000000000000000   0.000000000000000 1
force W   0.000000000000000  -0.000000000000000   0.000000000000000 1
force W   0.000000000000000   0.000000000000000   0.000000000000000 1
force W  -0.000000000000000   0.000000000000000   0.000000000000000 1
force W  -0.000000000000000   0.000000000000000  -0.000000000000000 1
force W   0.000000000000000   0.000000000000000   0.000000000000000 1
force W   0.000000000000000   0.000000000000000   0.000000000000000 1
force W  -0.000000000000000   0.000000000000000   0.000000000000000 1
force W  -0.000000000000000   0.000000000000000  -0.000000000000000 1
force W   0.000000000000000  -0.000000000000000   0.000000000000000 1
force W   0.000000000000000  -0.000000000000000  -0.000000000000000 1
force W   0.000000000000000  -0.000000000000000   0.000000000000000 1
force S   0.000000000000000   0.000000000000000   0.003192648680642 1
force S   0.000000000000000  -0.000000000000000  -0.003192648680868 1
force S  -0.000000000000000   0.000000000000000   0.003192648680756 1
force S  -0.000000000000000   0.000000000000000  -0.003192648680868 1
force S   0.000000000000000   0.000000000000000   0.003192648680756 1
force S   0.000000000000000  -0.000000000000000  -0.003192648680869 1
force S  -0.000000000000000   0.000000000000000   0.003192648680756 1
force S   0.000000000000000  -0.000000000000000  -0.003192648680870 1
force S  -0.000000000000000   0.000000000000000   0.003192648680869 1
force S   0.000000000000000  -0.000000000000000  -0.003192648680869 1
force S   0.000000000000000   0.000000000000000   0.003192648680983 1
force S   0.000000000000000  -0.000000000000000  -0.003192648681097 1
force S   0.000000000000000   0.000000000000000   0.003192648680869 1
force S  -0.000000000000000   0.000000000000000  -0.003192648680755 1
force S   0.000000000000000   0.000000000000000   0.003192648680869 1
force S  -0.000000000000000  -0.000000000000000  -0.003192648680869 1
force S  -0.000000000000000   0.000000000000000   0.003192648680757 1
force S   0.000000000000000   0.000000000000000  -0.003192648680869 1
force S   0.000000000000000  -0.000000000000000   0.003192648680756 1
force S  -0.000000000000000  -0.000000000000000  -0.003192648680757 1
force S  -0.000000000000000   0.000000000000000   0.003192648680756 1
force S  -0.000000000000000   0.000000000000000  -0.003192648680868 1
force S  -0.000000000000000   0.000000000000000   0.003192648680871 1
force S   0.000000000000000   0.000000000000000  -0.003192648680868 1
force S  -0.000000000000000   0.000000000000000   0.003192648680869 1
force S   0.000000000000000   0.000000000000000  -0.003192648681096 1
force S  -0.000000000000000   0.000000000000000   0.003192648680756 1
force S  -0.000000000000000   0.000000000000000  -0.003192648681097 1
force S   0.000000000000000   0.000000000000000   0.003192648680642 1
force S   0.000000000000000  -0.000000000000000  -0.003192648680870 1
force S  -0.000000000000000   0.000000000000000   0.003192648680642 1
force S   0.000000000000000   0.000000000000000  -0.003192648680869 1

# Energy components:
   A_diel =        0.0578307379493883
   Eewald =     8742.7957270371007326
       EH =     9861.2859113207705377
     Eloc =   -20117.7564962189899234
      Enl =     -179.1349807091561388
      Exc =     -465.2023784811481733
 Exc_core =      230.1592926414743374
       KE =      498.0508309912067944
  MuShift =        0.0120640672534619
-------------------------------------
     Etot =    -1429.7321986135407315
       TS =        0.0166486832161838
-------------------------------------
        F =    -1429.7488472967568214

IonicMinimize: Iter:   0  F: -1429.748847296756821  |grad|_K:  4.389e-05  t[s]:   5711.37
IonicMinimize: Converged (|grad|_K<1.000000e-04).

#--- Lowdin population analysis ---
# oxidation-state W -0.522 -0.522 -0.522 -0.522 -0.522 -0.522 -0.522 -0.522 -0.522 -0.522 -0.522 -0.522 -0.522 -0.522 -0.522 -0.522
# magnetic-moments W -0.000 -0.000 -0.000 -0.000 -0.000 -0.000 -0.000 -0.000 -0.000 -0.000 -0.000 -0.000 -0.000 -0.000 -0.000 -0.000
# oxidation-state S +0.362 +0.362 +0.362 +0.362 +0.362 +0.362 +0.362 +0.362 +0.362 +0.362 +0.362 +0.362 +0.362 +0.362 +0.362 +0.362 +0.362 +0.362 +0.362 +0.362 +0.362 +0.362 +0.362 +0.362 +0.362 +0.362 +0.362 +0.362 +0.362 +0.362 +0.362 +0.362
# magnetic-moments S +0.000 +0.000 +0.000 +0.000 +0.000 +0.000 +0.000 +0.000 +0.000 +0.000 +0.000 +0.000 +0.000 +0.000 +0.000 +0.000 +0.000 +0.000 +0.000 +0.000 +0.000 +0.000 +0.000 +0.000 +0.000 +0.000 +0.000 +0.000 +0.000 +0.000 +0.000 +0.000


Dumping 'NbTe2.fillings' ... done
Dumping 'NbTe2.wfns' ... done
Dumping 'NbTe2.fluidState' ... done
Dumping 'NbTe2.ionpos' ... done
Dumping 'NbTe2.eigenvals' ... done
End date and time: Sun Jan 17 22:06:18 2021  (Duration: 0-1:35:22.15)
Done!
