
*************** JDFTx 1.5.0  ***************

Start date and time: Sun Jul 12 19:54:58 2020
Executable jdftx_gpu with command-line: -i Charged.in -o Charged.out
Running on hosts (process indices):  amax (0-1)
Divided in process groups (process indices):  0 (0)  1 (1)
gpuInit: Found compatible cuda device 0 'Tesla K80'
gpuInit: Found compatible cuda device 1 'Tesla K80'
gpuInit: Selected device 0
Resource initialization completed at t[s]:     15.18
Run totals: 2 processes, 24 threads, 2 GPUs


Input parsed successfully to the following command list (including defaults):

basis kpoint-dependent
cache-projectors no
coords-type Lattice
core-overlap-check none
coulomb-interaction Slab 001
coulomb-truncation-embed 0 0 0.5
davidson-band-ratio 1.1
dump End State
dump-name NbTe2.$VAR
elec-cutoff 20 100
elec-eigen-algo Davidson
elec-ex-corr gga-PBE
elec-smearing Gauss 0.0073499
electronic-minimize  \
	dirUpdateScheme      FletcherReeves \
	linminMethod         DirUpdateRecommended \
	nIterations          500 \
	history              15 \
	knormThreshold       0 \
	energyDiffThreshold  1e-08 \
	nEnergyDiff          2 \
	alphaTstart          1 \
	alphaTmin            1e-10 \
	updateTestStepSize   yes \
	alphaTreduceFactor   0.1 \
	alphaTincreaseFactor 3 \
	nAlphaAdjustMax      3 \
	wolfeEnergy          0.0001 \
	wolfeGradient        0.9 \
	fdTest               no
exchange-regularization WignerSeitzTruncated
fluid LinearPCM 298.000000 1.013250
fluid-anion F- 1 MeanFieldLJ \
	epsBulk 1 \
	pMol 0 \
	epsInf 1 \
	Pvap 0 \
	sigmaBulk 0 \
	Rvdw 2.24877 \
	Res 0 \
	tauNuc 343133
fluid-cation Na+ 1 MeanFieldLJ \
	epsBulk 1 \
	pMol 0 \
	epsInf 1 \
	Pvap 0 \
	sigmaBulk 0 \
	Rvdw 2.19208 \
	Res 0 \
	tauNuc 343133
fluid-ex-corr lda-TF lda-PZ
fluid-gummel-loop 10 1.000000e-05
fluid-minimize  \
	dirUpdateScheme      PolakRibiere \
	linminMethod         DirUpdateRecommended \
	nIterations          400 \
	history              15 \
	knormThreshold       1e-11 \
	energyDiffThreshold  0 \
	nEnergyDiff          2 \
	alphaTstart          1 \
	alphaTmin            1e-10 \
	updateTestStepSize   yes \
	alphaTreduceFactor   0.1 \
	alphaTincreaseFactor 3 \
	nAlphaAdjustMax      6 \
	wolfeEnergy          0.0001 \
	wolfeGradient        0.9 \
	fdTest               no
fluid-solvent H2O 55.338 ScalarEOS \
	epsBulk 78.4 \
	pMol 0.92466 \
	epsInf 1.77 \
	Pvap 1.06736e-10 \
	sigmaBulk 4.62e-05 \
	Rvdw 2.61727 \
	Res 1.42 \
	tauNuc 343133 \
	poleEl 15 7 1
forces-output-coords Positions
initial-state NbTe2.$VAR
ion La   0.166666769943525   0.333333554048131   0.571544289585891 0
ion La   0.666666769943525   0.333333554048131   0.571544289585891 0
ion La   0.166666769943525   0.833333554048131   0.571544289585891 0
ion La   0.666666769943525   0.833333554048131   0.571544289585891 0
ion La   0.333333148871546   0.166666607125805   0.428455692944627 0
ion La   0.833333148871546   0.166666607125805   0.428455692944627 0
ion La   0.333333148871546   0.666666607125805   0.428455692944627 0
ion La   0.833333148871546   0.666666607125805   0.428455692944627 0
ion P   0.999999976045338   0.999999962257540   0.500000021933694 0
ion P   0.499999976045338   0.999999962257540   0.500000021933694 0
ion P   0.999999976045338   0.499999962257540   0.500000021933694 0
ion P   0.499999976045338   0.499999962257540   0.500000021933694 0
ion I   0.333333532887892   0.166666497821012   0.666581788230533 0
ion I   0.833333532887892   0.166666497821012   0.666581788230533 0
ion I   0.333333532887892   0.666666497821012   0.666581788230533 0
ion I   0.833333532887892   0.666666497821012   0.666581788230533 0
ion I   0.166666572251700   0.333333378747504   0.333418207305240 0
ion I   0.666666572251700   0.333333378747504   0.333418207305240 0
ion I   0.166666572251700   0.833333378747504   0.333418207305240 0
ion I   0.666666572251700   0.833333378747504   0.333418207305240 0
ion-species GBRV/$ID_pbe.uspp
ion-width Ecut
ionic-minimize  \
	dirUpdateScheme      L-BFGS \
	linminMethod         DirUpdateRecommended \
	nIterations          0 \
	history              15 \
	knormThreshold       0.0001 \
	energyDiffThreshold  1e-06 \
	nEnergyDiff          2 \
	alphaTstart          1 \
	alphaTmin            1e-10 \
	updateTestStepSize   yes \
	alphaTreduceFactor   0.1 \
	alphaTincreaseFactor 3 \
	nAlphaAdjustMax      3 \
	wolfeEnergy          0.0001 \
	wolfeGradient        0.9 \
	fdTest               no
kpoint   0.000000000000   0.000000000000   0.000000000000  1.00000000000000
kpoint-folding 4 4 1 
latt-move-scale 1 1 1
latt-scale 1 1 1 
lattice Triclinic 16.2489 16.2489 42.5261 90 90 120
lattice-minimize  \
	dirUpdateScheme      L-BFGS \
	linminMethod         DirUpdateRecommended \
	nIterations          0 \
	history              15 \
	knormThreshold       0 \
	energyDiffThreshold  1e-06 \
	nEnergyDiff          2 \
	alphaTstart          1 \
	alphaTmin            1e-10 \
	updateTestStepSize   yes \
	alphaTreduceFactor   0.1 \
	alphaTincreaseFactor 3 \
	nAlphaAdjustMax      3 \
	wolfeEnergy          0.0001 \
	wolfeGradient        0.9 \
	fdTest               no
lcao-params -1 1e-06 0.0073499
pcm-variant CANDLE
spintype no-spin
subspace-rotation-factor 1 yes
symmetries automatic
symmetry-threshold 0.0001
target-mu -0.171252 no




---------- Setting up symmetries ----------

Found 24 point-group symmetries of the bravais lattice
Found 48 space-group symmetries with basis
Applied RMS atom displacement 3.1337e-06 bohrs to make symmetries exact.

---------- Initializing the Grid ----------
R = 
[    16.2489   -8.12446          0  ]
[          0     14.072          0  ]
[          0          0    42.5261  ]
unit cell volume = 9723.77
G =
[   0.386684   0.223252         -0  ]
[          0   0.446503          0  ]
[          0         -0   0.147749  ]
Minimum fftbox size, Smin = [  76  76  192  ]
Chosen fftbox size, S = [  80  80  192  ]

---------- Initializing tighter grid for wavefunction operations ----------
R = 
[    16.2489   -8.12446          0  ]
[          0     14.072          0  ]
[          0          0    42.5261  ]
unit cell volume = 9723.77
G =
[   0.386684   0.223252         -0  ]
[          0   0.446503          0  ]
[          0         -0   0.147749  ]
Minimum fftbox size, Smin = [  68  68  172  ]
Chosen fftbox size, S = [  70  70  180  ]

---------- Exchange Correlation functional ----------
Initalized PBE GGA exchange.
Initalized PBE GGA correlation.

---------- Setting up pseudopotentials ----------
Width of ionic core gaussian charges (only for fluid interactions / plotting) set to 0.397384

Reading pseudopotential file '/home/guoxy/vasp/jdftx-1.5.0/build/pseudopotentials/GBRV/la_pbe.uspp':
  Title: La.  Created by USPP 7.3.6 on 14-9-2013
  Reference state energy: -51.063618.  11 valence electrons in orbitals:
    |500>  occupation: 2  eigenvalue: -1.451142
    |510>  occupation: 6  eigenvalue: -0.843691
    |520>  occupation: 1  eigenvalue: -0.130012
    |600>  occupation: 1.5  eigenvalue: -0.146765
    |610>  occupation: 0.5  eigenvalue: -0.059369
    |430>  occupation: 0  eigenvalue: -0.180348
  lMax: 3  lLocal: -1  QijEcut: 5
  8 projectors sampled on a log grid with 665 points:
    l: 0  eig: -1.451139  rCut: 1.7
    l: 0  eig: -0.146766  rCut: 1.7
    l: 1  eig: -0.843687  rCut: 1.9
    l: 1  eig: -0.059370  rCut: 1.9
    l: 2  eig: -0.130014  rCut: 2
    l: 2  eig: 1.000000  rCut: 2
    l: 3  eig: -0.180352  rCut: 2
    l: 3  eig: -1.000000  rCut: 2
  Partial core density with radius 1.3
  Transforming core density to a uniform radial grid of dG=0.02 with 1707 points.
  Transforming local potential to a uniform radial grid of dG=0.02 with 1707 points.
  Transforming nonlocal projectors to a uniform radial grid of dG=0.02 with 432 points.
  Transforming density augmentations to a uniform radial grid of dG=0.02 with 1707 points.
  Transforming atomic orbitals to a uniform radial grid of dG=0.02 with 432 points.
  Core radius for overlap checks: 2.00 bohrs.

Reading pseudopotential file '/home/guoxy/vasp/jdftx-1.5.0/build/pseudopotentials/GBRV/p_pbe.uspp':
  Title: P.  Created by USPP 7.3.6 on 11-6-15
  Reference state energy: -7.561951.  5 valence electrons in orbitals:
    |300>  occupation: 2  eigenvalue: -0.513368
    |310>  occupation: 3  eigenvalue: -0.202371
  lMax: 2  lLocal: 3  QijEcut: 5
  6 projectors sampled on a log grid with 631 points:
    l: 0  eig: -0.513363  rCut: 1.5
    l: 0  eig: 0.500000  rCut: 1.5
    l: 1  eig: -0.202372  rCut: 1.5
    l: 1  eig: 1.000000  rCut: 1.5
    l: 2  eig: -0.500000  rCut: 1.5
    l: 2  eig: 1.500000  rCut: 1.5
  Partial core density with radius 1.35
  Transforming core density to a uniform radial grid of dG=0.02 with 1707 points.
  Transforming local potential to a uniform radial grid of dG=0.02 with 1707 points.
  Transforming nonlocal projectors to a uniform radial grid of dG=0.02 with 432 points.
  Transforming density augmentations to a uniform radial grid of dG=0.02 with 1707 points.
  Transforming atomic orbitals to a uniform radial grid of dG=0.02 with 432 points.
  Core radius for overlap checks: 1.50 bohrs.

Reading pseudopotential file '/home/guoxy/vasp/jdftx-1.5.0/build/pseudopotentials/GBRV/i_pbe.uspp':
  Title: I.  Created by USPP 7.3.6 on 14-9-2013
  Reference state energy: -32.770235.  7 valence electrons in orbitals:
    |500>  occupation: 2  eigenvalue: -0.639712
    |510>  occupation: 5  eigenvalue: -0.260406
  lMax: 2  lLocal: 3  QijEcut: 5
  6 projectors sampled on a log grid with 725 points:
    l: 0  eig: -0.639710  rCut: 1.9
    l: 0  eig: 0.000000  rCut: 1.9
    l: 1  eig: -0.260404  rCut: 2
    l: 1  eig: 0.000000  rCut: 2
    l: 2  eig: -0.500000  rCut: 2.45
    l: 2  eig: 0.500000  rCut: 2.45
  Partial core density with radius 1.3
  Transforming core density to a uniform radial grid of dG=0.02 with 1707 points.
  Transforming local potential to a uniform radial grid of dG=0.02 with 1707 points.
  Transforming nonlocal projectors to a uniform radial grid of dG=0.02 with 432 points.
  Transforming density augmentations to a uniform radial grid of dG=0.02 with 1707 points.
  Transforming atomic orbitals to a uniform radial grid of dG=0.02 with 432 points.
  Core radius for overlap checks: 2.45 bohrs.

Initialized 3 species with 20 total atoms.

Folded 1 k-points by 4x4x1 to 16 k-points.

---------- Setting up k-points, bands, fillings ----------
Reduced to 4 k-points under symmetry. 
Computing the number of bands and number of electrons
Reading initial fillings from file NbTe2.fillings.
nElectrons: 164.000000   nBands: 208   nStates: 4

----- Setting up reduced wavefunction bases (one per k-point) -----
average nbasis = 41542.562 , ideal nbasis = 41540.690

---------- Setting up coulomb interaction ----------
Fluid mode embedding: using embedded box, but periodic Coulomb kernel.
(Fluid response is responsible for (approximate) separation between periodic images.)
Setting up double-sized grid for truncated Coulomb potentials:
R = 
[    16.2489   -8.12446          0  ]
[          0     14.072          0  ]
[          0          0    85.0522  ]
unit cell volume = 19447.5
G =
[   0.386684   0.223252         -0  ]
[          0   0.446503          0  ]
[          0         -0  0.0738745  ]
Chosen fftbox size, S = [  80  80  384  ]
Integer grid location selected as the embedding center:
   Grid: [  0  0  96  ]
   Lattice: [  0  0  0.5  ]
   Cartesian: [  0  0  21.263  ]
Constructing Wigner-Seitz cell: 8 faces (6 quadrilaterals, 2 hexagons)
Range-separation parameter for embedded mesh potentials due to point charges: 0.593728 bohrs.

Initializing van der Waals corrections
	NOTE: vdW corrections apply only for interactions with fluid.
	La:  C6:  815.23 Eh-a0^6  R0: 3.326 a0 (WARNING: beyond Grimme's data set)
	 P:  C6:  135.99 Eh-a0^6  R0: 3.222 a0
	 I:  C6:  546.38 Eh-a0^6  R0: 3.575 a0

---------- Setting up ewald sum ----------
Optimum gaussian width for ewald sums = 6.511684 bohr.
Real space sum over 845 unit cells with max indices [  6  6  2  ]
Reciprocal space sum over 5203 terms with max indices [  5  5  21  ]

---------- Allocating electronic variables ----------
Initializing wave functions:  reading from 'NbTe2.wfns'
----- createFluidSolver() ----- (Fluid-side solver setup)
   Initializing fluid molecule 'H2O'
     Initializing site 'O'
       Electron density: proportional to exp(-r/0.36935)*erfc((r-0.51523)/0.36823) with norm 6.826
       Charge density: gaussian nuclear width 0.478731 with net site charge 0.826
       Polarizability: cuspless exponential with width 0.32 and norm 3.73
       Hard sphere radius: 2.57003 bohrs
       Positions in reference frame:
         [ +0.000000 +0.000000 +0.000000 ]
     Initializing site 'H'
       Electron density: proportional to exp(-r/0.34641)*erfc((r-0)/0.390882) with norm 0.587
       Charge density: gaussian nuclear width 0.377945 with net site charge -0.413
       Polarizability: cuspless exponential with width 0.39 and norm 3.3
       Positions in reference frame:
         [ +0.000000 -1.441945 +1.122523 ]
         [ +0.000000 +1.441945 +1.122523 ]
     Net charge: 0   dipole magnitude: 0.927204
     Initializing spherical shell mfKernel with radius 2.61727 Bohr
     deltaS corrections:
       site 'O': -7.54299
       site 'H': -6.83917
   Initializing fluid molecule 'Na+'
     Initializing site 'Na'
       Electron density: proportional to exp(-r/0.19682)*erfc((r-0.71491)/0.41314) with norm 8.1383
       Charge density: gaussian nuclear width 0.365347 with net site charge -1
       Hard sphere radius: 1.86327 bohrs
       Positions in reference frame:
         [ +0.000000 +0.000000 +0.000000 ]
     Net charge: -1   dipole magnitude: 0
     Initializing gaussian mfKernel with width: 1.55004 Bohr
     deltaS corrections:
       site 'Na': -22.3555
   Initializing fluid molecule 'F-'
     Initializing site 'F'
       Electron density: proportional to exp(-r/0.38886)*erfc((r-0)/0.438782) with norm 8
       Charge density: gaussian nuclear width 0.374796 with net site charge 1
       Hard sphere radius: 2.39995 bohrs
       Positions in reference frame:
         [ +0.000000 +0.000000 +0.000000 ]
     Net charge: 1   dipole magnitude: 0
     Initializing gaussian mfKernel with width: 1.59012 Bohr
     deltaS corrections:
       site 'F': -9.04335

Correction to mu due to finite nuclear width = -0.00836717
   Cavity determined by nc: 0.00142 and sigma: 0.707107
   Nonlocal vdW cavity from gaussian model electron density with norm = 8 and sigma = 0.993594 bohr
   Charge asymmetry in cavity with sensitivity pCavity = 36.5 e-bohr/Eh
   Electrostatic cavity expanded by eta = 1.46 bohrs
   Weighted density cavitation model constrained by Nbulk: 0.0049383 bohr^-3, Pvap: 3.14029 kPa, Rvdw: 2.61727 bohr and sigmaBulk: 4.62e-05 Eh/bohr^2 at T: 298 K.
   Weighted density dispersion model using vdW pair potentials with single solvent site with sqrtC6eff: 0.77 SI.
Reading fluid state from 'NbTe2.fluidState'


---- Citations for features of the code used in this run ----

   Software package:
      R. Sundararaman, K. Letchworth-Weaver, K.A. Schwarz, D. Gunceler, Y. Ozhabes and T.A. Arias, 'JDFTx: software for joint density-functional theory', SoftwareX 6, 278 (2017)

   gga-PBE exchange-correlation functional:
      J.P. Perdew, K. Burke and M. Ernzerhof, Phys. Rev. Lett. 77, 3865 (1996)

   Pseudopotentials:
      KF Garrity, JW Bennett, KM Rabe and D Vanderbilt, Comput. Mater. Sci. 81, 446 (2014)

   Truncated Coulomb potentials:
      R. Sundararaman and T.A. Arias, Phys. Rev. B 87, 165122 (2013)

   Van der Waals correction pair-potentials:
      S. Grimme, J. Comput. Chem. 27, 1787 (2006)

   Charge-asymmetric nonlocally-determined local-electric (CANDLE) solvation model:
      R. Sundararaman and W.A. Goddard III, J. Chem. Phys. 142, 064107 (2015)

   Total energy minimization with Auxiliary Hamiltonian:
      C. Freysoldt, S. Boeck, and J. Neugebauer, Phys. Rev. B 79, 241103(R) (2009)

   Grand-canonical (fixed-potential) DFT:
      R. Sundararaman, W. A. Goddard III and T. A. Arias, J. Chem. Phys. 146, 114104 (2017)

This list may not be complete. Please suggest additional citations or
report any other bugs at https://github.com/shankar1729/jdftx/issues

Initialization completed successfully at t[s]:     21.15

Shifting auxilliary hamiltonian by -0.020629 to set nElectrons=164.000000
	Linear fluid (dielectric constant: 78.4, screening length: 5.74355 Bohr) occupying 0.705291 of unit cell:	Completed after 0 iterations at t[s]:     22.94

-------- Electronic minimization -----------
	Linear fluid (dielectric constant: 78.4, screening length: 5.74355 Bohr) occupying 0.705291 of unit cell:	Completed after 0 iterations at t[s]:     24.93
	FillingsUpdate:  mu: -0.171251800  nElectrons: 164.000000
ElecMinimize: Iter:   0  G: -347.550365348576236  |grad|_K:  3.251e-05  alpha:  1.000e+00
	Linear fluid (dielectric constant: 78.4, screening length: 5.74355 Bohr) occupying 0.705606 of unit cell:	Completed after 17 iterations at t[s]:     31.61
	Linear fluid (dielectric constant: 78.4, screening length: 5.74355 Bohr) occupying 0.705308 of unit cell:	Completed after 17 iterations at t[s]:     52.48
	FillingsUpdate:  mu: -0.171251800  nElectrons: 163.850664
	SubspaceRotationAdjust: set factor to 0.464
ElecMinimize: Iter:   1  G: -347.551367458202947  |grad|_K:  1.749e-05  alpha:  4.209e-02  linmin:  1.457e-02  t[s]:     72.47
	Linear fluid (dielectric constant: 78.4, screening length: 5.74355 Bohr) occupying 0.705375 of unit cell:	Completed after 11 iterations at t[s]:     93.30
ElecMinimize: 	Predicted alpha/alphaT>3.000000, increasing alphaT to 1.262763e-01.
	Linear fluid (dielectric constant: 78.4, screening length: 5.74355 Bohr) occupying 0.705510 of unit cell:	Completed after 12 iterations at t[s]:    108.00
	Linear fluid (dielectric constant: 78.4, screening length: 5.74355 Bohr) occupying 0.705525 of unit cell:	Completed after 9 iterations at t[s]:    120.99
	FillingsUpdate:  mu: -0.171251800  nElectrons: 163.878267
	SubspaceRotationAdjust: set factor to 0.207
ElecMinimize: Iter:   2  G: -347.552305357237628  |grad|_K:  1.011e-05  alpha:  1.354e-01  linmin:  2.647e-04  t[s]:    139.81
	Linear fluid (dielectric constant: 78.4, screening length: 5.74355 Bohr) occupying 0.705642 of unit cell:	Completed after 14 iterations at t[s]:    153.40
	Linear fluid (dielectric constant: 78.4, screening length: 5.74355 Bohr) occupying 0.705654 of unit cell:	Completed after 9 iterations at t[s]:    157.22
	FillingsUpdate:  mu: -0.171251800  nElectrons: 163.778148
	SubspaceRotationAdjust: set factor to 0.0893
	SubspaceRotationAdjust: resetting CG because factor has changed by 0.0893201
	Linear fluid (dielectric constant: 78.4, screening length: 5.74355 Bohr) occupying 0.705654 of unit cell:	Completed after 0 iterations at t[s]:    162.89
ElecMinimize: 	State modified externally: resetting search direction.
ElecMinimize: Iter:   3  G: -347.552832037187784  |grad|_K:  3.814e-06  alpha:  1.491e-01
	Linear fluid (dielectric constant: 78.4, screening length: 5.74355 Bohr) occupying 0.705674 of unit cell:	Completed after 12 iterations at t[s]:    170.60
	Linear fluid (dielectric constant: 78.4, screening length: 5.74355 Bohr) occupying 0.705712 of unit cell:	Completed after 11 iterations at t[s]:    175.11
	FillingsUpdate:  mu: -0.171251800  nElectrons: 163.805652
	SubspaceRotationAdjust: set factor to 0.0584
ElecMinimize: Iter:   4  G: -347.553047360286371  |grad|_K:  2.374e-06  alpha:  4.254e-01  linmin: -4.861e-04  t[s]:    178.99
	Linear fluid (dielectric constant: 78.4, screening length: 5.74355 Bohr) occupying 0.705791 of unit cell:	Completed after 8 iterations at t[s]:    182.79
ElecMinimize: 	Predicted alpha/alphaT>3.000000, increasing alphaT to 1.276131e+00.
	Linear fluid (dielectric constant: 78.4, screening length: 5.74355 Bohr) occupying 0.705949 of unit cell:	Completed after 10 iterations at t[s]:    186.76
	Linear fluid (dielectric constant: 78.4, screening length: 5.74355 Bohr) occupying 0.706071 of unit cell:	Completed after 10 iterations at t[s]:    190.65
	FillingsUpdate:  mu: -0.171251800  nElectrons: 163.733244
	SubspaceRotationAdjust: set factor to 0.0826
ElecMinimize: Iter:   5  G: -347.553429253589627  |grad|_K:  1.726e-06  alpha:  1.941e+00  linmin: -8.492e-05  t[s]:    194.35
	Linear fluid (dielectric constant: 78.4, screening length: 5.74355 Bohr) occupying 0.706426 of unit cell:	Completed after 11 iterations at t[s]:    198.20
	Linear fluid (dielectric constant: 78.4, screening length: 5.74355 Bohr) occupying 0.706293 of unit cell:	Completed after 11 iterations at t[s]:    202.34
	FillingsUpdate:  mu: -0.171251800  nElectrons: 163.705695
	SubspaceRotationAdjust: set factor to 0.0995
ElecMinimize: Iter:   6  G: -347.553554286425026  |grad|_K:  1.775e-06  alpha:  1.207e+00  linmin:  5.685e-07  t[s]:    205.88
	Linear fluid (dielectric constant: 78.4, screening length: 5.74355 Bohr) occupying 0.706572 of unit cell:	Completed after 12 iterations at t[s]:    209.84
	Linear fluid (dielectric constant: 78.4, screening length: 5.74355 Bohr) occupying 0.706530 of unit cell:	Completed after 5 iterations at t[s]:    213.51
	FillingsUpdate:  mu: -0.171251800  nElectrons: 163.694234
	SubspaceRotationAdjust: set factor to 0.107
ElecMinimize: Iter:   7  G: -347.553665933609523  |grad|_K:  1.427e-06  alpha:  1.023e+00  linmin: -3.371e-07  t[s]:    217.53
	Linear fluid (dielectric constant: 78.4, screening length: 5.74355 Bohr) occupying 0.706662 of unit cell:	Completed after 11 iterations at t[s]:    221.78
	Linear fluid (dielectric constant: 78.4, screening length: 5.74355 Bohr) occupying 0.706661 of unit cell:	Completed after 0 iterations at t[s]:    225.44
	FillingsUpdate:  mu: -0.171251800  nElectrons: 163.673769
	SubspaceRotationAdjust: set factor to 0.107
ElecMinimize: Iter:   8  G: -347.553737523233508  |grad|_K:  1.363e-06  alpha:  1.015e+00  linmin: -1.310e-05  t[s]:    228.86
	Linear fluid (dielectric constant: 78.4, screening length: 5.74355 Bohr) occupying 0.706765 of unit cell:	Completed after 11 iterations at t[s]:    232.80
	Linear fluid (dielectric constant: 78.4, screening length: 5.74355 Bohr) occupying 0.706730 of unit cell:	Completed after 10 iterations at t[s]:    236.81
	FillingsUpdate:  mu: -0.171251800  nElectrons: 163.674102
	SubspaceRotationAdjust: set factor to 0.0821
ElecMinimize: Iter:   9  G: -347.553780463986016  |grad|_K:  9.365e-07  alpha:  6.679e-01  linmin: -5.744e-06  t[s]:    240.51
	Linear fluid (dielectric constant: 78.4, screening length: 5.74355 Bohr) occupying 0.706766 of unit cell:	Completed after 11 iterations at t[s]:    244.50
	Linear fluid (dielectric constant: 78.4, screening length: 5.74355 Bohr) occupying 0.706761 of unit cell:	Completed after 3 iterations at t[s]:    248.02
	FillingsUpdate:  mu: -0.171251800  nElectrons: 163.663104
	SubspaceRotationAdjust: set factor to 0.0659
ElecMinimize: Iter:  10  G: -347.553797907136527  |grad|_K:  5.955e-07  alpha:  5.726e-01  linmin:  1.306e-04  t[s]:    251.71
	Linear fluid (dielectric constant: 78.4, screening length: 5.74355 Bohr) occupying 0.706782 of unit cell:	Completed after 7 iterations at t[s]:    255.84
	Linear fluid (dielectric constant: 78.4, screening length: 5.74355 Bohr) occupying 0.706797 of unit cell:	Completed after 3 iterations at t[s]:    259.83
	FillingsUpdate:  mu: -0.171251800  nElectrons: 163.662287
	SubspaceRotationAdjust: set factor to 0.0827
ElecMinimize: Iter:  11  G: -347.553809974777892  |grad|_K:  3.916e-07  alpha:  9.780e-01  linmin: -2.648e-04  t[s]:    263.40
	Linear fluid (dielectric constant: 78.4, screening length: 5.74355 Bohr) occupying 0.706821 of unit cell:	Completed after 7 iterations at t[s]:    266.98
	Linear fluid (dielectric constant: 78.4, screening length: 5.74355 Bohr) occupying 0.706812 of unit cell:	Completed after 2 iterations at t[s]:    270.47
	FillingsUpdate:  mu: -0.171251800  nElectrons: 163.662504
	SubspaceRotationAdjust: set factor to 0.0981
ElecMinimize: Iter:  12  G: -347.553813239260364  |grad|_K:  3.234e-07  alpha:  6.026e-01  linmin:  8.127e-06  t[s]:    274.07
	Linear fluid (dielectric constant: 78.4, screening length: 5.74355 Bohr) occupying 0.706826 of unit cell:	Completed after 8 iterations at t[s]:    277.76
	Linear fluid (dielectric constant: 78.4, screening length: 5.74355 Bohr) occupying 0.706831 of unit cell:	Completed after 3 iterations at t[s]:    281.25
	FillingsUpdate:  mu: -0.171251800  nElectrons: 163.660057
	SubspaceRotationAdjust: set factor to 0.0993
ElecMinimize: Iter:  13  G: -347.553816131208634  |grad|_K:  2.936e-07  alpha:  7.843e-01  linmin: -2.700e-04  t[s]:    285.01
	Linear fluid (dielectric constant: 78.4, screening length: 5.74355 Bohr) occupying 0.706851 of unit cell:	Completed after 7 iterations at t[s]:    288.62
	Linear fluid (dielectric constant: 78.4, screening length: 5.74355 Bohr) occupying 0.706849 of unit cell:	Completed after 0 iterations at t[s]:    292.06
	FillingsUpdate:  mu: -0.171251800  nElectrons: 163.661739
	SubspaceRotationAdjust: set factor to 0.116
ElecMinimize: Iter:  14  G: -347.553818414040393  |grad|_K:  2.570e-07  alpha:  7.136e-01  linmin:  7.071e-05  t[s]:    295.74
	Linear fluid (dielectric constant: 78.4, screening length: 5.74355 Bohr) occupying 0.706865 of unit cell:	Completed after 3 iterations at t[s]:    299.02
	Linear fluid (dielectric constant: 78.4, screening length: 5.74355 Bohr) occupying 0.706866 of unit cell:	Completed after 1 iterations at t[s]:    302.42
	FillingsUpdate:  mu: -0.171251800  nElectrons: 163.663164
	SubspaceRotationAdjust: set factor to 0.131
ElecMinimize: Iter:  15  G: -347.553820100457813  |grad|_K:  2.161e-07  alpha:  7.656e-01  linmin: -6.024e-06  t[s]:    306.00
	Linear fluid (dielectric constant: 78.4, screening length: 5.74355 Bohr) occupying 0.706879 of unit cell:	Completed after 2 iterations at t[s]:    309.16
	Linear fluid (dielectric constant: 78.4, screening length: 5.74355 Bohr) occupying 0.706878 of unit cell:	Completed after 0 iterations at t[s]:    312.24
	FillingsUpdate:  mu: -0.171251800  nElectrons: 163.662782
	SubspaceRotationAdjust: set factor to 0.135
ElecMinimize: Iter:  16  G: -347.553821293174565  |grad|_K:  1.332e-07  alpha:  7.347e-01  linmin:  1.148e-05  t[s]:    315.70
	Linear fluid (dielectric constant: 78.4, screening length: 5.74355 Bohr) occupying 0.706882 of unit cell:	Completed after 0 iterations at t[s]:    318.87
	Linear fluid (dielectric constant: 78.4, screening length: 5.74355 Bohr) occupying 0.706882 of unit cell:	Completed after 0 iterations at t[s]:    322.54
	FillingsUpdate:  mu: -0.171251800  nElectrons: 163.662937
	SubspaceRotationAdjust: set factor to 0.142
ElecMinimize: Iter:  17  G: -347.553821715900085  |grad|_K:  1.030e-07  alpha:  6.923e-01  linmin: -1.047e-05  t[s]:    325.97
	Linear fluid (dielectric constant: 78.4, screening length: 5.74355 Bohr) occupying 0.706884 of unit cell:	Completed after 2 iterations at t[s]:    329.32
	Linear fluid (dielectric constant: 78.4, screening length: 5.74355 Bohr) occupying 0.706884 of unit cell:	Completed after 0 iterations at t[s]:    332.62
	FillingsUpdate:  mu: -0.171251800  nElectrons: 163.663243
	SubspaceRotationAdjust: set factor to 0.153
ElecMinimize: Iter:  18  G: -347.553821916656432  |grad|_K:  5.989e-08  alpha:  5.560e-01  linmin: -5.017e-05  t[s]:    336.29
	Linear fluid (dielectric constant: 78.4, screening length: 5.74355 Bohr) occupying 0.706885 of unit cell:	Completed after 0 iterations at t[s]:    339.22
	Linear fluid (dielectric constant: 78.4, screening length: 5.74355 Bohr) occupying 0.706885 of unit cell:	Completed after 0 iterations at t[s]:    342.48
	FillingsUpdate:  mu: -0.171251800  nElectrons: 163.663405
	SubspaceRotationAdjust: set factor to 0.168
ElecMinimize: Iter:  19  G: -347.553821999703757  |grad|_K:  4.280e-08  alpha:  6.414e-01  linmin:  6.514e-08  t[s]:    346.01
	Linear fluid (dielectric constant: 78.4, screening length: 5.74355 Bohr) occupying 0.706885 of unit cell:	Completed after 0 iterations at t[s]:    349.06
	Linear fluid (dielectric constant: 78.4, screening length: 5.74355 Bohr) occupying 0.706886 of unit cell:	Completed after 0 iterations at t[s]:    352.60
	FillingsUpdate:  mu: -0.171251800  nElectrons: 163.663522
	SubspaceRotationAdjust: set factor to 0.193
ElecMinimize: Iter:  20  G: -347.553822041422336  |grad|_K:  3.249e-08  alpha:  6.573e-01  linmin: -5.250e-08  t[s]:    356.37
	Linear fluid (dielectric constant: 78.4, screening length: 5.74355 Bohr) occupying 0.706886 of unit cell:	Completed after 3 iterations at t[s]:    359.69
	Linear fluid (dielectric constant: 78.4, screening length: 5.74355 Bohr) occupying 0.706886 of unit cell:	Completed after 0 iterations at t[s]:    362.73
ElecMinimize: 	Step increased G by 1.771571e-08, reducing alpha to 2.192756e-02.
	Linear fluid (dielectric constant: 78.4, screening length: 5.74355 Bohr) occupying 0.706886 of unit cell:	Completed after 0 iterations at t[s]:    369.16
ElecMinimize: 	Step increased G by 2.258878e-08, reducing alpha to 2.192756e-03.
	Linear fluid (dielectric constant: 78.4, screening length: 5.74355 Bohr) occupying 0.706886 of unit cell:	Completed after 0 iterations at t[s]:    375.49
ElecMinimize: 	Step increased G by 2.334747e-08, reducing alpha to 2.192756e-04.
ElecMinimize: 	Step failed to reduce G after 3 attempts. Quitting step.
ElecMinimize: 	Undoing step.
	Linear fluid (dielectric constant: 78.4, screening length: 5.74355 Bohr) occupying 0.706886 of unit cell:	Completed after 0 iterations at t[s]:    381.64
ElecMinimize: 	Step failed: resetting search direction.
	FillingsUpdate:  mu: -0.171251800  nElectrons: 163.663522
	SubspaceRotationAdjust: set factor to 0.124
ElecMinimize: Iter:  21  G: -347.553822018061737  |grad|_K:  7.569e-08  alpha:  2.193e-04
	Linear fluid (dielectric constant: 78.4, screening length: 5.74355 Bohr) occupying 0.706885 of unit cell:	Completed after 7 iterations at t[s]:    389.16
	Linear fluid (dielectric constant: 78.4, screening length: 5.74355 Bohr) occupying 0.706885 of unit cell:	Completed after 3 iterations at t[s]:    392.72
	FillingsUpdate:  mu: -0.171251800  nElectrons: 163.663006
	SubspaceRotationAdjust: set factor to 0.0542
ElecMinimize: Iter:  22  G: -347.553822077476354  |grad|_K:  4.830e-08  alpha:  1.673e-01  linmin:  1.288e-03  t[s]:    396.51
	Linear fluid (dielectric constant: 78.4, screening length: 5.74355 Bohr) occupying 0.706886 of unit cell:	Completed after 0 iterations at t[s]:    399.54
ElecMinimize: 	Predicted alpha/alphaT>3.000000, increasing alphaT to 5.020188e-01.
	Linear fluid (dielectric constant: 78.4, screening length: 5.74355 Bohr) occupying 0.706886 of unit cell:	Completed after 0 iterations at t[s]:    402.73
	Linear fluid (dielectric constant: 78.4, screening length: 5.74355 Bohr) occupying 0.706886 of unit cell:	Completed after 0 iterations at t[s]:    405.99
	FillingsUpdate:  mu: -0.171251800  nElectrons: 163.663131
	SubspaceRotationAdjust: set factor to 0.045
ElecMinimize: Iter:  23  G: -347.553822093533086  |grad|_K:  3.433e-08  alpha:  4.302e-01  linmin: -8.572e-05  t[s]:    409.74
	Linear fluid (dielectric constant: 78.4, screening length: 5.74355 Bohr) occupying 0.706887 of unit cell:	Completed after 5 iterations at t[s]:    413.07
	Linear fluid (dielectric constant: 78.4, screening length: 5.74355 Bohr) occupying 0.706886 of unit cell:	Completed after 0 iterations at t[s]:    416.27
ElecMinimize: 	Step increased G by 3.296304e-08, reducing alpha to 8.334576e-03.
	Linear fluid (dielectric constant: 78.4, screening length: 5.74355 Bohr) occupying 0.706886 of unit cell:	Completed after 0 iterations at t[s]:    422.50
ElecMinimize: 	Step increased G by 2.752529e-08, reducing alpha to 8.334576e-04.
	Linear fluid (dielectric constant: 78.4, screening length: 5.74355 Bohr) occupying 0.706886 of unit cell:	Completed after 0 iterations at t[s]:    429.30
ElecMinimize: 	Step increased G by 2.697880e-08, reducing alpha to 8.334576e-05.
ElecMinimize: 	Step failed to reduce G after 3 attempts. Quitting step.
ElecMinimize: 	Undoing step.
	Linear fluid (dielectric constant: 78.4, screening length: 5.74355 Bohr) occupying 0.706886 of unit cell:	Completed after 0 iterations at t[s]:    435.96
ElecMinimize: 	Step failed: resetting search direction.
	FillingsUpdate:  mu: -0.171251800  nElectrons: 163.663131
	SubspaceRotationAdjust: set factor to 0.0281
ElecMinimize: Iter:  24  G: -347.553822066549913  |grad|_K:  4.184e-08  alpha:  8.335e-05
	Linear fluid (dielectric constant: 78.4, screening length: 5.74355 Bohr) occupying 0.706886 of unit cell:	Completed after 0 iterations at t[s]:    442.60
ElecMinimize: 	Predicted alpha/alphaT>3.000000, increasing alphaT to 1.290698e+00.
	Linear fluid (dielectric constant: 78.4, screening length: 5.74355 Bohr) occupying 0.706886 of unit cell:	Completed after 3 iterations at t[s]:    446.10
	Linear fluid (dielectric constant: 78.4, screening length: 5.74355 Bohr) occupying 0.706886 of unit cell:	Completed after 2 iterations at t[s]:    449.71
ElecMinimize: 	Step increased G by 1.133856e-08, reducing alpha to 3.619972e-02.
	Linear fluid (dielectric constant: 78.4, screening length: 5.74355 Bohr) occupying 0.706886 of unit cell:	Completed after 0 iterations at t[s]:    456.06
	FillingsUpdate:  mu: -0.171251800  nElectrons: 163.663104
	SubspaceRotationAdjust: set factor to 0.0149
ElecMinimize: Iter:  25  G: -347.553822072076684  |grad|_K:  3.014e-08  alpha:  3.620e-02  linmin:  7.732e-04  t[s]:    459.72
	Linear fluid (dielectric constant: 78.4, screening length: 5.74355 Bohr) occupying 0.706886 of unit cell:	Completed after 0 iterations at t[s]:    462.68
ElecMinimize: 	Predicted alpha/alphaT>3.000000, increasing alphaT to 1.085992e-01.
	Linear fluid (dielectric constant: 78.4, screening length: 5.74355 Bohr) occupying 0.706886 of unit cell:	Completed after 0 iterations at t[s]:    466.20
	Linear fluid (dielectric constant: 78.4, screening length: 5.74355 Bohr) occupying 0.706886 of unit cell:	Completed after 0 iterations at t[s]:    469.91
	FillingsUpdate:  mu: -0.171251800  nElectrons: 163.663081
	SubspaceRotationAdjust: set factor to 0.0164
ElecMinimize: Iter:  26  G: -347.553822078124711  |grad|_K:  2.122e-08  alpha:  2.793e-01  linmin:  1.590e-05  t[s]:    473.78
ElecMinimize: Converged (|Delta G|<1.000000e-08 for 2 iters).
Setting wave functions to eigenvectors of Hamiltonian

# Ionic positions in lattice coordinates:
ion La   0.166666666666667   0.333333333333332   0.571544298320630 0
ion La   0.666666666666667   0.333333333333332   0.571544298320630 0
ion La   0.166666666666667   0.833333333333332   0.571544298320630 0
ion La   0.666666666666667   0.833333333333332   0.571544298320630 0
ion La   0.333333333333333   0.166666666666665   0.428455701679365 0
ion La   0.833333333333333   0.166666666666665   0.428455701679365 0
ion La   0.333333333333333   0.666666666666665   0.428455701679365 0
ion La   0.833333333333333   0.666666666666665   0.428455701679365 0
ion P   1.000000000000000   0.999999999999999   0.499999999999997 0
ion P   0.500000000000000   0.999999999999999   0.499999999999997 0
ion P   1.000000000000000   0.499999999999999   0.499999999999997 0
ion P   0.500000000000000   0.499999999999999   0.499999999999997 0
ion I   0.333333333333333   0.166666666666665   0.666581790462644 0
ion I   0.833333333333333   0.166666666666665   0.666581790462644 0
ion I   0.333333333333333   0.666666666666665   0.666581790462644 0
ion I   0.833333333333333   0.666666666666665   0.666581790462644 0
ion I   0.166666666666667   0.333333333333332   0.333418209537351 0
ion I   0.666666666666667   0.333333333333332   0.333418209537351 0
ion I   0.166666666666667   0.833333333333332   0.333418209537351 0
ion I   0.666666666666667   0.833333333333332   0.333418209537351 0


# Forces in Lattice coordinates:
force La  -0.000000000000000  -0.000000000000000   0.160438115183345 0
force La   0.000000000000000  -0.000000000000000   0.160438115183345 0
force La   0.000000000000000   0.000000000000000   0.160438115183118 0
force La  -0.000000000000000  -0.000000000000000   0.160438115183345 0
force La  -0.000000000000000  -0.000000000000000  -0.160438115183800 0
force La  -0.000000000000000   0.000000000000000  -0.160438115183800 0
force La  -0.000000000000000  -0.000000000000000  -0.160438115183913 0
force La  -0.000000000000000   0.000000000000000  -0.160438115183800 0
force P   0.000000000000000   0.000000000000000  -0.000000000000000 0
force P   0.000000000000000  -0.000000000000000   0.000000000000000 0
force P  -0.000000000000000   0.000000000000000   0.000000000000000 0
force P   0.000000000000000  -0.000000000000000  -0.000000000000000 0
force I  -0.000000000000000   0.000000000000000   0.009634690581188 0
force I  -0.000000000000000  -0.000000000000000   0.009634690581074 0
force I  -0.000000000000000  -0.000000000000000   0.009634690581302 0
force I   0.000000000000000   0.000000000000000   0.009634690581074 0
force I   0.000000000000000  -0.000000000000000  -0.009634690581187 0
force I   0.000000000000000  -0.000000000000000  -0.009634690581301 0
force I  -0.000000000000000  -0.000000000000000  -0.009634690581187 0
force I   0.000000000000000   0.000000000000000  -0.009634690581528 0

# Energy components:
   A_diel =        0.0273010238352448
   Eewald =     3082.3006558221304658
       EH =     3387.2762448003286408
     Eloc =    -6900.6188956484802475
      Enl =       20.4148993925229121
      Exc =     -402.6879730335271006
 Exc_core =      329.4700258799055064
       KE =      108.2521322591819910
  MuShift =        0.0028190556735756
-------------------------------------
     Etot =     -375.5627904484290980
       TS =        0.0186289217137272
-------------------------------------
        F =     -375.5814193701428394
      muN =      -28.0275972920181431
-------------------------------------
        G =     -347.5538220781247105

IonicMinimize: Iter:   0  G: -347.553822078124711  |grad|_K:  0.000e+00  t[s]:    476.31
IonicMinimize: Converged (|grad|_K<1.000000e-04).

#--- Lowdin population analysis ---
# oxidation-state La -0.257 -0.257 -0.257 -0.257 -0.257 -0.257 -0.257 -0.257
# oxidation-state P +0.097 +0.097 +0.097 +0.097
# oxidation-state I +0.287 +0.287 +0.287 +0.287 +0.287 +0.287 +0.287 +0.287


Dumping 'NbTe2.fillings' ... done
Dumping 'NbTe2.wfns' ... done
Dumping 'NbTe2.fluidState' ... done
Dumping 'NbTe2.eigenvals' ... done
End date and time: Sun Jul 12 20:02:55 2020  (Duration: 0-0:07:57.70)
Done!
