
*************** JDFTx 1.5.0  ***************

Start date and time: Mon Jan 25 17:19:24 2021
Executable jdftx_gpu with command-line: -i Charged.in -o Charged.out
Running on hosts (process indices):  amax (0-6)
Divided in process groups (process indices):  0 (0)  1 (1)  2 (2)  3 (3)  4 (4)  5 (5)  6 (6)
gpuInit: Found compatible cuda device 0 'Tesla K80'
gpuInit: Found compatible cuda device 1 'Tesla K80'
gpuInit: Found compatible cuda device 2 'Tesla K80'
gpuInit: Found compatible cuda device 3 'Tesla K80'
gpuInit: Found compatible cuda device 4 'Tesla K80'
gpuInit: Found compatible cuda device 5 'Tesla K80'
gpuInit: Found compatible cuda device 6 'Tesla K80'
gpuInit: Selected device 0
Resource initialization completed at t[s]:      3.72
Run totals: 7 processes, 24 threads, 7 GPUs


Input parsed successfully to the following command list (including defaults):

basis kpoint-dependent
cache-projectors no
coords-type Lattice
core-overlap-check none
coulomb-interaction Slab 001
coulomb-truncation-embed 0.5 0.5 0.5
davidson-band-ratio 1.1
dump End State
dump-name NbTe2.$VAR
elec-cutoff 20
elec-eigen-algo Davidson
elec-ex-corr gga-PBE
elec-initial-charge 0.000000
elec-initial-magnetization 10.000000 no
elec-smearing Gauss 0.0073499
electronic-minimize  \
	dirUpdateScheme      FletcherReeves \
	linminMethod         DirUpdateRecommended \
	nIterations          200 \
	history              15 \
	knormThreshold       0 \
	energyDiffThreshold  1e-08 \
	nEnergyDiff          2 \
	alphaTstart          1 \
	alphaTmin            1e-10 \
	updateTestStepSize   yes \
	alphaTreduceFactor   0.1 \
	alphaTincreaseFactor 3 \
	nAlphaAdjustMax      3 \
	wolfeEnergy          0.0001 \
	wolfeGradient        0.9 \
	fdTest               no
exchange-regularization WignerSeitzTruncated
fluid LinearPCM 298.000000 1.013250
fluid-anion F- 1 MeanFieldLJ \
	epsBulk 1 \
	pMol 0 \
	epsInf 1 \
	Pvap 0 \
	sigmaBulk 0 \
	Rvdw 2.24877 \
	Res 0 \
	tauNuc 343133
fluid-cation Na+ 1 MeanFieldLJ \
	epsBulk 1 \
	pMol 0 \
	epsInf 1 \
	Pvap 0 \
	sigmaBulk 0 \
	Rvdw 2.19208 \
	Res 0 \
	tauNuc 343133
fluid-ex-corr lda-TF lda-PZ
fluid-gummel-loop 10 1.000000e-05
fluid-minimize  \
	dirUpdateScheme      PolakRibiere \
	linminMethod         DirUpdateRecommended \
	nIterations          400 \
	history              15 \
	knormThreshold       1e-11 \
	energyDiffThreshold  0 \
	nEnergyDiff          2 \
	alphaTstart          1 \
	alphaTmin            1e-10 \
	updateTestStepSize   yes \
	alphaTreduceFactor   0.1 \
	alphaTincreaseFactor 3 \
	nAlphaAdjustMax      6 \
	wolfeEnergy          0.0001 \
	wolfeGradient        0.9 \
	fdTest               no
fluid-solvent H2O 55.338 ScalarEOS \
	epsBulk 78.4 \
	pMol 0.92466 \
	epsInf 1.77 \
	Pvap 1.06736e-10 \
	sigmaBulk 4.62e-05 \
	Rvdw 2.61727 \
	Res 1.42 \
	tauNuc 343133 \
	poleEl 15 7 1
forces-output-coords Positions
initial-state NbTe2.$VAR
ion Ru   0.166669990000000   0.083330002000000   0.500000000000000 1
ion Ru   0.416670008000000   0.083330002000000   0.500000000000000 1
ion Ru   0.666669990000000   0.083330002000000   0.500000000000000 1
ion Ru   0.916670008000000   0.083330002000000   0.500000000000000 1
ion Ru   0.166670004000000   0.333330013000000   0.500000000000000 1
ion Ru   0.416670004000000   0.333330013000000   0.500000000000000 1
ion Ru   0.666670022000000   0.333330013000000   0.500000000000000 1
ion Ru   0.916670039000000   0.333330013000000   0.500000000000000 1
ion Ru   0.166669989000000   0.583329998000000   0.500000000000000 1
ion Ru   0.416669989000000   0.583329998000000   0.500000000000000 1
ion Ru   0.666670006000000   0.583329998000000   0.500000000000000 1
ion Ru   0.916669989000000   0.583329998000000   0.500000000000000 1
ion Ru   0.166670007000000   0.833329984000000   0.500000000000000 1
ion Ru   0.416670007000000   0.833329984000000   0.500000000000000 1
ion Ru   0.666670025000000   0.833329984000000   0.500000000000000 1
ion Ru   0.916670042000000   0.833329984000000   0.500000000000000 1
ion Se  -0.000000000000000  -0.000000000000000   0.583199973000000 1
ion Se  -0.000000000000000  -0.000000000000000   0.416800000000000 1
ion Se   0.250000000000000  -0.000000000000000   0.583199973000000 1
ion Se   0.250000000000000  -0.000000000000000   0.416800000000000 1
ion Se   0.500000000000000  -0.000000000000000   0.583199973000000 1
ion Se   0.500000000000000  -0.000000000000000   0.416800000000000 1
ion Se   0.749999983000000  -0.000000000000000   0.583199973000000 1
ion Se   0.749999983000000  -0.000000000000000   0.416800000000000 1
ion Se   0.000000003000000   0.250000006000000   0.583199973000000 1
ion Se   0.000000003000000   0.250000006000000   0.416800000000000 1
ion Se   0.250000003000000   0.250000006000000   0.583199973000000 1
ion Se   0.250000003000000   0.250000006000000   0.416800000000000 1
ion Se   0.499999994000000   0.250000006000000   0.583199973000000 1
ion Se   0.499999994000000   0.250000006000000   0.416800000000000 1
ion Se   0.750000011000000   0.250000006000000   0.583199973000000 1
ion Se   0.750000011000000   0.250000006000000   0.416800000000000 1
ion Se   0.000000006000000   0.500000011000000   0.583199973000000 1
ion Se   0.000000006000000   0.500000011000000   0.416800000000000 1
ion Se   0.250000006000000   0.500000011000000   0.583199973000000 1
ion Se   0.250000006000000   0.500000011000000   0.416800000000000 1
ion Se   0.500000006000000   0.500000011000000   0.583199973000000 1
ion Se   0.500000006000000   0.500000011000000   0.416800000000000 1
ion Se   0.749999971000000   0.500000011000000   0.583199973000000 1
ion Se   0.749999971000000   0.500000011000000   0.416800000000000 1
ion Se   0.000000007000000   0.749999997000000   0.583199973000000 1
ion Se   0.000000007000000   0.749999997000000   0.416800000000000 1
ion Se   0.250000007000000   0.749999997000000   0.583199973000000 1
ion Se   0.250000007000000   0.749999997000000   0.416800000000000 1
ion Se   0.500000007000000   0.749999997000000   0.583199973000000 1
ion Se   0.500000007000000   0.749999997000000   0.416800000000000 1
ion Se   0.749999990000000   0.749999997000000   0.583199973000000 1
ion Se   0.749999990000000   0.749999997000000   0.416800000000000 1
ion-species GBRV/$ID_pbe.uspp
ion-width Ecut
ionic-minimize  \
	dirUpdateScheme      L-BFGS \
	linminMethod         DirUpdateRecommended \
	nIterations          500 \
	history              15 \
	knormThreshold       0.0001 \
	energyDiffThreshold  1e-06 \
	nEnergyDiff          2 \
	alphaTstart          1 \
	alphaTmin            1e-10 \
	updateTestStepSize   yes \
	alphaTreduceFactor   0.1 \
	alphaTincreaseFactor 3 \
	nAlphaAdjustMax      3 \
	wolfeEnergy          0.0001 \
	wolfeGradient        0.9 \
	fdTest               no
kpoint   0.000000000000   0.000000000000   0.000000000000  1.00000000000000
kpoint-folding 3 3 1 
latt-move-scale 1 1 1
latt-scale 1.88973 1.88973 1.88973 
lattice Triclinic 13.7858 13.7858 18.1305 90 90 120
lattice-minimize  \
	dirUpdateScheme      L-BFGS \
	linminMethod         DirUpdateRecommended \
	nIterations          0 \
	history              15 \
	knormThreshold       0 \
	energyDiffThreshold  1e-06 \
	nEnergyDiff          2 \
	alphaTstart          1 \
	alphaTmin            1e-10 \
	updateTestStepSize   yes \
	alphaTreduceFactor   0.1 \
	alphaTincreaseFactor 3 \
	nAlphaAdjustMax      3 \
	wolfeEnergy          0.0001 \
	wolfeGradient        0.9 \
	fdTest               no
lcao-params -1 1e-06 0.0073499
pcm-variant CANDLE
spintype z-spin
subspace-rotation-factor 1 yes
symmetries automatic
symmetry-threshold 0.0001



---------- Setting up symmetries ----------

Found 24 point-group symmetries of the bravais lattice
Found 192 space-group symmetries with basis
Applied RMS atom displacement 7.10326e-05 bohrs to make symmetries exact.

---------- Initializing the Grid ----------
R = 
[    26.0514   -13.0257          0  ]
[          0    22.5612          0  ]
[          0          0    34.2617  ]
unit cell volume = 20137.3
G =
[   0.241184   0.139248         -0  ]
[          0   0.278496          0  ]
[          0         -0   0.183388  ]
Minimum fftbox size, Smin = [  108  108  140  ]
Chosen fftbox size, S = [  108  108  140  ]

---------- Exchange Correlation functional ----------
Initalized PBE GGA exchange.
Initalized PBE GGA correlation.

---------- Setting up pseudopotentials ----------
Width of ionic core gaussian charges (only for fluid interactions / plotting) set to 0.397384

Reading pseudopotential file '/home/guoxy/vasp/jdftx-1.5.0/build/pseudopotentials/GBRV/ru_pbe.uspp':
  Title: Ru.  Created by USPP 7.3.6 on 3-2-2014
  Reference state energy: -96.418175.  16 valence electrons in orbitals:
    |400>  occupation: 2  eigenvalue: -3.217242
    |410>  occupation: 6  eigenvalue: -2.111371
    |420>  occupation: 6  eigenvalue: -0.566023
    |500>  occupation: 1  eigenvalue: -0.432692
    |510>  occupation: 0  eigenvalue: -0.257307
  lMax: 2  lLocal: 3  QijEcut: 6
  6 projectors sampled on a log grid with 713 points:
    l: 0  eig: -0.432698  rCut: 1.5
    l: 0  eig: -3.217241  rCut: 1.5
    l: 1  eig: -2.111368  rCut: 1.6
    l: 1  eig: -0.257311  rCut: 1.6
    l: 2  eig: -0.566022  rCut: 1.75
    l: 2  eig: 0.000000  rCut: 1.75
  Partial core density with radius 1.1
  Transforming core density to a uniform radial grid of dG=0.02 with 1457 points.
  Transforming local potential to a uniform radial grid of dG=0.02 with 1457 points.
  Transforming nonlocal projectors to a uniform radial grid of dG=0.02 with 432 points.
  Transforming density augmentations to a uniform radial grid of dG=0.02 with 1457 points.
  Transforming atomic orbitals to a uniform radial grid of dG=0.02 with 432 points.
  Core radius for overlap checks: 1.75 bohrs.

Reading pseudopotential file '/home/guoxy/vasp/jdftx-1.5.0/build/pseudopotentials/GBRV/se_pbe.uspp':
  Title: Se.  Created by USPP 7.3.6 on 14-9-2013
  Reference state energy: -21.672887.  6 valence electrons in orbitals:
    |400>  occupation: 2  eigenvalue: -0.635284
    |410>  occupation: 4  eigenvalue: -0.239295
  lMax: 2  lLocal: 3  QijEcut: 5
  6 projectors sampled on a log grid with 625 points:
    l: 0  eig: -0.635278  rCut: 1.5
    l: 0  eig: 0.500000  rCut: 1.5
    l: 1  eig: -0.239295  rCut: 1.5
    l: 1  eig: 0.500000  rCut: 1.5
    l: 2  eig: 0.000000  rCut: 1.8
    l: 2  eig: 1.000000  rCut: 1.8
  Partial core density with radius 1.2
  Transforming core density to a uniform radial grid of dG=0.02 with 1457 points.
  Transforming local potential to a uniform radial grid of dG=0.02 with 1457 points.
  Transforming nonlocal projectors to a uniform radial grid of dG=0.02 with 432 points.
  Transforming density augmentations to a uniform radial grid of dG=0.02 with 1457 points.
  Transforming atomic orbitals to a uniform radial grid of dG=0.02 with 432 points.
  Core radius for overlap checks: 1.80 bohrs.

Initialized 2 species with 48 total atoms.

Folded 1 k-points by 3x3x1 to 9 k-points.

---------- Setting up k-points, bands, fillings ----------
Adding inversion symmetry to k-mesh for non-inversion-symmetric unit cell.
Reduced to 3 k-points under symmetry. 
Computing the number of bands and number of electrons
Calculating initial fillings.
nElectrons: 448.000000   nBands: 336   nStates: 6

----- Setting up reduced wavefunction bases (one per k-point) -----
average nbasis = 86045.667 , ideal nbasis = 86028.008

---------- Setting up coulomb interaction ----------
Fluid mode embedding: using embedded box, but periodic Coulomb kernel.
(Fluid response is responsible for (approximate) separation between periodic images.)
Setting up double-sized grid for truncated Coulomb potentials:
R = 
[    26.0514   -13.0257          0  ]
[          0    22.5612          0  ]
[          0          0    68.5234  ]
unit cell volume = 40274.6
G =
[   0.241184   0.139248         -0  ]
[          0   0.278496          0  ]
[          0         -0  0.0916941  ]
Chosen fftbox size, S = [  108  108  280  ]
Integer grid location selected as the embedding center:
   Grid: [  54  54  70  ]
   Lattice: [  0.5  0.5  0.5  ]
   Cartesian: [  6.51285  11.2806  17.1308  ]
Constructing Wigner-Seitz cell: 8 faces (6 quadrilaterals, 2 hexagons)
Range-separation parameter for embedded mesh potentials due to point charges: 0.624095 bohrs.

Initializing van der Waals corrections
	NOTE: vdW corrections apply only for interactions with fluid.
	Ru:  C6:  427.91 Eh-a0^6  R0: 3.097 a0
	Se:  C6:  219.24 Eh-a0^6  R0: 3.347 a0

---------- Setting up ewald sum ----------
Optimum gaussian width for ewald sums = 7.173209 bohr.
Real space sum over 605 unit cells with max indices [  5  5  2  ]
Reciprocal space sum over 7425 terms with max indices [  7  7  16  ]

---------- Allocating electronic variables ----------
Initializing wave functions:  linear combination of atomic orbitals
Ru pseudo-atom occupations:   s ( 2 0 )  p ( 6 0 )  d ( 8 )
Se pseudo-atom occupations:   s ( 2 )  p ( 4 )
	FillingsUpdate:  mu: +2.244027097  nElectrons: 448.000000  magneticMoment: [ Abs: 0.94789  Tot: +0.94611 ]
LCAOMinimize: Iter:   0  F: -1665.1822636924246126  |grad|_K:  1.988e-02  alpha:  1.000e+00
	FillingsUpdate:  mu: -0.575385575  nElectrons: 448.000000  magneticMoment: [ Abs: 8.44901  Tot: +8.44893 ]
LCAOMinimize: Iter:   1  F: -1789.2474404315023548  |grad|_K:  1.569e-02  alpha:  4.476e-01  linmin:  1.697e-01  cgtest: -5.620e-01  t[s]:    135.52
LCAOMinimize: 	Bad step direction: g.d > 0.
LCAOMinimize: 	Undoing step.
LCAOMinimize: 	Step failed: resetting search direction.
	FillingsUpdate:  mu: -0.575385575  nElectrons: 448.000000  magneticMoment: [ Abs: 8.44901  Tot: +8.44893 ]
LCAOMinimize: Iter:   2  F: -1789.2474404315023548  |grad|_K:  1.569e-02  alpha:  0.000e+00
	FillingsUpdate:  mu: -0.313725065  nElectrons: 448.000000  magneticMoment: [ Abs: 7.31999  Tot: +7.31989 ]
LCAOMinimize: Iter:   3  F: -1821.7178670058212901  |grad|_K:  7.424e-03  alpha:  1.961e-01  linmin: -3.089e-01  cgtest:  5.711e-01  t[s]:    203.12
LCAOMinimize: Encountered beta<0, resetting CG.
	FillingsUpdate:  mu: -0.109915361  nElectrons: 448.000000  magneticMoment: [ Abs: 4.95906  Tot: +4.95906 ]
LCAOMinimize: Iter:   4  F: -1824.7235714968969660  |grad|_K:  1.107e-03  alpha:  1.534e-01  linmin:  1.231e-01  cgtest: -2.052e-01  t[s]:    244.55
LCAOMinimize: 	Predicted alpha/alphaT>3.000000, increasing alphaT to 4.601366e-01.
	FillingsUpdate:  mu: -0.084406489  nElectrons: 448.000000  magneticMoment: [ Abs: 3.83250  Tot: +3.83141 ]
LCAOMinimize: Iter:   5  F: -1824.9745340189517719  |grad|_K:  4.333e-04  alpha:  6.732e-01  linmin:  1.875e-02  cgtest:  3.769e-01  t[s]:    297.96
	FillingsUpdate:  mu: -0.103502895  nElectrons: 448.000000  magneticMoment: [ Abs: 3.73715  Tot: +3.73611 ]
LCAOMinimize: Iter:   6  F: -1824.9837978989503426  |grad|_K:  9.089e-05  alpha:  1.469e-01  linmin:  1.210e-02  cgtest: -6.375e-02  t[s]:    338.13
LCAOMinimize: 	Predicted alpha/alphaT>3.000000, increasing alphaT to 4.408274e-01.
	FillingsUpdate:  mu: -0.103773802  nElectrons: 448.000000  magneticMoment: [ Abs: 2.89919  Tot: +2.89688 ]
LCAOMinimize: Iter:   7  F: -1824.9859336507938679  |grad|_K:  4.166e-05  alpha:  7.645e-01  linmin: -6.105e-03  cgtest:  1.359e-01  t[s]:    393.04
	FillingsUpdate:  mu: -0.100125014  nElectrons: 448.000000  magneticMoment: [ Abs: 2.22436  Tot: +2.22093 ]
LCAOMinimize: Iter:   8  F: -1824.9863484526783850  |grad|_K:  7.138e-05  alpha:  6.950e-01  linmin: -1.365e-03  cgtest: -1.539e-02  t[s]:    433.71
	FillingsUpdate:  mu: -0.102596456  nElectrons: 448.000000  magneticMoment: [ Abs: 0.54708  Tot: +0.53118 ]
LCAOMinimize: Iter:   9  F: -1824.9872177157380975  |grad|_K:  2.264e-05  alpha:  4.878e-01  linmin:  2.050e-03  cgtest: -1.162e-01  t[s]:    474.32
	FillingsUpdate:  mu: -0.102901115  nElectrons: 448.000000  magneticMoment: [ Abs: 0.03595  Tot: -0.02030 ]
LCAOMinimize: Iter:  10  F: -1824.9873755773762696  |grad|_K:  4.289e-06  alpha:  9.079e-01  linmin: -1.305e-04  cgtest:  1.049e-01  t[s]:    515.32
	FillingsUpdate:  mu: -0.102595409  nElectrons: 448.000000  magneticMoment: [ Abs: 0.01984  Tot: -0.01806 ]
LCAOMinimize: Iter:  11  F: -1824.9873797246755203  |grad|_K:  5.099e-06  alpha:  6.620e-01  linmin: -5.501e-05  cgtest: -4.987e-04  t[s]:    555.64
	FillingsUpdate:  mu: -0.102774567  nElectrons: 448.000000  magneticMoment: [ Abs: 0.01563  Tot: -0.01522 ]
LCAOMinimize: Iter:  12  F: -1824.9873816914775944  |grad|_K:  6.111e-07  alpha:  2.219e-01  linmin: -7.162e-04  cgtest: -1.086e-03  t[s]:    596.72
LCAOMinimize: 	Predicted alpha/alphaT>3.000000, increasing alphaT to 6.656724e-01.
	FillingsUpdate:  mu: -0.102788853  nElectrons: 448.000000  magneticMoment: [ Abs: 0.01136  Tot: -0.01093 ]
LCAOMinimize: Iter:  13  F: -1824.9873818047576606  |grad|_K:  1.668e-07  alpha:  8.904e-01  linmin:  4.624e-04  cgtest: -4.461e-03  t[s]:    650.41
	FillingsUpdate:  mu: -0.102781258  nElectrons: 448.000000  magneticMoment: [ Abs: 0.00837  Tot: -0.00762 ]
LCAOMinimize: Iter:  14  F: -1824.9873818149453655  |grad|_K:  1.553e-07  alpha:  1.085e+00  linmin:  2.083e-03  cgtest: -6.184e-03  t[s]:    690.87
LCAOMinimize: Converged (|Delta F|<1.000000e-06 for 2 iters).
----- createFluidSolver() ----- (Fluid-side solver setup)
   Initializing fluid molecule 'H2O'
     Initializing site 'O'
       Electron density: proportional to exp(-r/0.36935)*erfc((r-0.51523)/0.36823) with norm 6.826
       Charge density: gaussian nuclear width 0.478731 with net site charge 0.826
       Polarizability: cuspless exponential with width 0.32 and norm 3.73
       Hard sphere radius: 2.57003 bohrs
       Positions in reference frame:
         [ +0.000000 +0.000000 +0.000000 ]
     Initializing site 'H'
       Electron density: proportional to exp(-r/0.34641)*erfc((r-0)/0.390882) with norm 0.587
       Charge density: gaussian nuclear width 0.377945 with net site charge -0.413
       Polarizability: cuspless exponential with width 0.39 and norm 3.3
       Positions in reference frame:
         [ +0.000000 -1.441945 +1.122523 ]
         [ +0.000000 +1.441945 +1.122523 ]
     Net charge: 0   dipole magnitude: 0.927204
     Initializing spherical shell mfKernel with radius 2.61727 Bohr
     deltaS corrections:
       site 'O': -7.54299
       site 'H': -6.83917
   Initializing fluid molecule 'Na+'
     Initializing site 'Na'
       Electron density: proportional to exp(-r/0.19682)*erfc((r-0.71491)/0.41314) with norm 8.1383
       Charge density: gaussian nuclear width 0.365347 with net site charge -1
       Hard sphere radius: 1.86327 bohrs
       Positions in reference frame:
         [ +0.000000 +0.000000 +0.000000 ]
     Net charge: -1   dipole magnitude: 0
     Initializing gaussian mfKernel with width: 1.55004 Bohr
     deltaS corrections:
       site 'Na': -22.3555
   Initializing fluid molecule 'F-'
     Initializing site 'F'
       Electron density: proportional to exp(-r/0.38886)*erfc((r-0)/0.438782) with norm 8
       Charge density: gaussian nuclear width 0.374796 with net site charge 1
       Hard sphere radius: 2.39995 bohrs
       Positions in reference frame:
         [ +0.000000 +0.000000 +0.000000 ]
     Net charge: 1   dipole magnitude: 0
     Initializing gaussian mfKernel with width: 1.59012 Bohr
     deltaS corrections:
       site 'F': -9.04335

Correction to mu due to finite nuclear width = -0.0110369
   Cavity determined by nc: 0.00142 and sigma: 0.707107
   Nonlocal vdW cavity from gaussian model electron density with norm = 8 and sigma = 0.993594 bohr
   Charge asymmetry in cavity with sensitivity pCavity = 36.5 e-bohr/Eh
   Electrostatic cavity expanded by eta = 1.46 bohrs
   Weighted density cavitation model constrained by Nbulk: 0.0049383 bohr^-3, Pvap: 3.14029 kPa, Rvdw: 2.61727 bohr and sigmaBulk: 4.62e-05 Eh/bohr^2 at T: 298 K.
   Weighted density dispersion model using vdW pair potentials with single solvent site with sqrtC6eff: 0.77 SI.


---- Citations for features of the code used in this run ----

   Software package:
      R. Sundararaman, K. Letchworth-Weaver, K.A. Schwarz, D. Gunceler, Y. Ozhabes and T.A. Arias, 'JDFTx: software for joint density-functional theory', SoftwareX 6, 278 (2017)

   gga-PBE exchange-correlation functional:
      J.P. Perdew, K. Burke and M. Ernzerhof, Phys. Rev. Lett. 77, 3865 (1996)

   Pseudopotentials:
      KF Garrity, JW Bennett, KM Rabe and D Vanderbilt, Comput. Mater. Sci. 81, 446 (2014)

   Truncated Coulomb potentials:
      R. Sundararaman and T.A. Arias, Phys. Rev. B 87, 165122 (2013)

   Van der Waals correction pair-potentials:
      S. Grimme, J. Comput. Chem. 27, 1787 (2006)

   Charge-asymmetric nonlocally-determined local-electric (CANDLE) solvation model:
      R. Sundararaman and W.A. Goddard III, J. Chem. Phys. 142, 064107 (2015)

   Total energy minimization with Auxiliary Hamiltonian:
      C. Freysoldt, S. Boeck, and J. Neugebauer, Phys. Rev. B 79, 241103(R) (2009)

This list may not be complete. Please suggest additional citations or
report any other bugs at https://github.com/shankar1729/jdftx/issues

Initialization completed successfully at t[s]:    697.84

Fluid solver invoked on fresh (partially random / LCAO) wavefunctions
Running a vacuum solve first:

-------- Initial electronic minimization -----------
	FillingsUpdate:  mu: -0.102781258  nElectrons: 448.000000  magneticMoment: [ Abs: 0.00837  Tot: -0.00762 ]
ElecMinimize: Iter:   0  F: -1824.987381814966511  |grad|_K:  1.045e-04  alpha:  1.000e+00
	FillingsUpdate:  mu: -0.095565017  nElectrons: 448.000000  magneticMoment: [ Abs: 0.00703  Tot: -0.00657 ]
	SubspaceRotationAdjust: set factor to 1
ElecMinimize: Iter:   1  F: -1826.221994819054771  |grad|_K:  7.582e-05  alpha:  6.477e-01  linmin:  2.422e-06  t[s]:    787.83
	FillingsUpdate:  mu: -0.016866472  nElectrons: 448.000000  magneticMoment: [ Abs: 0.00595  Tot: -0.00556 ]
	SubspaceRotationAdjust: set factor to 0.68
ElecMinimize: Iter:   2  F: -1826.493583622536107  |grad|_K:  5.471e-05  alpha:  2.708e-01  linmin: -5.915e-06  t[s]:    843.45
	FillingsUpdate:  mu: -0.069396474  nElectrons: 448.000000  magneticMoment: [ Abs: 0.00510  Tot: -0.00486 ]
	SubspaceRotationAdjust: set factor to 0.473
ElecMinimize: Iter:   3  F: -1826.690015188445386  |grad|_K:  2.523e-05  alpha:  3.758e-01  linmin: -1.317e-05  t[s]:    897.88
	FillingsUpdate:  mu: -0.077635010  nElectrons: 448.000000  magneticMoment: [ Abs: 0.00410  Tot: -0.00395 ]
	SubspaceRotationAdjust: set factor to 0.625
ElecMinimize: Iter:   4  F: -1826.760577721517166  |grad|_K:  1.544e-05  alpha:  6.372e-01  linmin:  6.749e-05  t[s]:    953.28
	FillingsUpdate:  mu: -0.063584435  nElectrons: 448.000000  magneticMoment: [ Abs: 0.00354  Tot: -0.00341 ]
	SubspaceRotationAdjust: set factor to 0.517
ElecMinimize: Iter:   5  F: -1826.779640728482491  |grad|_K:  1.109e-05  alpha:  4.663e-01  linmin: -1.013e-06  t[s]:   1008.40
	FillingsUpdate:  mu: -0.074285452  nElectrons: 448.000000  magneticMoment: [ Abs: 0.00293  Tot: -0.00284 ]
	SubspaceRotationAdjust: set factor to 0.412
ElecMinimize: Iter:   6  F: -1826.790828052412735  |grad|_K:  6.608e-06  alpha:  5.242e-01  linmin:  3.261e-05  t[s]:   1063.75
	FillingsUpdate:  mu: -0.069722454  nElectrons: 448.000000  magneticMoment: [ Abs: 0.00243  Tot: -0.00237 ]
	SubspaceRotationAdjust: set factor to 0.409
ElecMinimize: Iter:   7  F: -1826.794993382251278  |grad|_K:  4.326e-06  alpha:  5.567e-01  linmin:  3.204e-06  t[s]:   1119.19
	FillingsUpdate:  mu: -0.070996417  nElectrons: 448.000000  magneticMoment: [ Abs: 0.00203  Tot: -0.00199 ]
	SubspaceRotationAdjust: set factor to 0.461
ElecMinimize: Iter:   8  F: -1826.796851945374101  |grad|_K:  2.572e-06  alpha:  5.729e-01  linmin:  3.207e-06  t[s]:   1174.42
	FillingsUpdate:  mu: -0.072485564  nElectrons: 448.000000  magneticMoment: [ Abs: 0.00171  Tot: -0.00169 ]
	SubspaceRotationAdjust: set factor to 0.494
ElecMinimize: Iter:   9  F: -1826.797589467383432  |grad|_K:  1.872e-06  alpha:  6.430e-01  linmin:  2.807e-06  t[s]:   1229.42
	FillingsUpdate:  mu: -0.071816659  nElectrons: 448.000000  magneticMoment: [ Abs: 0.00142  Tot: -0.00140 ]
	SubspaceRotationAdjust: set factor to 0.498
ElecMinimize: Iter:  10  F: -1826.797946456789987  |grad|_K:  1.283e-06  alpha:  5.874e-01  linmin:  1.348e-06  t[s]:   1284.47
	FillingsUpdate:  mu: -0.072728249  nElectrons: 448.000000  magneticMoment: [ Abs: 0.00117  Tot: -0.00115 ]
	SubspaceRotationAdjust: set factor to 0.491
ElecMinimize: Iter:  11  F: -1826.798109879264757  |grad|_K:  9.173e-07  alpha:  5.717e-01  linmin:  2.704e-06  t[s]:   1340.09
	FillingsUpdate:  mu: -0.072212684  nElectrons: 448.000000  magneticMoment: [ Abs: 0.00094  Tot: -0.00092 ]
	SubspaceRotationAdjust: set factor to 0.472
ElecMinimize: Iter:  12  F: -1826.798194834911101  |grad|_K:  6.480e-07  alpha:  5.820e-01  linmin:  2.631e-06  t[s]:   1395.12
	FillingsUpdate:  mu: -0.072675767  nElectrons: 448.000000  magneticMoment: [ Abs: 0.00073  Tot: -0.00072 ]
	SubspaceRotationAdjust: set factor to 0.469
ElecMinimize: Iter:  13  F: -1826.798240125593338  |grad|_K:  4.663e-07  alpha:  6.223e-01  linmin:  2.362e-06  t[s]:   1450.65
	FillingsUpdate:  mu: -0.072611981  nElectrons: 448.000000  magneticMoment: [ Abs: 0.00055  Tot: -0.00055 ]
	SubspaceRotationAdjust: set factor to 0.529
ElecMinimize: Iter:  14  F: -1826.798263932232430  |grad|_K:  3.327e-07  alpha:  6.317e-01  linmin:  1.306e-06  t[s]:   1506.15
	FillingsUpdate:  mu: -0.072478034  nElectrons: 448.000000  magneticMoment: [ Abs: 0.00041  Tot: -0.00040 ]
	SubspaceRotationAdjust: set factor to 0.57
ElecMinimize: Iter:  15  F: -1826.798276870129484  |grad|_K:  2.578e-07  alpha:  6.738e-01  linmin:  9.258e-07  t[s]:   1561.55
	FillingsUpdate:  mu: -0.072647033  nElectrons: 448.000000  magneticMoment: [ Abs: 0.00029  Tot: -0.00028 ]
	SubspaceRotationAdjust: set factor to 0.557
ElecMinimize: Iter:  16  F: -1826.798284061964068  |grad|_K:  2.071e-07  alpha:  6.236e-01  linmin:  3.487e-07  t[s]:   1616.61
	FillingsUpdate:  mu: -0.072476811  nElectrons: 448.000000  magneticMoment: [ Abs: 0.00019  Tot: -0.00019 ]
	SubspaceRotationAdjust: set factor to 0.517
ElecMinimize: Iter:  17  F: -1826.798288251075064  |grad|_K:  1.606e-07  alpha:  5.621e-01  linmin:  4.739e-07  t[s]:   1671.69
	FillingsUpdate:  mu: -0.072564270  nElectrons: 448.000000  magneticMoment: [ Abs: 0.00011  Tot: -0.00011 ]
	SubspaceRotationAdjust: set factor to 0.498
ElecMinimize: Iter:  18  F: -1826.798290817826683  |grad|_K:  1.187e-07  alpha:  5.739e-01  linmin:  2.997e-07  t[s]:   1727.28
	FillingsUpdate:  mu: -0.072503581  nElectrons: 448.000000  magneticMoment: [ Abs: 0.00006  Tot: -0.00005 ]
	SubspaceRotationAdjust: set factor to 0.536
ElecMinimize: Iter:  19  F: -1826.798292340279204  |grad|_K:  8.804e-08  alpha:  6.230e-01  linmin:  5.351e-07  t[s]:   1782.60
	FillingsUpdate:  mu: -0.072502174  nElectrons: 448.000000  magneticMoment: [ Abs: 0.00002  Tot: -0.00002 ]
	SubspaceRotationAdjust: set factor to 0.63
ElecMinimize: Iter:  20  F: -1826.798293194469807  |grad|_K:  6.614e-08  alpha:  6.357e-01  linmin:  3.412e-07  t[s]:   1838.34
	FillingsUpdate:  mu: -0.072535587  nElectrons: 448.000000  magneticMoment: [ Abs: 0.00001  Tot: +0.00000 ]
	SubspaceRotationAdjust: set factor to 0.681
ElecMinimize: Iter:  21  F: -1826.798293643732222  |grad|_K:  5.115e-08  alpha:  5.918e-01  linmin:  2.350e-07  t[s]:   1893.50
	FillingsUpdate:  mu: -0.072494703  nElectrons: 448.000000  magneticMoment: [ Abs: 0.00001  Tot: +0.00001 ]
	SubspaceRotationAdjust: set factor to 0.607
ElecMinimize: Iter:  22  F: -1826.798293871450596  |grad|_K:  3.844e-08  alpha:  5.012e-01  linmin:  6.886e-08  t[s]:   1948.88
	FillingsUpdate:  mu: -0.072527562  nElectrons: 448.000000  magneticMoment: [ Abs: 0.00002  Tot: +0.00002 ]
	SubspaceRotationAdjust: set factor to 0.528
ElecMinimize: Iter:  23  F: -1826.798293987484840  |grad|_K:  2.623e-08  alpha:  4.520e-01  linmin:  1.006e-07  t[s]:   2003.96
	FillingsUpdate:  mu: -0.072517558  nElectrons: 448.000000  magneticMoment: [ Abs: 0.00002  Tot: +0.00002 ]
	SubspaceRotationAdjust: set factor to 0.548
ElecMinimize: Iter:  24  F: -1826.798294050543518  |grad|_K:  1.786e-08  alpha:  5.283e-01  linmin:  7.349e-08  t[s]:   2059.48
	FillingsUpdate:  mu: -0.072517863  nElectrons: 448.000000  magneticMoment: [ Abs: 0.00002  Tot: +0.00002 ]
	SubspaceRotationAdjust: set factor to 0.639
ElecMinimize: Iter:  25  F: -1826.798294083630935  |grad|_K:  1.293e-08  alpha:  5.978e-01  linmin:  8.329e-08  t[s]:   2114.20
	FillingsUpdate:  mu: -0.072523875  nElectrons: 448.000000  magneticMoment: [ Abs: 0.00002  Tot: +0.00001 ]
	SubspaceRotationAdjust: set factor to 0.708
ElecMinimize: Iter:  26  F: -1826.798294100143266  |grad|_K:  9.805e-09  alpha:  5.698e-01  linmin:  1.082e-07  t[s]:   2169.76
	FillingsUpdate:  mu: -0.072515646  nElectrons: 448.000000  magneticMoment: [ Abs: 0.00001  Tot: +0.00001 ]
	SubspaceRotationAdjust: set factor to 0.664
ElecMinimize: Iter:  27  F: -1826.798294108413529  |grad|_K:  7.654e-09  alpha:  4.956e-01  linmin:  2.740e-08  t[s]:   2224.25
	FillingsUpdate:  mu: -0.072521408  nElectrons: 448.000000  magneticMoment: [ Abs: 0.00001  Tot: +0.00001 ]
	SubspaceRotationAdjust: set factor to 0.569
ElecMinimize: Iter:  28  F: -1826.798294112809799  |grad|_K:  5.079e-09  alpha:  4.310e-01  linmin: -1.835e-08  t[s]:   2280.33
ElecMinimize: Converged (|Delta F|<1.000000e-08 for 2 iters).
Setting wave functions to eigenvectors of Hamiltonian
Vacuum energy after initial minimize, F = -1826.798294112809799

	Linear fluid (dielectric constant: 78.4, screening length: 5.74355 Bohr) occupying 0.752957 of unit cell:	Completed after 14 iterations at t[s]:   2294.43

-------- Electronic minimization -----------
	Linear fluid (dielectric constant: 78.4, screening length: 5.74355 Bohr) occupying 0.752957 of unit cell:	Completed after 0 iterations at t[s]:   2311.62
	FillingsUpdate:  mu: -0.156857011  nElectrons: 448.000000  magneticMoment: [ Abs: 0.00001  Tot: +0.00001 ]
ElecMinimize: Iter:   0  F: -1826.787566131423546  |grad|_K:  9.182e-07  alpha:  1.000e+00
	Linear fluid (dielectric constant: 78.4, screening length: 5.74355 Bohr) occupying 0.753461 of unit cell:	Completed after 8 iterations at t[s]:   2356.75
	Linear fluid (dielectric constant: 78.4, screening length: 5.74355 Bohr) occupying 0.753583 of unit cell:	Completed after 5 iterations at t[s]:   2379.41
	FillingsUpdate:  mu: -0.154679111  nElectrons: 448.000000  magneticMoment: [ Abs: 0.00002  Tot: +0.00001 ]
	SubspaceRotationAdjust: set factor to 0.419
ElecMinimize: Iter:   1  F: -1826.787750354274749  |grad|_K:  6.832e-07  alpha:  1.249e+00  linmin: -4.245e-06  t[s]:   2405.84
	Linear fluid (dielectric constant: 78.4, screening length: 5.74355 Bohr) occupying 0.753936 of unit cell:	Completed after 8 iterations at t[s]:   2423.35
	Linear fluid (dielectric constant: 78.4, screening length: 5.74355 Bohr) occupying 0.753666 of unit cell:	Completed after 8 iterations at t[s]:   2446.07
	FillingsUpdate:  mu: -0.155424985  nElectrons: 448.000000  magneticMoment: [ Abs: 0.00003  Tot: +0.00000 ]
	SubspaceRotationAdjust: set factor to 0.256
ElecMinimize: Iter:   2  F: -1826.787773672510639  |grad|_K:  2.918e-07  alpha:  2.873e-01  linmin:  1.590e-06  t[s]:   2473.74
	Linear fluid (dielectric constant: 78.4, screening length: 5.74355 Bohr) occupying 0.753686 of unit cell:	Completed after 2 iterations at t[s]:   2490.48
	Linear fluid (dielectric constant: 78.4, screening length: 5.74355 Bohr) occupying 0.753702 of unit cell:	Completed after 2 iterations at t[s]:   2510.78
	FillingsUpdate:  mu: -0.155403364  nElectrons: 448.000000  magneticMoment: [ Abs: 0.00003  Tot: +0.00000 ]
	SubspaceRotationAdjust: set factor to 0.321
ElecMinimize: Iter:   3  F: -1826.787781513472282  |grad|_K:  1.514e-07  alpha:  5.225e-01  linmin: -6.899e-06  t[s]:   2536.63
	Linear fluid (dielectric constant: 78.4, screening length: 5.74355 Bohr) occupying 0.753716 of unit cell:	Completed after 2 iterations at t[s]:   2553.31
	Linear fluid (dielectric constant: 78.4, screening length: 5.74355 Bohr) occupying 0.753723 of unit cell:	Completed after 2 iterations at t[s]:   2574.19
	FillingsUpdate:  mu: -0.155381210  nElectrons: 448.000000  magneticMoment: [ Abs: 0.00002  Tot: +0.00000 ]
	SubspaceRotationAdjust: set factor to 0.334
ElecMinimize: Iter:   4  F: -1826.787784762822412  |grad|_K:  1.007e-07  alpha:  7.811e-01  linmin: -1.993e-06  t[s]:   2600.19
	Linear fluid (dielectric constant: 78.4, screening length: 5.74355 Bohr) occupying 0.753735 of unit cell:	Completed after 2 iterations at t[s]:   2616.67
	Linear fluid (dielectric constant: 78.4, screening length: 5.74355 Bohr) occupying 0.753734 of unit cell:	Completed after 0 iterations at t[s]:   2636.56
	FillingsUpdate:  mu: -0.155342459  nElectrons: 448.000000  magneticMoment: [ Abs: 0.00002  Tot: +0.00000 ]
	SubspaceRotationAdjust: set factor to 0.348
ElecMinimize: Iter:   5  F: -1826.787785978031479  |grad|_K:  7.024e-08  alpha:  6.825e-01  linmin: -8.688e-07  t[s]:   2661.75
	Linear fluid (dielectric constant: 78.4, screening length: 5.74355 Bohr) occupying 0.753738 of unit cell:	Completed after 2 iterations at t[s]:   2678.46
	Linear fluid (dielectric constant: 78.4, screening length: 5.74355 Bohr) occupying 0.753737 of unit cell:	Completed after 0 iterations at t[s]:   2698.72
	FillingsUpdate:  mu: -0.155369224  nElectrons: 448.000000  magneticMoment: [ Abs: 0.00001  Tot: +0.00000 ]
	SubspaceRotationAdjust: set factor to 0.356
ElecMinimize: Iter:   6  F: -1826.787786445943993  |grad|_K:  4.391e-08  alpha:  5.442e-01  linmin:  3.475e-06  t[s]:   2723.96
	Linear fluid (dielectric constant: 78.4, screening length: 5.74355 Bohr) occupying 0.753738 of unit cell:	Completed after 0 iterations at t[s]:   2739.81
	Linear fluid (dielectric constant: 78.4, screening length: 5.74355 Bohr) occupying 0.753738 of unit cell:	Completed after 0 iterations at t[s]:   2759.18
	FillingsUpdate:  mu: -0.155369362  nElectrons: 448.000000  magneticMoment: [ Abs: 0.00001  Tot: +0.00000 ]
	SubspaceRotationAdjust: set factor to 0.419
ElecMinimize: Iter:   7  F: -1826.787786675383586  |grad|_K:  2.952e-08  alpha:  6.951e-01  linmin:  2.324e-07  t[s]:   2784.63
	Linear fluid (dielectric constant: 78.4, screening length: 5.74355 Bohr) occupying 0.753737 of unit cell:	Completed after 0 iterations at t[s]:   2801.02
	Linear fluid (dielectric constant: 78.4, screening length: 5.74355 Bohr) occupying 0.753737 of unit cell:	Completed after 0 iterations at t[s]:   2820.32
	FillingsUpdate:  mu: -0.155367667  nElectrons: 448.000000  magneticMoment: [ Abs: 0.00001  Tot: +0.00000 ]
	SubspaceRotationAdjust: set factor to 0.507
ElecMinimize: Iter:   8  F: -1826.787786748008102  |grad|_K:  1.888e-08  alpha:  5.182e-01  linmin: -1.315e-05  t[s]:   2845.43
	Linear fluid (dielectric constant: 78.4, screening length: 5.74355 Bohr) occupying 0.753736 of unit cell:	Completed after 0 iterations at t[s]:   2861.72
	Linear fluid (dielectric constant: 78.4, screening length: 5.74355 Bohr) occupying 0.753736 of unit cell:	Completed after 0 iterations at t[s]:   2881.46
	FillingsUpdate:  mu: -0.155368120  nElectrons: 448.000000  magneticMoment: [ Abs: 0.00001  Tot: +0.00000 ]
	SubspaceRotationAdjust: set factor to 0.598
ElecMinimize: Iter:   9  F: -1826.787786791977396  |grad|_K:  1.368e-08  alpha:  6.542e-01  linmin:  3.151e-07  t[s]:   2907.16
	Linear fluid (dielectric constant: 78.4, screening length: 5.74355 Bohr) occupying 0.753734 of unit cell:	Completed after 2 iterations at t[s]:   2923.21
	Linear fluid (dielectric constant: 78.4, screening length: 5.74355 Bohr) occupying 0.753735 of unit cell:	Completed after 0 iterations at t[s]:   2943.17
ElecMinimize: 	Step increased F by 5.196512e-08, reducing alpha to 9.458253e-03.
	Linear fluid (dielectric constant: 78.4, screening length: 5.74355 Bohr) occupying 0.753736 of unit cell:	Completed after 0 iterations at t[s]:   2981.88
ElecMinimize: 	Step increased F by 4.699518e-08, reducing alpha to 9.458253e-04.
	Linear fluid (dielectric constant: 78.4, screening length: 5.74355 Bohr) occupying 0.753736 of unit cell:	Completed after 0 iterations at t[s]:   3019.83
ElecMinimize: 	Step increased F by 4.652202e-08, reducing alpha to 9.458253e-05.
ElecMinimize: 	Step failed to reduce F after 3 attempts. Quitting step.
ElecMinimize: 	Undoing step.
	Linear fluid (dielectric constant: 78.4, screening length: 5.74355 Bohr) occupying 0.753736 of unit cell:	Completed after 0 iterations at t[s]:   3057.77
ElecMinimize: 	Step failed: resetting search direction.
	FillingsUpdate:  mu: -0.155322709  nElectrons: 448.000000  magneticMoment: [ Abs: 0.00001  Tot: +0.00000 ]
	SubspaceRotationAdjust: set factor to 0.434
ElecMinimize: Iter:  10  F: -1826.787786745376025  |grad|_K:  5.017e-08  alpha:  9.458e-05
	Linear fluid (dielectric constant: 78.4, screening length: 5.74355 Bohr) occupying 0.753733 of unit cell:	Completed after 2 iterations at t[s]:   3099.93
	Linear fluid (dielectric constant: 78.4, screening length: 5.74355 Bohr) occupying 0.753735 of unit cell:	Completed after 2 iterations at t[s]:   3120.06
	FillingsUpdate:  mu: -0.155381235  nElectrons: 448.000000  magneticMoment: [ Abs: 0.00001  Tot: +0.00000 ]
	SubspaceRotationAdjust: set factor to 0.182
ElecMinimize: Iter:  11  F: -1826.787786781750810  |grad|_K:  1.664e-08  alpha:  1.729e-01  linmin:  1.516e-04  t[s]:   3145.74
	Linear fluid (dielectric constant: 78.4, screening length: 5.74355 Bohr) occupying 0.753735 of unit cell:	Completed after 0 iterations at t[s]:   3162.01
ElecMinimize: 	Predicted alpha/alphaT>3.000000, increasing alphaT to 5.187010e-01.
	Linear fluid (dielectric constant: 78.4, screening length: 5.74355 Bohr) occupying 0.753734 of unit cell:	Completed after 0 iterations at t[s]:   3181.46
	Linear fluid (dielectric constant: 78.4, screening length: 5.74355 Bohr) occupying 0.753734 of unit cell:	Completed after 0 iterations at t[s]:   3201.12
	FillingsUpdate:  mu: -0.155381454  nElectrons: 448.000000  magneticMoment: [ Abs: 0.00001  Tot: +0.00000 ]
	SubspaceRotationAdjust: set factor to 0.267
ElecMinimize: Iter:  12  F: -1826.787786820714700  |grad|_K:  1.618e-08  alpha:  1.024e+00  linmin: -3.204e-07  t[s]:   3226.30
	Linear fluid (dielectric constant: 78.4, screening length: 5.74355 Bohr) occupying 0.753733 of unit cell:	Completed after 3 iterations at t[s]:   3242.72
	Linear fluid (dielectric constant: 78.4, screening length: 5.74355 Bohr) occupying 0.753734 of unit cell:	Completed after 0 iterations at t[s]:   3263.13
ElecMinimize: 	Step increased F by 4.763024e-09, reducing alpha to 1.361400e-02.
	Linear fluid (dielectric constant: 78.4, screening length: 5.74355 Bohr) occupying 0.753734 of unit cell:	Completed after 0 iterations at t[s]:   3301.30
	FillingsUpdate:  mu: -0.155282770  nElectrons: 448.000000  magneticMoment: [ Abs: 0.00001  Tot: +0.00000 ]
	SubspaceRotationAdjust: set factor to 0.25
ElecMinimize: Iter:  13  F: -1826.787786841781553  |grad|_K:  5.435e-08  alpha:  1.361e-02  linmin:  5.281e-05  t[s]:   3326.47
ElecMinimize: 	Bad step direction: g.d > 0.
ElecMinimize: 	Undoing step.
	Linear fluid (dielectric constant: 78.4, screening length: 5.74355 Bohr) occupying 0.753734 of unit cell:	Completed after 0 iterations at t[s]:   3342.43
ElecMinimize: 	Step failed: resetting search direction.
	FillingsUpdate:  mu: -0.155282770  nElectrons: 448.000000  magneticMoment: [ Abs: 0.00001  Tot: +0.00000 ]
	SubspaceRotationAdjust: set factor to 0.244
ElecMinimize: Iter:  14  F: -1826.787786841773141  |grad|_K:  5.342e-08  alpha:  0.000e+00
	Linear fluid (dielectric constant: 78.4, screening length: 5.74355 Bohr) occupying 0.753734 of unit cell:	Completed after 0 iterations at t[s]:   3383.99
ElecMinimize: 	Wrong curvature in test step, increasing alphaT to 4.084199e-02.
	Linear fluid (dielectric constant: 78.4, screening length: 5.74355 Bohr) occupying 0.753734 of unit cell:	Completed after 0 iterations at t[s]:   3399.82
	FillingsUpdate:  mu: -0.155282740  nElectrons: 448.000000  magneticMoment: [ Abs: 0.00001  Tot: +0.00000 ]
	SubspaceRotationAdjust: set factor to 0.237
ElecMinimize: Iter:  15  F: -1826.787786855298918  |grad|_K:  5.254e-08  alpha: -4.301e+00  linmin: -7.980e-04  t[s]:   3424.78
	Linear fluid (dielectric constant: 78.4, screening length: 5.74355 Bohr) occupying 0.753730 of unit cell:	Completed after 2 iterations at t[s]:   3441.00
	Linear fluid (dielectric constant: 78.4, screening length: 5.74355 Bohr) occupying 0.753733 of unit cell:	Completed after 1 iterations at t[s]:   3460.98
ElecMinimize: 	Step increased F by 7.276731e-08, reducing alpha to 1.377849e-02.
	Linear fluid (dielectric constant: 78.4, screening length: 5.74355 Bohr) occupying 0.753734 of unit cell:	Completed after 0 iterations at t[s]:   3499.29
ElecMinimize: 	Step increased F by 1.014473e-08, reducing alpha to 1.377849e-03.
	Linear fluid (dielectric constant: 78.4, screening length: 5.74355 Bohr) occupying 0.753734 of unit cell:	Completed after 0 iterations at t[s]:   3536.93
ElecMinimize: 	Step increased F by 2.191177e-08, reducing alpha to 1.377849e-04.
ElecMinimize: 	Step failed to reduce F after 3 attempts. Quitting step.
ElecMinimize: 	Undoing step.
	Linear fluid (dielectric constant: 78.4, screening length: 5.74355 Bohr) occupying 0.753734 of unit cell:	Completed after 0 iterations at t[s]:   3575.03
ElecMinimize: 	Step failed: resetting search direction.
	FillingsUpdate:  mu: -0.155394957  nElectrons: 448.000000  magneticMoment: [ Abs: 0.00001  Tot: +0.00000 ]
	SubspaceRotationAdjust: set factor to 0.109
ElecMinimize: Iter:  16  F: -1826.787786833499013  |grad|_K:  1.817e-08  alpha:  1.378e-04
	Linear fluid (dielectric constant: 78.4, screening length: 5.74355 Bohr) occupying 0.753734 of unit cell:	Completed after 1 iterations at t[s]:   3616.00
	Linear fluid (dielectric constant: 78.4, screening length: 5.74355 Bohr) occupying 0.753734 of unit cell:	Completed after 0 iterations at t[s]:   3635.65
ElecMinimize: 	Step increased F by 2.678371e-08, reducing alpha to 1.814448e-02.
	Linear fluid (dielectric constant: 78.4, screening length: 5.74355 Bohr) occupying 0.753734 of unit cell:	Completed after 0 iterations at t[s]:   3673.41
ElecMinimize: 	Step increased F by 2.529578e-08, reducing alpha to 1.814448e-03.
	Linear fluid (dielectric constant: 78.4, screening length: 5.74355 Bohr) occupying 0.753734 of unit cell:	Completed after 0 iterations at t[s]:   3711.03
ElecMinimize: 	Step increased F by 2.394404e-08, reducing alpha to 1.814448e-04.
ElecMinimize: 	Step failed to reduce F after 3 attempts. Quitting step.
ElecMinimize: 	Undoing step.
	Linear fluid (dielectric constant: 78.4, screening length: 5.74355 Bohr) occupying 0.753734 of unit cell:	Completed after 0 iterations at t[s]:   3748.58
ElecMinimize: 	Step failed along negative gradient direction.
ElecMinimize: Probably at roundoff error limit. (Stopping)
Setting wave functions to eigenvectors of Hamiltonian
Single-point solvation energy estimate, DeltaF = +0.010507303243685

# Ionic positions in lattice coordinates:
ion Ru   0.166667780006944   0.083332224305556   0.499999991000000 1
ion Ru   0.416667780006944   0.083332224305556   0.499999991000000 1
ion Ru   0.666667780006944   0.083332224305556   0.499999991000000 1
ion Ru   0.916667780006944   0.083332224305556   0.499999991000000 1
ion Ru   0.166667780006944   0.333332224305556   0.499999991000000 1
ion Ru   0.416667780006944   0.333332224305556   0.499999991000000 1
ion Ru   0.666667780006944   0.333332224305556   0.499999991000000 1
ion Ru   0.916667780006944   0.333332224305556   0.499999991000000 1
ion Ru   0.166667780006944   0.583332224305556   0.499999991000000 1
ion Ru   0.416667780006944   0.583332224305556   0.499999991000000 1
ion Ru   0.666667780006944   0.583332224305556   0.499999991000000 1
ion Ru   0.916667780006944   0.583332224305556   0.499999991000000 1
ion Ru   0.166667780006944   0.833332224305556   0.499999991000000 1
ion Ru   0.416667780006944   0.833332224305556   0.499999991000000 1
ion Ru   0.666667780006944   0.833332224305556   0.499999991000000 1
ion Ru   0.916667780006944   0.833332224305556   0.499999991000000 1
ion Se   0.000001113340278  -0.000001109027778   0.583199977500000 1
ion Se   0.000001113340278  -0.000001109027778   0.416800004500000 1
ion Se   0.250001113340278  -0.000001109027778   0.583199977500000 1
ion Se   0.250001113340278  -0.000001109027778   0.416800004500000 1
ion Se   0.500001113340278  -0.000001109027778   0.583199977500000 1
ion Se   0.500001113340278  -0.000001109027778   0.416800004500000 1
ion Se   0.750001113340278  -0.000001109027778   0.583199977500000 1
ion Se   0.750001113340278  -0.000001109027778   0.416800004500000 1
ion Se   0.000001113340278   0.249998890972222   0.583199977500000 1
ion Se   0.000001113340278   0.249998890972222   0.416800004500000 1
ion Se   0.250001113340278   0.249998890972222   0.583199977500000 1
ion Se   0.250001113340278   0.249998890972222   0.416800004500000 1
ion Se   0.500001113340278   0.249998890972222   0.583199977500000 1
ion Se   0.500001113340278   0.249998890972222   0.416800004500000 1
ion Se   0.750001113340278   0.249998890972222   0.583199977500000 1
ion Se   0.750001113340278   0.249998890972222   0.416800004500000 1
ion Se   0.000001113340278   0.499998890972222   0.583199977500000 1
ion Se   0.000001113340278   0.499998890972222   0.416800004500000 1
ion Se   0.250001113340278   0.499998890972222   0.583199977500000 1
ion Se   0.250001113340278   0.499998890972222   0.416800004500000 1
ion Se   0.500001113340278   0.499998890972222   0.583199977500000 1
ion Se   0.500001113340278   0.499998890972222   0.416800004500000 1
ion Se   0.750001113340278   0.499998890972222   0.583199977500000 1
ion Se   0.750001113340278   0.499998890972222   0.416800004500000 1
ion Se   0.000001113340278   0.749998890972222   0.583199977500000 1
ion Se   0.000001113340278   0.749998890972222   0.416800004500000 1
ion Se   0.250001113340278   0.749998890972222   0.583199977500000 1
ion Se   0.250001113340278   0.749998890972222   0.416800004500000 1
ion Se   0.500001113340278   0.749998890972222   0.583199977500000 1
ion Se   0.500001113340278   0.749998890972222   0.416800004500000 1
ion Se   0.750001113340278   0.749998890972222   0.583199977500000 1
ion Se   0.750001113340278   0.749998890972222   0.416800004500000 1


# Forces in Lattice coordinates:
force Ru  -0.000000000000000   0.000000000000000   0.000000000000000 1
force Ru   0.000000000000000   0.000000000000000  -0.000000000000000 1
force Ru  -0.000000000000000   0.000000000000000  -0.000000000000000 1
force Ru  -0.000000000000000   0.000000000000000   0.000000000000000 1
force Ru  -0.000000000000000   0.000000000000000  -0.000000000000000 1
force Ru  -0.000000000000000   0.000000000000000  -0.000000000000000 1
force Ru  -0.000000000000000   0.000000000000000   0.000000000000000 1
force Ru   0.000000000000000   0.000000000000000   0.000000000000000 1
force Ru   0.000000000000000   0.000000000000000  -0.000000000000000 1
force Ru   0.000000000000000   0.000000000000000   0.000000000000000 1
force Ru   0.000000000000000   0.000000000000000  -0.000000000000000 1
force Ru  -0.000000000000000   0.000000000000000   0.000000000000000 1
force Ru   0.000000000000000   0.000000000000000  -0.000000000000000 1
force Ru   0.000000000000000   0.000000000000000  -0.000000000000000 1
force Ru   0.000000000000000   0.000000000000000   0.000000000000000 1
force Ru  -0.000000000000000   0.000000000000000  -0.000000000000000 1
force Se   0.000000000000000   0.000000000000000   0.079405254558561 1
force Se  -0.000000000000000   0.000000000000000  -0.079405254558675 1
force Se   0.000000000000000  -0.000000000000000   0.079405254558562 1
force Se  -0.000000000000000   0.000000000000000  -0.079405254558562 1
force Se  -0.000000000000000  -0.000000000000000   0.079405254558676 1
force Se   0.000000000000000  -0.000000000000000  -0.079405254558562 1
force Se  -0.000000000000000  -0.000000000000000   0.079405254558562 1
force Se  -0.000000000000000   0.000000000000000  -0.079405254558676 1
force Se   0.000000000000000   0.000000000000000   0.079405254558560 1
force Se   0.000000000000000  -0.000000000000000  -0.079405254558674 1
force Se  -0.000000000000000   0.000000000000000   0.079405254558448 1
force Se  -0.000000000000000   0.000000000000000  -0.079405254558674 1
force Se  -0.000000000000000  -0.000000000000000   0.079405254558560 1
force Se  -0.000000000000000   0.000000000000000  -0.079405254558562 1
force Se  -0.000000000000000   0.000000000000000   0.079405254558561 1
force Se   0.000000000000000  -0.000000000000000  -0.079405254558561 1
force Se  -0.000000000000000   0.000000000000000   0.079405254558561 1
force Se   0.000000000000000  -0.000000000000000  -0.079405254558561 1
force Se   0.000000000000000   0.000000000000000   0.079405254558561 1
force Se  -0.000000000000000   0.000000000000000  -0.079405254558561 1
force Se  -0.000000000000000   0.000000000000000   0.079405254558562 1
force Se  -0.000000000000000   0.000000000000000  -0.079405254558562 1
force Se  -0.000000000000000   0.000000000000000   0.079405254558448 1
force Se  -0.000000000000000   0.000000000000000  -0.079405254558561 1
force Se   0.000000000000000   0.000000000000000   0.079405254558561 1
force Se   0.000000000000000   0.000000000000000  -0.079405254558561 1
force Se  -0.000000000000000  -0.000000000000000   0.079405254558560 1
force Se  -0.000000000000000  -0.000000000000000  -0.079405254558676 1
force Se  -0.000000000000000  -0.000000000000000   0.079405254558561 1
force Se   0.000000000000000  -0.000000000000000  -0.079405254558675 1
force Se   0.000000000000000  -0.000000000000000   0.079405254558559 1
force Se  -0.000000000000000  -0.000000000000000  -0.079405254558789 1

# Energy components:
   A_diel =        0.0102870856288000
   Eewald =     8550.8890140293151489
       EH =    10104.6756705520983814
     Eloc =   -21150.6704856601463689
      Enl =      366.4084172828125361
      Exc =     -682.5943660671246107
 Exc_core =      425.1673947680485526
       KE =      559.4566292275405885
-------------------------------------
     Etot =    -1826.6574387818297964
       TS =        0.1303480277363648
-------------------------------------
        F =    -1826.7877868095661142

IonicMinimize: Iter:   0  F: -1826.787786809566114  |grad|_K:  1.093e-03  t[s]:   3788.12

#--- Lowdin population analysis ---
# oxidation-state Ru -0.838 -0.838 -0.838 -0.838 -0.838 -0.838 -0.838 -0.838 -0.838 -0.838 -0.838 -0.838 -0.838 -0.838 -0.838 -0.838
# magnetic-moments Ru +0.000 +0.000 +0.000 +0.000 +0.000 +0.000 +0.000 +0.000 +0.000 +0.000 +0.000 +0.000 +0.000 +0.000 +0.000 +0.000
# oxidation-state Se +0.487 +0.487 +0.487 +0.487 +0.487 +0.487 +0.487 +0.487 +0.487 +0.487 +0.487 +0.487 +0.487 +0.487 +0.487 +0.487 +0.487 +0.487 +0.487 +0.487 +0.487 +0.487 +0.487 +0.487 +0.487 +0.487 +0.487 +0.487 +0.487 +0.487 +0.487 +0.487
# magnetic-moments Se -0.000 -0.000 -0.000 -0.000 -0.000 -0.000 -0.000 -0.000 -0.000 -0.000 -0.000 -0.000 -0.000 -0.000 -0.000 -0.000 -0.000 -0.000 -0.000 -0.000 -0.000 -0.000 -0.000 -0.000 -0.000 -0.000 -0.000 -0.000 -0.000 -0.000 -0.000 -0.000

	Linear fluid (dielectric constant: 78.4, screening length: 5.74355 Bohr) occupying 0.753666 of unit cell:	Completed after 5 iterations at t[s]:   3805.75

-------- Electronic minimization -----------
	Linear fluid (dielectric constant: 78.4, screening length: 5.74355 Bohr) occupying 0.753666 of unit cell:	Completed after 0 iterations at t[s]:   3822.16
	FillingsUpdate:  mu: -0.155235205  nElectrons: 448.000000  magneticMoment: [ Abs: 0.00004  Tot: +0.00000 ]
ElecMinimize: Iter:   0  F: -1826.787925840865910  |grad|_K:  2.632e-07  alpha:  1.000e+00
	Linear fluid (dielectric constant: 78.4, screening length: 5.74355 Bohr) occupying 0.753666 of unit cell:	Completed after 2 iterations at t[s]:   3865.42
	Linear fluid (dielectric constant: 78.4, screening length: 5.74355 Bohr) occupying 0.753666 of unit cell:	Completed after 1 iterations at t[s]:   3885.31
	FillingsUpdate:  mu: -0.155279110  nElectrons: 448.000000  magneticMoment: [ Abs: 0.00005  Tot: +0.00000 ]
	SubspaceRotationAdjust: set factor to 0.15
ElecMinimize: Iter:   1  F: -1826.787934309066713  |grad|_K:  1.683e-07  alpha:  7.074e-01  linmin: -3.219e-05  t[s]:   3910.79
	Linear fluid (dielectric constant: 78.4, screening length: 5.74355 Bohr) occupying 0.753666 of unit cell:	Completed after 2 iterations at t[s]:   3927.04
	Linear fluid (dielectric constant: 78.4, screening length: 5.74355 Bohr) occupying 0.753666 of unit cell:	Completed after 0 iterations at t[s]:   3946.13
	FillingsUpdate:  mu: -0.155390899  nElectrons: 448.000000  magneticMoment: [ Abs: 0.00006  Tot: +0.00000 ]
	SubspaceRotationAdjust: set factor to 0.197
ElecMinimize: Iter:   2  F: -1826.787938227165114  |grad|_K:  1.659e-07  alpha:  7.916e-01  linmin: -1.848e-04  t[s]:   3971.13
	Linear fluid (dielectric constant: 78.4, screening length: 5.74355 Bohr) occupying 0.753665 of unit cell:	Completed after 2 iterations at t[s]:   3987.33
	Linear fluid (dielectric constant: 78.4, screening length: 5.74355 Bohr) occupying 0.753665 of unit cell:	Completed after 0 iterations at t[s]:   4007.23
	FillingsUpdate:  mu: -0.155410482  nElectrons: 448.000000  magneticMoment: [ Abs: 0.00005  Tot: +0.00000 ]
	SubspaceRotationAdjust: set factor to 0.245
ElecMinimize: Iter:   3  F: -1826.787943502510188  |grad|_K:  1.703e-07  alpha:  1.066e+00  linmin: -4.801e-05  t[s]:   4032.14
	Linear fluid (dielectric constant: 78.4, screening length: 5.74355 Bohr) occupying 0.753665 of unit cell:	Completed after 2 iterations at t[s]:   4048.56
	Linear fluid (dielectric constant: 78.4, screening length: 5.74355 Bohr) occupying 0.753665 of unit cell:	Completed after 0 iterations at t[s]:   4068.37
	FillingsUpdate:  mu: -0.155334235  nElectrons: 448.000000  magneticMoment: [ Abs: 0.00004  Tot: +0.00000 ]
	SubspaceRotationAdjust: set factor to 0.264
ElecMinimize: Iter:   4  F: -1826.787947069981328  |grad|_K:  1.774e-07  alpha:  6.904e-01  linmin:  3.108e-05  t[s]:   4093.14
	Linear fluid (dielectric constant: 78.4, screening length: 5.74355 Bohr) occupying 0.753665 of unit cell:	Completed after 2 iterations at t[s]:   4109.55
	Linear fluid (dielectric constant: 78.4, screening length: 5.74355 Bohr) occupying 0.753665 of unit cell:	Completed after 1 iterations at t[s]:   4129.45
	FillingsUpdate:  mu: -0.155422096  nElectrons: 448.000000  magneticMoment: [ Abs: 0.00003  Tot: +0.00000 ]
	SubspaceRotationAdjust: set factor to 0.258
ElecMinimize: Iter:   5  F: -1826.787949277659891  |grad|_K:  1.077e-07  alpha:  4.342e-01  linmin:  1.042e-05  t[s]:   4155.02
	Linear fluid (dielectric constant: 78.4, screening length: 5.74355 Bohr) occupying 0.753666 of unit cell:	Completed after 2 iterations at t[s]:   4171.34
	Linear fluid (dielectric constant: 78.4, screening length: 5.74355 Bohr) occupying 0.753666 of unit cell:	Completed after 0 iterations at t[s]:   4191.33
	FillingsUpdate:  mu: -0.155384228  nElectrons: 448.000000  magneticMoment: [ Abs: 0.00002  Tot: +0.00000 ]
	SubspaceRotationAdjust: set factor to 0.271
ElecMinimize: Iter:   6  F: -1826.787950129853016  |grad|_K:  7.354e-08  alpha:  4.278e-01  linmin: -3.942e-05  t[s]:   4216.08
	Linear fluid (dielectric constant: 78.4, screening length: 5.74355 Bohr) occupying 0.753667 of unit cell:	Completed after 0 iterations at t[s]:   4232.12
	Linear fluid (dielectric constant: 78.4, screening length: 5.74355 Bohr) occupying 0.753667 of unit cell:	Completed after 0 iterations at t[s]:   4251.59
	FillingsUpdate:  mu: -0.155382498  nElectrons: 448.000000  magneticMoment: [ Abs: 0.00001  Tot: +0.00000 ]
	SubspaceRotationAdjust: set factor to 0.286
ElecMinimize: Iter:   7  F: -1826.787950590339960  |grad|_K:  4.315e-08  alpha:  4.614e-01  linmin: -1.931e-05  t[s]:   4276.20
	Linear fluid (dielectric constant: 78.4, screening length: 5.74355 Bohr) occupying 0.753668 of unit cell:	Completed after 0 iterations at t[s]:   4292.03
	Linear fluid (dielectric constant: 78.4, screening length: 5.74355 Bohr) occupying 0.753668 of unit cell:	Completed after 0 iterations at t[s]:   4311.15
	FillingsUpdate:  mu: -0.155382683  nElectrons: 448.000000  magneticMoment: [ Abs: 0.00001  Tot: +0.00000 ]
	SubspaceRotationAdjust: set factor to 0.337
ElecMinimize: Iter:   8  F: -1826.787950778280674  |grad|_K:  2.956e-08  alpha:  5.608e-01  linmin: -9.437e-08  t[s]:   4336.21
	Linear fluid (dielectric constant: 78.4, screening length: 5.74355 Bohr) occupying 0.753669 of unit cell:	Completed after 2 iterations at t[s]:   4352.43
	Linear fluid (dielectric constant: 78.4, screening length: 5.74355 Bohr) occupying 0.753668 of unit cell:	Completed after 0 iterations at t[s]:   4372.55
ElecMinimize: 	Step increased F by 2.652450e-08, reducing alpha to 2.484988e-02.
	Linear fluid (dielectric constant: 78.4, screening length: 5.74355 Bohr) occupying 0.753668 of unit cell:	Completed after 0 iterations at t[s]:   4409.89
ElecMinimize: 	Step increased F by 6.126652e-08, reducing alpha to 2.484988e-03.
	Linear fluid (dielectric constant: 78.4, screening length: 5.74355 Bohr) occupying 0.753668 of unit cell:	Completed after 0 iterations at t[s]:   4447.54
ElecMinimize: 	Step increased F by 6.628875e-08, reducing alpha to 2.484988e-04.
ElecMinimize: 	Step failed to reduce F after 3 attempts. Quitting step.
ElecMinimize: 	Undoing step.
	Linear fluid (dielectric constant: 78.4, screening length: 5.74355 Bohr) occupying 0.753668 of unit cell:	Completed after 0 iterations at t[s]:   4485.24
ElecMinimize: 	Step failed: resetting search direction.
	FillingsUpdate:  mu: -0.155338940  nElectrons: 448.000000  magneticMoment: [ Abs: 0.00001  Tot: +0.00000 ]
	SubspaceRotationAdjust: set factor to 0.342
ElecMinimize: Iter:   9  F: -1826.787950711958274  |grad|_K:  4.527e-08  alpha:  2.485e-04
	Linear fluid (dielectric constant: 78.4, screening length: 5.74355 Bohr) occupying 0.753668 of unit cell:	Completed after 2 iterations at t[s]:   4526.05
	Linear fluid (dielectric constant: 78.4, screening length: 5.74355 Bohr) occupying 0.753668 of unit cell:	Completed after 0 iterations at t[s]:   4545.95
	FillingsUpdate:  mu: -0.155403439  nElectrons: 448.000000  magneticMoment: [ Abs: 0.00001  Tot: +0.00000 ]
	SubspaceRotationAdjust: set factor to 0.245
ElecMinimize: Iter:  10  F: -1826.787950845175146  |grad|_K:  3.422e-08  alpha:  3.324e-01  linmin:  1.898e-04  t[s]:   4570.90
	Linear fluid (dielectric constant: 78.4, screening length: 5.74355 Bohr) occupying 0.753668 of unit cell:	Completed after 0 iterations at t[s]:   4586.65
	Linear fluid (dielectric constant: 78.4, screening length: 5.74355 Bohr) occupying 0.753668 of unit cell:	Completed after 2 iterations at t[s]:   4606.23
	FillingsUpdate:  mu: -0.155369191  nElectrons: 448.000000  magneticMoment: [ Abs: 0.00000  Tot: +0.00000 ]
	SubspaceRotationAdjust: set factor to 0.241
ElecMinimize: Iter:  11  F: -1826.787950853325128  |grad|_K:  3.301e-08  alpha:  7.506e-01  linmin:  5.236e-05  t[s]:   4631.69
	Linear fluid (dielectric constant: 78.4, screening length: 5.74355 Bohr) occupying 0.753669 of unit cell:	Completed after 0 iterations at t[s]:   4647.24
	Linear fluid (dielectric constant: 78.4, screening length: 5.74355 Bohr) occupying 0.753668 of unit cell:	Completed after 0 iterations at t[s]:   4666.43
	FillingsUpdate:  mu: -0.155369153  nElectrons: 448.000000  magneticMoment: [ Abs: 0.00000  Tot: +0.00000 ]
	SubspaceRotationAdjust: set factor to 0.263
ElecMinimize: Iter:  12  F: -1826.787950914168505  |grad|_K:  1.893e-08  alpha:  4.572e-01  linmin:  1.415e-08  t[s]:   4691.40
	Linear fluid (dielectric constant: 78.4, screening length: 5.74355 Bohr) occupying 0.753668 of unit cell:	Completed after 0 iterations at t[s]:   4707.14
	Linear fluid (dielectric constant: 78.4, screening length: 5.74355 Bohr) occupying 0.753668 of unit cell:	Completed after 0 iterations at t[s]:   4726.06
	FillingsUpdate:  mu: -0.155369028  nElectrons: 448.000000  magneticMoment: [ Abs: 0.00000  Tot: +0.00000 ]
	SubspaceRotationAdjust: set factor to 0.31
ElecMinimize: Iter:  13  F: -1826.787950946541059  |grad|_K:  1.065e-08  alpha:  5.181e-01  linmin: -7.856e-07  t[s]:   4750.93
	Linear fluid (dielectric constant: 78.4, screening length: 5.74355 Bohr) occupying 0.753668 of unit cell:	Completed after 0 iterations at t[s]:   4766.69
	Linear fluid (dielectric constant: 78.4, screening length: 5.74355 Bohr) occupying 0.753668 of unit cell:	Completed after 0 iterations at t[s]:   4785.76
	FillingsUpdate:  mu: -0.155368789  nElectrons: 448.000000  magneticMoment: [ Abs: 0.00000  Tot: +0.00000 ]
	SubspaceRotationAdjust: set factor to 0.392
ElecMinimize: Iter:  14  F: -1826.787950956400209  |grad|_K:  8.011e-09  alpha:  5.005e-01  linmin:  5.475e-08  t[s]:   4810.58
	Linear fluid (dielectric constant: 78.4, screening length: 5.74355 Bohr) occupying 0.753668 of unit cell:	Completed after 0 iterations at t[s]:   4826.14
	Linear fluid (dielectric constant: 78.4, screening length: 5.74355 Bohr) occupying 0.753668 of unit cell:	Completed after 0 iterations at t[s]:   4845.34
	FillingsUpdate:  mu: -0.155368336  nElectrons: 448.000000  magneticMoment: [ Abs: 0.00000  Tot: +0.00000 ]
	SubspaceRotationAdjust: set factor to 0.504
ElecMinimize: Iter:  15  F: -1826.787950964550873  |grad|_K:  6.875e-09  alpha:  7.305e-01  linmin:  3.021e-08  t[s]:   4870.26
ElecMinimize: Converged (|Delta F|<1.000000e-08 for 2 iters).
Setting wave functions to eigenvectors of Hamiltonian

# Ionic positions in lattice coordinates:
ion Ru   0.166667780006944   0.083332224305556   0.499999991000000 1
ion Ru   0.416667780006944   0.083332224305556   0.499999991000000 1
ion Ru   0.666667780006944   0.083332224305556   0.499999991000000 1
ion Ru   0.916667780006944   0.083332224305556   0.499999991000000 1
ion Ru   0.166667780006944   0.333332224305556   0.499999991000000 1
ion Ru   0.416667780006944   0.333332224305556   0.499999991000000 1
ion Ru   0.666667780006944   0.333332224305556   0.499999991000000 1
ion Ru   0.916667780006944   0.333332224305556   0.499999991000000 1
ion Ru   0.166667780006944   0.583332224305556   0.499999991000000 1
ion Ru   0.416667780006944   0.583332224305556   0.499999991000000 1
ion Ru   0.666667780006944   0.583332224305556   0.499999991000000 1
ion Ru   0.916667780006944   0.583332224305556   0.499999991000000 1
ion Ru   0.166667780006944   0.833332224305556   0.499999991000000 1
ion Ru   0.416667780006944   0.833332224305556   0.499999991000000 1
ion Ru   0.666667780006944   0.833332224305556   0.499999991000000 1
ion Ru   0.916667780006944   0.833332224305556   0.499999991000000 1
ion Se   0.000001113340278  -0.000001109027778   0.583267621924026 1
ion Se   0.000001113340278  -0.000001109027778   0.416732360075974 1
ion Se   0.250001113340278  -0.000001109027778   0.583267621924026 1
ion Se   0.250001113340278  -0.000001109027778   0.416732360075974 1
ion Se   0.500001113340278  -0.000001109027778   0.583267621924026 1
ion Se   0.500001113340278  -0.000001109027778   0.416732360075974 1
ion Se   0.750001113340278  -0.000001109027778   0.583267621924026 1
ion Se   0.750001113340278  -0.000001109027778   0.416732360075974 1
ion Se   0.000001113340278   0.249998890972222   0.583267621924026 1
ion Se   0.000001113340278   0.249998890972222   0.416732360075974 1
ion Se   0.250001113340278   0.249998890972222   0.583267621924026 1
ion Se   0.250001113340278   0.249998890972222   0.416732360075974 1
ion Se   0.500001113340278   0.249998890972222   0.583267621924026 1
ion Se   0.500001113340278   0.249998890972222   0.416732360075974 1
ion Se   0.750001113340278   0.249998890972222   0.583267621924026 1
ion Se   0.750001113340278   0.249998890972222   0.416732360075974 1
ion Se   0.000001113340278   0.499998890972222   0.583267621924026 1
ion Se   0.000001113340278   0.499998890972222   0.416732360075974 1
ion Se   0.250001113340278   0.499998890972222   0.583267621924026 1
ion Se   0.250001113340278   0.499998890972222   0.416732360075974 1
ion Se   0.500001113340278   0.499998890972222   0.583267621924026 1
ion Se   0.500001113340278   0.499998890972222   0.416732360075974 1
ion Se   0.750001113340278   0.499998890972222   0.583267621924026 1
ion Se   0.750001113340278   0.499998890972222   0.416732360075974 1
ion Se   0.000001113340278   0.749998890972222   0.583267621924026 1
ion Se   0.000001113340278   0.749998890972222   0.416732360075974 1
ion Se   0.250001113340278   0.749998890972222   0.583267621924026 1
ion Se   0.250001113340278   0.749998890972222   0.416732360075974 1
ion Se   0.500001113340278   0.749998890972222   0.583267621924026 1
ion Se   0.500001113340278   0.749998890972222   0.416732360075974 1
ion Se   0.750001113340278   0.749998890972222   0.583267621924026 1
ion Se   0.750001113340278   0.749998890972222   0.416732360075974 1


# Forces in Lattice coordinates:
force Ru   0.000000000000000   0.000000000000000   0.000000000000000 1
force Ru   0.000000000000000   0.000000000000000  -0.000000000000000 1
force Ru  -0.000000000000000   0.000000000000000  -0.000000000000000 1
force Ru   0.000000000000000   0.000000000000000  -0.000000000000000 1
force Ru   0.000000000000000   0.000000000000000   0.000000000000000 1
force Ru   0.000000000000000   0.000000000000000  -0.000000000000000 1
force Ru  -0.000000000000000   0.000000000000000  -0.000000000000000 1
force Ru  -0.000000000000000   0.000000000000000   0.000000000000000 1
force Ru   0.000000000000000   0.000000000000000   0.000000000000000 1
force Ru   0.000000000000000   0.000000000000000   0.000000000000000 1
force Ru   0.000000000000000   0.000000000000000   0.000000000000000 1
force Ru  -0.000000000000000   0.000000000000000  -0.000000000000000 1
force Ru   0.000000000000000   0.000000000000000  -0.000000000000000 1
force Ru   0.000000000000000   0.000000000000000   0.000000000000000 1
force Ru   0.000000000000000   0.000000000000000   0.000000000000000 1
force Ru  -0.000000000000000   0.000000000000000  -0.000000000000000 1
force Se  -0.000000000000000   0.000000000000000   0.070859136058484 1
force Se  -0.000000000000000  -0.000000000000000  -0.070859136058482 1
force Se   0.000000000000000  -0.000000000000000   0.070859136058483 1
force Se   0.000000000000000   0.000000000000000  -0.070859136058369 1
force Se  -0.000000000000000  -0.000000000000000   0.070859136058483 1
force Se  -0.000000000000000   0.000000000000000  -0.070859136058597 1
force Se  -0.000000000000000  -0.000000000000000   0.070859136058483 1
force Se   0.000000000000000  -0.000000000000000  -0.070859136058482 1
force Se  -0.000000000000000  -0.000000000000000   0.070859136058484 1
force Se  -0.000000000000000   0.000000000000000  -0.070859136058598 1
force Se  -0.000000000000000  -0.000000000000000   0.070859136058369 1
force Se  -0.000000000000000   0.000000000000000  -0.070859136058370 1
force Se  -0.000000000000000  -0.000000000000000   0.070859136058370 1
force Se   0.000000000000000   0.000000000000000  -0.070859136058484 1
force Se   0.000000000000000  -0.000000000000000   0.070859136058369 1
force Se   0.000000000000000  -0.000000000000000  -0.070859136058370 1
force Se   0.000000000000000   0.000000000000000   0.070859136058370 1
force Se   0.000000000000000  -0.000000000000000  -0.070859136058372 1
force Se  -0.000000000000000  -0.000000000000000   0.070859136058370 1
force Se  -0.000000000000000   0.000000000000000  -0.070859136058484 1
force Se   0.000000000000000  -0.000000000000000   0.070859136058370 1
force Se   0.000000000000000   0.000000000000000  -0.070859136058484 1
force Se   0.000000000000000   0.000000000000000   0.070859136058370 1
force Se  -0.000000000000000   0.000000000000000  -0.070859136058484 1
force Se  -0.000000000000000   0.000000000000000   0.070859136058370 1
force Se  -0.000000000000000   0.000000000000000  -0.070859136058367 1
force Se  -0.000000000000000  -0.000000000000000   0.070859136058370 1
force Se  -0.000000000000000   0.000000000000000  -0.070859136058480 1
force Se  -0.000000000000000  -0.000000000000000   0.070859136058369 1
force Se   0.000000000000000   0.000000000000000  -0.070859136058483 1
force Se   0.000000000000000   0.000000000000000   0.070859136058256 1
force Se   0.000000000000000   0.000000000000000  -0.070859136058594 1

# Energy components:
   A_diel =        0.0102992966565468
   Eewald =     8549.5171790229924227
       EH =    10103.3072639839629119
     Eloc =   -21147.8944302076415624
      Enl =      366.3971249344564853
      Exc =     -682.5786361853231483
 Exc_core =      425.1673937902216380
       KE =      559.4165553948984098
-------------------------------------
     Etot =    -1826.6572499697781495
       TS =        0.1307009947728207
-------------------------------------
        F =    -1826.7879509645508733

IonicMinimize: Iter:   1  F: -1826.787950964550873  |grad|_K:  9.749e-04  alpha:  1.000e+00  linmin: -1.000e+00  t[s]:   4884.87

#--- Lowdin population analysis ---
# oxidation-state Ru -0.837 -0.837 -0.837 -0.837 -0.837 -0.837 -0.837 -0.837 -0.837 -0.837 -0.837 -0.837 -0.837 -0.837 -0.837 -0.837
# magnetic-moments Ru +0.000 +0.000 +0.000 +0.000 +0.000 +0.000 +0.000 +0.000 +0.000 +0.000 +0.000 +0.000 +0.000 +0.000 +0.000 +0.000
# oxidation-state Se +0.487 +0.487 +0.487 +0.487 +0.487 +0.487 +0.487 +0.487 +0.487 +0.487 +0.487 +0.487 +0.487 +0.487 +0.487 +0.487 +0.487 +0.487 +0.487 +0.487 +0.487 +0.487 +0.487 +0.487 +0.487 +0.487 +0.487 +0.487 +0.487 +0.487 +0.487 +0.487
# magnetic-moments Se -0.000 -0.000 -0.000 -0.000 -0.000 -0.000 -0.000 -0.000 -0.000 -0.000 -0.000 -0.000 -0.000 -0.000 -0.000 -0.000 -0.000 -0.000 -0.000 -0.000 -0.000 -0.000 -0.000 -0.000 -0.000 -0.000 -0.000 -0.000 -0.000 -0.000 -0.000 -0.000

	Linear fluid (dielectric constant: 78.4, screening length: 5.74355 Bohr) occupying 0.753169 of unit cell:	Completed after 7 iterations at t[s]:   4902.82

-------- Electronic minimization -----------
	Linear fluid (dielectric constant: 78.4, screening length: 5.74355 Bohr) occupying 0.753169 of unit cell:	Completed after 0 iterations at t[s]:   4919.59
	FillingsUpdate:  mu: -0.151881009  nElectrons: 448.000000  magneticMoment: [ Abs: 0.00071  Tot: +0.00000 ]
ElecMinimize: Iter:   0  F: -1826.786463559307549  |grad|_K:  3.635e-06  alpha:  1.000e+00
	Linear fluid (dielectric constant: 78.4, screening length: 5.74355 Bohr) occupying 0.752977 of unit cell:	Completed after 11 iterations at t[s]:   4964.62
	Linear fluid (dielectric constant: 78.4, screening length: 5.74355 Bohr) occupying 0.753090 of unit cell:	Completed after 12 iterations at t[s]:   4988.62
	FillingsUpdate:  mu: -0.157523255  nElectrons: 448.000000  magneticMoment: [ Abs: 0.00058  Tot: +0.00000 ]
	SubspaceRotationAdjust: set factor to 0.404
ElecMinimize: Iter:   1  F: -1826.787422204302175  |grad|_K:  2.524e-06  alpha:  4.152e-01  linmin: -4.370e-05  t[s]:   5015.94
	Linear fluid (dielectric constant: 78.4, screening length: 5.74355 Bohr) occupying 0.753097 of unit cell:	Completed after 5 iterations at t[s]:   5032.74
	Linear fluid (dielectric constant: 78.4, screening length: 5.74355 Bohr) occupying 0.753100 of unit cell:	Completed after 3 iterations at t[s]:   5053.64
	FillingsUpdate:  mu: -0.156032872  nElectrons: 448.000000  magneticMoment: [ Abs: 0.00037  Tot: +0.00000 ]
	SubspaceRotationAdjust: set factor to 0.58
ElecMinimize: Iter:   2  F: -1826.788067160963692  |grad|_K:  1.629e-06  alpha:  5.806e-01  linmin:  7.747e-06  t[s]:   5079.51
	Linear fluid (dielectric constant: 78.4, screening length: 5.74355 Bohr) occupying 0.753122 of unit cell:	Completed after 8 iterations at t[s]:   5096.64
	Linear fluid (dielectric constant: 78.4, screening length: 5.74355 Bohr) occupying 0.753123 of unit cell:	Completed after 2 iterations at t[s]:   5118.24
	FillingsUpdate:  mu: -0.155486641  nElectrons: 448.000000  magneticMoment: [ Abs: 0.00019  Tot: +0.00000 ]
	SubspaceRotationAdjust: set factor to 0.759
ElecMinimize: Iter:   3  F: -1826.788348292886894  |grad|_K:  7.990e-07  alpha:  6.097e-01  linmin: -3.100e-05  t[s]:   5143.80
	Linear fluid (dielectric constant: 78.4, screening length: 5.74355 Bohr) occupying 0.753131 of unit cell:	Completed after 3 iterations at t[s]:   5160.10
	Linear fluid (dielectric constant: 78.4, screening length: 5.74355 Bohr) occupying 0.753130 of unit cell:	Completed after 0 iterations at t[s]:   5180.24
	FillingsUpdate:  mu: -0.155511578  nElectrons: 448.000000  magneticMoment: [ Abs: 0.00009  Tot: +0.00000 ]
	SubspaceRotationAdjust: set factor to 0.901
ElecMinimize: Iter:   4  F: -1826.788411035459831  |grad|_K:  3.510e-07  alpha:  5.633e-01  linmin:  7.451e-05  t[s]:   5205.23
	Linear fluid (dielectric constant: 78.4, screening length: 5.74355 Bohr) occupying 0.753134 of unit cell:	Completed after 1 iterations at t[s]:   5221.33
	Linear fluid (dielectric constant: 78.4, screening length: 5.74355 Bohr) occupying 0.753133 of unit cell:	Completed after 0 iterations at t[s]:   5240.80
	FillingsUpdate:  mu: -0.155454713  nElectrons: 448.000000  magneticMoment: [ Abs: 0.00005  Tot: +0.00000 ]
	SubspaceRotationAdjust: set factor to 0.929
ElecMinimize: Iter:   5  F: -1826.788421398856599  |grad|_K:  1.837e-07  alpha:  4.871e-01  linmin:  3.952e-06  t[s]:   5266.06
	Linear fluid (dielectric constant: 78.4, screening length: 5.74355 Bohr) occupying 0.753133 of unit cell:	Completed after 3 iterations at t[s]:   5282.68
	Linear fluid (dielectric constant: 78.4, screening length: 5.74355 Bohr) occupying 0.753133 of unit cell:	Completed after 0 iterations at t[s]:   5302.52
	FillingsUpdate:  mu: -0.155584348  nElectrons: 448.000000  magneticMoment: [ Abs: 0.00003  Tot: +0.00000 ]
	SubspaceRotationAdjust: set factor to 0.755
ElecMinimize: Iter:   6  F: -1826.788423684147347  |grad|_K:  1.340e-07  alpha:  3.872e-01  linmin:  1.042e-04  t[s]:   5327.56
	Linear fluid (dielectric constant: 78.4, screening length: 5.74355 Bohr) occupying 0.753137 of unit cell:	Completed after 2 iterations at t[s]:   5343.88
	Linear fluid (dielectric constant: 78.4, screening length: 5.74355 Bohr) occupying 0.753135 of unit cell:	Completed after 2 iterations at t[s]:   5364.01
	FillingsUpdate:  mu: -0.155461341  nElectrons: 448.000000  magneticMoment: [ Abs: 0.00002  Tot: -0.00000 ]
	SubspaceRotationAdjust: set factor to 0.443
ElecMinimize: Iter:   7  F: -1826.788424111997074  |grad|_K:  6.856e-08  alpha:  1.779e-01  linmin:  3.236e-05  t[s]:   5389.38
	Linear fluid (dielectric constant: 78.4, screening length: 5.74355 Bohr) occupying 0.753135 of unit cell:	Completed after 0 iterations at t[s]:   5405.15
	Linear fluid (dielectric constant: 78.4, screening length: 5.74355 Bohr) occupying 0.753136 of unit cell:	Completed after 0 iterations at t[s]:   5424.24
	FillingsUpdate:  mu: -0.155461065  nElectrons: 448.000000  magneticMoment: [ Abs: 0.00001  Tot: -0.00000 ]
	SubspaceRotationAdjust: set factor to 0.61
ElecMinimize: Iter:   8  F: -1826.788424534416890  |grad|_K:  4.822e-08  alpha:  5.282e-01  linmin:  2.943e-07  t[s]:   5449.44
	Linear fluid (dielectric constant: 78.4, screening length: 5.74355 Bohr) occupying 0.753137 of unit cell:	Completed after 1 iterations at t[s]:   5465.58
	Linear fluid (dielectric constant: 78.4, screening length: 5.74355 Bohr) occupying 0.753136 of unit cell:	Completed after 0 iterations at t[s]:   5485.29
	FillingsUpdate:  mu: -0.155531439  nElectrons: 448.000000  magneticMoment: [ Abs: 0.00001  Tot: -0.00000 ]
	SubspaceRotationAdjust: set factor to 0.485
ElecMinimize: Iter:   9  F: -1826.788424646114890  |grad|_K:  4.607e-08  alpha:  3.095e-01  linmin:  6.544e-05  t[s]:   5510.30
	Linear fluid (dielectric constant: 78.4, screening length: 5.74355 Bohr) occupying 0.753138 of unit cell:	Completed after 1 iterations at t[s]:   5526.33
	Linear fluid (dielectric constant: 78.4, screening length: 5.74355 Bohr) occupying 0.753137 of unit cell:	Completed after 0 iterations at t[s]:   5545.75
	FillingsUpdate:  mu: -0.155524577  nElectrons: 448.000000  magneticMoment: [ Abs: 0.00001  Tot: -0.00000 ]
	SubspaceRotationAdjust: set factor to 0.789
ElecMinimize: Iter:  10  F: -1826.788424714179200  |grad|_K:  3.350e-08  alpha:  2.439e-01  linmin: -9.271e-05  t[s]:   5570.66
	Linear fluid (dielectric constant: 78.4, screening length: 5.74355 Bohr) occupying 0.753138 of unit cell:	Completed after 0 iterations at t[s]:   5586.41
ElecMinimize: 	Predicted alpha/alphaT>3.000000, increasing alphaT to 7.317010e-01.
	Linear fluid (dielectric constant: 78.4, screening length: 5.74355 Bohr) occupying 0.753140 of unit cell:	Completed after 2 iterations at t[s]:   5605.63
	Linear fluid (dielectric constant: 78.4, screening length: 5.74355 Bohr) occupying 0.753138 of unit cell:	Completed after 2 iterations at t[s]:   5626.07
	FillingsUpdate:  mu: -0.155467667  nElectrons: 448.000000  magneticMoment: [ Abs: 0.00001  Tot: -0.00000 ]
	SubspaceRotationAdjust: set factor to 0.641
ElecMinimize: Iter:  11  F: -1826.788424736865863  |grad|_K:  4.311e-08  alpha:  2.095e-01  linmin:  8.536e-05  t[s]:   5651.69
	Linear fluid (dielectric constant: 78.4, screening length: 5.74355 Bohr) occupying 0.753139 of unit cell:	Completed after 0 iterations at t[s]:   5667.58
	Linear fluid (dielectric constant: 78.4, screening length: 5.74355 Bohr) occupying 0.753139 of unit cell:	Completed after 0 iterations at t[s]:   5686.32
	FillingsUpdate:  mu: -0.155467710  nElectrons: 448.000000  magneticMoment: [ Abs: 0.00001  Tot: +0.00000 ]
	SubspaceRotationAdjust: set factor to 0.572
ElecMinimize: Iter:  12  F: -1826.788424777200362  |grad|_K:  3.966e-08  alpha:  1.964e-01  linmin:  1.872e-07  t[s]:   5711.33
	Linear fluid (dielectric constant: 78.4, screening length: 5.74355 Bohr) occupying 0.753139 of unit cell:	Completed after 0 iterations at t[s]:   5727.11
	Linear fluid (dielectric constant: 78.4, screening length: 5.74355 Bohr) occupying 0.753140 of unit cell:	Completed after 2 iterations at t[s]:   5746.79
ElecMinimize: 	Step increased F by 4.058575e-08, reducing alpha to 3.934574e-02.
	Linear fluid (dielectric constant: 78.4, screening length: 5.74355 Bohr) occupying 0.753139 of unit cell:	Completed after 1 iterations at t[s]:   5785.24
	FillingsUpdate:  mu: -0.155498701  nElectrons: 448.000000  magneticMoment: [ Abs: 0.00001  Tot: +0.00000 ]
	SubspaceRotationAdjust: set factor to 0.545
ElecMinimize: Iter:  13  F: -1826.788424812663834  |grad|_K:  2.003e-08  alpha:  3.935e-02  linmin: -3.347e-05  t[s]:   5810.73
	Linear fluid (dielectric constant: 78.4, screening length: 5.74355 Bohr) occupying 0.753139 of unit cell:	Completed after 0 iterations at t[s]:   5826.42
ElecMinimize: 	Predicted alpha/alphaT>3.000000, increasing alphaT to 1.180372e-01.
	Linear fluid (dielectric constant: 78.4, screening length: 5.74355 Bohr) occupying 0.753139 of unit cell:	Completed after 0 iterations at t[s]:   5845.34
ElecMinimize: 	Predicted alpha/alphaT>3.000000, increasing alphaT to 3.541117e-01.
	Linear fluid (dielectric constant: 78.4, screening length: 5.74355 Bohr) occupying 0.753139 of unit cell:	Completed after 0 iterations at t[s]:   5864.34
	Linear fluid (dielectric constant: 78.4, screening length: 5.74355 Bohr) occupying 0.753139 of unit cell:	Completed after 0 iterations at t[s]:   5883.32
	FillingsUpdate:  mu: -0.155498442  nElectrons: 448.000000  magneticMoment: [ Abs: 0.00001  Tot: +0.00000 ]
	SubspaceRotationAdjust: set factor to 0.556
ElecMinimize: Iter:  14  F: -1826.788424851569971  |grad|_K:  1.485e-08  alpha:  4.681e-01  linmin: -1.857e-07  t[s]:   5908.12
	Linear fluid (dielectric constant: 78.4, screening length: 5.74355 Bohr) occupying 0.753140 of unit cell:	Completed after 0 iterations at t[s]:   5923.89
	Linear fluid (dielectric constant: 78.4, screening length: 5.74355 Bohr) occupying 0.753140 of unit cell:	Completed after 0 iterations at t[s]:   5943.13
	FillingsUpdate:  mu: -0.155498366  nElectrons: 448.000000  magneticMoment: [ Abs: 0.00000  Tot: +0.00000 ]
[...]
	Linear fluid (dielectric constant: 78.4, screening length: 5.74355 Bohr) occupying 0.753252 of unit cell:	Completed after 2 iterations at t[s]:   6661.58
	Linear fluid (dielectric constant: 78.4, screening length: 5.74355 Bohr) occupying 0.753252 of unit cell:	Completed after 0 iterations at t[s]:   6681.06
	FillingsUpdate:  mu: -0.155390557  nElectrons: 448.000000  magneticMoment: [ Abs: 0.00003  Tot: -0.00002 ]
	SubspaceRotationAdjust: set factor to 1.49
ElecMinimize: Iter:   3  F: -1826.788454132792140  |grad|_K:  1.062e-07  alpha:  4.893e-01  linmin: -1.883e-04  t[s]:   6705.86
	Linear fluid (dielectric constant: 78.4, screening length: 5.74355 Bohr) occupying 0.753246 of unit cell:	Completed after 2 iterations at t[s]:   6721.97
	Linear fluid (dielectric constant: 78.4, screening length: 5.74355 Bohr) occupying 0.753247 of unit cell:	Completed after 0 iterations at t[s]:   6741.85
	FillingsUpdate:  mu: -0.155496507  nElectrons: 448.000000  magneticMoment: [ Abs: 0.00003  Tot: -0.00002 ]
	SubspaceRotationAdjust: set factor to 1.07
ElecMinimize: Iter:   4  F: -1826.788454955758425  |grad|_K:  7.899e-08  alpha:  4.188e-01  linmin: -1.075e-04  t[s]:   6766.79
	Linear fluid (dielectric constant: 78.4, screening length: 5.74355 Bohr) occupying 0.753248 of unit cell:	Completed after 3 iterations at t[s]:   6783.33
	Linear fluid (dielectric constant: 78.4, screening length: 5.74355 Bohr) occupying 0.753247 of unit cell:	Completed after 1 iterations at t[s]:   6803.46
	FillingsUpdate:  mu: -0.155440870  nElectrons: 448.000000  magneticMoment: [ Abs: 0.00002  Tot: -0.00002 ]
	SubspaceRotationAdjust: set factor to 0.586
ElecMinimize: Iter:   5  F: -1826.788455073193745  |grad|_K:  4.484e-08  alpha:  1.368e-01  linmin:  1.730e-05  t[s]:   6828.96
	Linear fluid (dielectric constant: 78.4, screening length: 5.74355 Bohr) occupying 0.753247 of unit cell:	Completed after 0 iterations at t[s]:   6844.71
ElecMinimize: 	Predicted alpha/alphaT>3.000000, increasing alphaT to 4.104200e-01.
	Linear fluid (dielectric constant: 78.4, screening length: 5.74355 Bohr) occupying 0.753247 of unit cell:	Completed after 0 iterations at t[s]:   6863.70
	Linear fluid (dielectric constant: 78.4, screening length: 5.74355 Bohr) occupying 0.753247 of unit cell:	Completed after 0 iterations at t[s]:   6883.15
	FillingsUpdate:  mu: -0.155443032  nElectrons: 448.000000  magneticMoment: [ Abs: 0.00002  Tot: -0.00001 ]
	SubspaceRotationAdjust: set factor to 0.915
ElecMinimize: Iter:   6  F: -1826.788455263167180  |grad|_K:  3.287e-08  alpha:  5.314e-01  linmin: -5.501e-05  t[s]:   6908.15
	Linear fluid (dielectric constant: 78.4, screening length: 5.74355 Bohr) occupying 0.753247 of unit cell:	Completed after 1 iterations at t[s]:   6924.28
	Linear fluid (dielectric constant: 78.4, screening length: 5.74355 Bohr) occupying 0.753247 of unit cell:	Completed after 0 iterations at t[s]:   6943.83
	FillingsUpdate:  mu: -0.155489259  nElectrons: 448.000000  magneticMoment: [ Abs: 0.00002  Tot: -0.00001 ]
	SubspaceRotationAdjust: set factor to 0.785
ElecMinimize: Iter:   7  F: -1826.788455289065496  |grad|_K:  5.533e-08  alpha:  2.262e-01  linmin:  8.187e-05  t[s]:   6968.89
	Linear fluid (dielectric constant: 78.4, screening length: 5.74355 Bohr) occupying 0.753247 of unit cell:	Completed after 0 iterations at t[s]:   6984.67
	Linear fluid (dielectric constant: 78.4, screening length: 5.74355 Bohr) occupying 0.753247 of unit cell:	Completed after 0 iterations at t[s]:   7003.84
	FillingsUpdate:  mu: -0.155488926  nElectrons: 448.000000  magneticMoment: [ Abs: 0.00001  Tot: -0.00001 ]
	SubspaceRotationAdjust: set factor to 0.796
ElecMinimize: Iter:   8  F: -1826.788455333466800  |grad|_K:  4.936e-08  alpha:  1.281e-01  linmin:  4.698e-08  t[s]:   7028.98
	Linear fluid (dielectric constant: 78.4, screening length: 5.74355 Bohr) occupying 0.753247 of unit cell:	Completed after 2 iterations at t[s]:   7045.08
	Linear fluid (dielectric constant: 78.4, screening length: 5.74355 Bohr) occupying 0.753247 of unit cell:	Completed after 0 iterations at t[s]:   7065.10
ElecMinimize: 	Step increased F by 5.385573e-09, reducing alpha to 5.142413e-03.
	Linear fluid (dielectric constant: 78.4, screening length: 5.74355 Bohr) occupying 0.753247 of unit cell:	Completed after 0 iterations at t[s]:   7102.50
ElecMinimize: 	Step increased F by 4.257572e-09, reducing alpha to 5.142413e-04.
	Linear fluid (dielectric constant: 78.4, screening length: 5.74355 Bohr) occupying 0.753247 of unit cell:	Completed after 0 iterations at t[s]:   7139.85
ElecMinimize: 	Step increased F by 4.694812e-09, reducing alpha to 5.142413e-05.
ElecMinimize: 	Step failed to reduce F after 3 attempts. Quitting step.
ElecMinimize: 	Undoing step.
	Linear fluid (dielectric constant: 78.4, screening length: 5.74355 Bohr) occupying 0.753247 of unit cell:	Completed after 0 iterations at t[s]:   7177.74
ElecMinimize: 	Step failed: resetting search direction.
	FillingsUpdate:  mu: -0.155450909  nElectrons: 448.000000  magneticMoment: [ Abs: 0.00001  Tot: -0.00001 ]
	SubspaceRotationAdjust: set factor to 0.623
ElecMinimize: Iter:   9  F: -1826.788455328841337  |grad|_K:  2.278e-08  alpha:  5.142e-05
	Linear fluid (dielectric constant: 78.4, screening length: 5.74355 Bohr) occupying 0.753247 of unit cell:	Completed after 0 iterations at t[s]:   7218.30
ElecMinimize: 	Predicted alpha/alphaT>3.000000, increasing alphaT to 3.842784e-01.
	Linear fluid (dielectric constant: 78.4, screening length: 5.74355 Bohr) occupying 0.753247 of unit cell:	Completed after 0 iterations at t[s]:   7237.12
	Linear fluid (dielectric constant: 78.4, screening length: 5.74355 Bohr) occupying 0.753246 of unit cell:	Completed after 0 iterations at t[s]:   7256.36
	FillingsUpdate:  mu: -0.155453608  nElectrons: 448.000000  magneticMoment: [ Abs: 0.00001  Tot: -0.00001 ]
	SubspaceRotationAdjust: set factor to 0.743
ElecMinimize: Iter:  10  F: -1826.788455370028032  |grad|_K:  1.570e-08  alpha:  6.178e-01  linmin:  2.710e-05  t[s]:   7281.26
	Linear fluid (dielectric constant: 78.4, screening length: 5.74355 Bohr) occupying 0.753246 of unit cell:	Completed after 0 iterations at t[s]:   7297.12
	Linear fluid (dielectric constant: 78.4, screening length: 5.74355 Bohr) occupying 0.753246 of unit cell:	Completed after 0 iterations at t[s]:   7316.22
	FillingsUpdate:  mu: -0.155453492  nElectrons: 448.000000  magneticMoment: [ Abs: 0.00001  Tot: -0.00000 ]
	SubspaceRotationAdjust: set factor to 0.846
ElecMinimize: Iter:  11  F: -1826.788455387715430  |grad|_K:  8.217e-09  alpha:  4.328e-01  linmin: -1.474e-07  t[s]:   7341.24
	Linear fluid (dielectric constant: 78.4, screening length: 5.74355 Bohr) occupying 0.753246 of unit cell:	Completed after 0 iterations at t[s]:   7357.07
	Linear fluid (dielectric constant: 78.4, screening length: 5.74355 Bohr) occupying 0.753246 of unit cell:	Completed after 0 iterations at t[s]:   7376.05
	FillingsUpdate:  mu: -0.155453501  nElectrons: 448.000000  magneticMoment: [ Abs: 0.00000  Tot: -0.00000 ]
	SubspaceRotationAdjust: set factor to 0.867
ElecMinimize: Iter:  12  F: -1826.788455396749441  |grad|_K:  5.213e-09  alpha:  7.516e-01  linmin: -2.423e-06  t[s]:   7400.90
	Linear fluid (dielectric constant: 78.4, screening length: 5.74355 Bohr) occupying 0.753245 of unit cell:	Completed after 2 iterations at t[s]:   7416.91
	Linear fluid (dielectric constant: 78.4, screening length: 5.74355 Bohr) occupying 0.753246 of unit cell:	Completed after 0 iterations at t[s]:   7436.66
ElecMinimize: 	Step increased F by 1.106444e-07, reducing alpha to 2.106391e-03.
	Linear fluid (dielectric constant: 78.4, screening length: 5.74355 Bohr) occupying 0.753246 of unit cell:	Completed after 0 iterations at t[s]:   7474.49
ElecMinimize: 	Step increased F by 1.104997e-07, reducing alpha to 2.106391e-04.
	Linear fluid (dielectric constant: 78.4, screening length: 5.74355 Bohr) occupying 0.753246 of unit cell:	Completed after 0 iterations at t[s]:   7512.09
ElecMinimize: 	Step increased F by 1.104709e-07, reducing alpha to 2.106391e-05.
ElecMinimize: 	Step failed to reduce F after 3 attempts. Quitting step.
ElecMinimize: 	Undoing step.
	Linear fluid (dielectric constant: 78.4, screening length: 5.74355 Bohr) occupying 0.753246 of unit cell:	Completed after 0 iterations at t[s]:   7549.92
ElecMinimize: 	Step failed: resetting search direction.
	FillingsUpdate:  mu: -0.155517140  nElectrons: 448.000000  magneticMoment: [ Abs: 0.00000  Tot: -0.00000 ]
	SubspaceRotationAdjust: set factor to 0.537
ElecMinimize: Iter:  13  F: -1826.788455286137150  |grad|_K:  5.056e-08  alpha:  2.106e-05
	Linear fluid (dielectric constant: 78.4, screening length: 5.74355 Bohr) occupying 0.753250 of unit cell:	Completed after 2 iterations at t[s]:   7591.27
	Linear fluid (dielectric constant: 78.4, screening length: 5.74355 Bohr) occupying 0.753246 of unit cell:	Completed after 2 iterations at t[s]:   7611.69
	FillingsUpdate:  mu: -0.155455899  nElectrons: 448.000000  magneticMoment: [ Abs: 0.00000  Tot: -0.00000 ]
	SubspaceRotationAdjust: set factor to 0.222
ElecMinimize: Iter:  14  F: -1826.788455376940419  |grad|_K:  1.473e-08  alpha:  1.724e-01  linmin:  3.495e-04  t[s]:   7637.35
	Linear fluid (dielectric constant: 78.4, screening length: 5.74355 Bohr) occupying 0.753246 of unit cell:	Completed after 0 iterations at t[s]:   7653.10
ElecMinimize: 	Predicted alpha/alphaT>3.000000, increasing alphaT to 5.172705e-01.
	Linear fluid (dielectric constant: 78.4, screening length: 5.74355 Bohr) occupying 0.753247 of unit cell:	Completed after 0 iterations at t[s]:   7672.19
	Linear fluid (dielectric constant: 78.4, screening length: 5.74355 Bohr) occupying 0.753247 of unit cell:	Completed after 1 iterations at t[s]:   7691.56
ElecMinimize: 	Step increased F by 2.178422e-08, reducing alpha to 1.015698e-01.
	Linear fluid (dielectric constant: 78.4, screening length: 5.74355 Bohr) occupying 0.753246 of unit cell:	Completed after 0 iterations at t[s]:   7729.57
	FillingsUpdate:  mu: -0.155470688  nElectrons: 448.000000  magneticMoment: [ Abs: 0.00000  Tot: -0.00000 ]
	SubspaceRotationAdjust: set factor to 0.111
	SubspaceRotationAdjust: resetting CG because factor has changed by 0.116778
	Linear fluid (dielectric constant: 78.4, screening length: 5.74355 Bohr) occupying 0.753246 of unit cell:	Completed after 0 iterations at t[s]:   7763.33
ElecMinimize: 	State modified externally: resetting search direction.
ElecMinimize: Iter:  15  F: -1826.788455382420580  |grad|_K:  5.028e-09  alpha:  1.016e-01
	Linear fluid (dielectric constant: 78.4, screening length: 5.74355 Bohr) occupying 0.753246 of unit cell:	Completed after 0 iterations at t[s]:   7804.31
ElecMinimize: 	Wrong curvature in test step, increasing alphaT to 3.047095e-01.
	Linear fluid (dielectric constant: 78.4, screening length: 5.74355 Bohr) occupying 0.753246 of unit cell:	Completed after 0 iterations at t[s]:   7819.79
	FillingsUpdate:  mu: -0.155470692  nElectrons: 448.000000  magneticMoment: [ Abs: 0.00000  Tot: -0.00000 ]
	SubspaceRotationAdjust: set factor to 0.0506
ElecMinimize: Iter:  16  F: -1826.788455383356904  |grad|_K:  4.622e-09  alpha: -1.038e+00  linmin: -3.875e-04  t[s]:   7844.92
ElecMinimize: Converged (|Delta F|<1.000000e-08 for 2 iters).
Setting wave functions to eigenvectors of Hamiltonian

# Ionic positions in lattice coordinates:
ion Ru   0.166667780006944   0.083332224305556   0.499999991000000 1
ion Ru   0.416667780006944   0.083332224305556   0.499999991000000 1
ion Ru   0.666667780006944   0.083332224305556   0.499999991000000 1
ion Ru   0.916667780006944   0.083332224305556   0.499999991000000 1
ion Ru   0.166667780006944   0.333332224305556   0.499999991000000 1
ion Ru   0.416667780006944   0.333332224305556   0.499999991000000 1
ion Ru   0.666667780006944   0.333332224305556   0.499999991000000 1
ion Ru   0.916667780006944   0.333332224305556   0.499999991000000 1
ion Ru   0.166667780006944   0.583332224305556   0.499999991000000 1
ion Ru   0.416667780006944   0.583332224305556   0.499999991000000 1
ion Ru   0.666667780006944   0.583332224305556   0.499999991000000 1
ion Ru   0.916667780006944   0.583332224305556   0.499999991000000 1
ion Ru   0.166667780006944   0.833332224305556   0.499999991000000 1
ion Ru   0.416667780006944   0.833332224305556   0.499999991000000 1
ion Ru   0.666667780006944   0.833332224305556   0.499999991000000 1
ion Ru   0.916667780006944   0.833332224305556   0.499999991000000 1
ion Se   0.000001113340278  -0.000001109027778   0.583714461794762 1
ion Se   0.000001113340278  -0.000001109027778   0.416285520205238 1
ion Se   0.250001113340278  -0.000001109027778   0.583714461794762 1
ion Se   0.250001113340278  -0.000001109027778   0.416285520205238 1
ion Se   0.500001113340278  -0.000001109027778   0.583714461794762 1
ion Se   0.500001113340278  -0.000001109027778   0.416285520205238 1
ion Se   0.750001113340278  -0.000001109027778   0.583714461794762 1
ion Se   0.750001113340278  -0.000001109027778   0.416285520205238 1
ion Se   0.000001113340278   0.249998890972222   0.583714461794762 1
ion Se   0.000001113340278   0.249998890972222   0.416285520205238 1
ion Se   0.250001113340278   0.249998890972222   0.583714461794762 1
ion Se   0.250001113340278   0.249998890972222   0.416285520205238 1
ion Se   0.500001113340278   0.249998890972222   0.583714461794762 1
ion Se   0.500001113340278   0.249998890972222   0.416285520205238 1
ion Se   0.750001113340278   0.249998890972222   0.583714461794762 1
ion Se   0.750001113340278   0.249998890972222   0.416285520205238 1
ion Se   0.000001113340278   0.499998890972222   0.583714461794762 1
ion Se   0.000001113340278   0.499998890972222   0.416285520205238 1
ion Se   0.250001113340278   0.499998890972222   0.583714461794762 1
ion Se   0.250001113340278   0.499998890972222   0.416285520205238 1
ion Se   0.500001113340278   0.499998890972222   0.583714461794762 1
ion Se   0.500001113340278   0.499998890972222   0.416285520205238 1
ion Se   0.750001113340278   0.499998890972222   0.583714461794762 1
ion Se   0.750001113340278   0.499998890972222   0.416285520205238 1
ion Se   0.000001113340278   0.749998890972222   0.583714461794762 1
ion Se   0.000001113340278   0.749998890972222   0.416285520205238 1
ion Se   0.250001113340278   0.749998890972222   0.583714461794762 1
ion Se   0.250001113340278   0.749998890972222   0.416285520205238 1
ion Se   0.500001113340278   0.749998890972222   0.583714461794762 1
ion Se   0.500001113340278   0.749998890972222   0.416285520205238 1
ion Se   0.750001113340278   0.749998890972222   0.583714461794762 1
ion Se   0.750001113340278   0.749998890972222   0.416285520205238 1


# Forces in Lattice coordinates:
force Ru   0.000000000000000   0.000000000000000  -0.000000000000000 1
force Ru   0.000000000000000   0.000000000000000  -0.000000000000000 1
force Ru  -0.000000000000000   0.000000000000000   0.000000000000000 1
force Ru   0.000000000000000   0.000000000000000  -0.000000000000000 1
force Ru   0.000000000000000   0.000000000000000  -0.000000000000000 1
force Ru  -0.000000000000000  -0.000000000000000  -0.000000000000000 1
force Ru   0.000000000000000  -0.000000000000000  -0.000000000000000 1
force Ru  -0.000000000000000   0.000000000000000  -0.000000000000000 1
force Ru   0.000000000000000   0.000000000000000   0.000000000000000 1
force Ru  -0.000000000000000   0.000000000000000   0.000000000000000 1
force Ru  -0.000000000000000   0.000000000000000   0.000000000000000 1
force Ru   0.000000000000000   0.000000000000000  -0.000000000000000 1
force Ru   0.000000000000000   0.000000000000000  -0.000000000000000 1
force Ru  -0.000000000000000   0.000000000000000   0.000000000000000 1
force Ru  -0.000000000000000   0.000000000000000   0.000000000000000 1
force Ru   0.000000000000000   0.000000000000000  -0.000000000000000 1
force Se   0.000000000000000  -0.000000000000000   0.000144873081503 1
force Se  -0.000000000000000   0.000000000000000  -0.000144873081616 1
force Se  -0.000000000000000  -0.000000000000000   0.000144873081619 1
force Se   0.000000000000000   0.000000000000000  -0.000144873081389 1
force Se   0.000000000000000  -0.000000000000000   0.000144873081391 1
force Se  -0.000000000000000   0.000000000000000  -0.000144873081503 1
force Se  -0.000000000000000  -0.000000000000000   0.000144873081391 1
force Se  -0.000000000000000   0.000000000000000  -0.000144873081503 1
force Se   0.000000000000000  -0.000000000000000   0.000144873081275 1
force Se  -0.000000000000000   0.000000000000000  -0.000144873081618 1
force Se   0.000000000000000  -0.000000000000000   0.000144873081618 1
force Se   0.000000000000000   0.000000000000000  -0.000144873081505 1
force Se   0.000000000000000  -0.000000000000000   0.000144873081618 1
force Se   0.000000000000000   0.000000000000000  -0.000144873081505 1
force Se   0.000000000000000  -0.000000000000000   0.000144873081505 1
force Se   0.000000000000000   0.000000000000000  -0.000144873081505 1
force Se   0.000000000000000  -0.000000000000000   0.000144873081277 1
force Se  -0.000000000000000   0.000000000000000  -0.000144873081505 1
force Se   0.000000000000000  -0.000000000000000   0.000144873081391 1
force Se   0.000000000000000   0.000000000000000  -0.000144873081505 1
force Se   0.000000000000000  -0.000000000000000   0.000144873081619 1
force Se  -0.000000000000000   0.000000000000000  -0.000144873081619 1
force Se  -0.000000000000000  -0.000000000000000   0.000144873081616 1
force Se  -0.000000000000000   0.000000000000000  -0.000144873081505 1
force Se   0.000000000000000  -0.000000000000000   0.000144873081503 1
force Se  -0.000000000000000   0.000000000000000  -0.000144873081391 1
force Se   0.000000000000000  -0.000000000000000   0.000144873081389 1
force Se   0.000000000000000   0.000000000000000  -0.000144873081391 1
force Se   0.000000000000000  -0.000000000000000   0.000144873081505 1
force Se  -0.000000000000000   0.000000000000000  -0.000144873081505 1
force Se  -0.000000000000000  -0.000000000000000   0.000144873081618 1
force Se  -0.000000000000000  -0.000000000000000  -0.000144873081619 1

# Energy components:
   A_diel =        0.0103714565630134
   Eewald =     8540.4519739042225410
       EH =    10094.4310296880266833
     Eloc =   -21129.7910926229196775
      Enl =      366.3675727419513350
      Exc =     -682.4856632929004263
 Exc_core =      425.1673876852688068
       KE =      559.1929784472658866
-------------------------------------
     Etot =    -1826.6554419925200818
       TS =        0.1330133908367237
-------------------------------------
        F =    -1826.7884553833569043

IonicMinimize: Iter:   3  F: -1826.788455383356904  |grad|_K:  1.993e-06  alpha:  1.000e+00  linmin:  1.000e+00  t[s]:   7859.72
IonicMinimize: Converged (|grad|_K<1.000000e-04).

#--- Lowdin population analysis ---
# oxidation-state Ru -0.830 -0.830 -0.830 -0.830 -0.830 -0.830 -0.830 -0.830 -0.830 -0.830 -0.830 -0.830 -0.830 -0.830 -0.830 -0.830
# magnetic-moments Ru +0.000 +0.000 +0.000 +0.000 +0.000 +0.000 +0.000 +0.000 +0.000 +0.000 +0.000 +0.000 +0.000 +0.000 +0.000 +0.000
# oxidation-state Se +0.483 +0.483 +0.483 +0.483 +0.483 +0.483 +0.483 +0.483 +0.483 +0.483 +0.483 +0.483 +0.483 +0.483 +0.483 +0.483 +0.483 +0.483 +0.483 +0.483 +0.483 +0.483 +0.483 +0.483 +0.483 +0.483 +0.483 +0.483 +0.483 +0.483 +0.483 +0.483
# magnetic-moments Se -0.000 -0.000 -0.000 -0.000 -0.000 -0.000 -0.000 -0.000 -0.000 -0.000 -0.000 -0.000 -0.000 -0.000 -0.000 -0.000 -0.000 -0.000 -0.000 -0.000 -0.000 -0.000 -0.000 -0.000 -0.000 -0.000 -0.000 -0.000 -0.000 -0.000 -0.000 -0.000


Dumping 'NbTe2.fillings' ... done
Dumping 'NbTe2.wfns' ... done
Dumping 'NbTe2.fluidState' ... done
Dumping 'NbTe2.ionpos' ... done
Dumping 'NbTe2.eigenvals' ... done
End date and time: Mon Jan 25 19:30:30 2021  (Duration: 0-2:11:06.22)
Done!
