
*************** JDFTx 1.5.0  ***************

Start date and time: Mon Jul  6 23:47:44 2020
Executable jdftx_gpu with command-line: -i Charged.in -o Charged.out
Running on hosts (process indices):  amax (0)
Divided in process groups (process indices):  0 (0)
gpuInit: Found compatible cuda device 0 'Tesla K80'
gpuInit: Selected device 0
Resource initialization completed at t[s]:      8.94
Run totals: 1 processes, 24 threads, 1 GPUs


Input parsed successfully to the following command list (including defaults):

basis kpoint-dependent
cache-projectors no
coords-type Lattice
core-overlap-check none
coulomb-interaction Slab 001
coulomb-truncation-embed 0 0 0.5
davidson-band-ratio 1.1
dump End State
dump-name NbTe2.$VAR
elec-cutoff 20 100
elec-eigen-algo Davidson
elec-ex-corr gga-PBE
elec-smearing Gauss 0.0073499
electronic-minimize  \
	dirUpdateScheme      FletcherReeves \
	linminMethod         DirUpdateRecommended \
	nIterations          100 \
	history              15 \
	knormThreshold       0 \
	energyDiffThreshold  1e-08 \
	nEnergyDiff          2 \
	alphaTstart          1 \
	alphaTmin            1e-10 \
	updateTestStepSize   yes \
	alphaTreduceFactor   0.1 \
	alphaTincreaseFactor 3 \
	nAlphaAdjustMax      3 \
	wolfeEnergy          0.0001 \
	wolfeGradient        0.9 \
	fdTest               no
electronic-scf  \
	nIterations	500 \
	energyDiffThreshold	1e-08 \
	residualThreshold	1e-07 \
	mixFraction	0.5 \
	qMetric	0.8 \
	history	10 \
	nEigSteps	2 \
	eigDiffThreshold	1e-08 \
	mixedVariable	Density \
	qKerker	0.8 \
	qKappa	-1 \
	verbose	no \
	mixFractionMag	1.5
exchange-regularization WignerSeitzTruncated
fluid LinearPCM 298.000000 1.013250
fluid-anion F- 1 MeanFieldLJ \
	epsBulk 1 \
	pMol 0 \
	epsInf 1 \
	Pvap 0 \
	sigmaBulk 0 \
	Rvdw 2.24877 \
	Res 0 \
	tauNuc 343133
fluid-cation Na+ 1 MeanFieldLJ \
	epsBulk 1 \
	pMol 0 \
	epsInf 1 \
	Pvap 0 \
	sigmaBulk 0 \
	Rvdw 2.19208 \
	Res 0 \
	tauNuc 343133
fluid-ex-corr lda-TF lda-PZ
fluid-gummel-loop 10 1.000000e-05
fluid-minimize  \
	dirUpdateScheme      PolakRibiere \
	linminMethod         DirUpdateRecommended \
	nIterations          400 \
	history              15 \
	knormThreshold       1e-11 \
	energyDiffThreshold  0 \
	nEnergyDiff          2 \
	alphaTstart          1 \
	alphaTmin            1e-10 \
	updateTestStepSize   yes \
	alphaTreduceFactor   0.1 \
	alphaTincreaseFactor 3 \
	nAlphaAdjustMax      6 \
	wolfeEnergy          0.0001 \
	wolfeGradient        0.9 \
	fdTest               no
fluid-solvent H2O 55.338 ScalarEOS \
	epsBulk 78.4 \
	pMol 0.92466 \
	epsInf 1.77 \
	Pvap 1.06736e-10 \
	sigmaBulk 4.62e-05 \
	Rvdw 2.61727 \
	Res 1.42 \
	tauNuc 343133 \
	poleEl 15 7 1
forces-output-coords Positions
initial-state NbTe2.$VAR
ion Bi   0.999999999546368   0.939952929148110   0.599468214843503 0
ion Bi   0.499999999546368   0.939952929148110   0.599468214843503 0
ion Bi   0.999999999844647   0.060039662253448   0.400537654713476 0
ion Bi   0.499999999844647   0.060039662253448   0.400537654713476 0
ion Bi   0.250000000197531   0.793651967120980   0.357877739782087 0
ion Bi   0.750000000197531   0.793651967120980   0.357877739782087 0
ion Bi   0.250000000105132   0.337712064018673   0.441646416483154 0
ion Bi   0.750000000105132   0.337712064018673   0.441646416483154 0
ion Bi   0.000000000030020   0.164497901882672   0.570189863254962 0
ion Bi   0.500000000030020   0.164497901882672   0.570189863254962 0
ion Bi   0.999999999818563   0.614530870643316   0.487923704599849 0
ion Bi   0.499999999818563   0.614530870643316   0.487923704599849 0
ion Bi   0.000000000224617   0.835510657716601   0.429810547174943 0
ion Bi   0.500000000224617   0.835510657716601   0.429810547174943 0
ion Bi   0.000000000085791   0.521615209196053   0.311339701431008 0
ion Bi   0.500000000085791   0.521615209196053   0.311339701431008 0
ion Bi   0.249999999825789   0.112234484621139   0.469842323763827 0
ion Bi   0.749999999825789   0.112234484621139   0.469842323763827 0
ion Bi   0.249999999866056   0.662294193014789   0.558349892638246 0
ion Bi   0.749999999866056   0.662294193014789   0.558349892638246 0
ion Bi   0.000000000101402   0.385476998628837   0.512069346265678 0
ion Bi   0.500000000101402   0.385476998628837   0.512069346265678 0
ion Bi   0.249999999542204   0.887770727789872   0.530152890959039 0
ion Bi   0.749999999542204   0.887770727789872   0.530152890959039 0
ion Bi   0.250000000025537   0.206349434629771   0.642126227851495 0
ion Bi   0.750000000025537   0.206349434629771   0.642126227851495 0
ion Bi   0.250000000156490   0.430075001182896   0.616956692632196 0
ion Bi   0.750000000156490   0.430075001182896   0.616956692632196 0
ion Bi   0.250000000095774   0.569926136772988   0.383043645545418 0
ion Bi   0.750000000095774   0.569926136772988   0.383043645545418 0
ion Bi   0.000000000147644   0.478377046960443   0.688665033035926 0
ion Bi   0.500000000147644   0.478377046960443   0.688665033035926 0
ion I   0.999999999915985   0.267410926663241   0.734248322345265 0
ion I   0.499999999915985   0.267410926663241   0.734248322345265 0
ion I   0.999999999827558   0.732573026622131   0.265750068782304 0
ion I   0.499999999827558   0.732573026622131   0.265750068782304 0
ion I   0.000000000453042   0.294786311208194   0.342139648350422 0
ion I   0.500000000453042   0.294786311208194   0.342139648350422 0
ion I   0.000000000189836   0.705214449925824   0.657862065547195 0
ion I   0.500000000189836   0.705214449925824   0.657862065547195 0
ion-species GBRV/$ID_pbe.uspp
ion-width Ecut
ionic-minimize  \
	dirUpdateScheme      L-BFGS \
	linminMethod         DirUpdateRecommended \
	nIterations          0 \
	history              15 \
	knormThreshold       0.0001 \
	energyDiffThreshold  1e-06 \
	nEnergyDiff          2 \
	alphaTstart          1 \
	alphaTmin            1e-10 \
	updateTestStepSize   yes \
	alphaTreduceFactor   0.1 \
	alphaTincreaseFactor 3 \
	nAlphaAdjustMax      3 \
	wolfeEnergy          0.0001 \
	wolfeGradient        0.9 \
	fdTest               no
kpoint   0.000000000000   0.000000000000   0.000000000000  1.00000000000000
kpoint-folding 4 3 1 
latt-move-scale 1 1 1
latt-scale 1 1 1 
lattice Triclinic 16.7347 25.0422 53.813 90 90 90
lattice-minimize  \
	dirUpdateScheme      L-BFGS \
	linminMethod         DirUpdateRecommended \
	nIterations          0 \
	history              15 \
	knormThreshold       0 \
	energyDiffThreshold  1e-06 \
	nEnergyDiff          2 \
	alphaTstart          1 \
	alphaTmin            1e-10 \
	updateTestStepSize   yes \
	alphaTreduceFactor   0.1 \
	alphaTincreaseFactor 3 \
	nAlphaAdjustMax      3 \
	wolfeEnergy          0.0001 \
	wolfeGradient        0.9 \
	fdTest               no
lcao-params -1 1e-06 0.0073499
pcm-variant CANDLE
spintype no-spin
subspace-rotation-factor 1 yes
symmetries automatic
symmetry-threshold 0.0001
target-mu -0.171252 no




---------- Setting up symmetries ----------

Found 8 point-group symmetries of the bravais lattice
Found 4 space-group symmetries with basis
Applied RMS atom displacement 3.69296e-09 bohrs to make symmetries exact.

---------- Initializing the Grid ----------
R = 
[    16.7347          0          0  ]
[          0    25.0422          0  ]
[          0          0     53.813  ]
unit cell volume = 22551.6
G =
[   0.375458          0          0  ]
[          0   0.250904          0  ]
[          0          0    0.11676  ]
Minimum fftbox size, Smin = [  76  116  244  ]
Chosen fftbox size, S = [  80  120  250  ]

---------- Initializing tighter grid for wavefunction operations ----------
R = 
[    16.7347          0          0  ]
[          0    25.0422          0  ]
[          0          0     53.813  ]
unit cell volume = 22551.6
G =
[   0.375458          0          0  ]
[          0   0.250904          0  ]
[          0          0    0.11676  ]
Minimum fftbox size, Smin = [  68  104  220  ]
Chosen fftbox size, S = [  70  108  224  ]

---------- Exchange Correlation functional ----------
Initalized PBE GGA exchange.
Initalized PBE GGA correlation.

---------- Setting up pseudopotentials ----------
Width of ionic core gaussian charges (only for fluid interactions / plotting) set to 0.397384

Reading pseudopotential file '/home/guoxy/vasp/jdftx-1.5.0/build/pseudopotentials/GBRV/bi_pbe.uspp':
  Title: Bi.  Created by USPP 7.3.6 on 14-9-2013
  Reference state energy: -92.204004.  15 valence electrons in orbitals:
    |520>  occupation: 10  eigenvalue: -1.293263
    |600>  occupation: 2  eigenvalue: -0.812524
    |610>  occupation: 2  eigenvalue: -0.420386
  lMax: 2  lLocal: 3  QijEcut: 5
  6 projectors sampled on a log grid with 747 points:
    l: 0  eig: -0.812524  rCut: 2.5
    l: 0  eig: 0.500000  rCut: 2.5
    l: 1  eig: -0.420386  rCut: 2.5
    l: 1  eig: 1.000000  rCut: 2.5
    l: 2  eig: -1.293263  rCut: 2.3
    l: 2  eig: -0.500000  rCut: 2.3
  Partial core density with radius 1
  Transforming core density to a uniform radial grid of dG=0.02 with 1295 points.
  Transforming local potential to a uniform radial grid of dG=0.02 with 1295 points.
  Transforming nonlocal projectors to a uniform radial grid of dG=0.02 with 432 points.
  Transforming density augmentations to a uniform radial grid of dG=0.02 with 1295 points.
  Transforming atomic orbitals to a uniform radial grid of dG=0.02 with 432 points.
  Core radius for overlap checks: 2.50 bohrs.

Reading pseudopotential file '/home/guoxy/vasp/jdftx-1.5.0/build/pseudopotentials/GBRV/i_pbe.uspp':
  Title: I.  Created by USPP 7.3.6 on 14-9-2013
  Reference state energy: -32.770235.  7 valence electrons in orbitals:
    |500>  occupation: 2  eigenvalue: -0.639712
    |510>  occupation: 5  eigenvalue: -0.260406
  lMax: 2  lLocal: 3  QijEcut: 5
  6 projectors sampled on a log grid with 725 points:
    l: 0  eig: -0.639710  rCut: 1.9
    l: 0  eig: 0.000000  rCut: 1.9
    l: 1  eig: -0.260404  rCut: 2
    l: 1  eig: 0.000000  rCut: 2
    l: 2  eig: -0.500000  rCut: 2.45
    l: 2  eig: 0.500000  rCut: 2.45
  Partial core density with radius 1.3
  Transforming core density to a uniform radial grid of dG=0.02 with 1295 points.
  Transforming local potential to a uniform radial grid of dG=0.02 with 1295 points.
  Transforming nonlocal projectors to a uniform radial grid of dG=0.02 with 432 points.
  Transforming density augmentations to a uniform radial grid of dG=0.02 with 1295 points.
  Transforming atomic orbitals to a uniform radial grid of dG=0.02 with 432 points.
  Core radius for overlap checks: 2.45 bohrs.

Initialized 2 species with 40 total atoms.

Folded 1 k-points by 4x3x1 to 12 k-points.

---------- Setting up k-points, bands, fillings ----------
Adding inversion symmetry to k-mesh for non-inversion-symmetric unit cell.
Reduced to 6 k-points under symmetry. 
Computing the number of bands and number of electrons
Reading initial fillings from file NbTe2.fillings.
nElectrons: 536.000000   nBands: 320   nStates: 6

----- Setting up reduced wavefunction bases (one per k-point) -----
average nbasis = 96340.417 , ideal nbasis = 96342.186

---------- Setting up coulomb interaction ----------
Fluid mode embedding: using embedded box, but periodic Coulomb kernel.
(Fluid response is responsible for (approximate) separation between periodic images.)
Setting up double-sized grid for truncated Coulomb potentials:
R = 
[    16.7347          0          0  ]
[          0    25.0422          0  ]
[          0          0    107.626  ]
unit cell volume = 45103.2
G =
[   0.375458          0          0  ]
[          0   0.250904          0  ]
[          0          0  0.0583798  ]
Chosen fftbox size, S = [  80  120  500  ]
Integer grid location selected as the embedding center:
   Grid: [  0  0  125  ]
   Lattice: [  0  0  0.5  ]
   Cartesian: [  0  0  26.9065  ]
Constructing Wigner-Seitz cell: 6 faces (6 quadrilaterals, 0 hexagons)
Range-separation parameter for embedded mesh potentials due to point charges: 0.585307 bohrs.

Initializing van der Waals corrections
	NOTE: vdW corrections apply only for interactions with fluid.
	Bi:  C6:  893.28 Eh-a0^6  R0: 3.555 a0 (WARNING: beyond Grimme's data set)
	 I:  C6:  546.38 Eh-a0^6  R0: 3.575 a0

---------- Setting up ewald sum ----------
Optimum gaussian width for ewald sums = 7.678963 bohr.
Real space sum over 585 unit cells with max indices [  6  4  2  ]
Reciprocal space sum over 6721 terms with max indices [  5  6  23  ]

---------- Allocating electronic variables ----------
Initializing wave functions:  reading from 'NbTe2.wfns'
----- createFluidSolver() ----- (Fluid-side solver setup)
   Initializing fluid molecule 'H2O'
     Initializing site 'O'
       Electron density: proportional to exp(-r/0.36935)*erfc((r-0.51523)/0.36823) with norm 6.826
       Charge density: gaussian nuclear width 0.478731 with net site charge 0.826
       Polarizability: cuspless exponential with width 0.32 and norm 3.73
       Hard sphere radius: 2.57003 bohrs
       Positions in reference frame:
         [ +0.000000 +0.000000 +0.000000 ]
     Initializing site 'H'
       Electron density: proportional to exp(-r/0.34641)*erfc((r-0)/0.390882) with norm 0.587
       Charge density: gaussian nuclear width 0.377945 with net site charge -0.413
       Polarizability: cuspless exponential with width 0.39 and norm 3.3
       Positions in reference frame:
         [ +0.000000 -1.441945 +1.122523 ]
         [ +0.000000 +1.441945 +1.122523 ]
     Net charge: 0   dipole magnitude: 0.927204
     Initializing spherical shell mfKernel with radius 2.61727 Bohr
     deltaS corrections:
       site 'O': -7.54299
       site 'H': -6.83917
   Initializing fluid molecule 'Na+'
     Initializing site 'Na'
       Electron density: proportional to exp(-r/0.19682)*erfc((r-0.71491)/0.41314) with norm 8.1383
       Charge density: gaussian nuclear width 0.365347 with net site charge -1
       Hard sphere radius: 1.86327 bohrs
       Positions in reference frame:
         [ +0.000000 +0.000000 +0.000000 ]
     Net charge: -1   dipole magnitude: 0
     Initializing gaussian mfKernel with width: 1.55004 Bohr
     deltaS corrections:
       site 'Na': -22.3555
   Initializing fluid molecule 'F-'
     Initializing site 'F'
       Electron density: proportional to exp(-r/0.38886)*erfc((r-0)/0.438782) with norm 8
       Charge density: gaussian nuclear width 0.374796 with net site charge 1
       Hard sphere radius: 2.39995 bohrs
       Positions in reference frame:
         [ +0.000000 +0.000000 +0.000000 ]
     Net charge: 1   dipole magnitude: 0
     Initializing gaussian mfKernel with width: 1.59012 Bohr
     deltaS corrections:
       site 'F': -9.04335

Correction to mu due to finite nuclear width = -0.0117912
   Cavity determined by nc: 0.00142 and sigma: 0.707107
   Nonlocal vdW cavity from gaussian model electron density with norm = 8 and sigma = 0.993594 bohr
   Charge asymmetry in cavity with sensitivity pCavity = 36.5 e-bohr/Eh
   Electrostatic cavity expanded by eta = 1.46 bohrs
   Weighted density cavitation model constrained by Nbulk: 0.0049383 bohr^-3, Pvap: 3.14029 kPa, Rvdw: 2.61727 bohr and sigmaBulk: 4.62e-05 Eh/bohr^2 at T: 298 K.
   Weighted density dispersion model using vdW pair potentials with single solvent site with sqrtC6eff: 0.77 SI.
Reading fluid state from 'NbTe2.fluidState'


---- Citations for features of the code used in this run ----

   Software package:
      R. Sundararaman, K. Letchworth-Weaver, K.A. Schwarz, D. Gunceler, Y. Ozhabes and T.A. Arias, 'JDFTx: software for joint density-functional theory', SoftwareX 6, 278 (2017)

   gga-PBE exchange-correlation functional:
      J.P. Perdew, K. Burke and M. Ernzerhof, Phys. Rev. Lett. 77, 3865 (1996)

   Pseudopotentials:
      KF Garrity, JW Bennett, KM Rabe and D Vanderbilt, Comput. Mater. Sci. 81, 446 (2014)

   Truncated Coulomb potentials:
      R. Sundararaman and T.A. Arias, Phys. Rev. B 87, 165122 (2013)

   Van der Waals correction pair-potentials:
      S. Grimme, J. Comput. Chem. 27, 1787 (2006)

   Charge-asymmetric nonlocally-determined local-electric (CANDLE) solvation model:
      R. Sundararaman and W.A. Goddard III, J. Chem. Phys. 142, 064107 (2015)

   Grand-canonical (fixed-potential) DFT:
      R. Sundararaman, W. A. Goddard III and T. A. Arias, J. Chem. Phys. 146, 114104 (2017)

This list may not be complete. Please suggest additional citations or
report any other bugs at https://github.com/shankar1729/jdftx/issues

Initialization completed successfully at t[s]:     52.03

Shifting auxilliary hamiltonian by -0.000225 to set nElectrons=536.000000
	Linear fluid (dielectric constant: 78.4, screening length: 5.74355 Bohr) occupying 0.714426 of unit cell:	Completed after 0 iterations at t[s]:     63.34

-------- Electronic minimization -----------
Will mix electronic density at each iteration.
	FillingsUpdate:  mu: -0.171251800  nElectrons: 536.000000
	Linear fluid (dielectric constant: 78.4, screening length: 5.74355 Bohr) occupying 0.714426 of unit cell:	Completed after 0 iterations at t[s]:     76.22
	FillingsUpdate:  mu: -0.171251800  nElectrons: 535.920097
	Linear fluid (dielectric constant: 78.4, screening length: 5.74355 Bohr) occupying 0.714398 of unit cell:	Completed after 14 iterations at t[s]:    167.25
SCF: Cycle:  0   G: -2301.229999044972374   dG: +2.106e-04   |Residual|: 1.101e-03   |deigs|: 7.833e-07  t[s]:    169.02
	Linear fluid (dielectric constant: 78.4, screening length: 5.74355 Bohr) occupying 0.714409 of unit cell:	Completed after 14 iterations at t[s]:    171.26
	FillingsUpdate:  mu: -0.171251800  nElectrons: 536.014351
	Linear fluid (dielectric constant: 78.4, screening length: 5.74355 Bohr) occupying 0.714455 of unit cell:	Completed after 12 iterations at t[s]:    252.20
SCF: Cycle:  1   G: -2301.230170480103880   dG: -1.714e-04   |Residual|: 7.227e-04   |deigs|: 2.861e-04  t[s]:    253.82
	Linear fluid (dielectric constant: 78.4, screening length: 5.74355 Bohr) occupying 0.714399 of unit cell:	Completed after 12 iterations at t[s]:    255.78
	FillingsUpdate:  mu: -0.171251800  nElectrons: 535.985109
	Linear fluid (dielectric constant: 78.4, screening length: 5.74355 Bohr) occupying 0.714432 of unit cell:	Completed after 6 iterations at t[s]:    328.71
SCF: Cycle:  2   G: -2301.230209394575468   dG: -3.891e-05   |Residual|: 2.747e-04   |deigs|: 9.669e-05  t[s]:    330.42
	Linear fluid (dielectric constant: 78.4, screening length: 5.74355 Bohr) occupying 0.714388 of unit cell:	Completed after 4 iterations at t[s]:    331.55
	FillingsUpdate:  mu: -0.171251800  nElectrons: 535.990939
	Linear fluid (dielectric constant: 78.4, screening length: 5.74355 Bohr) occupying 0.714437 of unit cell:	Completed after 3 iterations at t[s]:    403.80
SCF: Cycle:  3   G: -2301.230210410519248   dG: -1.016e-06   |Residual|: 1.832e-04   |deigs|: 3.054e-05  t[s]:    405.66
	Linear fluid (dielectric constant: 78.4, screening length: 5.74355 Bohr) occupying 0.714377 of unit cell:	Completed after 3 iterations at t[s]:    406.66
	FillingsUpdate:  mu: -0.171251800  nElectrons: 535.995088
	Linear fluid (dielectric constant: 78.4, screening length: 5.74355 Bohr) occupying 0.714439 of unit cell:	Completed after 7 iterations at t[s]:    506.83
SCF: Cycle:  4   G: -2301.230208702485470   dG: +1.708e-06   |Residual|: 1.834e-04   |deigs|: 2.212e-05  t[s]:    508.39
	Linear fluid (dielectric constant: 78.4, screening length: 5.74355 Bohr) occupying 0.714376 of unit cell:	Completed after 5 iterations at t[s]:    509.54
	FillingsUpdate:  mu: -0.171251800  nElectrons: 535.939746
	Linear fluid (dielectric constant: 78.4, screening length: 5.74355 Bohr) occupying 0.714406 of unit cell:	Completed after 14 iterations at t[s]:    625.79
SCF: Cycle:  5   G: -2301.230084129639181   dG: +1.246e-04   |Residual|: 7.754e-04   |deigs|: 1.622e-04  t[s]:    627.44
	Linear fluid (dielectric constant: 78.4, screening length: 5.74355 Bohr) occupying 0.714382 of unit cell:	Completed after 14 iterations at t[s]:    629.62
	FillingsUpdate:  mu: -0.171251800  nElectrons: 535.960953
	Linear fluid (dielectric constant: 78.4, screening length: 5.74355 Bohr) occupying 0.714419 of unit cell:	Completed after 13 iterations at t[s]:    703.08
SCF: Cycle:  6   G: -2301.230163166167586   dG: -7.904e-05   |Residual|: 5.001e-04   |deigs|: 6.335e-05  t[s]:    704.89
	Linear fluid (dielectric constant: 78.4, screening length: 5.74355 Bohr) occupying 0.714375 of unit cell:	Completed after 14 iterations at t[s]:    707.07
	FillingsUpdate:  mu: -0.171251800  nElectrons: 535.944169
	Linear fluid (dielectric constant: 78.4, screening length: 5.74355 Bohr) occupying 0.714410 of unit cell:	Completed after 14 iterations at t[s]:    780.55
SCF: Cycle:  7   G: -2301.230099022532158   dG: +6.414e-05   |Residual|: 7.749e-04   |deigs|: 5.217e-05  t[s]:    782.36
	Linear fluid (dielectric constant: 78.4, screening length: 5.74355 Bohr) occupying 0.714380 of unit cell:	Completed after 14 iterations at t[s]:    784.57
	FillingsUpdate:  mu: -0.171251800  nElectrons: 535.912248
	Linear fluid (dielectric constant: 78.4, screening length: 5.74355 Bohr) occupying 0.714396 of unit cell:	Completed after 15 iterations at t[s]:    870.93
SCF: Cycle:  8   G: -2301.229899698506415   dG: +1.993e-04   |Residual|: 1.269e-03   |deigs|: 9.413e-05  t[s]:    872.58
	Linear fluid (dielectric constant: 78.4, screening length: 5.74355 Bohr) occupying 0.714401 of unit cell:	Completed after 15 iterations at t[s]:    874.85
	FillingsUpdate:  mu: -0.171251800  nElectrons: 535.864211
	Linear fluid (dielectric constant: 78.4, screening length: 5.74355 Bohr) occupying 0.714379 of unit cell:	Completed after 16 iterations at t[s]:    956.09
SCF: Cycle:  9   G: -2301.229416825526641   dG: +4.829e-04   |Residual|: 2.023e-03   |deigs|: 1.407e-04  t[s]:    957.84
	Linear fluid (dielectric constant: 78.4, screening length: 5.74355 Bohr) occupying 0.714398 of unit cell:	Completed after 16 iterations at t[s]:    960.26
	FillingsUpdate:  mu: -0.171251800  nElectrons: 535.869345
	Linear fluid (dielectric constant: 78.4, screening length: 5.74355 Bohr) occupying 0.714380 of unit cell:	Completed after 16 iterations at t[s]:   1034.02
SCF: Cycle: 10   G: -2301.229490662725311   dG: -7.384e-05   |Residual|: 1.935e-03   |deigs|: 1.496e-05  t[s]:   1035.71
	Linear fluid (dielectric constant: 78.4, screening length: 5.74355 Bohr) occupying 0.714400 of unit cell:	Completed after 16 iterations at t[s]:   1038.13
	FillingsUpdate:  mu: -0.171251800  nElectrons: 535.871640
	Linear fluid (dielectric constant: 78.4, screening length: 5.74355 Bohr) occupying 0.714381 of unit cell:	Completed after 16 iterations at t[s]:   1102.99
SCF: Cycle: 11   G: -2301.229519142782010   dG: -2.848e-05   |Residual|: 1.898e-03   |deigs|: 7.078e-06  t[s]:   1104.83
	Linear fluid (dielectric constant: 78.4, screening length: 5.74355 Bohr) occupying 0.714398 of unit cell:	Completed after 17 iterations at t[s]:   1107.52
	FillingsUpdate:  mu: -0.171251800  nElectrons: 535.873245
	Linear fluid (dielectric constant: 78.4, screening length: 5.74355 Bohr) occupying 0.714381 of unit cell:	Completed after 15 iterations at t[s]:   1168.87
SCF: Cycle: 12   G: -2301.229539445520459   dG: -2.030e-05   |Residual|: 1.875e-03   |deigs|: 4.708e-06  t[s]:   1170.60
	Linear fluid (dielectric constant: 78.4, screening length: 5.74355 Bohr) occupying 0.714403 of unit cell:	Completed after 16 iterations at t[s]:   1173.11
	FillingsUpdate:  mu: -0.171251800  nElectrons: 535.850556
	Linear fluid (dielectric constant: 78.4, screening length: 5.74355 Bohr) occupying 0.714374 of unit cell:	Completed after 16 iterations at t[s]:   1247.19
SCF: Cycle: 13   G: -2301.229236635265352   dG: +3.028e-04   |Residual|: 2.245e-03   |deigs|: 6.628e-05  t[s]:   1248.94
	Linear fluid (dielectric constant: 78.4, screening length: 5.74355 Bohr) occupying 0.714403 of unit cell:	Completed after 17 iterations at t[s]:   1251.50
	FillingsUpdate:  mu: -0.171251800  nElectrons: 535.852764
	Linear fluid (dielectric constant: 78.4, screening length: 5.74355 Bohr) occupying 0.714375 of unit cell:	Completed after 15 iterations at t[s]:   1324.76
SCF: Cycle: 14   G: -2301.229275878103635   dG: -3.924e-05   |Residual|: 2.210e-03   |deigs|: 6.710e-06  t[s]:   1326.55
	Linear fluid (dielectric constant: 78.4, screening length: 5.74355 Bohr) occupying 0.714365 of unit cell:	Completed after 17 iterations at t[s]:   1329.16
	FillingsUpdate:  mu: -0.171251800  nElectrons: 535.884156
	Linear fluid (dielectric constant: 78.4, screening length: 5.74355 Bohr) occupying 0.714385 of unit cell:	Completed after 15 iterations at t[s]:   1402.59
SCF: Cycle: 15   G: -2301.229581274513748   dG: -3.054e-04   |Residual|: 1.792e-03   |deigs|: 9.802e-05  t[s]:   1404.46
	Linear fluid (dielectric constant: 78.4, screening length: 5.74355 Bohr) occupying 0.714344 of unit cell:	Completed after 16 iterations at t[s]:   1407.02
	FillingsUpdate:  mu: -0.171251800  nElectrons: 535.989840
	Linear fluid (dielectric constant: 78.4, screening length: 5.74355 Bohr) occupying 0.714440 of unit cell:	Completed after 7 iterations at t[s]:   1493.12
SCF: Cycle: 16   G: -2301.230207526783488   dG: -6.263e-04   |Residual|: 2.952e-04   |deigs|: 3.132e-04  t[s]:   1494.76
	Linear fluid (dielectric constant: 78.4, screening length: 5.74355 Bohr) occupying 0.714353 of unit cell:	Completed after 5 iterations at t[s]:   1496.10
	FillingsUpdate:  mu: -0.171251800  nElectrons: 536.021515
	Linear fluid (dielectric constant: 78.4, screening length: 5.74355 Bohr) occupying 0.714462 of unit cell:	Completed after 14 iterations at t[s]:   1576.86
SCF: Cycle: 17   G: -2301.230164183465149   dG: +4.334e-05   |Residual|: 5.129e-04   |deigs|: 9.461e-05  t[s]:   1578.41
	Linear fluid (dielectric constant: 78.4, screening length: 5.74355 Bohr) occupying 0.714359 of unit cell:	Completed after 12 iterations at t[s]:   1580.36
	FillingsUpdate:  mu: -0.171251800  nElectrons: 535.955274
	Linear fluid (dielectric constant: 78.4, screening length: 5.74355 Bohr) occupying 0.714416 of unit cell:	Completed after 14 iterations at t[s]:   1653.57
SCF: Cycle: 18   G: -2301.230157325775053   dG: +6.858e-06   |Residual|: 5.672e-04   |deigs|: 1.974e-04  t[s]:   1655.30
	Linear fluid (dielectric constant: 78.4, screening length: 5.74355 Bohr) occupying 0.714358 of unit cell:	Completed after 13 iterations at t[s]:   1657.48
	FillingsUpdate:  mu: -0.171251800  nElectrons: 535.960565
	Linear fluid (dielectric constant: 78.4, screening length: 5.74355 Bohr) occupying 0.714421 of unit cell:	Completed after 14 iterations at t[s]:   1730.06
SCF: Cycle: 19   G: -2301.230153275024350   dG: +4.051e-06   |Residual|: 5.436e-04   |deigs|: 2.993e-05  t[s]:   1731.59
	Linear fluid (dielectric constant: 78.4, screening length: 5.74355 Bohr) occupying 0.714371 of unit cell:	Completed after 13 iterations at t[s]:   1733.66
	FillingsUpdate:  mu: -0.171251800  nElectrons: 535.953078
	Linear fluid (dielectric constant: 78.4, screening length: 5.74355 Bohr) occupying 0.714417 of unit cell:	Completed after 14 iterations at t[s]:   1806.45
SCF: Cycle: 20   G: -2301.230140218212455   dG: +1.306e-05   |Residual|: 6.452e-04   |deigs|: 2.864e-05  t[s]:   1808.17
	Linear fluid (dielectric constant: 78.4, screening length: 5.74355 Bohr) occupying 0.714375 of unit cell:	Completed after 14 iterations at t[s]:   1810.45
	FillingsUpdate:  mu: -0.171251800  nElectrons: 535.941210
	Linear fluid (dielectric constant: 78.4, screening length: 5.74355 Bohr) occupying 0.714411 of unit cell:	Completed after 14 iterations at t[s]:   1883.68
SCF: Cycle: 21   G: -2301.230092308192070   dG: +4.791e-05   |Residual|: 8.322e-04   |deigs|: 3.539e-05  t[s]:   1885.41
	Linear fluid (dielectric constant: 78.4, screening length: 5.74355 Bohr) occupying 0.714383 of unit cell:	Completed after 14 iterations at t[s]:   1887.63
	FillingsUpdate:  mu: -0.171251800  nElectrons: 535.927527
	Linear fluid (dielectric constant: 78.4, screening length: 5.74355 Bohr) occupying 0.714404 of unit cell:	Completed after 15 iterations at t[s]:   1961.00
SCF: Cycle: 22   G: -2301.230025444700459   dG: +6.686e-05   |Residual|: 1.058e-03   |deigs|: 4.134e-05  t[s]:   1962.72
	Linear fluid (dielectric constant: 78.4, screening length: 5.74355 Bohr) occupying 0.714388 of unit cell:	Completed after 15 iterations at t[s]:   1965.03
	FillingsUpdate:  mu: -0.171251800  nElectrons: 535.914819
	Linear fluid (dielectric constant: 78.4, screening length: 5.74355 Bohr) occupying 0.714397 of unit cell:	Completed after 16 iterations at t[s]:   2038.16
SCF: Cycle: 23   G: -2301.229949986399333   dG: +7.546e-05   |Residual|: 1.278e-03   |deigs|: 3.833e-05  t[s]:   2039.86
	Linear fluid (dielectric constant: 78.4, screening length: 5.74355 Bohr) occupying 0.714393 of unit cell:	Completed after 15 iterations at t[s]:   2042.20
	FillingsUpdate:  mu: -0.171251800  nElectrons: 535.914628
	Linear fluid (dielectric constant: 78.4, screening length: 5.74355 Bohr) occupying 0.714398 of unit cell:	Completed after 16 iterations at t[s]:   2115.88
SCF: Cycle: 24   G: -2301.229961984117836   dG: -1.200e-05   |Residual|: 1.310e-03   |deigs|: 1.015e-05  t[s]:   2117.69
	Linear fluid (dielectric constant: 78.4, screening length: 5.74355 Bohr) occupying 0.714371 of unit cell:	Completed after 16 iterations at t[s]:   2120.10
	FillingsUpdate:  mu: -0.171251800  nElectrons: 535.953966
	Linear fluid (dielectric constant: 78.4, screening length: 5.74355 Bohr) occupying 0.714417 of unit cell:	Completed after 14 iterations at t[s]:   2193.03
SCF: Cycle: 25   G: -2301.230140412305445   dG: -1.784e-04   |Residual|: 6.285e-04   |deigs|: 1.198e-04  t[s]:   2195.15
	Linear fluid (dielectric constant: 78.4, screening length: 5.74355 Bohr) occupying 0.714390 of unit cell:	Completed after 14 iterations at t[s]:   2205.95
	FillingsUpdate:  mu: -0.171251800  nElectrons: 535.922369
	Linear fluid (dielectric constant: 78.4, screening length: 5.74355 Bohr) occupying 0.714401 of unit cell:	Completed after 15 iterations at t[s]:   2277.80
SCF: Cycle: 26   G: -2301.230010817546372   dG: +1.296e-04   |Residual|: 1.165e-03   |deigs|: 9.708e-05  t[s]:   2279.30
	Linear fluid (dielectric constant: 78.4, screening length: 5.74355 Bohr) occupying 0.714368 of unit cell:	Completed after 15 iterations at t[s]:   2281.58
	FillingsUpdate:  mu: -0.171251800  nElectrons: 535.982626
	Linear fluid (dielectric constant: 78.4, screening length: 5.74355 Bohr) occupying 0.714435 of unit cell:	Completed after 10 iterations at t[s]:   2367.34
SCF: Cycle: 27   G: -2301.230207086602150   dG: -1.963e-04   |Residual|: 2.025e-04   |deigs|: 1.822e-04  t[s]:   2368.90
	Linear fluid (dielectric constant: 78.4, screening length: 5.74355 Bohr) occupying 0.714370 of unit cell:	Completed after 8 iterations at t[s]:   2370.46
	FillingsUpdate:  mu: -0.171251800  nElectrons: 535.998815
	Linear fluid (dielectric constant: 78.4, screening length: 5.74355 Bohr) occupying 0.714447 of unit cell:	Completed after 8 iterations at t[s]:   2441.05
SCF: Cycle: 28   G: -2301.230207967255865   dG: -8.807e-07   |Residual|: 1.275e-04   |deigs|: 4.628e-05  t[s]:   2442.64
	Linear fluid (dielectric constant: 78.4, screening length: 5.74355 Bohr) occupying 0.714379 of unit cell:	Completed after 8 iterations at t[s]:   2444.20
	FillingsUpdate:  mu: -0.171251800  nElectrons: 535.965708
	Linear fluid (dielectric constant: 78.4, screening length: 5.74355 Bohr) occupying 0.714423 of unit cell:	Completed after 11 iterations at t[s]:   2543.27
SCF: Cycle: 29   G: -2301.230192438147242   dG: +1.553e-05   |Residual|: 4.660e-04   |deigs|: 9.861e-05  t[s]:   2544.82
	Linear fluid (dielectric constant: 78.4, screening length: 5.74355 Bohr) occupying 0.714378 of unit cell:	Completed after 12 iterations at t[s]:   2546.80
	FillingsUpdate:  mu: -0.171251800  nElectrons: 535.973446
	Linear fluid (dielectric constant: 78.4, screening length: 5.74355 Bohr) occupying 0.714429 of unit cell:	Completed after 12 iterations at t[s]:   2618.17
SCF: Cycle: 30   G: -2301.230196455947407   dG: -4.018e-06   |Residual|: 2.877e-04   |deigs|: 2.919e-05  t[s]:   2619.93
	Linear fluid (dielectric constant: 78.4, screening length: 5.74355 Bohr) occupying 0.714386 of unit cell:	Completed after 12 iterations at t[s]:   2621.92
	FillingsUpdate:  mu: -0.171251800  nElectrons: 535.985537
	Linear fluid (dielectric constant: 78.4, screening length: 5.74355 Bohr) occupying 0.714437 of unit cell:	Completed after 4 iterations at t[s]:   2700.38
SCF: Cycle: 31   G: -2301.230210079558674   dG: -1.362e-05   |Residual|: 2.476e-04   |deigs|: 4.056e-05  t[s]:   2701.94
	Linear fluid (dielectric constant: 78.4, screening length: 5.74355 Bohr) occupying 0.714391 of unit cell:	Completed after 4 iterations at t[s]:   2703.06
	FillingsUpdate:  mu: -0.171251800  nElectrons: 535.992059
	Linear fluid (dielectric constant: 78.4, screening length: 5.74355 Bohr) occupying 0.714442 of unit cell:	Completed after 8 iterations at t[s]:   2773.70
SCF: Cycle: 32   G: -2301.230207703759788   dG: +2.376e-06   |Residual|: 2.949e-04   |deigs|: 1.926e-05  t[s]:   2775.38
	Linear fluid (dielectric constant: 78.4, screening length: 5.74355 Bohr) occupying 0.714400 of unit cell:	Completed after 5 iterations at t[s]:   2776.68
	FillingsUpdate:  mu: -0.171251800  nElectrons: 535.935571
	Linear fluid (dielectric constant: 78.4, screening length: 5.74355 Bohr) occupying 0.714409 of unit cell:	Completed after 14 iterations at t[s]:   2883.55
SCF: Cycle: 33   G: -2301.230092726768817   dG: +1.150e-04   |Residual|: 8.522e-04   |deigs|: 1.652e-04  t[s]:   2885.23
	Linear fluid (dielectric constant: 78.4, screening length: 5.74355 Bohr) occupying 0.714410 of unit cell:	Completed after 14 iterations at t[s]:   2887.53
	FillingsUpdate:  mu: -0.171251800  nElectrons: 535.992494
	Linear fluid (dielectric constant: 78.4, screening length: 5.74355 Bohr) occupying 0.714445 of unit cell:	Completed after 8 iterations at t[s]:   2965.54
SCF: Cycle: 34   G: -2301.230207949285614   dG: -1.152e-04   |Residual|: 2.423e-04   |deigs|: 1.688e-04  t[s]:   2967.18
	Linear fluid (dielectric constant: 78.4, screening length: 5.74355 Bohr) occupying 0.714412 of unit cell:	Completed after 5 iterations at t[s]:   2968.46
	FillingsUpdate:  mu: -0.171251800  nElectrons: 535.945934
	Linear fluid (dielectric constant: 78.4, screening length: 5.74355 Bohr) occupying 0.714415 of unit cell:	Completed after 13 iterations at t[s]:   3040.82
SCF: Cycle: 35   G: -2301.230147447202853   dG: +6.050e-05   |Residual|: 7.567e-04   |deigs|: 1.382e-04  t[s]:   3042.31
	Linear fluid (dielectric constant: 78.4, screening length: 5.74355 Bohr) occupying 0.714414 of unit cell:	Completed after 14 iterations at t[s]:   3044.48
	FillingsUpdate:  mu: -0.171251800  nElectrons: 535.990430
	Linear fluid (dielectric constant: 78.4, screening length: 5.74355 Bohr) occupying 0.714443 of unit cell:	Completed after 7 iterations at t[s]:   3114.83
SCF: Cycle: 36   G: -2301.230207092916316   dG: -5.965e-05   |Residual|: 3.435e-04   |deigs|: 1.311e-04  t[s]:   3116.56
	Linear fluid (dielectric constant: 78.4, screening length: 5.74355 Bohr) occupying 0.714420 of unit cell:	Completed after 7 iterations at t[s]:   3118.05
	FillingsUpdate:  mu: -0.171251800  nElectrons: 535.972812
	Linear fluid (dielectric constant: 78.4, screening length: 5.74355 Bohr) occupying 0.714432 of unit cell:	Completed after 10 iterations at t[s]:   3190.02
SCF: Cycle: 37   G: -2301.230203431532573   dG: +3.661e-06   |Residual|: 5.193e-04   |deigs|: 5.322e-05  t[s]:   3191.58
	Linear fluid (dielectric constant: 78.4, screening length: 5.74355 Bohr) occupying 0.714418 of unit cell:	Completed after 10 iterations at t[s]:   3193.30
	FillingsUpdate:  mu: -0.171251800  nElectrons: 536.014665
	Linear fluid (dielectric constant: 78.4, screening length: 5.74355 Bohr) occupying 0.714460 of unit cell:	Completed after 12 iterations at t[s]:   3265.61
SCF: Cycle: 38   G: -2301.230141774321055   dG: +6.166e-05   |Residual|: 7.439e-04   |deigs|: 1.232e-04  t[s]:   3267.22
	Linear fluid (dielectric constant: 78.4, screening length: 5.74355 Bohr) occupying 0.714420 of unit cell:	Completed after 14 iterations at t[s]:   3269.41
	FillingsUpdate:  mu: -0.171251800  nElectrons: 535.996766
	Linear fluid (dielectric constant: 78.4, screening length: 5.74355 Bohr) occupying 0.714447 of unit cell:	Completed after 12 iterations at t[s]:   3340.53
SCF: Cycle: 39   G: -2301.230192373409409   dG: -5.060e-05   |Residual|: 5.453e-04   |deigs|: 5.295e-05  t[s]:   3342.30
	Linear fluid (dielectric constant: 78.4, screening length: 5.74355 Bohr) occupying 0.714404 of unit cell:	Completed after 12 iterations at t[s]:   3344.30
	FillingsUpdate:  mu: -0.171251800  nElectrons: 535.981180
	Linear fluid (dielectric constant: 78.4, screening length: 5.74355 Bohr) occupying 0.714435 of unit cell:	Completed after 9 iterations at t[s]:   3421.89
SCF: Cycle: 40   G: -2301.230208730049981   dG: -1.636e-05   |Residual|: 3.514e-04   |deigs|: 5.036e-05  t[s]:   3423.42
	Linear fluid (dielectric constant: 78.4, screening length: 5.74355 Bohr) occupying 0.714404 of unit cell:	Completed after 9 iterations at t[s]:   3425.04
	FillingsUpdate:  mu: -0.171251800  nElectrons: 535.988474
	Linear fluid (dielectric constant: 78.4, screening length: 5.74355 Bohr) occupying 0.714440 of unit cell:	Completed after 5 iterations at t[s]:   3495.25
SCF: Cycle: 41   G: -2301.230208189656423   dG: +5.404e-07   |Residual|: 3.225e-04   |deigs|: 2.103e-05  t[s]:   3496.90
	Linear fluid (dielectric constant: 78.4, screening length: 5.74355 Bohr) occupying 0.714408 of unit cell:	Completed after 3 iterations at t[s]:   3497.93
	FillingsUpdate:  mu: -0.171251800  nElectrons: 535.931039
	Linear fluid (dielectric constant: 78.4, screening length: 5.74355 Bohr) occupying 0.714409 of unit cell:	Completed after 14 iterations at t[s]:   3611.30
SCF: Cycle: 42   G: -2301.230037054217519   dG: +1.711e-04   |Residual|: 9.475e-04   |deigs|: 1.719e-04  t[s]:   3613.12
	Linear fluid (dielectric constant: 78.4, screening length: 5.74355 Bohr) occupying 0.714395 of unit cell:	Completed after 14 iterations at t[s]:   3615.34
	FillingsUpdate:  mu: -0.171251800  nElectrons: 535.949329
	Linear fluid (dielectric constant: 78.4, screening length: 5.74355 Bohr) occupying 0.714416 of unit cell:	Completed after 14 iterations at t[s]:   3692.53
SCF: Cycle: 43   G: -2301.230129000487977   dG: -9.195e-05   |Residual|: 6.496e-04   |deigs|: 5.573e-05  t[s]:   3694.25
	Linear fluid (dielectric constant: 78.4, screening length: 5.74355 Bohr) occupying 0.714395 of unit cell:	Completed after 14 iterations at t[s]:   3696.46
	FillingsUpdate:  mu: -0.171251800  nElectrons: 535.943076
	Linear fluid (dielectric constant: 78.4, screening length: 5.74355 Bohr) occupying 0.714413 of unit cell:	Completed after 14 iterations at t[s]:   3768.24
SCF: Cycle: 44   G: -2301.230102589511262   dG: +2.641e-05   |Residual|: 7.500e-04   |deigs|: 1.896e-05  t[s]:   3769.97
	Linear fluid (dielectric constant: 78.4, screening length: 5.74355 Bohr) occupying 0.714399 of unit cell:	Completed after 14 iterations at t[s]:   3772.16
	FillingsUpdate:  mu: -0.171251800  nElectrons: 535.942963
	Linear fluid (dielectric constant: 78.4, screening length: 5.74355 Bohr) occupying 0.714413 of unit cell:	Completed after 14 iterations at t[s]:   3836.04
SCF: Cycle: 45   G: -2301.230102071089277   dG: +5.184e-07   |Residual|: 7.502e-04   |deigs|: 3.122e-06  t[s]:   3837.72
	Linear fluid (dielectric constant: 78.4, screening length: 5.74355 Bohr) occupying 0.714398 of unit cell:	Completed after 14 iterations at t[s]:   3839.99
	FillingsUpdate:  mu: -0.171251800  nElectrons: 535.942113
	Linear fluid (dielectric constant: 78.4, screening length: 5.74355 Bohr) occupying 0.714413 of unit cell:	Completed after 14 iterations at t[s]:   3925.01
SCF: Cycle: 46   G: -2301.230095938497016   dG: +6.133e-06   |Residual|: 7.653e-04   |deigs|: 3.274e-06  t[s]:   3926.55
	Linear fluid (dielectric constant: 78.4, screening length: 5.74355 Bohr) occupying 0.714388 of unit cell:	Completed after 14 iterations at t[s]:   3928.76
	FillingsUpdate:  mu: -0.171251800  nElectrons: 535.934073
	Linear fluid (dielectric constant: 78.4, screening length: 5.74355 Bohr) occupying 0.714408 of unit cell:	Completed after 15 iterations at t[s]:   4013.41
SCF: Cycle: 47   G: -2301.230040685387848   dG: +5.525e-05   |Residual|: 9.247e-04   |deigs|: 2.837e-05  t[s]:   4015.03
	Linear fluid (dielectric constant: 78.4, screening length: 5.74355 Bohr) occupying 0.714412 of unit cell:	Completed after 14 iterations at t[s]:   4017.20
	FillingsUpdate:  mu: -0.171251800  nElectrons: 535.967933
	Linear fluid (dielectric constant: 78.4, screening length: 5.74355 Bohr) occupying 0.714430 of unit cell:	Completed after 12 iterations at t[s]:   4114.08
SCF: Cycle: 48   G: -2301.230182973808951   dG: -1.423e-04   |Residual|: 3.992e-04   |deigs|: 1.039e-04  t[s]:   4115.85
	Linear fluid (dielectric constant: 78.4, screening length: 5.74355 Bohr) occupying 0.714408 of unit cell:	Completed after 12 iterations at t[s]:   4117.88
	FillingsUpdate:  mu: -0.171251800  nElectrons: 535.973653
	Linear fluid (dielectric constant: 78.4, screening length: 5.74355 Bohr) occupying 0.714433 of unit cell:	Completed after 10 iterations at t[s]:   4189.25
SCF: Cycle: 49   G: -2301.230194537482475   dG: -1.156e-05   |Residual|: 2.940e-04   |deigs|: 1.779e-05  t[s]:   4190.91
	Linear fluid (dielectric constant: 78.4, screening length: 5.74355 Bohr) occupying 0.714427 of unit cell:	Completed after 10 iterations at t[s]:   4192.69
	FillingsUpdate:  mu: -0.171251800  nElectrons: 535.991987
	Linear fluid (dielectric constant: 78.4, screening length: 5.74355 Bohr) occupying 0.714447 of unit cell:	Completed after 3 iterations at t[s]:   4284.42
SCF: Cycle: 50   G: -2301.230210291083949   dG: -1.575e-05   |Residual|: 1.036e-04   |deigs|: 5.733e-05  t[s]:   4286.03
	Linear fluid (dielectric constant: 78.4, screening length: 5.74355 Bohr) occupying 0.714427 of unit cell:	Completed after 3 iterations at t[s]:   4287.11
	FillingsUpdate:  mu: -0.171251800  nElectrons: 535.975494
	Linear fluid (dielectric constant: 78.4, screening length: 5.74355 Bohr) occupying 0.714436 of unit cell:	Completed after 9 iterations at t[s]:   4359.41
SCF: Cycle: 51   G: -2301.230202621155513   dG: +7.670e-06   |Residual|: 2.365e-04   |deigs|: 5.036e-05  t[s]:   4361.33
	Linear fluid (dielectric constant: 78.4, screening length: 5.74355 Bohr) occupying 0.714429 of unit cell:	Completed after 10 iterations at t[s]:   4363.18
	FillingsUpdate:  mu: -0.171251800  nElectrons: 535.996816
	Linear fluid (dielectric constant: 78.4, screening length: 5.74355 Bohr) occupying 0.714451 of unit cell:	Completed after 9 iterations at t[s]:   4434.63
SCF: Cycle: 52   G: -2301.230208305999440   dG: -5.685e-06   |Residual|: 1.399e-04   |deigs|: 6.344e-05  t[s]:   4436.23
	Linear fluid (dielectric constant: 78.4, screening length: 5.74355 Bohr) occupying 0.714426 of unit cell:	Completed after 9 iterations at t[s]:   4437.89
	FillingsUpdate:  mu: -0.171251800  nElectrons: 535.987335
	Linear fluid (dielectric constant: 78.4, screening length: 5.74355 Bohr) occupying 0.714442 of unit cell:	Completed after 5 iterations at t[s]:   4508.37
SCF: Cycle: 53   G: -2301.230208777428288   dG: -4.714e-07   |Residual|: 2.611e-04   |deigs|: 3.519e-05  t[s]:   4510.14
	Linear fluid (dielectric constant: 78.4, screening length: 5.74355 Bohr) occupying 0.714432 of unit cell:	Completed after 3 iterations at t[s]:   4511.18
	FillingsUpdate:  mu: -0.171251800  nElectrons: 535.960539
	Linear fluid (dielectric constant: 78.4, screening length: 5.74355 Bohr) occupying 0.714427 of unit cell:	Completed after 13 iterations at t[s]:   4625.57
SCF: Cycle: 54   G: -2301.230168864732605   dG: +3.991e-05   |Residual|: 4.783e-04   |deigs|: 8.349e-05  t[s]:   4627.29
	Linear fluid (dielectric constant: 78.4, screening length: 5.74355 Bohr) occupying 0.714432 of unit cell:	Completed after 13 iterations at t[s]:   4629.42
	FillingsUpdate:  mu: -0.171251800  nElectrons: 536.001468
	Linear fluid (dielectric constant: 78.4, screening length: 5.74355 Bohr) occupying 0.714455 of unit cell:	Completed after 10 iterations at t[s]:   4700.67
SCF: Cycle: 55   G: -2301.230203430975052   dG: -3.457e-05   |Residual|: 1.989e-04   |deigs|: 1.222e-04  t[s]:   4702.22
	Linear fluid (dielectric constant: 78.4, screening length: 5.74355 Bohr) occupying 0.714435 of unit cell:	Completed after 10 iterations at t[s]:   4703.94
	FillingsUpdate:  mu: -0.171251800  nElectrons: 535.997193
	Linear fluid (dielectric constant: 78.4, screening length: 5.74355 Bohr) occupying 0.714451 of unit cell:	Completed after 10 iterations at t[s]:   4775.91
SCF: Cycle: 56   G: -2301.230202079706032   dG: +1.351e-06   |Residual|: 2.550e-04   |deigs|: 2.058e-05  t[s]:   4777.39
	Linear fluid (dielectric constant: 78.4, screening length: 5.74355 Bohr) occupying 0.714435 of unit cell:	Completed after 9 iterations at t[s]:   4779.03
	FillingsUpdate:  mu: -0.171251800  nElectrons: 535.995789
	Linear fluid (dielectric constant: 78.4, screening length: 5.74355 Bohr) occupying 0.714450 of unit cell:	Completed after 9 iterations at t[s]:   4849.81
SCF: Cycle: 57   G: -2301.230207268871709   dG: -5.189e-06   |Residual|: 1.588e-04   |deigs|: 1.424e-05  t[s]:   4851.43
	Linear fluid (dielectric constant: 78.4, screening length: 5.74355 Bohr) occupying 0.714436 of unit cell:	Completed after 9 iterations at t[s]:   4853.04
	FillingsUpdate:  mu: -0.171251800  nElectrons: 535.995963
	Linear fluid (dielectric constant: 78.4, screening length: 5.74355 Bohr) occupying 0.714450 of unit cell:	Completed after 9 iterations at t[s]:   4925.33
SCF: Cycle: 58   G: -2301.230204951145424   dG: +2.318e-06   |Residual|: 2.058e-04   |deigs|: 1.068e-05  t[s]:   4927.05
	Linear fluid (dielectric constant: 78.4, screening length: 5.74355 Bohr) occupying 0.714430 of unit cell:	Completed after 10 iterations at t[s]:   4928.77
	FillingsUpdate:  mu: -0.171251800  nElectrons: 535.989498
	Linear fluid (dielectric constant: 78.4, screening length: 5.74355 Bohr) occupying 0.714446 of unit cell:	Completed after 2 iterations at t[s]:   5005.90
SCF: Cycle: 59   G: -2301.230210589376838   dG: -5.638e-06   |Residual|: 1.221e-04   |deigs|: 2.463e-05  t[s]:   5007.48
	Linear fluid (dielectric constant: 78.4, screening length: 5.74355 Bohr) occupying 0.714436 of unit cell:	Completed after 2 iterations at t[s]:   5008.35
	FillingsUpdate:  mu: -0.171251800  nElectrons: 535.989638
	Linear fluid (dielectric constant: 78.4, screening length: 5.74355 Bohr) occupying 0.714447 of unit cell:	Completed after 1 iterations at t[s]:   5079.17
SCF: Cycle: 60   G: -2301.230210669758890   dG: -8.038e-08   |Residual|: 7.591e-05   |deigs|: 7.040e-06  t[s]:   5080.77
	Linear fluid (dielectric constant: 78.4, screening length: 5.74355 Bohr) occupying 0.714437 of unit cell:	Completed after 1 iterations at t[s]:   5081.65
	FillingsUpdate:  mu: -0.171251800  nElectrons: 535.987622
	Linear fluid (dielectric constant: 78.4, screening length: 5.74355 Bohr) occupying 0.714446 of unit cell:	Completed after 3 iterations at t[s]:   5193.14
SCF: Cycle: 61   G: -2301.230210135486232   dG: +5.343e-07   |Residual|: 1.501e-04   |deigs|: 1.328e-05  t[s]:   5194.69
	Linear fluid (dielectric constant: 78.4, screening length: 5.74355 Bohr) occupying 0.714435 of unit cell:	Completed after 2 iterations at t[s]:   5195.62
	FillingsUpdate:  mu: -0.171251800  nElectrons: 536.003606
	Linear fluid (dielectric constant: 78.4, screening length: 5.74355 Bohr) occupying 0.714457 of unit cell:	Completed after 10 iterations at t[s]:   5287.52
SCF: Cycle: 62   G: -2301.230199912128228   dG: +1.022e-05   |Residual|: 2.635e-04   |deigs|: 4.891e-05  t[s]:   5289.22
	Linear fluid (dielectric constant: 78.4, screening length: 5.74355 Bohr) occupying 0.714435 of unit cell:	Completed after 10 iterations at t[s]:   5291.00
	FillingsUpdate:  mu: -0.171251800  nElectrons: 535.991760
	Linear fluid (dielectric constant: 78.4, screening length: 5.74355 Bohr) occupying 0.714447 of unit cell:	Completed after 8 iterations at t[s]:   5362.61
SCF: Cycle: 63   G: -2301.230208202742233   dG: -8.291e-06   |Residual|: 1.630e-04   |deigs|: 3.822e-05  t[s]:   5364.29
	Linear fluid (dielectric constant: 78.4, screening length: 5.74355 Bohr) occupying 0.714439 of unit cell:	Completed after 4 iterations at t[s]:   5365.43
	FillingsUpdate:  mu: -0.171251800  nElectrons: 535.959930
	Linear fluid (dielectric constant: 78.4, screening length: 5.74355 Bohr) occupying 0.714429 of unit cell:	Completed after 13 iterations at t[s]:   5437.24
SCF: Cycle: 64   G: -2301.230161910876177   dG: +4.629e-05   |Residual|: 5.667e-04   |deigs|: 9.629e-05  t[s]:   5438.97
	Linear fluid (dielectric constant: 78.4, screening length: 5.74355 Bohr) occupying 0.714437 of unit cell:	Completed after 12 iterations at t[s]:   5440.98
	FillingsUpdate:  mu: -0.171251800  nElectrons: 536.001436
	Linear fluid (dielectric constant: 78.4, screening length: 5.74355 Bohr) occupying 0.714458 of unit cell:	Completed after 9 iterations at t[s]:   5511.92
SCF: Cycle: 65   G: -2301.230206170863767   dG: -4.426e-05   |Residual|: 3.939e-04   |deigs|: 1.218e-04  t[s]:   5513.47
	Linear fluid (dielectric constant: 78.4, screening length: 5.74355 Bohr) occupying 0.714441 of unit cell:	Completed after 10 iterations at t[s]:   5515.21
	FillingsUpdate:  mu: -0.171251800  nElectrons: 535.991782
	Linear fluid (dielectric constant: 78.4, screening length: 5.74355 Bohr) occupying 0.714451 of unit cell:	Completed after 5 iterations at t[s]:   5586.15
SCF: Cycle: 66   G: -2301.230205927716725   dG: +2.431e-07   |Residual|: 4.677e-04   |deigs|: 3.036e-05  t[s]:   5587.80
	Linear fluid (dielectric constant: 78.4, screening length: 5.74355 Bohr) occupying 0.714439 of unit cell:	Completed after 5 iterations at t[s]:   5589.07
	FillingsUpdate:  mu: -0.171251800  nElectrons: 536.014238
	Linear fluid (dielectric constant: 78.4, screening length: 5.74355 Bohr) occupying 0.714466 of unit cell:	Completed after 11 iterations at t[s]:   5701.85
SCF: Cycle: 67   G: -2301.230182617156970   dG: +2.331e-05   |Residual|: 5.242e-04   |deigs|: 6.873e-05  t[s]:   5703.60
	Linear fluid (dielectric constant: 78.4, screening length: 5.74355 Bohr) occupying 0.714439 of unit cell:	Completed after 12 iterations at t[s]:   5705.60
	FillingsUpdate:  mu: -0.171251800  nElectrons: 536.000325
	Linear fluid (dielectric constant: 78.4, screening length: 5.74355 Bohr) occupying 0.714454 of unit cell:	Completed after 10 iterations at t[s]:   5778.04
SCF: Cycle: 68   G: -2301.230201347495495   dG: -1.873e-05   |Residual|: 2.335e-04   |deigs|: 4.677e-05  t[s]:   5779.86
	Linear fluid (dielectric constant: 78.4, screening length: 5.74355 Bohr) occupying 0.714440 of unit cell:	Completed after 10 iterations at t[s]:   5781.70
	FillingsUpdate:  mu: -0.171251800  nElectrons: 535.996420
	Linear fluid (dielectric constant: 78.4, screening length: 5.74355 Bohr) occupying 0.714452 of unit cell:	Completed after 9 iterations at t[s]:   5854.18
SCF: Cycle: 69   G: -2301.230207574752058   dG: -6.227e-06   |Residual|: 1.692e-04   |deigs|: 1.460e-05  t[s]:   5855.97
	Linear fluid (dielectric constant: 78.4, screening length: 5.74355 Bohr) occupying 0.714438 of unit cell:	Completed after 9 iterations at t[s]:   5857.63
	FillingsUpdate:  mu: -0.171251800  nElectrons: 535.991985
	Linear fluid (dielectric constant: 78.4, screening length: 5.74355 Bohr) occupying 0.714448 of unit cell:	Completed after 4 iterations at t[s]:   5929.10
SCF: Cycle: 70   G: -2301.230209356012438   dG: -1.781e-06   |Residual|: 1.439e-04   |deigs|: 1.389e-05  t[s]:   5930.77
	Linear fluid (dielectric constant: 78.4, screening length: 5.74355 Bohr) occupying 0.714439 of unit cell:	Completed after 4 iterations at t[s]:   5931.89
	FillingsUpdate:  mu: -0.171251800  nElectrons: 535.961323
	Linear fluid (dielectric constant: 78.4, screening length: 5.74355 Bohr) occupying 0.714430 of unit cell:	Completed after 13 iterations at t[s]:   6011.91
SCF: Cycle: 71   G: -2301.230165939897688   dG: +4.342e-05   |Residual|: 5.439e-04   |deigs|: 9.180e-05  t[s]:   6013.59
	Linear fluid (dielectric constant: 78.4, screening length: 5.74355 Bohr) occupying 0.714439 of unit cell:	Completed after 13 iterations at t[s]:   6015.72
	FillingsUpdate:  mu: -0.171251800  nElectrons: 535.999760
	Linear fluid (dielectric constant: 78.4, screening length: 5.74355 Bohr) occupying 0.714455 of unit cell:	Completed after 9 iterations at t[s]:   6088.82
SCF: Cycle: 72   G: -2301.230206314438874   dG: -4.037e-05   |Residual|: 2.296e-04   |deigs|: 1.128e-04  t[s]:   6090.66
	Linear fluid (dielectric constant: 78.4, screening length: 5.74355 Bohr) occupying 0.714442 of unit cell:	Completed after 10 iterations at t[s]:   6092.56
	FillingsUpdate:  mu: -0.171251800  nElectrons: 535.999173
	Linear fluid (dielectric constant: 78.4, screening length: 5.74355 Bohr) occupying 0.714454 of unit cell:	Completed after 9 iterations at t[s]:   6183.42
SCF: Cycle: 73   G: -2301.230202387946520   dG: +3.926e-06   |Residual|: 2.678e-04   |deigs|: 1.318e-05  t[s]:   6185.16
	Linear fluid (dielectric constant: 78.4, screening length: 5.74355 Bohr) occupying 0.714437 of unit cell:	Completed after 9 iterations at t[s]:   6186.89
	FillingsUpdate:  mu: -0.171251800  nElectrons: 535.991050
	Linear fluid (dielectric constant: 78.4, screening length: 5.74355 Bohr) occupying 0.714447 of unit cell:	Completed after 6 iterations at t[s]:   6259.37
SCF: Cycle: 74   G: -2301.230208995696557   dG: -6.608e-06   |Residual|: 1.454e-04   |deigs|: 2.854e-05  t[s]:   6261.13
	Linear fluid (dielectric constant: 78.4, screening length: 5.74355 Bohr) occupying 0.714437 of unit cell:	Completed after 5 iterations at t[s]:   6262.39
	FillingsUpdate:  mu: -0.171251800  nElectrons: 535.965742
	Linear fluid (dielectric constant: 78.4, screening length: 5.74355 Bohr) occupying 0.714431 of unit cell:	Completed after 12 iterations at t[s]:   6335.33
SCF: Cycle: 75   G: -2301.230187282757470   dG: +2.171e-05   |Residual|: 3.596e-04   |deigs|: 7.421e-05  t[s]:   6337.21
	Linear fluid (dielectric constant: 78.4, screening length: 5.74355 Bohr) occupying 0.714438 of unit cell:	Completed after 11 iterations at t[s]:   6339.08
	FillingsUpdate:  mu: -0.171251800  nElectrons: 536.002921
	Linear fluid (dielectric constant: 78.4, screening length: 5.74355 Bohr) occupying 0.714458 of unit cell:	Completed after 9 iterations at t[s]:   6411.10
SCF: Cycle: 76   G: -2301.230204562357358   dG: -1.728e-05   |Residual|: 2.753e-04   |deigs|: 1.098e-04  t[s]:   6412.89
	Linear fluid (dielectric constant: 78.4, screening length: 5.74355 Bohr) occupying 0.714438 of unit cell:	Completed after 10 iterations at t[s]:   6414.63
	FillingsUpdate:  mu: -0.171251800  nElectrons: 536.000005
	Linear fluid (dielectric constant: 78.4, screening length: 5.74355 Bohr) occupying 0.714454 of unit cell:	Completed after 10 iterations at t[s]:   6487.33
SCF: Cycle: 77   G: -2301.230200471649368   dG: +4.091e-06   |Residual|: 2.571e-04   |deigs|: 2.274e-05  t[s]:   6488.98
	Linear fluid (dielectric constant: 78.4, screening length: 5.74355 Bohr) occupying 0.714437 of unit cell:	Completed after 10 iterations at t[s]:   6490.81
	FillingsUpdate:  mu: -0.171251800  nElectrons: 535.997093
	Linear fluid (dielectric constant: 78.4, screening length: 5.74355 Bohr) occupying 0.714452 of unit cell:	Completed after 9 iterations at t[s]:   6563.13
SCF: Cycle: 78   G: -2301.230205760839453   dG: -5.289e-06   |Residual|: 1.739e-04   |deigs|: 1.605e-05  t[s]:   6564.69
	Linear fluid (dielectric constant: 78.4, screening length: 5.74355 Bohr) occupying 0.714437 of unit cell:	Completed after 9 iterations at t[s]:   6566.34
	FillingsUpdate:  mu: -0.171251800  nElectrons: 535.994400
	Linear fluid (dielectric constant: 78.4, screening length: 5.74355 Bohr) occupying 0.714449 of unit cell:	Completed after 8 iterations at t[s]:   6645.47
SCF: Cycle: 79   G: -2301.230207233119017   dG: -1.472e-06   |Residual|: 1.681e-04   |deigs|: 1.237e-05  t[s]:   6647.13
	Linear fluid (dielectric constant: 78.4, screening length: 5.74355 Bohr) occupying 0.714436 of unit cell:	Completed after 9 iterations at t[s]:   6648.83
	FillingsUpdate:  mu: -0.171251800  nElectrons: 535.995926
	Linear fluid (dielectric constant: 78.4, screening length: 5.74355 Bohr) occupying 0.714450 of unit cell:	Completed after 8 iterations at t[s]:   6719.64
SCF: Cycle: 80   G: -2301.230206446098236   dG: +7.870e-07   |Residual|: 1.681e-04   |deigs|: 9.117e-06  t[s]:   6721.33
	Linear fluid (dielectric constant: 78.4, screening length: 5.74355 Bohr) occupying 0.714436 of unit cell:	Completed after 9 iterations at t[s]:   6723.03
	FillingsUpdate:  mu: -0.171251800  nElectrons: 535.993447
	Linear fluid (dielectric constant: 78.4, screening length: 5.74355 Bohr) occupying 0.714449 of unit cell:	Completed after 8 iterations at t[s]:   6793.35
SCF: Cycle: 81   G: -2301.230208037641660   dG: -1.592e-06   |Residual|: 1.576e-04   |deigs|: 9.380e-06  t[s]:   6795.02
	Linear fluid (dielectric constant: 78.4, screening length: 5.74355 Bohr) occupying 0.714434 of unit cell:	Completed after 8 iterations at t[s]:   6796.59
	FillingsUpdate:  mu: -0.171251800  nElectrons: 535.981828
	Linear fluid (dielectric constant: 78.4, screening length: 5.74355 Bohr) occupying 0.714440 of unit cell:	Completed after 9 iterations at t[s]:   6868.18
SCF: Cycle: 82   G: -2301.230209446382560   dG: -1.409e-06   |Residual|: 1.872e-04   |deigs|: 3.399e-05  t[s]:   6869.67
	Linear fluid (dielectric constant: 78.4, screening length: 5.74355 Bohr) occupying 0.714434 of unit cell:	Completed after 5 iterations at t[s]:   6870.90
	FillingsUpdate:  mu: -0.171251800  nElectrons: 536.032614
	Linear fluid (dielectric constant: 78.4, screening length: 5.74355 Bohr) occupying 0.714479 of unit cell:	Completed after 14 iterations at t[s]:   6969.62
SCF: Cycle: 83   G: -2301.230102618146248   dG: +1.068e-04   |Residual|: 7.213e-04   |deigs|: 1.489e-04  t[s]:   6971.27
	Linear fluid (dielectric constant: 78.4, screening length: 5.74355 Bohr) occupying 0.714437 of unit cell:	Completed after 13 iterations at t[s]:   6973.39
	FillingsUpdate:  mu: -0.171251800  nElectrons: 535.995089
	Linear fluid (dielectric constant: 78.4, screening length: 5.74355 Bohr) occupying 0.714450 of unit cell:	Completed after 9 iterations at t[s]:   7044.28
SCF: Cycle: 84   G: -2301.230207381754553   dG: -1.048e-04   |Residual|: 1.738e-04   |deigs|: 1.108e-04  t[s]:   7045.99
	Linear fluid (dielectric constant: 78.4, screening length: 5.74355 Bohr) occupying 0.714437 of unit cell:	Completed after 9 iterations at t[s]:   7047.67
	FillingsUpdate:  mu: -0.171251800  nElectrons: 535.988550
	Linear fluid (dielectric constant: 78.4, screening length: 5.74355 Bohr) occupying 0.714446 of unit cell:	Completed after 3 iterations at t[s]:   7118.49
SCF: Cycle: 85   G: -2301.230210130875548   dG: -2.749e-06   |Residual|: 1.404e-04   |deigs|: 1.957e-05  t[s]:   7120.03
	Linear fluid (dielectric constant: 78.4, screening length: 5.74355 Bohr) occupying 0.714436 of unit cell:	Completed after 3 iterations at t[s]:   7121.04
	FillingsUpdate:  mu: -0.171251800  nElectrons: 535.976296
	Linear fluid (dielectric constant: 78.4, screening length: 5.74355 Bohr) occupying 0.714438 of unit cell:	Completed after 9 iterations at t[s]:   7191.97
SCF: Cycle: 86   G: -2301.230203839664227   dG: +6.291e-06   |Residual|: 2.107e-04   |deigs|: 3.685e-05  t[s]:   7193.55
	Linear fluid (dielectric constant: 78.4, screening length: 5.74355 Bohr) occupying 0.714439 of unit cell:	Completed after 9 iterations at t[s]:   7195.23
	FillingsUpdate:  mu: -0.171251800  nElectrons: 536.004909
	Linear fluid (dielectric constant: 78.4, screening length: 5.74355 Bohr) occupying 0.714459 of unit cell:	Completed after 9 iterations at t[s]:   7266.85
SCF: Cycle: 87   G: -2301.230201542784471   dG: +2.297e-06   |Residual|: 2.625e-04   |deigs|: 8.572e-05  t[s]:   7268.50
	Linear fluid (dielectric constant: 78.4, screening length: 5.74355 Bohr) occupying 0.714437 of unit cell:	Completed after 10 iterations at t[s]:   7270.28
	FillingsUpdate:  mu: -0.171251800  nElectrons: 535.995348
	Linear fluid (dielectric constant: 78.4, screening length: 5.74355 Bohr) occupying 0.714449 of unit cell:	Completed after 10 iterations at t[s]:   7342.62
SCF: Cycle: 88   G: -2301.230200874307229   dG: +6.685e-07   |Residual|: 3.281e-04   |deigs|: 4.165e-05  t[s]:   7344.38
	Linear fluid (dielectric constant: 78.4, screening length: 5.74355 Bohr) occupying 0.714438 of unit cell:	Completed after 10 iterations at t[s]:   7346.29
	FillingsUpdate:  mu: -0.171251800  nElectrons: 535.993740
	Linear fluid (dielectric constant: 78.4, screening length: 5.74355 Bohr) occupying 0.714449 of unit cell:	Completed after 5 iterations at t[s]:   7430.83
SCF: Cycle: 89   G: -2301.230208567526461   dG: -7.693e-06   |Residual|: 1.509e-04   |deigs|: 1.853e-05  t[s]:   7432.50
	Linear fluid (dielectric constant: 78.4, screening length: 5.74355 Bohr) occupying 0.714438 of unit cell:	Completed after 5 iterations at t[s]:   7433.74
	FillingsUpdate:  mu: -0.171251800  nElectrons: 535.963248
	Linear fluid (dielectric constant: 78.4, screening length: 5.74355 Bohr) occupying 0.714429 of unit cell:	Completed after 11 iterations at t[s]:   7505.06
SCF: Cycle: 90   G: -2301.230184960651059   dG: +2.361e-05   |Residual|: 3.910e-04   |deigs|: 8.906e-05  t[s]:   7506.69
	Linear fluid (dielectric constant: 78.4, screening length: 5.74355 Bohr) occupying 0.714437 of unit cell:	Completed after 12 iterations at t[s]:   7508.64
	FillingsUpdate:  mu: -0.171251800  nElectrons: 535.997990
	Linear fluid (dielectric constant: 78.4, screening length: 5.74355 Bohr) occupying 0.714453 of unit cell:	Completed after 9 iterations at t[s]:   7579.90
SCF: Cycle: 91   G: -2301.230206594341325   dG: -2.163e-05   |Residual|: 1.650e-04   |deigs|: 1.017e-04  t[s]:   7581.50
	Linear fluid (dielectric constant: 78.4, screening length: 5.74355 Bohr) occupying 0.714435 of unit cell:	Completed after 9 iterations at t[s]:   7583.20
	FillingsUpdate:  mu: -0.171251800  nElectrons: 535.988305
	Linear fluid (dielectric constant: 78.4, screening length: 5.74355 Bohr) occupying 0.714445 of unit cell:	Completed after 5 iterations at t[s]:   7654.26
SCF: Cycle: 92   G: -2301.230208647667951   dG: -2.053e-06   |Residual|: 2.460e-04   |deigs|: 3.285e-05  t[s]:   7655.74
	Linear fluid (dielectric constant: 78.4, screening length: 5.74355 Bohr) occupying 0.714436 of unit cell:	Completed after 4 iterations at t[s]:   7656.86
	FillingsUpdate:  mu: -0.171251800  nElectrons: 535.960372
	Linear fluid (dielectric constant: 78.4, screening length: 5.74355 Bohr) occupying 0.714428 of unit cell:	Completed after 13 iterations at t[s]:   7742.89
SCF: Cycle: 93   G: -2301.230177318874212   dG: +3.133e-05   |Residual|: 4.790e-04   |deigs|: 8.365e-05  t[s]:   7744.54
	Linear fluid (dielectric constant: 78.4, screening length: 5.74355 Bohr) occupying 0.714435 of unit cell:	Completed after 12 iterations at t[s]:   7746.55
	FillingsUpdate:  mu: -0.171251800  nElectrons: 535.994326
	Linear fluid (dielectric constant: 78.4, screening length: 5.74355 Bohr) occupying 0.714449 of unit cell:	Completed after 7 iterations at t[s]:   7818.40
SCF: Cycle: 94   G: -2301.230208461038274   dG: -3.114e-05   |Residual|: 1.834e-04   |deigs|: 1.003e-04  t[s]:   7820.01
	Linear fluid (dielectric constant: 78.4, screening length: 5.74355 Bohr) occupying 0.714437 of unit cell:	Completed after 8 iterations at t[s]:   7821.55
	FillingsUpdate:  mu: -0.171251800  nElectrons: 535.979487
	Linear fluid (dielectric constant: 78.4, screening length: 5.74355 Bohr) occupying 0.714439 of unit cell:	Completed after 10 iterations at t[s]:   7892.61
SCF: Cycle: 95   G: -2301.230208140322247   dG: +3.207e-07   |Residual|: 2.565e-04   |deigs|: 4.417e-05  t[s]:   7894.14
	Linear fluid (dielectric constant: 78.4, screening length: 5.74355 Bohr) occupying 0.714436 of unit cell:	Completed after 8 iterations at t[s]:   7895.75
	FillingsUpdate:  mu: -0.171251800  nElectrons: 536.010926
	Linear fluid (dielectric constant: 78.4, screening length: 5.74355 Bohr) occupying 0.714462 of unit cell:	Completed after 12 iterations at t[s]:   8016.42
SCF: Cycle: 96   G: -2301.230176029034283   dG: +3.211e-05   |Residual|: 4.663e-04   |deigs|: 9.202e-05  t[s]:   8018.30
	Linear fluid (dielectric constant: 78.4, screening length: 5.74355 Bohr) occupying 0.714438 of unit cell:	Completed after 12 iterations at t[s]:   8020.33
	FillingsUpdate:  mu: -0.171251800  nElectrons: 535.993557
	Linear fluid (dielectric constant: 78.4, screening length: 5.74355 Bohr) occupying 0.714449 of unit cell:	Completed after 9 iterations at t[s]:   8093.03
SCF: Cycle: 97   G: -2301.230206000896487   dG: -2.997e-05   |Residual|: 2.409e-04   |deigs|: 5.289e-05  t[s]:   8094.76
	Linear fluid (dielectric constant: 78.4, screening length: 5.74355 Bohr) occupying 0.714438 of unit cell:	Completed after 9 iterations at t[s]:   8096.45
	FillingsUpdate:  mu: -0.171251800  nElectrons: 535.984617
	Linear fluid (dielectric constant: 78.4, screening length: 5.74355 Bohr) occupying 0.714443 of unit cell:	Completed after 4 iterations at t[s]:   8168.25
SCF: Cycle: 98   G: -2301.230209530841421   dG: -3.530e-06   |Residual|: 2.313e-04   |deigs|: 2.885e-05  t[s]:   8169.82
	Linear fluid (dielectric constant: 78.4, screening length: 5.74355 Bohr) occupying 0.714436 of unit cell:	Completed after 4 iterations at t[s]:   8170.92
	FillingsUpdate:  mu: -0.171251800  nElectrons: 535.989995
	Linear fluid (dielectric constant: 78.4, screening length: 5.74355 Bohr) occupying 0.714446 of unit cell:	Completed after 4 iterations at t[s]:   8250.61
SCF: Cycle: 99   G: -2301.230209678397841   dG: -1.476e-07   |Residual|: 1.931e-04   |deigs|: 1.912e-05  t[s]:   8252.22
	Linear fluid (dielectric constant: 78.4, screening length: 5.74355 Bohr) occupying 0.714436 of unit cell:	Completed after 2 iterations at t[s]:   8253.13
	FillingsUpdate:  mu: -0.171251800  nElectrons: 535.961793
	Linear fluid (dielectric constant: 78.4, screening length: 5.74355 Bohr) occupying 0.714429 of unit cell:	Completed after 11 iterations at t[s]:   8367.03
SCF: Cycle: 100   G: -2301.230179797412802   dG: +2.988e-05   |Residual|: 4.499e-04   |deigs|: 8.323e-05  t[s]:   8368.59
	Linear fluid (dielectric constant: 78.4, screening length: 5.74355 Bohr) occupying 0.714438 of unit cell:	Completed after 12 iterations at t[s]:   8370.60
	FillingsUpdate:  mu: -0.171251800  nElectrons: 535.997835
	Linear fluid (dielectric constant: 78.4, screening length: 5.74355 Bohr) occupying 0.714453 of unit cell:	Completed after 9 iterations at t[s]:   8442.47
SCF: Cycle: 101   G: -2301.230207153991159   dG: -2.736e-05   |Residual|: 1.575e-04   |deigs|: 1.072e-04  t[s]:   8444.27
	Linear fluid (dielectric constant: 78.4, screening length: 5.74355 Bohr) occupying 0.714439 of unit cell:	Completed after 9 iterations at t[s]:   8445.94
	FillingsUpdate:  mu: -0.171251800  nElectrons: 535.986606
	Linear fluid (dielectric constant: 78.4, screening length: 5.74355 Bohr) occupying 0.714443 of unit cell:	Completed after 6 iterations at t[s]:   8518.32
SCF: Cycle: 102   G: -2301.230206656755399   dG: +4.972e-07   |Residual|: 3.813e-04   |deigs|: 4.240e-05  t[s]:   8520.06
	Linear fluid (dielectric constant: 78.4, screening length: 5.74355 Bohr) occupying 0.714442 of unit cell:	Completed after 6 iterations at t[s]:   8521.48
	FillingsUpdate:  mu: -0.171251800  nElectrons: 535.972965
	Linear fluid (dielectric constant: 78.4, screening length: 5.74355 Bohr) occupying 0.714436 of unit cell:	Completed after 9 iterations at t[s]:   8627.84
SCF: Cycle: 103   G: -2301.230201316356215   dG: +5.340e-06   |Residual|: 3.735e-04   |deigs|: 4.304e-05  t[s]:   8629.47
	Linear fluid (dielectric constant: 78.4, screening length: 5.74355 Bohr) occupying 0.714439 of unit cell:	Completed after 9 iterations at t[s]:   8631.10
	FillingsUpdate:  mu: -0.171251800  nElectrons: 535.998296
	Linear fluid (dielectric constant: 78.4, screening length: 5.74355 Bohr) occupying 0.714454 of unit cell:	Completed after 10 iterations at t[s]:   8703.68
SCF: Cycle: 104   G: -2301.230202078021648   dG: -7.617e-07   |Residual|: 3.311e-04   |deigs|: 7.568e-05  t[s]:   8705.28
	Linear fluid (dielectric constant: 78.4, screening length: 5.74355 Bohr) occupying 0.714441 of unit cell:	Completed after 9 iterations at t[s]:   8706.96
	FillingsUpdate:  mu: -0.171251800  nElectrons: 535.986865
	Linear fluid (dielectric constant: 78.4, screening length: 5.74355 Bohr) occupying 0.714444 of unit cell:	Completed after 5 iterations at t[s]:   8813.57
SCF: Cycle: 105   G: -2301.230206337930213   dG: -4.260e-06   |Residual|: 3.946e-04   |deigs|: 4.001e-05  t[s]:   8815.24
	Linear fluid (dielectric constant: 78.4, screening length: 5.74355 Bohr) occupying 0.714443 of unit cell:	Completed after 6 iterations at t[s]:   8816.58
	FillingsUpdate:  mu: -0.171251800  nElectrons: 535.969099
	Linear fluid (dielectric constant: 78.4, screening length: 5.74355 Bohr) occupying 0.714434 of unit cell:	Completed after 10 iterations at t[s]:   8889.56
SCF: Cycle: 106   G: -2301.230196408536813   dG: +9.929e-06   |Residual|: 4.342e-04   |deigs|: 5.525e-05  t[s]:   8891.18
	Linear fluid (dielectric constant: 78.4, screening length: 5.74355 Bohr) occupying 0.714437 of unit cell:	Completed after 10 iterations at t[s]:   8892.98
	FillingsUpdate:  mu: -0.171251800  nElectrons: 535.999106
	Linear fluid (dielectric constant: 78.4, screening length: 5.74355 Bohr) occupying 0.714454 of unit cell:	Completed after 10 iterations at t[s]:   8979.13
SCF: Cycle: 107   G: -2301.230205667129667   dG: -9.259e-06   |Residual|: 2.167e-04   |deigs|: 9.380e-05  t[s]:   8980.76
	Linear fluid (dielectric constant: 78.4, screening length: 5.74355 Bohr) occupying 0.714441 of unit cell:	Completed after 9 iterations at t[s]:   8982.50
	FillingsUpdate:  mu: -0.171251800  nElectrons: 535.992039
	Linear fluid (dielectric constant: 78.4, screening length: 5.74355 Bohr) occupying 0.714448 of unit cell:	Completed after 8 iterations at t[s]:   9054.50
SCF: Cycle: 108   G: -2301.230204985111868   dG: +6.820e-07   |Residual|: 3.143e-04   |deigs|: 3.392e-05  t[s]:   9056.26
	Linear fluid (dielectric constant: 78.4, screening length: 5.74355 Bohr) occupying 0.714441 of unit cell:	Completed after 7 iterations at t[s]:   9057.74
	FillingsUpdate:  mu: -0.171251800  nElectrons: 535.978233
	Linear fluid (dielectric constant: 78.4, screening length: 5.74355 Bohr) occupying 0.714439 of unit cell:	Completed after 9 iterations at t[s]:   9137.81
SCF: Cycle: 109   G: -2301.230207511929621   dG: -2.527e-06   |Residual|: 2.252e-04   |deigs|: 4.171e-05  t[s]:   9139.57
	Linear fluid (dielectric constant: 78.4, screening length: 5.74355 Bohr) occupying 0.714440 of unit cell:	Completed after 9 iterations at t[s]:   9141.24
	FillingsUpdate:  mu: -0.171251800  nElectrons: 536.001238
	Linear fluid (dielectric constant: 78.4, screening length: 5.74355 Bohr) occupying 0.714455 of unit cell:	Completed after 10 iterations at t[s]:   9213.87
SCF: Cycle: 110   G: -2301.230199358773916   dG: +8.153e-06   |Residual|: 3.002e-04   |deigs|: 6.725e-05  t[s]:   9215.74
	Linear fluid (dielectric constant: 78.4, screening length: 5.74355 Bohr) occupying 0.714439 of unit cell:	Completed after 10 iterations at t[s]:   9217.54
	FillingsUpdate:  mu: -0.171251800  nElectrons: 535.993568
	Linear fluid (dielectric constant: 78.4, screening length: 5.74355 Bohr) occupying 0.714448 of unit cell:	Completed after 8 iterations at t[s]:   9290.76
SCF: Cycle: 111   G: -2301.230205245280104   dG: -5.887e-06   |Residual|: 2.649e-04   |deigs|: 2.782e-05  t[s]:   9292.42
	Linear fluid (dielectric constant: 78.4, screening length: 5.74355 Bohr) occupying 0.714441 of unit cell:	Completed after 8 iterations at t[s]:   9294.04
	FillingsUpdate:  mu: -0.171251800  nElectrons: 535.985825
	Linear fluid (dielectric constant: 78.4, screening length: 5.74355 Bohr) occupying 0.714444 of unit cell:	Completed after 3 iterations at t[s]:   9366.87
SCF: Cycle: 112   G: -2301.230210058887224   dG: -4.814e-06   |Residual|: 1.758e-04   |deigs|: 2.556e-05  t[s]:   9368.42
	Linear fluid (dielectric constant: 78.4, screening length: 5.74355 Bohr) occupying 0.714436 of unit cell:	Completed after 4 iterations at t[s]:   9369.47
	FillingsUpdate:  mu: -0.171251800  nElectrons: 535.985641
	Linear fluid (dielectric constant: 78.4, screening length: 5.74355 Bohr) occupying 0.714444 of unit cell:	Completed after 3 iterations at t[s]:   9440.77
SCF: Cycle: 113   G: -2301.230209887726232   dG: +1.712e-07   |Residual|: 2.348e-04   |deigs|: 9.820e-06  t[s]:   9442.49
	Linear fluid (dielectric constant: 78.4, screening length: 5.74355 Bohr) occupying 0.714434 of unit cell:	Completed after 4 iterations at t[s]:   9443.64
	FillingsUpdate:  mu: -0.171251800  nElectrons: 535.989949
	Linear fluid (dielectric constant: 78.4, screening length: 5.74355 Bohr) occupying 0.714446 of unit cell:	Completed after 6 iterations at t[s]:   9551.10
SCF: Cycle: 114   G: -2301.230208890097401   dG: +9.976e-07   |Residual|: 2.570e-04   |deigs|: 1.389e-05  t[s]:   9552.87
	Linear fluid (dielectric constant: 78.4, screening length: 5.74355 Bohr) occupying 0.714434 of unit cell:	Completed after 3 iterations at t[s]:   9553.92
	FillingsUpdate:  mu: -0.171251800  nElectrons: 535.955392
	Linear fluid (dielectric constant: 78.4, screening length: 5.74355 Bohr) occupying 0.714424 of unit cell:	Completed after 13 iterations at t[s]:   9654.65
SCF: Cycle: 115   G: -2301.230165023298923   dG: +4.387e-05   |Residual|: 5.544e-04   |deigs|: 1.014e-04  t[s]:   9656.44
	Linear fluid (dielectric constant: 78.4, screening length: 5.74355 Bohr) occupying 0.714436 of unit cell:	Completed after 13 iterations at t[s]:   9658.57
	FillingsUpdate:  mu: -0.171251800  nElectrons: 535.991847
	Linear fluid (dielectric constant: 78.4, screening length: 5.74355 Bohr) occupying 0.714448 of unit cell:	Completed after 8 iterations at t[s]:   9731.43
SCF: Cycle: 116   G: -2301.230207672319921   dG: -4.265e-05   |Residual|: 2.695e-04   |deigs|: 1.078e-04  t[s]:   9733.33
	Linear fluid (dielectric constant: 78.4, screening length: 5.74355 Bohr) occupying 0.714437 of unit cell:	Completed after 8 iterations at t[s]:   9734.92
	FillingsUpdate:  mu: -0.171251800  nElectrons: 535.979760
	Linear fluid (dielectric constant: 78.4, screening length: 5.74355 Bohr) occupying 0.714439 of unit cell:	Completed after 9 iterations at t[s]:   9808.67
SCF: Cycle: 117   G: -2301.230207950102795   dG: -2.778e-07   |Residual|: 3.130e-04   |deigs|: 3.642e-05  t[s]:   9810.21
	Linear fluid (dielectric constant: 78.4, screening length: 5.74355 Bohr) occupying 0.714436 of unit cell:	Completed after 9 iterations at t[s]:   9811.86
	FillingsUpdate:  mu: -0.171251800  nElectrons: 536.011991
	Linear fluid (dielectric constant: 78.4, screening length: 5.74355 Bohr) occupying 0.714461 of unit cell:	Completed after 12 iterations at t[s]:   9927.30
SCF: Cycle: 118   G: -2301.230166083963468   dG: +4.187e-05   |Residual|: 5.395e-04   |deigs|: 9.570e-05  t[s]:   9929.00
	Linear fluid (dielectric constant: 78.4, screening length: 5.74355 Bohr) occupying 0.714438 of unit cell:	Completed after 12 iterations at t[s]:   9931.00
	FillingsUpdate:  mu: -0.171251800  nElectrons: 535.993021
	Linear fluid (dielectric constant: 78.4, screening length: 5.74355 Bohr) occupying 0.714448 of unit cell:	Completed after 10 iterations at t[s]:  10003.46
SCF: Cycle: 119   G: -2301.230205902541911   dG: -3.982e-05   |Residual|: 2.626e-04   |deigs|: 5.790e-05  t[s]:  10005.30
	Linear fluid (dielectric constant: 78.4, screening length: 5.74355 Bohr) occupying 0.714438 of unit cell:	Completed after 8 iterations at t[s]:  10006.86
	FillingsUpdate:  mu: -0.171251800  nElectrons: 535.982051
	Linear fluid (dielectric constant: 78.4, screening length: 5.74355 Bohr) occupying 0.714440 of unit cell:	Completed after 8 iterations at t[s]:  10079.14
SCF: Cycle: 120   G: -2301.230209309193015   dG: -3.407e-06   |Residual|: 2.387e-04   |deigs|: 3.340e-05  t[s]:  10081.02
	Linear fluid (dielectric constant: 78.4, screening length: 5.74355 Bohr) occupying 0.714437 of unit cell:	Completed after 4 iterations at t[s]:  10082.31
	FillingsUpdate:  mu: -0.171251800  nElectrons: 536.019072
	Linear fluid (dielectric constant: 78.4, screening length: 5.74355 Bohr) occupying 0.714468 of unit cell:	Completed after 12 iterations at t[s]:  10154.69
SCF: Cycle: 121   G: -2301.230152359229578   dG: +5.695e-05   |Residual|: 5.645e-04   |deigs|: 1.082e-04  t[s]:  10156.30
	Linear fluid (dielectric constant: 78.4, screening length: 5.74355 Bohr) occupying 0.714438 of unit cell:	Completed after 12 iterations at t[s]:  10158.33
	FillingsUpdate:  mu: -0.171251800  nElectrons: 535.991295
	Linear fluid (dielectric constant: 78.4, screening length: 5.74355 Bohr) occupying 0.714447 of unit cell:	Completed after 8 iterations at t[s]:  10230.25
SCF: Cycle: 122   G: -2301.230206645034741   dG: -5.429e-05   |Residual|: 2.718e-04   |deigs|: 8.192e-05  t[s]:  10232.00
	Linear fluid (dielectric constant: 78.4, screening length: 5.74355 Bohr) occupying 0.714439 of unit cell:	Completed after 8 iterations at t[s]:  10233.60
	FillingsUpdate:  mu: -0.171251800  nElectrons: 535.972825
	Linear fluid (dielectric constant: 78.4, screening length: 5.74355 Bohr) occupying 0.714435 of unit cell:	Completed after 10 iterations at t[s]:  10327.77
SCF: Cycle: 123   G: -2301.230202635134901   dG: +4.010e-06   |Residual|: 4.171e-04   |deigs|: 5.704e-05  t[s]:  10329.52
	Linear fluid (dielectric constant: 78.4, screening length: 5.74355 Bohr) occupying 0.714440 of unit cell:	Completed after 10 iterations at t[s]:  10331.40
	FillingsUpdate:  mu: -0.171251800  nElectrons: 535.997359
	Linear fluid (dielectric constant: 78.4, screening length: 5.74355 Bohr) occupying 0.714452 of unit cell:	Completed after 12 iterations at t[s]:  10438.69
SCF: Cycle: 124   G: -2301.230193330513430   dG: +9.305e-06   |Residual|: 5.354e-04   |deigs|: 7.330e-05  t[s]:  10440.38
	Linear fluid (dielectric constant: 78.4, screening length: 5.74355 Bohr) occupying 0.714440 of unit cell:	Completed after 10 iterations at t[s]:  10442.16
	FillingsUpdate:  mu: -0.171251800  nElectrons: 535.987609
	Linear fluid (dielectric constant: 78.4, screening length: 5.74355 Bohr) occupying 0.714445 of unit cell:	Completed after 5 iterations at t[s]:  10514.21
SCF: Cycle: 125   G: -2301.230206577196441   dG: -1.325e-05   |Residual|: 3.667e-04   |deigs|: 3.166e-05  t[s]:  10515.87
	Linear fluid (dielectric constant: 78.4, screening length: 5.74355 Bohr) occupying 0.714441 of unit cell:	Completed after 5 iterations at t[s]:  10517.12
	FillingsUpdate:  mu: -0.171251800  nElectrons: 535.963490
	Linear fluid (dielectric constant: 78.4, screening length: 5.74355 Bohr) occupying 0.714431 of unit cell:	Completed after 11 iterations at t[s]:  10590.03
SCF: Cycle: 126   G: -2301.230183036554990   dG: +2.354e-05   |Residual|: 4.681e-04   |deigs|: 7.361e-05  t[s]:  10591.88
	Linear fluid (dielectric constant: 78.4, screening length: 5.74355 Bohr) occupying 0.714441 of unit cell:	Completed after 11 iterations at t[s]:  10593.82
	FillingsUpdate:  mu: -0.171251800  nElectrons: 536.000289
	Linear fluid (dielectric constant: 78.4, screening length: 5.74355 Bohr) occupying 0.714456 of unit cell:	Completed after 9 iterations at t[s]:  10672.93
SCF: Cycle: 127   G: -2301.230205625585768   dG: -2.259e-05   |Residual|: 2.209e-04   |deigs|: 1.114e-04  t[s]:  10674.52
	Linear fluid (dielectric constant: 78.4, screening length: 5.74355 Bohr) occupying 0.714441 of unit cell:	Completed after 10 iterations at t[s]:  10676.28
	FillingsUpdate:  mu: -0.171251800  nElectrons: 535.993351
[...]
   Weighted density dispersion model using vdW pair potentials with single solvent site with sqrtC6eff: 0.77 SI.
Reading fluid state from 'NbTe2.fluidState'


---- Citations for features of the code used in this run ----

   Software package:
      R. Sundararaman, K. Letchworth-Weaver, K.A. Schwarz, D. Gunceler, Y. Ozhabes and T.A. Arias, 'JDFTx: software for joint density-functional theory', SoftwareX 6, 278 (2017)

   gga-PBE exchange-correlation functional:
      J.P. Perdew, K. Burke and M. Ernzerhof, Phys. Rev. Lett. 77, 3865 (1996)

   Pseudopotentials:
      KF Garrity, JW Bennett, KM Rabe and D Vanderbilt, Comput. Mater. Sci. 81, 446 (2014)

   Truncated Coulomb potentials:
      R. Sundararaman and T.A. Arias, Phys. Rev. B 87, 165122 (2013)

   Van der Waals correction pair-potentials:
      S. Grimme, J. Comput. Chem. 27, 1787 (2006)

   Charge-asymmetric nonlocally-determined local-electric (CANDLE) solvation model:
      R. Sundararaman and W.A. Goddard III, J. Chem. Phys. 142, 064107 (2015)

   Total energy minimization with Auxiliary Hamiltonian:
      C. Freysoldt, S. Boeck, and J. Neugebauer, Phys. Rev. B 79, 241103(R) (2009)

   Grand-canonical (fixed-potential) DFT:
      R. Sundararaman, W. A. Goddard III and T. A. Arias, J. Chem. Phys. 146, 114104 (2017)

This list may not be complete. Please suggest additional citations or
report any other bugs at https://github.com/shankar1729/jdftx/issues

Initialization completed successfully at t[s]:     31.55

Shifting auxilliary hamiltonian by 0.000077 to set nElectrons=535.987739
	Linear fluid (dielectric constant: 78.4, screening length: 5.74355 Bohr) occupying 0.714450 of unit cell:	Completed after 4 iterations at t[s]:     40.65

-------- Electronic minimization -----------
	Linear fluid (dielectric constant: 78.4, screening length: 5.74355 Bohr) occupying 0.714450 of unit cell:	Completed after 0 iterations at t[s]:     50.18
	FillingsUpdate:  mu: -0.171251800  nElectrons: 535.987739
ElecMinimize: Iter:   0  G: -2301.230210082379472  |grad|_K:  1.902e-07  alpha:  1.000e+00
	Linear fluid (dielectric constant: 78.4, screening length: 5.74355 Bohr) occupying 0.714432 of unit cell:	Completed after 14 iterations at t[s]:     83.36
	Linear fluid (dielectric constant: 78.4, screening length: 5.74355 Bohr) occupying 0.714449 of unit cell:	Completed after 14 iterations at t[s]:     97.46
	FillingsUpdate:  mu: -0.171251800  nElectrons: 535.986189
	SubspaceRotationAdjust: set factor to 0.522
ElecMinimize: Iter:   1  G: -2301.230210604554486  |grad|_K:  6.993e-08  alpha:  5.724e-02  linmin: -1.564e-02  cgtest:  7.125e-01  t[s]:    111.62
ElecMinimize: Encountered beta<0, resetting CG.
	Linear fluid (dielectric constant: 78.4, screening length: 5.74355 Bohr) occupying 0.714449 of unit cell:	Completed after 0 iterations at t[s]:    126.09
ElecMinimize: 	Predicted alpha/alphaT>3.000000, increasing alphaT to 1.717335e-01.
	Linear fluid (dielectric constant: 78.4, screening length: 5.74355 Bohr) occupying 0.714449 of unit cell:	Completed after 2 iterations at t[s]:    139.60
	Linear fluid (dielectric constant: 78.4, screening length: 5.74355 Bohr) occupying 0.714449 of unit cell:	Completed after 0 iterations at t[s]:    151.79
	FillingsUpdate:  mu: -0.171251800  nElectrons: 535.987658
	SubspaceRotationAdjust: set factor to 0.293
ElecMinimize: Iter:   2  G: -2301.230210767638710  |grad|_K:  2.008e-08  alpha:  1.767e-01  linmin: -1.016e-02  cgtest:  6.420e-01  t[s]:    166.25
ElecMinimize: Encountered beta<0, resetting CG.
	Linear fluid (dielectric constant: 78.4, screening length: 5.74355 Bohr) occupying 0.714450 of unit cell:	Completed after 0 iterations at t[s]:    182.09
ElecMinimize: 	Predicted alpha/alphaT>3.000000, increasing alphaT to 5.300791e-01.
	Linear fluid (dielectric constant: 78.4, screening length: 5.74355 Bohr) occupying 0.714450 of unit cell:	Completed after 0 iterations at t[s]:    195.65
	Linear fluid (dielectric constant: 78.4, screening length: 5.74355 Bohr) occupying 0.714451 of unit cell:	Completed after 2 iterations at t[s]:    208.78
ElecMinimize: 	Step increased G by 9.293854e-08, reducing alpha to 8.523811e-02.
	Linear fluid (dielectric constant: 78.4, screening length: 5.74355 Bohr) occupying 0.714450 of unit cell:	Completed after 0 iterations at t[s]:    235.82
	FillingsUpdate:  mu: -0.171251800  nElectrons: 535.987919
	SubspaceRotationAdjust: set factor to 0.182
ElecMinimize: Iter:   3  G: -2301.230210773773706  |grad|_K:  2.538e-08  alpha:  8.524e-02  linmin:  4.444e-03  cgtest: -3.780e-01  t[s]:    250.25
	Linear fluid (dielectric constant: 78.4, screening length: 5.74355 Bohr) occupying 0.714450 of unit cell:	Completed after 0 iterations at t[s]:    264.80
ElecMinimize: 	Predicted alpha/alphaT>3.000000, increasing alphaT to 2.557143e-01.
	Linear fluid (dielectric constant: 78.4, screening length: 5.74355 Bohr) occupying 0.714450 of unit cell:	Completed after 0 iterations at t[s]:    277.26
	Linear fluid (dielectric constant: 78.4, screening length: 5.74355 Bohr) occupying 0.714449 of unit cell:	Completed after 0 iterations at t[s]:    290.00
	FillingsUpdate:  mu: -0.171251800  nElectrons: 535.988843
	SubspaceRotationAdjust: set factor to 0.163
ElecMinimize: Iter:   4  G: -2301.230210789621651  |grad|_K:  1.823e-08  alpha:  7.339e-01  linmin:  2.902e-04  cgtest:  6.494e-01  t[s]:    304.69
	Linear fluid (dielectric constant: 78.4, screening length: 5.74355 Bohr) occupying 0.714448 of unit cell:	Completed after 2 iterations at t[s]:    319.05
	Linear fluid (dielectric constant: 78.4, screening length: 5.74355 Bohr) occupying 0.714449 of unit cell:	Completed after 0 iterations at t[s]:    331.91
ElecMinimize: 	Step increased G by 6.274968e-08, reducing alpha to 1.444355e-02.
	Linear fluid (dielectric constant: 78.4, screening length: 5.74355 Bohr) occupying 0.714449 of unit cell:	Completed after 0 iterations at t[s]:    371.34
ElecMinimize: 	Step increased G by 4.826416e-08, reducing alpha to 1.444355e-03.
	Linear fluid (dielectric constant: 78.4, screening length: 5.74355 Bohr) occupying 0.714449 of unit cell:	Completed after 0 iterations at t[s]:    397.72
ElecMinimize: 	Step increased G by 4.686717e-08, reducing alpha to 1.444355e-04.
ElecMinimize: 	Step failed to reduce G after 3 attempts. Quitting step.
ElecMinimize: 	Undoing step.
	Linear fluid (dielectric constant: 78.4, screening length: 5.74355 Bohr) occupying 0.714449 of unit cell:	Completed after 0 iterations at t[s]:    435.57
ElecMinimize: 	Step failed: resetting search direction.
	FillingsUpdate:  mu: -0.171251800  nElectrons: 535.988841
	SubspaceRotationAdjust: set factor to 0.124
	SubspaceRotationAdjust: resetting CG because factor has changed by 0.124078
	Linear fluid (dielectric constant: 78.4, screening length: 5.74355 Bohr) occupying 0.714449 of unit cell:	Completed after 0 iterations at t[s]:    458.04
ElecMinimize: 	State modified externally: resetting search direction.
ElecMinimize: Iter:   5  G: -2301.230210742788586  |grad|_K:  2.639e-08  alpha:  1.444e-04
	Linear fluid (dielectric constant: 78.4, screening length: 5.74355 Bohr) occupying 0.714450 of unit cell:	Completed after 1 iterations at t[s]:    486.32
	Linear fluid (dielectric constant: 78.4, screening length: 5.74355 Bohr) occupying 0.714450 of unit cell:	Completed after 0 iterations at t[s]:    499.67
	FillingsUpdate:  mu: -0.171251800  nElectrons: 535.989395
	SubspaceRotationAdjust: set factor to 0.136
ElecMinimize: Iter:   6  G: -2301.230210760430055  |grad|_K:  7.442e-09  alpha:  3.703e-01  linmin:  3.520e-03  cgtest: -2.291e-01  t[s]:    515.53
	Linear fluid (dielectric constant: 78.4, screening length: 5.74355 Bohr) occupying 0.714449 of unit cell:	Completed after 0 iterations at t[s]:    528.96
ElecMinimize: 	Predicted alpha/alphaT>3.000000, increasing alphaT to 1.110962e+00.
	Linear fluid (dielectric constant: 78.4, screening length: 5.74355 Bohr) occupying 0.714449 of unit cell:	Completed after 0 iterations at t[s]:    556.10
	Linear fluid (dielectric constant: 78.4, screening length: 5.74355 Bohr) occupying 0.714449 of unit cell:	Completed after 0 iterations at t[s]:    568.50
ElecMinimize: 	Step increased G by 1.822991e-08, reducing alpha to 3.303321e-02.
	Linear fluid (dielectric constant: 78.4, screening length: 5.74355 Bohr) occupying 0.714450 of unit cell:	Completed after 0 iterations at t[s]:    594.17
ElecMinimize: 	Step increased G by 2.165780e-08, reducing alpha to 3.303321e-03.
	Linear fluid (dielectric constant: 78.4, screening length: 5.74355 Bohr) occupying 0.714450 of unit cell:	Completed after 0 iterations at t[s]:    619.96
ElecMinimize: 	Step increased G by 2.205570e-08, reducing alpha to 3.303321e-04.
ElecMinimize: 	Step failed to reduce G after 3 attempts. Quitting step.
ElecMinimize: 	Undoing step.
	Linear fluid (dielectric constant: 78.4, screening length: 5.74355 Bohr) occupying 0.714450 of unit cell:	Completed after 0 iterations at t[s]:    646.61
ElecMinimize: 	Step failed: resetting search direction.
	FillingsUpdate:  mu: -0.171251800  nElectrons: 535.989394
	SubspaceRotationAdjust: set factor to 0.202
ElecMinimize: Iter:   7  G: -2301.230210738336154  |grad|_K:  5.959e-09  alpha:  3.303e-04
	Linear fluid (dielectric constant: 78.4, screening length: 5.74355 Bohr) occupying 0.714449 of unit cell:	Completed after 0 iterations at t[s]:    677.21
ElecMinimize: 	Predicted alpha/alphaT>3.000000, increasing alphaT to 1.110962e+00.
	Linear fluid (dielectric constant: 78.4, screening length: 5.74355 Bohr) occupying 0.714449 of unit cell:	Completed after 0 iterations at t[s]:    690.21
	Linear fluid (dielectric constant: 78.4, screening length: 5.74355 Bohr) occupying 0.714448 of unit cell:	Completed after 0 iterations at t[s]:    702.61
	FillingsUpdate:  mu: -0.171251800  nElectrons: 535.989031
	SubspaceRotationAdjust: set factor to 0.25
ElecMinimize: Iter:   8  G: -2301.230210748045465  |grad|_K:  7.084e-09  alpha:  1.485e+00  linmin:  6.479e-05  cgtest:  1.188e-01  t[s]:    717.99
	Linear fluid (dielectric constant: 78.4, screening length: 5.74355 Bohr) occupying 0.714446 of unit cell:	Completed after 0 iterations at t[s]:    731.88
	Linear fluid (dielectric constant: 78.4, screening length: 5.74355 Bohr) occupying 0.714447 of unit cell:	Completed after 0 iterations at t[s]:    745.63
ElecMinimize: 	Step increased G by 2.296929e-09, reducing alpha to 7.371849e-02.
	Linear fluid (dielectric constant: 78.4, screening length: 5.74355 Bohr) occupying 0.714448 of unit cell:	Completed after 0 iterations at t[s]:    772.12
ElecMinimize: 	Step increased G by 8.432380e-09, reducing alpha to 7.371849e-03.
	Linear fluid (dielectric constant: 78.4, screening length: 5.74355 Bohr) occupying 0.714448 of unit cell:	Completed after 0 iterations at t[s]:    797.68
ElecMinimize: 	Step increased G by 9.243195e-09, reducing alpha to 7.371849e-04.
ElecMinimize: 	Step failed to reduce G after 3 attempts. Quitting step.
ElecMinimize: 	Undoing step.
	Linear fluid (dielectric constant: 78.4, screening length: 5.74355 Bohr) occupying 0.714448 of unit cell:	Completed after 0 iterations at t[s]:    825.50
ElecMinimize: 	Step failed: resetting search direction.
	FillingsUpdate:  mu: -0.171251800  nElectrons: 535.989026
	SubspaceRotationAdjust: set factor to 0.313
ElecMinimize: Iter:   9  G: -2301.230210738800906  |grad|_K:  6.473e-09  alpha:  7.372e-04
	Linear fluid (dielectric constant: 78.4, screening length: 5.74355 Bohr) occupying 0.714448 of unit cell:	Completed after 0 iterations at t[s]:    855.27
	Linear fluid (dielectric constant: 78.4, screening length: 5.74355 Bohr) occupying 0.714448 of unit cell:	Completed after 0 iterations at t[s]:    868.84
	FillingsUpdate:  mu: -0.171251800  nElectrons: 535.988889
	SubspaceRotationAdjust: set factor to 0.234
ElecMinimize: Iter:  10  G: -2301.230210743842690  |grad|_K:  3.569e-09  alpha:  6.473e-01  linmin: -4.804e-05  cgtest:  8.385e-02  t[s]:    883.58
	Linear fluid (dielectric constant: 78.4, screening length: 5.74355 Bohr) occupying 0.714448 of unit cell:	Completed after 0 iterations at t[s]:    897.71
ElecMinimize: 	Predicted alpha/alphaT>3.000000, increasing alphaT to 1.941807e+00.
	Linear fluid (dielectric constant: 78.4, screening length: 5.74355 Bohr) occupying 0.714447 of unit cell:	Completed after 0 iterations at t[s]:    910.00
	Linear fluid (dielectric constant: 78.4, screening length: 5.74355 Bohr) occupying 0.714446 of unit cell:	Completed after 0 iterations at t[s]:    922.52
	FillingsUpdate:  mu: -0.171251800  nElectrons: 535.987491
	SubspaceRotationAdjust: set factor to 0.269
ElecMinimize: Iter:  11  G: -2301.230210753012216  |grad|_K:  4.945e-09  alpha:  3.873e+00  linmin: -2.887e-06  cgtest: -4.890e-02  t[s]:    937.85
ElecMinimize: Converged (|Delta G|<1.000000e-08 for 2 iters).
Setting wave functions to eigenvectors of Hamiltonian

# Ionic positions in lattice coordinates:
ion Bi   0.999999999999999   0.939952929148110   0.599468214843503 0
ion Bi   0.499999999999999   0.939952929148110   0.599468214843503 0
ion Bi   0.999999999999999   0.060039662253448   0.400537654713476 0
ion Bi   0.499999999999999   0.060039662253448   0.400537654713476 0
ion Bi   0.249999999999999   0.793651967120980   0.357877739782087 0
ion Bi   0.749999999999999   0.793651967120980   0.357877739782087 0
ion Bi   0.249999999999999   0.337712064018673   0.441646416483154 0
ion Bi   0.749999999999999   0.337712064018673   0.441646416483154 0
ion Bi  -0.000000000000001   0.164497901882672   0.570189863254962 0
ion Bi   0.499999999999999   0.164497901882672   0.570189863254962 0
ion Bi   0.999999999999999   0.614530870643316   0.487923704599849 0
ion Bi   0.499999999999999   0.614530870643316   0.487923704599849 0
ion Bi  -0.000000000000001   0.835510657716601   0.429810547174943 0
ion Bi   0.499999999999999   0.835510657716601   0.429810547174943 0
ion Bi  -0.000000000000001   0.521615209196053   0.311339701431008 0
ion Bi   0.499999999999999   0.521615209196053   0.311339701431008 0
ion Bi   0.249999999999999   0.112234484621139   0.469842323763827 0
ion Bi   0.749999999999999   0.112234484621139   0.469842323763827 0
ion Bi   0.249999999999999   0.662294193014789   0.558349892638246 0
ion Bi   0.749999999999999   0.662294193014789   0.558349892638246 0
ion Bi  -0.000000000000001   0.385476998628837   0.512069346265678 0
ion Bi   0.499999999999999   0.385476998628837   0.512069346265678 0
ion Bi   0.249999999999999   0.887770727789872   0.530152890959039 0
ion Bi   0.749999999999999   0.887770727789872   0.530152890959039 0
ion Bi   0.249999999999999   0.206349434629771   0.642126227851495 0
ion Bi   0.749999999999999   0.206349434629771   0.642126227851495 0
ion Bi   0.249999999999999   0.430075001182896   0.616956692632196 0
ion Bi   0.749999999999999   0.430075001182896   0.616956692632196 0
ion Bi   0.249999999999999   0.569926136772988   0.383043645545418 0
ion Bi   0.749999999999999   0.569926136772988   0.383043645545418 0
ion Bi  -0.000000000000001   0.478377046960443   0.688665033035926 0
ion Bi   0.499999999999999   0.478377046960443   0.688665033035926 0
ion I   0.999999999999999   0.267410926663241   0.734248322345265 0
ion I   0.499999999999999   0.267410926663241   0.734248322345265 0
ion I   0.999999999999999   0.732573026622131   0.265750068782304 0
ion I   0.499999999999999   0.732573026622131   0.265750068782304 0
ion I  -0.000000000000001   0.294786311208194   0.342139648350422 0
ion I   0.499999999999999   0.294786311208194   0.342139648350422 0
ion I  -0.000000000000001   0.705214449925824   0.657862065547195 0
ion I   0.499999999999999   0.705214449925824   0.657862065547195 0


# Forces in Lattice coordinates:
force Bi   0.000000000000000   0.013464816723517   0.125261896592463 0
force Bi   0.000000000000000   0.013464816723517   0.125261896592463 0
force Bi  -0.000000000000000  -0.013166626176008  -0.126825641522412 0
force Bi   0.000000000000000  -0.013166626176008  -0.126825641522867 0
force Bi   0.000000000000000   0.005579065929486  -0.071811959022462 0
force Bi   0.000000000000000   0.005579065929457  -0.071811959022007 0
force Bi   0.000000000000000  -0.007763947046062  -0.100654952163360 0
force Bi   0.000000000000000  -0.007763947046055  -0.100654952163360 0
force Bi   0.000000000000000  -0.008302582809502   0.000354750718632 0
force Bi  -0.000000000000000  -0.008302582809502   0.000354750718405 0
force Bi  -0.000000000000000  -0.005122367084390  -0.027757222474136 0
force Bi   0.000000000000000  -0.005122367084390  -0.027757222474136 0
force Bi   0.000000000000000   0.007948934209786   0.000112756139528 0
force Bi   0.000000000000000   0.007948934209786   0.000112756139756 0
force Bi   0.000000000000000  -0.022661188177172  -0.033096837794483 0
force Bi   0.000000000000000  -0.022661188177171  -0.033096837794483 0
force Bi   0.000000000000000   0.012138960504873   0.031325601723594 0
force Bi   0.000000000000000   0.012138960504872   0.031325601723708 0
force Bi   0.000000000000000   0.007720278236639   0.100308325485637 0
force Bi   0.000000000000000   0.007720278236639   0.100308325485180 0
force Bi   0.000000000000000   0.005090616775251   0.028648260603363 0
force Bi   0.000000000000000   0.005090616775251   0.028648260603362 0
force Bi   0.000000000000000  -0.011992134078311  -0.030014688363965 0
force Bi   0.000000000000000  -0.011992134078310  -0.030014688364192 0
force Bi   0.000000000000000  -0.005570946928691   0.071169029190548 0
force Bi   0.000000000000000  -0.005570946928747   0.071169029190091 0
force Bi   0.000000000000000  -0.013001395922192  -0.012190183629803 0
force Bi   0.000000000000000  -0.013001395922192  -0.012190183629803 0
force Bi   0.000000000000000   0.012984276490805   0.012708517011118 0
force Bi   0.000000000000000   0.012984276490805   0.012708517011573 0
force Bi   0.000000000000000   0.022735918718448   0.032454097763107 0
force Bi  -0.000000000000000   0.022735918718448   0.032454097763107 0
force I   0.000000000000000  -0.021738370955369   0.087587195524897 0
force I  -0.000000000000000  -0.021738370955369   0.087587195524897 0
force I   0.000000000000000   0.021871651047168  -0.087412807774343 0
force I  -0.000000000000000   0.021871651047169  -0.087412807774343 0
force I   0.000000000000000  -0.007550477214146  -0.036822853814773 0
force I   0.000000000000000  -0.007550477214146  -0.036822853814773 0
force I   0.000000000000000   0.007383876498194   0.036835590542708 0
force I   0.000000000000000   0.007383876498208   0.036835590542708 0

# Energy components:
   A_diel =       -0.0047231215434977
   Eewald =    22884.2144501845650666
       EH =    24977.1702683834337222
     Eloc =   -50869.2858198953545070
      Enl =      756.6763653224625159
      Exc =    -1227.2903371571637763
 Exc_core =      834.0647097076082446
       KE =      251.4738164583108926
  MuShift =        0.0001475008424498
-------------------------------------
     Etot =    -2392.9811226168385474
       TS =        0.0379106733111360
-------------------------------------
        F =    -2393.0190332901497641
      muN =      -91.7888225371376336
-------------------------------------
        G =    -2301.2302107530122157

IonicMinimize: Iter:   0  G: -2301.230210753012216  |grad|_K:  0.000e+00  t[s]:    947.57
IonicMinimize: Converged (|grad|_K<1.000000e-04).

#--- Lowdin population analysis ---
# oxidation-state Bi +0.138 +0.138 +0.138 +0.138 +0.227 +0.227 +0.176 +0.176 -0.035 -0.035 +0.016 +0.016 -0.035 -0.035 +0.345 +0.345 +0.060 +0.060 +0.176 +0.176 +0.016 +0.016 +0.060 +0.060 +0.227 +0.227 +0.021 +0.021 +0.021 +0.021 +0.345 +0.345
# oxidation-state I -0.319 -0.319 -0.319 -0.319 -0.326 -0.326 -0.326 -0.326


Dumping 'NbTe2.fillings' ... done
Dumping 'NbTe2.wfns' ... done
Dumping 'NbTe2.fluidState' ... done
Dumping 'NbTe2.eigenvals' ... done
End date and time: Sat Jul 11 07:36:28 2020  (Duration: 0-0:15:59.80)
Done!
