
*************** JDFTx 1.5.0  ***************

Start date and time: Sat Jan 16 20:32:42 2021
Executable jdftx_gpu with command-line: -i Charged.in -o Charged.out
Running on hosts (process indices):  amax (0-4)
Divided in process groups (process indices):  0 (0)  1 (1)  2 (2)  3 (3)  4 (4)
gpuInit: Found compatible cuda device 0 'Tesla K80'
gpuInit: Found compatible cuda device 1 'Tesla K80'
gpuInit: Found compatible cuda device 2 'Tesla K80'
gpuInit: Found compatible cuda device 3 'Tesla K80'
gpuInit: Found compatible cuda device 4 'Tesla K80'
gpuInit: Selected device 0
Resource initialization completed at t[s]:      2.89
Run totals: 5 processes, 24 threads, 5 GPUs


Input parsed successfully to the following command list (including defaults):

basis kpoint-dependent
cache-projectors no
coords-type Lattice
core-overlap-check none
coulomb-interaction Slab 001
coulomb-truncation-embed 0.5 0.5 0.5
davidson-band-ratio 1.1
dump End State
dump-name NbTe2.$VAR
elec-cutoff 20
elec-eigen-algo Davidson
elec-ex-corr gga-PBE
elec-initial-charge 0.000000
elec-initial-magnetization 30.000000 no
elec-smearing Gauss 0.0073499
electronic-minimize  \
	dirUpdateScheme      FletcherReeves \
	linminMethod         DirUpdateRecommended \
	nIterations          200 \
	history              15 \
	knormThreshold       0 \
	energyDiffThreshold  1e-08 \
	nEnergyDiff          2 \
	alphaTstart          1 \
	alphaTmin            1e-10 \
	updateTestStepSize   yes \
	alphaTreduceFactor   0.1 \
	alphaTincreaseFactor 3 \
	nAlphaAdjustMax      3 \
	wolfeEnergy          0.0001 \
	wolfeGradient        0.9 \
	fdTest               no
exchange-regularization WignerSeitzTruncated
fluid LinearPCM 298.000000 1.013250
fluid-anion F- 1 MeanFieldLJ \
	epsBulk 1 \
	pMol 0 \
	epsInf 1 \
	Pvap 0 \
	sigmaBulk 0 \
	Rvdw 2.24877 \
	Res 0 \
	tauNuc 343133
fluid-cation Na+ 1 MeanFieldLJ \
	epsBulk 1 \
	pMol 0 \
	epsInf 1 \
	Pvap 0 \
	sigmaBulk 0 \
	Rvdw 2.19208 \
	Res 0 \
	tauNuc 343133
fluid-ex-corr lda-TF lda-PZ
fluid-gummel-loop 10 1.000000e-05
fluid-minimize  \
	dirUpdateScheme      PolakRibiere \
	linminMethod         DirUpdateRecommended \
	nIterations          400 \
	history              15 \
	knormThreshold       1e-11 \
	energyDiffThreshold  0 \
	nEnergyDiff          2 \
	alphaTstart          1 \
	alphaTmin            1e-10 \
	updateTestStepSize   yes \
	alphaTreduceFactor   0.1 \
	alphaTincreaseFactor 3 \
	nAlphaAdjustMax      6 \
	wolfeEnergy          0.0001 \
	wolfeGradient        0.9 \
	fdTest               no
fluid-solvent H2O 55.338 ScalarEOS \
	epsBulk 78.4 \
	pMol 0.92466 \
	epsInf 1.77 \
	Pvap 1.06736e-10 \
	sigmaBulk 4.62e-05 \
	Rvdw 2.61727 \
	Res 1.42 \
	tauNuc 343133 \
	poleEl 15 7 1
forces-output-coords Positions
initial-state NbTe2.$VAR
ion Ti   0.166666628871778   0.083333387753221   0.566175256878475 1
ion Ti   0.083333386878221   0.166666629746778   0.433824743121525 1
ion Ti   0.416666628871778   0.083333387753221   0.566175256878475 1
ion Ti   0.333333386878221   0.166666629746778   0.433824743121525 1
ion Ti   0.666666628871778   0.083333387753221   0.566175256878475 1
ion Ti   0.583333386878221   0.166666629746778   0.433824743121525 1
ion Ti   0.916666628871778   0.083333387753221   0.566175256878475 1
ion Ti   0.833333386878221   0.166666629746778   0.433824743121525 1
ion Ti   0.166666628871778   0.333333387753221   0.566175256878475 1
ion Ti   0.083333386878221   0.416666629746779   0.433824743121525 1
ion Ti   0.416666628871778   0.333333387753221   0.566175256878475 1
ion Ti   0.333333386878221   0.416666629746779   0.433824743121525 1
ion Ti   0.666666628871778   0.333333387753221   0.566175256878475 1
ion Ti   0.583333386878221   0.416666629746779   0.433824743121525 1
ion Ti   0.916666628871778   0.333333387753221   0.566175256878475 1
ion Ti   0.833333386878221   0.416666629746779   0.433824743121525 1
ion Ti   0.166666628871778   0.583333387753221   0.566175256878475 1
ion Ti   0.083333386878221   0.666666629746778   0.433824743121525 1
ion Ti   0.416666628871778   0.583333387753221   0.566175256878475 1
ion Ti   0.333333386878221   0.666666629746778   0.433824743121525 1
ion Ti   0.666666628871778   0.583333387753221   0.566175256878475 1
ion Ti   0.583333386878221   0.666666629746778   0.433824743121525 1
ion Ti   0.916666628871778   0.583333387753221   0.566175256878475 1
ion Ti   0.833333386878221   0.666666629746778   0.433824743121525 1
ion Ti   0.166666628871778   0.833333387753221   0.566175256878475 1
ion Ti   0.083333386878221   0.916666629746778   0.433824743121525 1
ion Ti   0.416666628871778   0.833333387753221   0.566175256878475 1
ion Ti   0.333333386878221   0.916666629746778   0.433824743121525 1
ion Ti   0.666666628871778   0.833333387753221   0.566175256878475 1
ion Ti   0.583333386878221   0.916666629746778   0.433824743121525 1
ion Ti   0.916666628871778   0.833333387753221   0.566175256878475 1
ion Ti   0.833333386878221   0.916666629746778   0.433824743121525 1
ion C   0.000000007874999   0.000000008750000   0.500000000000000 1
ion C   0.250000007874999   0.000000008750000   0.500000000000000 1
ion C   0.500000007875000   0.000000008750000   0.500000000000000 1
ion C   0.750000007875000   0.000000008750000   0.500000000000000 1
ion C   0.000000007874999   0.250000008750000   0.500000000000000 1
ion C   0.250000007874999   0.250000008750000   0.500000000000000 1
ion C   0.500000007875000   0.250000008750000   0.500000000000000 1
ion C   0.750000007875000   0.250000008750000   0.500000000000000 1
ion C   0.000000007874999   0.500000008750000   0.500000000000000 1
ion C   0.250000007874999   0.500000008750000   0.500000000000000 1
ion C   0.500000007875000   0.500000008750000   0.500000000000000 1
ion C   0.750000007875000   0.500000008750000   0.500000000000000 1
ion C   1.000000007875000   0.750000008750000   0.500000000000000 1
ion C   0.250000007874999   0.750000008750000   0.500000000000000 1
ion C   0.500000007875000   0.750000008750000   0.500000000000000 1
ion C   0.750000007875000   0.750000008750000   0.500000000000000 1
ion-species GBRV/$ID_pbe.uspp
ion-width Ecut
ionic-minimize  \
	dirUpdateScheme      L-BFGS \
	linminMethod         DirUpdateRecommended \
	nIterations          500 \
	history              15 \
	knormThreshold       0.0001 \
	energyDiffThreshold  1e-06 \
	nEnergyDiff          2 \
	alphaTstart          1 \
	alphaTmin            1e-10 \
	updateTestStepSize   yes \
	alphaTreduceFactor   0.1 \
	alphaTincreaseFactor 3 \
	nAlphaAdjustMax      3 \
	wolfeEnergy          0.0001 \
	wolfeGradient        0.9 \
	fdTest               no
kpoint   0.000000000000   0.000000000000   0.000000000000  1.00000000000000
kpoint-folding 5 5 1 
latt-move-scale 1 1 1
latt-scale 1.88973 1.88973 1.88973 
lattice Triclinic 12.1569 12.1569 17.2781 90 90 120
lattice-minimize  \
	dirUpdateScheme      L-BFGS \
	linminMethod         DirUpdateRecommended \
	nIterations          0 \
	history              15 \
	knormThreshold       0 \
	energyDiffThreshold  1e-06 \
	nEnergyDiff          2 \
	alphaTstart          1 \
	alphaTmin            1e-10 \
	updateTestStepSize   yes \
	alphaTreduceFactor   0.1 \
	alphaTincreaseFactor 3 \
	nAlphaAdjustMax      3 \
	wolfeEnergy          0.0001 \
	wolfeGradient        0.9 \
	fdTest               no
lcao-params -1 1e-06 0.0073499
pcm-variant CANDLE
spintype z-spin
subspace-rotation-factor 1 yes
symmetries automatic
symmetry-threshold 0.0001



---------- Setting up symmetries ----------

Found 24 point-group symmetries of the bravais lattice
Found 192 space-group symmetries with basis
Applied RMS atom displacement 1.48377e-06 bohrs to make symmetries exact.

---------- Initializing the Grid ----------
R = 
[    22.9732   -11.4866          0  ]
[          0    19.8954          0  ]
[          0          0    32.6508  ]
unit cell volume = 14923.4
G =
[   0.273501   0.157906         -0  ]
[          0   0.315811          0  ]
[          0         -0   0.192436  ]
Minimum fftbox size, Smin = [  96  96  132  ]
Chosen fftbox size, S = [  96  96  140  ]

---------- Exchange Correlation functional ----------
Initalized PBE GGA exchange.
Initalized PBE GGA correlation.

---------- Setting up pseudopotentials ----------
Width of ionic core gaussian charges (only for fluid interactions / plotting) set to 0.397384

Reading pseudopotential file '/home/guoxy/vasp/jdftx-1.5.0/build/pseudopotentials/GBRV/ti_pbe.uspp':
  Title: Ti.  Created by USPP 7.3.6 on 31-3-15
  Reference state energy: -59.020943.  12 valence electrons in orbitals:
    |300>  occupation: 2  eigenvalue: -2.777623
    |310>  occupation: 6  eigenvalue: -1.894596
    |400>  occupation: 2  eigenvalue: -0.438610
    |320>  occupation: 1  eigenvalue: -0.583119
  lMax: 2  lLocal: 3  QijEcut: 6
  6 projectors sampled on a log grid with 597 points:
    l: 0  eig: -2.777624  rCut: 1.8
    l: 0  eig: -0.438611  rCut: 1.8
    l: 1  eig: -1.894596  rCut: 1.8
    l: 1  eig: 0.500000  rCut: 1.8
    l: 2  eig: -0.583118  rCut: 1.8
    l: 2  eig: 0.150000  rCut: 1.8
  Partial core density with radius 0.8
  Transforming core density to a uniform radial grid of dG=0.02 with 1481 points.
  Transforming local potential to a uniform radial grid of dG=0.02 with 1481 points.
  Transforming nonlocal projectors to a uniform radial grid of dG=0.02 with 432 points.
  Transforming density augmentations to a uniform radial grid of dG=0.02 with 1481 points.
  Transforming atomic orbitals to a uniform radial grid of dG=0.02 with 432 points.
  Core radius for overlap checks: 1.80 bohrs.

Reading pseudopotential file '/home/guoxy/vasp/jdftx-1.5.0/build/pseudopotentials/GBRV/c_pbe.uspp':
  Title: C.  Created by USPP 7.3.6 on 3-2-2014
  Reference state energy: -5.406344.  4 valence electrons in orbitals:
    |200>  occupation: 2  eigenvalue: -0.504890
    |210>  occupation: 2  eigenvalue: -0.194356
  lMax: 1  lLocal: 2  QijEcut: 5
  4 projectors sampled on a log grid with 503 points:
    l: 0  eig: -0.504890  rCut: 1.3
    l: 0  eig: 0.000000  rCut: 1.3
    l: 1  eig: -0.194357  rCut: 1.3
    l: 1  eig: 0.000000  rCut: 1.3
  Partial core density with radius 1.1
  Transforming core density to a uniform radial grid of dG=0.02 with 1481 points.
  Transforming local potential to a uniform radial grid of dG=0.02 with 1481 points.
  Transforming nonlocal projectors to a uniform radial grid of dG=0.02 with 432 points.
  Transforming density augmentations to a uniform radial grid of dG=0.02 with 1481 points.
  Transforming atomic orbitals to a uniform radial grid of dG=0.02 with 432 points.
  Core radius for overlap checks: 1.30 bohrs.

Initialized 2 species with 48 total atoms.

Folded 1 k-points by 5x5x1 to 25 k-points.

---------- Setting up k-points, bands, fillings ----------
Adding inversion symmetry to k-mesh for non-inversion-symmetric unit cell.
Reduced to 5 k-points under symmetry. 
Computing the number of bands and number of electrons
Calculating initial fillings.
nElectrons: 448.000000   nBands: 384   nStates: 10

----- Setting up reduced wavefunction bases (one per k-point) -----
average nbasis = 63729.080 , ideal nbasis = 63753.870

---------- Setting up coulomb interaction ----------
Fluid mode embedding: using embedded box, but periodic Coulomb kernel.
(Fluid response is responsible for (approximate) separation between periodic images.)
Setting up double-sized grid for truncated Coulomb potentials:
R = 
[    22.9732   -11.4866          0  ]
[          0    19.8954          0  ]
[          0          0    65.3016  ]
unit cell volume = 29846.8
G =
[   0.273501   0.157906         -0  ]
[          0   0.315811          0  ]
[          0         -0   0.096218  ]
Chosen fftbox size, S = [  96  96  280  ]
Integer grid location selected as the embedding center:
   Grid: [  48  48  70  ]
   Lattice: [  0.5  0.5  0.5  ]
   Cartesian: [  5.7433  9.94769  16.3254  ]
Constructing Wigner-Seitz cell: 8 faces (6 quadrilaterals, 2 hexagons)
Range-separation parameter for embedded mesh potentials due to point charges: 0.617142 bohrs.

Initializing van der Waals corrections
	NOTE: vdW corrections apply only for interactions with fluid.
	Ti:  C6:  187.33 Eh-a0^6  R0: 2.952 a0
	 C:  C6:   30.35 Eh-a0^6  R0: 2.744 a0

---------- Setting up ewald sum ----------
Optimum gaussian width for ewald sums = 6.491360 bohr.
Real space sum over 605 unit cells with max indices [  5  5  2  ]
Reciprocal space sum over 7875 terms with max indices [  7  7  17  ]

---------- Allocating electronic variables ----------
Initializing wave functions:  linear combination of atomic orbitals
Ti pseudo-atom occupations:   s ( 2 0 )  p ( 6 )  d ( 4 )
C pseudo-atom occupations:   s ( 2 )  p ( 2 )
	FillingsUpdate:  mu: +0.344161482  nElectrons: 448.000000  magneticMoment: [ Abs: 47.93086  Tot: +47.92728 ]
LCAOMinimize: Iter:   0  F: -1838.3863017794083135  |grad|_K:  1.423e-02  alpha:  1.000e+00
	FillingsUpdate:  mu: +0.052819619  nElectrons: 448.000000  magneticMoment: [ Abs: 8.14171  Tot: +8.13285 ]
LCAOMinimize: Iter:   1  F: -1916.1060934701104088  |grad|_K:  6.435e-03  alpha:  6.089e-01  linmin:  1.615e-01  cgtest: -1.371e+00  t[s]:    186.01
LCAOMinimize: 	Bad step direction: g.d > 0.
LCAOMinimize: 	Undoing step.
LCAOMinimize: 	Step failed: resetting search direction.
	FillingsUpdate:  mu: +0.052819619  nElectrons: 448.000000  magneticMoment: [ Abs: 8.14171  Tot: +8.13285 ]
LCAOMinimize: Iter:   2  F: -1916.1060934701104088  |grad|_K:  6.435e-03  alpha:  0.000e+00
	FillingsUpdate:  mu: +0.174635870  nElectrons: 448.000000  magneticMoment: [ Abs: 10.61067  Tot: +10.13362 ]
LCAOMinimize: Iter:   3  F: -1944.3846895453166326  |grad|_K:  5.190e-03  alpha:  3.001e-01  linmin: -3.538e-01  cgtest:  4.394e-01  t[s]:    286.02
	FillingsUpdate:  mu: +0.215093303  nElectrons: 448.000000  magneticMoment: [ Abs: 11.85751  Tot: +10.85745 ]
LCAOMinimize: Iter:   4  F: -1950.9710348837411402  |grad|_K:  1.073e-03  alpha:  1.288e-01  linmin: -4.443e-01  cgtest:  7.558e-01  t[s]:    344.36
LCAOMinimize: Encountered beta<0, resetting CG.
	FillingsUpdate:  mu: +0.217922059  nElectrons: 448.000000  magneticMoment: [ Abs: 11.10229  Tot: +10.10263 ]
LCAOMinimize: Iter:   5  F: -1951.1902066448290043  |grad|_K:  2.450e-04  alpha:  2.696e-01  linmin:  9.765e-02  cgtest: -4.284e-01  t[s]:    403.11
LCAOMinimize: 	Predicted alpha/alphaT>3.000000, increasing alphaT to 8.086684e-01.
	FillingsUpdate:  mu: +0.214342442  nElectrons: 448.000000  magneticMoment: [ Abs: 6.39707  Tot: +5.48883 ]
LCAOMinimize: Iter:   6  F: -1951.2177822549197117  |grad|_K:  2.494e-04  alpha:  8.542e-01  linmin:  1.351e-02  cgtest:  6.017e-01  t[s]:    479.76
	FillingsUpdate:  mu: +0.213266416  nElectrons: 448.000000  magneticMoment: [ Abs: 5.00148  Tot: +4.18414 ]
LCAOMinimize: Iter:   7  F: -1951.2290185945691974  |grad|_K:  7.091e-05  alpha:  2.513e-01  linmin:  4.590e-03  cgtest:  3.850e-02  t[s]:    537.77
LCAOMinimize: 	Predicted alpha/alphaT>3.000000, increasing alphaT to 7.539520e-01.
	FillingsUpdate:  mu: +0.214726515  nElectrons: 448.000000  magneticMoment: [ Abs: 2.04839  Tot: +1.63295 ]
LCAOMinimize: Iter:   8  F: -1951.2334416620158208  |grad|_K:  3.284e-05  alpha:  1.178e+00  linmin: -1.629e-02  cgtest:  1.656e-03  t[s]:    614.31
	FillingsUpdate:  mu: +0.214426403  nElectrons: 448.000000  magneticMoment: [ Abs: 0.52056  Tot: +0.39103 ]
LCAOMinimize: Iter:   9  F: -1951.2343394836289008  |grad|_K:  1.959e-05  alpha:  1.091e+00  linmin:  2.841e-03  cgtest: -6.007e-02  t[s]:    672.87
	FillingsUpdate:  mu: +0.214274061  nElectrons: 448.000000  magneticMoment: [ Abs: 0.29154  Tot: +0.21146 ]
LCAOMinimize: Iter:  10  F: -1951.2344230016235542  |grad|_K:  8.071e-06  alpha:  2.956e-01  linmin:  1.577e-03  cgtest:  9.562e-03  t[s]:    730.69
	FillingsUpdate:  mu: +0.214223728  nElectrons: 448.000000  magneticMoment: [ Abs: 0.06886  Tot: +0.04935 ]
LCAOMinimize: Iter:  11  F: -1951.2344652246295027  |grad|_K:  1.486e-06  alpha:  8.776e-01  linmin:  3.818e-03  cgtest: -1.675e-02  t[s]:    789.54
	FillingsUpdate:  mu: +0.214283727  nElectrons: 448.000000  magneticMoment: [ Abs: 0.05092  Tot: +0.03667 ]
LCAOMinimize: Iter:  12  F: -1951.2344659847708499  |grad|_K:  1.059e-06  alpha:  4.659e-01  linmin:  6.404e-06  cgtest:  5.266e-03  t[s]:    848.10
	FillingsUpdate:  mu: +0.214307345  nElectrons: 448.000000  magneticMoment: [ Abs: 0.03164  Tot: +0.02252 ]
LCAOMinimize: Iter:  13  F: -1951.2344663859662433  |grad|_K:  5.510e-07  alpha:  4.829e-01  linmin: -7.855e-05  cgtest: -2.764e-03  t[s]:    906.84
LCAOMinimize: Converged (|Delta F|<1.000000e-06 for 2 iters).
----- createFluidSolver() ----- (Fluid-side solver setup)
   Initializing fluid molecule 'H2O'
     Initializing site 'O'
       Electron density: proportional to exp(-r/0.36935)*erfc((r-0.51523)/0.36823) with norm 6.826
       Charge density: gaussian nuclear width 0.478731 with net site charge 0.826
       Polarizability: cuspless exponential with width 0.32 and norm 3.73
       Hard sphere radius: 2.57003 bohrs
       Positions in reference frame:
         [ +0.000000 +0.000000 +0.000000 ]
     Initializing site 'H'
       Electron density: proportional to exp(-r/0.34641)*erfc((r-0)/0.390882) with norm 0.587
       Charge density: gaussian nuclear width 0.377945 with net site charge -0.413
       Polarizability: cuspless exponential with width 0.39 and norm 3.3
       Positions in reference frame:
         [ +0.000000 -1.441945 +1.122523 ]
         [ +0.000000 +1.441945 +1.122523 ]
     Net charge: 0   dipole magnitude: 0.927204
     Initializing spherical shell mfKernel with radius 2.61727 Bohr
     deltaS corrections:
       site 'O': -7.54299
       site 'H': -6.83917
   Initializing fluid molecule 'Na+'
     Initializing site 'Na'
       Electron density: proportional to exp(-r/0.19682)*erfc((r-0.71491)/0.41314) with norm 8.1383
       Charge density: gaussian nuclear width 0.365347 with net site charge -1
       Hard sphere radius: 1.86327 bohrs
       Positions in reference frame:
         [ +0.000000 +0.000000 +0.000000 ]
     Net charge: -1   dipole magnitude: 0
     Initializing gaussian mfKernel with width: 1.55004 Bohr
     deltaS corrections:
       site 'Na': -22.3555
   Initializing fluid molecule 'F-'
     Initializing site 'F'
       Electron density: proportional to exp(-r/0.38886)*erfc((r-0)/0.438782) with norm 8
       Charge density: gaussian nuclear width 0.374796 with net site charge 1
       Hard sphere radius: 2.39995 bohrs
       Positions in reference frame:
         [ +0.000000 +0.000000 +0.000000 ]
     Net charge: 1   dipole magnitude: 0
     Initializing gaussian mfKernel with width: 1.59012 Bohr
     deltaS corrections:
       site 'F': -9.04335

Correction to mu due to finite nuclear width = -0.0148929
   Cavity determined by nc: 0.00142 and sigma: 0.707107
   Nonlocal vdW cavity from gaussian model electron density with norm = 8 and sigma = 0.993594 bohr
   Charge asymmetry in cavity with sensitivity pCavity = 36.5 e-bohr/Eh
   Electrostatic cavity expanded by eta = 1.46 bohrs
   Weighted density cavitation model constrained by Nbulk: 0.0049383 bohr^-3, Pvap: 3.14029 kPa, Rvdw: 2.61727 bohr and sigmaBulk: 4.62e-05 Eh/bohr^2 at T: 298 K.
   Weighted density dispersion model using vdW pair potentials with single solvent site with sqrtC6eff: 0.77 SI.


---- Citations for features of the code used in this run ----

   Software package:
      R. Sundararaman, K. Letchworth-Weaver, K.A. Schwarz, D. Gunceler, Y. Ozhabes and T.A. Arias, 'JDFTx: software for joint density-functional theory', SoftwareX 6, 278 (2017)

   gga-PBE exchange-correlation functional:
      J.P. Perdew, K. Burke and M. Ernzerhof, Phys. Rev. Lett. 77, 3865 (1996)

   Pseudopotentials:
      KF Garrity, JW Bennett, KM Rabe and D Vanderbilt, Comput. Mater. Sci. 81, 446 (2014)

   Truncated Coulomb potentials:
      R. Sundararaman and T.A. Arias, Phys. Rev. B 87, 165122 (2013)

   Van der Waals correction pair-potentials:
      S. Grimme, J. Comput. Chem. 27, 1787 (2006)

   Charge-asymmetric nonlocally-determined local-electric (CANDLE) solvation model:
      R. Sundararaman and W.A. Goddard III, J. Chem. Phys. 142, 064107 (2015)

   Total energy minimization with Auxiliary Hamiltonian:
      C. Freysoldt, S. Boeck, and J. Neugebauer, Phys. Rev. B 79, 241103(R) (2009)

This list may not be complete. Please suggest additional citations or
report any other bugs at https://github.com/shankar1729/jdftx/issues

Initialization completed successfully at t[s]:    915.34

Fluid solver invoked on fresh (partially random / LCAO) wavefunctions
Running a vacuum solve first:

-------- Initial electronic minimization -----------
	FillingsUpdate:  mu: +0.214307345  nElectrons: 448.000000  magneticMoment: [ Abs: 0.03164  Tot: +0.02252 ]
ElecMinimize: Iter:   0  F: -1951.234466385961014  |grad|_K:  1.950e-04  alpha:  1.000e+00
	FillingsUpdate:  mu: +0.043242438  nElectrons: 448.000000  magneticMoment: [ Abs: 0.02739  Tot: +0.01886 ]
	SubspaceRotationAdjust: set factor to 1
ElecMinimize: Iter:   1  F: -1954.547014322223959  |grad|_K:  1.140e-04  alpha:  3.614e-01  linmin:  6.409e-05  t[s]:   1042.83
	FillingsUpdate:  mu: +0.046545061  nElectrons: 448.000000  magneticMoment: [ Abs: 0.02187  Tot: +0.01808 ]
	SubspaceRotationAdjust: set factor to 0.774
ElecMinimize: Iter:   2  F: -1956.289617934831313  |grad|_K:  7.706e-05  alpha:  5.531e-01  linmin: -8.859e-05  t[s]:   1120.47
	FillingsUpdate:  mu: +0.014226228  nElectrons: 448.000000  magneticMoment: [ Abs: 0.01381  Tot: +0.01123 ]
	SubspaceRotationAdjust: set factor to 0.604
ElecMinimize: Iter:   3  F: -1957.058056995633024  |grad|_K:  5.128e-05  alpha:  5.179e-01  linmin:  5.241e-05  t[s]:   1198.71
	FillingsUpdate:  mu: -0.067474474  nElectrons: 448.000000  magneticMoment: [ Abs: 0.01111  Tot: +0.00933 ]
	SubspaceRotationAdjust: set factor to 0.515
ElecMinimize: Iter:   4  F: -1957.412510524824484  |grad|_K:  2.899e-05  alpha:  5.575e-01  linmin:  8.043e-04  t[s]:   1277.02
	FillingsUpdate:  mu: -0.053853595  nElectrons: 448.000000  magneticMoment: [ Abs: 0.00993  Tot: +0.00857 ]
	SubspaceRotationAdjust: set factor to 0.571
ElecMinimize: Iter:   5  F: -1957.533274438767421  |grad|_K:  1.917e-05  alpha:  6.356e-01  linmin:  7.022e-05  t[s]:   1355.64
	FillingsUpdate:  mu: -0.048643232  nElectrons: 448.000000  magneticMoment: [ Abs: 0.00955  Tot: +0.00849 ]
	SubspaceRotationAdjust: set factor to 0.586
ElecMinimize: Iter:   6  F: -1957.578125502854391  |grad|_K:  1.375e-05  alpha:  5.142e-01  linmin:  6.928e-06  t[s]:   1434.18
	FillingsUpdate:  mu: -0.058664943  nElectrons: 448.000000  magneticMoment: [ Abs: 0.01037  Tot: +0.00963 ]
	SubspaceRotationAdjust: set factor to 0.754
ElecMinimize: Iter:   7  F: -1957.604601873351839  |grad|_K:  8.931e-06  alpha:  5.742e-01  linmin:  1.407e-05  t[s]:   1512.80
	FillingsUpdate:  mu: -0.066338517  nElectrons: 448.000000  magneticMoment: [ Abs: 0.01168  Tot: +0.01113 ]
	SubspaceRotationAdjust: set factor to 0.852
ElecMinimize: Iter:   8  F: -1957.616480584224291  |grad|_K:  7.264e-06  alpha:  6.122e-01  linmin:  5.200e-06  t[s]:   1590.45
	FillingsUpdate:  mu: -0.065040840  nElectrons: 448.000000  magneticMoment: [ Abs: 0.01300  Tot: +0.01254 ]
	SubspaceRotationAdjust: set factor to 0.971
ElecMinimize: Iter:   9  F: -1957.622267591483478  |grad|_K:  4.370e-06  alpha:  4.487e-01  linmin: -2.232e-06  t[s]:   1668.40
	FillingsUpdate:  mu: -0.064574211  nElectrons: 448.000000  magneticMoment: [ Abs: 0.01440  Tot: +0.01395 ]
	SubspaceRotationAdjust: set factor to 1.11
ElecMinimize: Iter:  10  F: -1957.624810160566540  |grad|_K:  3.216e-06  alpha:  5.420e-01  linmin: -8.704e-06  t[s]:   1746.53
	FillingsUpdate:  mu: -0.067760729  nElectrons: 448.000000  magneticMoment: [ Abs: 0.01578  Tot: +0.01528 ]
	SubspaceRotationAdjust: set factor to 0.987
ElecMinimize: Iter:  11  F: -1957.625974017821818  |grad|_K:  2.464e-06  alpha:  4.579e-01  linmin: -1.707e-06  t[s]:   1824.83
	FillingsUpdate:  mu: -0.066495113  nElectrons: 448.000000  magneticMoment: [ Abs: 0.01741  Tot: +0.01684 ]
	SubspaceRotationAdjust: set factor to 0.986
ElecMinimize: Iter:  12  F: -1957.626631923128571  |grad|_K:  1.696e-06  alpha:  4.410e-01  linmin: -1.064e-06  t[s]:   1903.36
	FillingsUpdate:  mu: -0.066829550  nElectrons: 448.000000  magneticMoment: [ Abs: 0.01921  Tot: +0.01856 ]
	SubspaceRotationAdjust: set factor to 1.23
ElecMinimize: Iter:  13  F: -1957.626996568617869  |grad|_K:  1.132e-06  alpha:  5.162e-01  linmin:  3.286e-06  t[s]:   1981.12
	FillingsUpdate:  mu: -0.067151435  nElectrons: 448.000000  magneticMoment: [ Abs: 0.02113  Tot: +0.02040 ]
	SubspaceRotationAdjust: set factor to 1.28
ElecMinimize: Iter:  14  F: -1957.627174191487029  |grad|_K:  9.349e-07  alpha:  5.654e-01  linmin:  1.803e-06  t[s]:   2059.91
	FillingsUpdate:  mu: -0.066630499  nElectrons: 448.000000  magneticMoment: [ Abs: 0.02296  Tot: +0.02217 ]
	SubspaceRotationAdjust: set factor to 1.12
ElecMinimize: Iter:  15  F: -1957.627256391712990  |grad|_K:  6.454e-07  alpha:  3.834e-01  linmin:  5.137e-09  t[s]:   2138.06
	FillingsUpdate:  mu: -0.067163581  nElectrons: 448.000000  magneticMoment: [ Abs: 0.02511  Tot: +0.02426 ]
	SubspaceRotationAdjust: set factor to 1.05
ElecMinimize: Iter:  16  F: -1957.627300428783656  |grad|_K:  4.754e-07  alpha:  4.308e-01  linmin:  7.997e-07  t[s]:   2216.51
	FillingsUpdate:  mu: -0.066853717  nElectrons: 448.000000  magneticMoment: [ Abs: 0.02733  Tot: +0.02640 ]
	SubspaceRotationAdjust: set factor to 1.08
ElecMinimize: Iter:  17  F: -1957.627323674613990  |grad|_K:  3.236e-07  alpha:  4.193e-01  linmin: -1.763e-07  t[s]:   2294.63
	FillingsUpdate:  mu: -0.066963362  nElectrons: 448.000000  magneticMoment: [ Abs: 0.02994  Tot: +0.02891 ]
	SubspaceRotationAdjust: set factor to 1.17
ElecMinimize: Iter:  18  F: -1957.627336933394872  |grad|_K:  2.410e-07  alpha:  5.160e-01  linmin: -2.853e-07  t[s]:   2372.94
	FillingsUpdate:  mu: -0.067079711  nElectrons: 448.000000  magneticMoment: [ Abs: 0.03258  Tot: +0.03146 ]
	SubspaceRotationAdjust: set factor to 1.29
ElecMinimize: Iter:  19  F: -1957.627343513278902  |grad|_K:  1.643e-07  alpha:  4.615e-01  linmin: -9.901e-09  t[s]:   2450.92
	FillingsUpdate:  mu: -0.066926871  nElectrons: 448.000000  magneticMoment: [ Abs: 0.03548  Tot: +0.03426 ]
	SubspaceRotationAdjust: set factor to 1.19
ElecMinimize: Iter:  20  F: -1957.627346668842392  |grad|_K:  1.393e-07  alpha:  4.762e-01  linmin:  7.264e-08  t[s]:   2529.02
	FillingsUpdate:  mu: -0.067040980  nElectrons: 448.000000  magneticMoment: [ Abs: 0.03842  Tot: +0.03709 ]
	SubspaceRotationAdjust: set factor to 1.08
ElecMinimize: Iter:  21  F: -1957.627348324512923  |grad|_K:  9.047e-08  alpha:  3.478e-01  linmin:  6.254e-08  t[s]:   2607.97
	FillingsUpdate:  mu: -0.066998791  nElectrons: 448.000000  magneticMoment: [ Abs: 0.04241  Tot: +0.04094 ]
	SubspaceRotationAdjust: set factor to 1.2
ElecMinimize: Iter:  22  F: -1957.627349371229002  |grad|_K:  6.571e-08  alpha:  5.211e-01  linmin:  5.981e-08  t[s]:   2686.19
	FillingsUpdate:  mu: -0.066993639  nElectrons: 448.000000  magneticMoment: [ Abs: 0.04658  Tot: +0.04496 ]
	SubspaceRotationAdjust: set factor to 1.4
ElecMinimize: Iter:  23  F: -1957.627349916400362  |grad|_K:  4.890e-08  alpha:  5.144e-01  linmin: -1.759e-08  t[s]:   2764.70
	FillingsUpdate:  mu: -0.067035020  nElectrons: 448.000000  magneticMoment: [ Abs: 0.05106  Tot: +0.04928 ]
	SubspaceRotationAdjust: set factor to 1.37
ElecMinimize: Iter:  24  F: -1957.627350192720087  |grad|_K:  4.181e-08  alpha:  4.709e-01  linmin: -6.045e-08  t[s]:   2843.25
	FillingsUpdate:  mu: -0.066996502  nElectrons: 448.000000  magneticMoment: [ Abs: 0.05587  Tot: +0.05394 ]
	SubspaceRotationAdjust: set factor to 1.22
ElecMinimize: Iter:  25  F: -1957.627350348413302  |grad|_K:  3.075e-08  alpha:  3.628e-01  linmin:  8.876e-08  t[s]:   2921.36
	FillingsUpdate:  mu: -0.067021394  nElectrons: 448.000000  magneticMoment: [ Abs: 0.06166  Tot: +0.05954 ]
	SubspaceRotationAdjust: set factor to 1.18
ElecMinimize: Iter:  26  F: -1957.627350444393187  |grad|_K:  2.460e-08  alpha:  4.138e-01  linmin: -3.302e-07  t[s]:   2999.79
	FillingsUpdate:  mu: -0.067019149  nElectrons: 448.000000  magneticMoment: [ Abs: 0.06970  Tot: +0.06730 ]
	SubspaceRotationAdjust: set factor to 1.33
ElecMinimize: Iter:  27  F: -1957.627350520989921  |grad|_K:  2.024e-08  alpha:  5.153e-01  linmin: -3.886e-08  t[s]:   3077.32
	FillingsUpdate:  mu: -0.067013786  nElectrons: 448.000000  magneticMoment: [ Abs: 0.08060  Tot: +0.07783 ]
	SubspaceRotationAdjust: set factor to 1.62
ElecMinimize: Iter:  28  F: -1957.627350582428107  |grad|_K:  2.092e-08  alpha:  6.113e-01  linmin:  2.254e-07  t[s]:   3155.09
	FillingsUpdate:  mu: -0.067034298  nElectrons: 448.000000  magneticMoment: [ Abs: 0.10006  Tot: +0.09662 ]
	SubspaceRotationAdjust: set factor to 1.32
ElecMinimize: Iter:  29  F: -1957.627350655726786  |grad|_K:  2.845e-08  alpha:  6.824e-01  linmin: -1.032e-08  t[s]:   3233.96
	FillingsUpdate:  mu: -0.066998879  nElectrons: 448.000000  magneticMoment: [ Abs: 0.13055  Tot: +0.12609 ]
	SubspaceRotationAdjust: set factor to 1.28
ElecMinimize: Iter:  30  F: -1957.627350746111915  |grad|_K:  3.636e-08  alpha:  4.549e-01  linmin:  4.749e-08  t[s]:   3312.18
ElecMinimize: 	Predicted alpha/alphaT>3.000000, increasing alphaT to 1.364783e+00.
	FillingsUpdate:  mu: -0.067010871  nElectrons: 448.000000  magneticMoment: [ Abs: 0.49084  Tot: +0.47515 ]
	SubspaceRotationAdjust: set factor to 1.34
ElecMinimize: Iter:  31  F: -1957.627351482690983  |grad|_K:  1.799e-07  alpha:  2.895e+00  linmin:  2.778e-05  t[s]:   3413.25
ElecMinimize: 	Bad step direction: g.d > 0.
ElecMinimize: 	Undoing step.
ElecMinimize: 	Step failed: resetting search direction.
	FillingsUpdate:  mu: -0.067010871  nElectrons: 448.000000  magneticMoment: [ Abs: 0.49084  Tot: +0.47515 ]
	SubspaceRotationAdjust: set factor to 1.48
ElecMinimize: Iter:  32  F: -1957.627351482680069  |grad|_K:  1.815e-07  alpha:  0.000e+00
	FillingsUpdate:  mu: -0.067083324  nElectrons: 448.000000  magneticMoment: [ Abs: 0.52928  Tot: +0.51241 ]
	SubspaceRotationAdjust: set factor to 1.64
ElecMinimize: Iter:  33  F: -1957.627355423096333  |grad|_K:  1.568e-07  alpha:  6.827e-01  linmin:  1.427e-05  t[s]:   3546.26
	FillingsUpdate:  mu: -0.066932237  nElectrons: 448.000000  magneticMoment: [ Abs: 0.58115  Tot: +0.56259 ]
	SubspaceRotationAdjust: set factor to 1.14
ElecMinimize: Iter:  34  F: -1957.627357911758054  |grad|_K:  1.535e-07  alpha:  4.731e-01  linmin: -4.946e-08  t[s]:   3624.95
	FillingsUpdate:  mu: -0.067146692  nElectrons: 448.000000  magneticMoment: [ Abs: 0.65926  Tot: +0.63803 ]
	SubspaceRotationAdjust: set factor to 0.944
ElecMinimize: Iter:  35  F: -1957.627360321094784  |grad|_K:  1.655e-07  alpha:  4.164e-01  linmin:  1.035e-08  t[s]:   3703.26
ElecMinimize: 	Predicted alpha/alphaT>3.000000, increasing alphaT to 1.249218e+00.
	FillingsUpdate:  mu: -0.066929658  nElectrons: 448.000000  magneticMoment: [ Abs: 1.05698  Tot: +1.02107 ]
	SubspaceRotationAdjust: set factor to 0.997
ElecMinimize: Iter:  36  F: -1957.627369732546413  |grad|_K:  3.569e-07  alpha:  1.401e+00  linmin:  4.257e-07  t[s]:   3805.54
	FillingsUpdate:  mu: -0.066929586  nElectrons: 448.000000  magneticMoment: [ Abs: 1.05723  Tot: +1.02130 ]
	SubspaceRotationAdjust: set factor to 1.16
ElecMinimize: Iter:  37  F: -1957.627369743236386  |grad|_K:  3.585e-07  alpha:  1.725e-04  linmin: -1.102e-04  t[s]:   3883.55
ElecMinimize: 	Predicted alpha/alphaT>3.000000, increasing alphaT to 5.175619e-04.
ElecMinimize: 	Predicted alpha/alphaT>3.000000, increasing alphaT to 1.552686e-03.
ElecMinimize: 	Predicted alpha/alphaT>3.000000, increasing alphaT to 4.658057e-03.
ElecMinimize: 	Step increased F by 3.144424e-01, reducing alpha to 8.973554e-02.
	FillingsUpdate:  mu: -0.066920975  nElectrons: 448.000000  magneticMoment: [ Abs: 1.19318  Tot: +1.15212 ]
	SubspaceRotationAdjust: set factor to 1.47
ElecMinimize: Iter:  38  F: -1957.627380283377306  |grad|_K:  2.741e-07  alpha:  8.974e-02  linmin: -2.550e-04  t[s]:   4059.26
ElecMinimize: 	Predicted alpha/alphaT>3.000000, increasing alphaT to 2.692066e-01.
	FillingsUpdate:  mu: -0.067031760  nElectrons: 448.000000  magneticMoment: [ Abs: 1.57428  Tot: +1.51888 ]
	SubspaceRotationAdjust: set factor to 1.52
ElecMinimize: Iter:  39  F: -1957.627399252887926  |grad|_K:  5.159e-07  alpha:  3.780e-01  linmin:  1.154e-06  t[s]:   4160.91
	FillingsUpdate:  mu: -0.067031773  nElectrons: 448.000000  magneticMoment: [ Abs: 1.57438  Tot: +1.51897 ]
	SubspaceRotationAdjust: set factor to 1.92
ElecMinimize: Iter:  40  F: -1957.627399256304216  |grad|_K:  5.183e-07  alpha:  2.682e-05  linmin: -8.812e-05  t[s]:   4238.97
ElecMinimize: 	Wrong curvature in test step, increasing alphaT to 8.046559e-05.
	FillingsUpdate:  mu: -0.067031772  nElectrons: 448.000000  magneticMoment: [ Abs: 1.57449  Tot: +1.51908 ]
	SubspaceRotationAdjust: set factor to 2.41
ElecMinimize: Iter:  41  F: -1957.627399263339157  |grad|_K:  5.350e-07  alpha: -5.914e-03  linmin: -2.149e-04  t[s]:   4311.57
ElecMinimize: Converged (|Delta F|<1.000000e-08 for 2 iters).
Setting wave functions to eigenvectors of Hamiltonian
Vacuum energy after initial minimize, F = -1957.627399263339157

	Linear fluid (dielectric constant: 78.4, screening length: 5.74355 Bohr) occupying 0.726470 of unit cell:	Completed after 13 iterations at t[s]:   4330.40

-------- Electronic minimization -----------
	Linear fluid (dielectric constant: 78.4, screening length: 5.74355 Bohr) occupying 0.726470 of unit cell:	Completed after 0 iterations at t[s]:   4351.10
	FillingsUpdate:  mu: -0.150998798  nElectrons: 448.000000  magneticMoment: [ Abs: 1.71204  Tot: +1.65478 ]
ElecMinimize: Iter:   0  F: -1957.612405312398096  |grad|_K:  1.601e-06  alpha:  1.000e+00
	Linear fluid (dielectric constant: 78.4, screening length: 5.74355 Bohr) occupying 0.729327 of unit cell:	Completed after 10 iterations at t[s]:   4411.87
	Linear fluid (dielectric constant: 78.4, screening length: 5.74355 Bohr) occupying 0.726907 of unit cell:	Completed after 11 iterations at t[s]:   4440.35
	FillingsUpdate:  mu: -0.148687881  nElectrons: 448.000000  magneticMoment: [ Abs: 1.76833  Tot: +1.70990 ]
	SubspaceRotationAdjust: set factor to 1.72
ElecMinimize: Iter:   1  F: -1957.612497257755649  |grad|_K:  1.194e-06  alpha:  1.502e-01  linmin:  2.748e-06  t[s]:   4476.30
	Linear fluid (dielectric constant: 78.4, screening length: 5.74355 Bohr) occupying 0.727125 of unit cell:	Completed after 3 iterations at t[s]:   4500.43
	Linear fluid (dielectric constant: 78.4, screening length: 5.74355 Bohr) occupying 0.727354 of unit cell:	Completed after 5 iterations at t[s]:   4527.27
	FillingsUpdate:  mu: -0.148886217  nElectrons: 448.000000  magneticMoment: [ Abs: 1.94986  Tot: +1.88748 ]
	SubspaceRotationAdjust: set factor to 1.19
ElecMinimize: Iter:   2  F: -1957.612602523330224  |grad|_K:  6.680e-07  alpha:  3.091e-01  linmin:  1.349e-07  t[s]:   4561.80
	Linear fluid (dielectric constant: 78.4, screening length: 5.74355 Bohr) occupying 0.727493 of unit cell:	Completed after 6 iterations at t[s]:   4585.91
	Linear fluid (dielectric constant: 78.4, screening length: 5.74355 Bohr) occupying 0.727648 of unit cell:	Completed after 6 iterations at t[s]:   4613.22
	FillingsUpdate:  mu: -0.148267457  nElectrons: 448.000000  magneticMoment: [ Abs: 2.26555  Tot: +2.19435 ]
	SubspaceRotationAdjust: set factor to 1.5
ElecMinimize: Iter:   3  F: -1957.612674416656318  |grad|_K:  6.842e-07  alpha:  6.538e-01  linmin: -8.114e-07  t[s]:   4647.89
	Linear fluid (dielectric constant: 78.4, screening length: 5.74355 Bohr) occupying 0.727745 of unit cell:	Completed after 2 iterations at t[s]:   4671.65
	Linear fluid (dielectric constant: 78.4, screening length: 5.74355 Bohr) occupying 0.727768 of unit cell:	Completed after 2 iterations at t[s]:   4697.55
	FillingsUpdate:  mu: -0.148480619  nElectrons: 448.000000  magneticMoment: [ Abs: 2.86954  Tot: +2.77873 ]
	SubspaceRotationAdjust: set factor to 1.41
ElecMinimize: Iter:   4  F: -1957.612768407718477  |grad|_K:  7.371e-07  alpha:  8.099e-01  linmin:  3.635e-07  t[s]:   4731.46
	Linear fluid (dielectric constant: 78.4, screening length: 5.74355 Bohr) occupying 0.727922 of unit cell:	Completed after 6 iterations at t[s]:   4755.59
	Linear fluid (dielectric constant: 78.4, screening length: 5.74355 Bohr) occupying 0.727933 of unit cell:	Completed after 2 iterations at t[s]:   4782.54
	FillingsUpdate:  mu: -0.147590190  nElectrons: 448.000000  magneticMoment: [ Abs: 3.94937  Tot: +3.82235 ]
	SubspaceRotationAdjust: set factor to 1.31
ElecMinimize: Iter:   5  F: -1957.612883254241297  |grad|_K:  1.136e-06  alpha:  8.627e-01  linmin: -3.898e-08  t[s]:   4816.67
	Linear fluid (dielectric constant: 78.4, screening length: 5.74355 Bohr) occupying 0.728160 of unit cell:	Completed after 6 iterations at t[s]:   4841.19
	Linear fluid (dielectric constant: 78.4, screening length: 5.74355 Bohr) occupying 0.728420 of unit cell:	Completed after 8 iterations at t[s]:   4868.38
	FillingsUpdate:  mu: -0.147814147  nElectrons: 448.000000  magneticMoment: [ Abs: 9.37365  Tot: +9.05895 ]
	SubspaceRotationAdjust: set factor to 1.33
ElecMinimize: Iter:   6  F: -1957.613322428577476  |grad|_K:  3.097e-06  alpha:  1.606e+00  linmin:  5.034e-06  t[s]:   4903.87
	Linear fluid (dielectric constant: 78.4, screening length: 5.74355 Bohr) occupying 0.694997 of unit cell:	Completed after 10 iterations at t[s]:   4928.26
	Linear fluid (dielectric constant: 78.4, screening length: 5.74355 Bohr) occupying 0.728474 of unit cell:	Completed after 10 iterations at t[s]:   4956.41
	FillingsUpdate:  mu: -0.147660098  nElectrons: 448.000000  magneticMoment: [ Abs: 9.64769  Tot: +9.32327 ]
	SubspaceRotationAdjust: set factor to 1.63
ElecMinimize: Iter:   7  F: -1957.613357534225770  |grad|_K:  3.159e-06  alpha:  1.085e-02  linmin: -1.628e-05  t[s]:   4991.92
	Linear fluid (dielectric constant: 78.4, screening length: 5.74355 Bohr) occupying 0.728554 of unit cell:	Completed after 6 iterations at t[s]:   5016.31
ElecMinimize: 	Predicted alpha/alphaT>3.000000, increasing alphaT to 3.254145e-02.
	Linear fluid (dielectric constant: 78.4, screening length: 5.74355 Bohr) occupying 0.728716 of unit cell:	Completed after 8 iterations at t[s]:   5043.56
ElecMinimize: 	Predicted alpha/alphaT>3.000000, increasing alphaT to 9.762436e-02.
	Linear fluid (dielectric constant: 78.4, screening length: 5.74355 Bohr) occupying 0.729223 of unit cell:	Completed after 8 iterations at t[s]:   5071.00
ElecMinimize: 	Predicted alpha/alphaT>3.000000, increasing alphaT to 2.928731e-01.
	Linear fluid (dielectric constant: 78.4, screening length: 5.74355 Bohr) occupying 0.732318 of unit cell:	Completed after 11 iterations at t[s]:   5099.54
ElecMinimize: 	Step increased F by 2.908118e-04, reducing alpha to 4.450908e-02.
	Linear fluid (dielectric constant: 78.4, screening length: 5.74355 Bohr) occupying 0.728807 of unit cell:	Completed after 10 iterations at t[s]:   5155.43
	FillingsUpdate:  mu: -0.146464939  nElectrons: 448.000000  magneticMoment: [ Abs: 10.85243  Tot: +10.48537 ]
	SubspaceRotationAdjust: set factor to 1.74
ElecMinimize: Iter:   8  F: -1957.613707256856742  |grad|_K:  3.147e-06  alpha:  4.451e-02  linmin: -7.918e-05  t[s]:   5190.50
	Linear fluid (dielectric constant: 78.4, screening length: 5.74355 Bohr) occupying 0.729247 of unit cell:	Completed after 8 iterations at t[s]:   5215.26
ElecMinimize: 	Predicted alpha/alphaT>3.000000, increasing alphaT to 1.335272e-01.
	Linear fluid (dielectric constant: 78.4, screening length: 5.74355 Bohr) occupying 0.730158 of unit cell:	Completed after 10 iterations at t[s]:   5242.58
	Linear fluid (dielectric constant: 78.4, screening length: 5.74355 Bohr) occupying 0.731464 of unit cell:	Completed after 10 iterations at t[s]:   5270.48
	FillingsUpdate:  mu: -0.136488009  nElectrons: 448.000000  magneticMoment: [ Abs: 17.64851  Tot: +17.02883 ]
	SubspaceRotationAdjust: set factor to 1.41
ElecMinimize: Iter:   9  F: -1957.614997482243780  |grad|_K:  5.234e-06  alpha:  2.561e-01  linmin:  2.070e-04  t[s]:   5305.62
	Linear fluid (dielectric constant: 78.4, screening length: 5.74355 Bohr) occupying 0.737654 of unit cell:	Completed after 11 iterations at t[s]:   5330.54
	Linear fluid (dielectric constant: 78.4, screening length: 5.74355 Bohr) occupying 0.731486 of unit cell:	Completed after 10 iterations at t[s]:   5359.03
	FillingsUpdate:  mu: -0.136429385  nElectrons: 448.000000  magneticMoment: [ Abs: 17.70768  Tot: +17.08564 ]
	SubspaceRotationAdjust: set factor to 1.25
ElecMinimize: Iter:  10  F: -1957.614998067351280  |grad|_K:  4.927e-06  alpha:  8.488e-04  linmin: -2.211e-06  t[s]:   5394.49
	Linear fluid (dielectric constant: 78.4, screening length: 5.74355 Bohr) occupying 0.731504 of unit cell:	Completed after 0 iterations at t[s]:   5417.73
ElecMinimize: 	Predicted alpha/alphaT>3.000000, increasing alphaT to 2.546354e-03.
	Linear fluid (dielectric constant: 78.4, screening length: 5.74355 Bohr) occupying 0.731538 of unit cell:	Completed after 2 iterations at t[s]:   5443.44
ElecMinimize: 	Predicted alpha/alphaT>3.000000, increasing alphaT to 7.639062e-03.
	Linear fluid (dielectric constant: 78.4, screening length: 5.74355 Bohr) occupying 0.731643 of unit cell:	Completed after 6 iterations at t[s]:   5470.00
ElecMinimize: 	Predicted alpha/alphaT>3.000000, increasing alphaT to 2.291719e-02.
	Linear fluid (dielectric constant: 78.4, screening length: 5.74355 Bohr) occupying 0.732149 of unit cell:	Completed after 8 iterations at t[s]:   5497.82
	FillingsUpdate:  mu: -0.135270918  nElectrons: 448.000000  magneticMoment: [ Abs: 19.66821  Tot: +18.96508 ]
	SubspaceRotationAdjust: set factor to 1.45
ElecMinimize: Iter:  11  F: -1957.615182145144900  |grad|_K:  4.760e-06  alpha:  3.220e-02  linmin:  4.152e-06  t[s]:   5532.10
	Linear fluid (dielectric constant: 78.4, screening length: 5.74355 Bohr) occupying 0.732682 of unit cell:	Completed after 9 iterations at t[s]:   5556.95
	Linear fluid (dielectric constant: 78.4, screening length: 5.74355 Bohr) occupying 0.732485 of unit cell:	Completed after 6 iterations at t[s]:   5584.79
	FillingsUpdate:  mu: -0.135014684  nElectrons: 448.000000  magneticMoment: [ Abs: 20.78189  Tot: +20.02954 ]
	SubspaceRotationAdjust: set factor to 1.87
ElecMinimize: Iter:  12  F: -1957.615283152288612  |grad|_K:  4.587e-06  alpha:  2.032e-02  linmin: -2.863e-09  t[s]:   5618.91
	Linear fluid (dielectric constant: 78.4, screening length: 5.74355 Bohr) occupying 0.732743 of unit cell:	Completed after 4 iterations at t[s]:   5643.40
	Linear fluid (dielectric constant: 78.4, screening length: 5.74355 Bohr) occupying 0.732723 of unit cell:	Completed after 2 iterations at t[s]:   5669.42
	FillingsUpdate:  mu: -0.135289473  nElectrons: 448.000000  magneticMoment: [ Abs: 21.70809  Tot: +20.91230 ]
	SubspaceRotationAdjust: set factor to 2.58
ElecMinimize: Iter:  13  F: -1957.615380013729009  |grad|_K:  4.216e-06  alpha:  1.873e-02  linmin:  1.660e-07  t[s]:   5703.38
	Linear fluid (dielectric constant: 78.4, screening length: 5.74355 Bohr) occupying 0.732879 of unit cell:	Completed after 6 iterations at t[s]:   5728.03
	Linear fluid (dielectric constant: 78.4, screening length: 5.74355 Bohr) occupying 0.732857 of unit cell:	Completed after 2 iterations at t[s]:   5754.82
	FillingsUpdate:  mu: -0.135769629  nElectrons: 448.000000  magneticMoment: [ Abs: 22.36107  Tot: +21.53266 ]
	SubspaceRotationAdjust: set factor to 3.41
ElecMinimize: Iter:  14  F: -1957.615449682938788  |grad|_K:  3.865e-06  alpha:  1.608e-02  linmin:  6.673e-08  t[s]:   5788.75
	Linear fluid (dielectric constant: 78.4, screening length: 5.74355 Bohr) occupying 0.732943 of unit cell:	Completed after 6 iterations at t[s]:   5813.14
	Linear fluid (dielectric constant: 78.4, screening length: 5.74355 Bohr) occupying 0.732935 of unit cell:	Completed after 2 iterations at t[s]:   5840.80
	FillingsUpdate:  mu: -0.136310656  nElectrons: 448.000000  magneticMoment: [ Abs: 22.83919  Tot: +21.98522 ]
	SubspaceRotationAdjust: set factor to 4.39
ElecMinimize: Iter:  15  F: -1957.615502336471309  |grad|_K:  3.620e-06  alpha:  1.442e-02  linmin:  1.366e-08  t[s]:   5874.94
	Linear fluid (dielectric constant: 78.4, screening length: 5.74355 Bohr) occupying 0.732997 of unit cell:	Completed after 6 iterations at t[s]:   5899.29
	Linear fluid (dielectric constant: 78.4, screening length: 5.74355 Bohr) occupying 0.732995 of unit cell:	Completed after 0 iterations at t[s]:   5925.71
	FillingsUpdate:  mu: -0.136774197  nElectrons: 448.000000  magneticMoment: [ Abs: 23.22723  Tot: +22.35078 ]
	SubspaceRotationAdjust: set factor to 5.33
ElecMinimize: Iter:  16  F: -1957.615546856829269  |grad|_K:  3.638e-06  alpha:  1.385e-02  linmin:  1.950e-07  t[s]:   5959.16
	Linear fluid (dielectric constant: 78.4, screening length: 5.74355 Bohr) occupying 0.733074 of unit cell:	Completed after 2 iterations at t[s]:   5983.17
	Linear fluid (dielectric constant: 78.4, screening length: 5.74355 Bohr) occupying 0.733071 of unit cell:	Completed after 0 iterations at t[s]:   6008.98
	FillingsUpdate:  mu: -0.136971623  nElectrons: 448.000000  magneticMoment: [ Abs: 23.58728  Tot: +22.68792 ]
	SubspaceRotationAdjust: set factor to 5.14
ElecMinimize: Iter:  17  F: -1957.615589776643219  |grad|_K:  3.814e-06  alpha:  1.338e-02  linmin:  2.063e-07  t[s]:   6042.57
	Linear fluid (dielectric constant: 78.4, screening length: 5.74355 Bohr) occupying 0.733191 of unit cell:	Completed after 3 iterations at t[s]:   6066.34
	Linear fluid (dielectric constant: 78.4, screening length: 5.74355 Bohr) occupying 0.733183 of unit cell:	Completed after 2 iterations at t[s]:   6092.28
	FillingsUpdate:  mu: -0.136891666  nElectrons: 448.000000  magneticMoment: [ Abs: 23.93177  Tot: +23.00802 ]
	SubspaceRotationAdjust: set factor to 4.76
ElecMinimize: Iter:  18  F: -1957.615633455700845  |grad|_K:  3.785e-06  alpha:  1.244e-02  linmin: -3.345e-09  t[s]:   6126.07
	Linear fluid (dielectric constant: 78.4, screening length: 5.74355 Bohr) occupying 0.733325 of unit cell:	Completed after 7 iterations at t[s]:   6150.33
	Linear fluid (dielectric constant: 78.4, screening length: 5.74355 Bohr) occupying 0.733321 of unit cell:	Completed after 0 iterations at t[s]:   6177.00
	FillingsUpdate:  mu: -0.136295603  nElectrons: 448.000000  magneticMoment: [ Abs: 24.23478  Tot: +23.28703 ]
	SubspaceRotationAdjust: set factor to 4.96
ElecMinimize: Iter:  19  F: -1957.615675662682179  |grad|_K:  3.539e-06  alpha:  1.201e-02  linmin: -1.174e-07  t[s]:   6210.34
	Linear fluid (dielectric constant: 78.4, screening length: 5.74355 Bohr) occupying 0.733457 of unit cell:	Completed after 8 iterations at t[s]:   6235.09
	Linear fluid (dielectric constant: 78.4, screening length: 5.74355 Bohr) occupying 0.733471 of unit cell:	Completed after 2 iterations at t[s]:   6261.77
	FillingsUpdate:  mu: -0.135485798  nElectrons: 448.000000  magneticMoment: [ Abs: 24.50053  Tot: +23.52892 ]
	SubspaceRotationAdjust: set factor to 5.84
ElecMinimize: Iter:  20  F: -1957.615717074297663  |grad|_K:  3.386e-06  alpha:  1.333e-02  linmin: -8.679e-08  t[s]:   6295.39
	Linear fluid (dielectric constant: 78.4, screening length: 5.74355 Bohr) occupying 0.733605 of unit cell:	Completed after 8 iterations at t[s]:   6319.63
	Linear fluid (dielectric constant: 78.4, screening length: 5.74355 Bohr) occupying 0.733608 of unit cell:	Completed after 0 iterations at t[s]:   6346.38
	FillingsUpdate:  mu: -0.134524444  nElectrons: 448.000000  magneticMoment: [ Abs: 24.71557  Tot: +23.72144 ]
	SubspaceRotationAdjust: set factor to 6.67
ElecMinimize: Iter:  21  F: -1957.615755601114415  |grad|_K:  3.449e-06  alpha:  1.357e-02  linmin: -2.299e-07  t[s]:   6380.06
	Linear fluid (dielectric constant: 78.4, screening length: 5.74355 Bohr) occupying 0.733715 of unit cell:	Completed after 8 iterations at t[s]:   6404.77
	Linear fluid (dielectric constant: 78.4, screening length: 5.74355 Bohr) occupying 0.733721 of unit cell:	Completed after 0 iterations at t[s]:   6430.90
	FillingsUpdate:  mu: -0.133591468  nElectrons: 448.000000  magneticMoment: [ Abs: 24.90710  Tot: +23.88847 ]
	SubspaceRotationAdjust: set factor to 6.35
ElecMinimize: Iter:  22  F: -1957.615798483171147  |grad|_K:  3.768e-06  alpha:  1.434e-02  linmin: -4.260e-07  t[s]:   6464.36
	Linear fluid (dielectric constant: 78.4, screening length: 5.74355 Bohr) occupying 0.733776 of unit cell:	Completed after 8 iterations at t[s]:   6489.42
	Linear fluid (dielectric constant: 78.4, screening length: 5.74355 Bohr) occupying 0.733778 of unit cell:	Completed after 0 iterations at t[s]:   6515.52
	FillingsUpdate:  mu: -0.132815074  nElectrons: 448.000000  magneticMoment: [ Abs: 25.08768  Tot: +24.03949 ]
	SubspaceRotationAdjust: set factor to 5.23
ElecMinimize: Iter:  23  F: -1957.615852299715243  |grad|_K:  4.152e-06  alpha:  1.487e-02  linmin: -5.681e-07  t[s]:   6549.03
	Linear fluid (dielectric constant: 78.4, screening length: 5.74355 Bohr) occupying 0.733734 of unit cell:	Completed after 2 iterations at t[s]:   6572.54
	Linear fluid (dielectric constant: 78.4, screening length: 5.74355 Bohr) occupying 0.733731 of unit cell:	Completed after 1 iterations at t[s]:   6598.23
	FillingsUpdate:  mu: -0.132559172  nElectrons: 448.000000  magneticMoment: [ Abs: 25.26091  Tot: +24.17538 ]
	SubspaceRotationAdjust: set factor to 4.13
ElecMinimize: Iter:  24  F: -1957.615922172034061  |grad|_K:  4.327e-06  alpha:  1.589e-02  linmin: -4.036e-07  t[s]:   6632.55
	Linear fluid (dielectric constant: 78.4, screening length: 5.74355 Bohr) occupying 0.733564 of unit cell:	Completed after 6 iterations at t[s]:   6656.82
	Linear fluid (dielectric constant: 78.4, screening length: 5.74355 Bohr) occupying 0.733547 of unit cell:	Completed after 2 iterations at t[s]:   6683.72
	FillingsUpdate:  mu: -0.132922235  nElectrons: 448.000000  magneticMoment: [ Abs: 25.41093  Tot: +24.28202 ]
	SubspaceRotationAdjust: set factor to 3.27
ElecMinimize: Iter:  25  F: -1957.616003946494857  |grad|_K:  4.348e-06  alpha:  1.749e-02  linmin: -2.075e-07  t[s]:   6717.69
	Linear fluid (dielectric constant: 78.4, screening length: 5.74355 Bohr) occupying 0.733270 of unit cell:	Completed after 8 iterations at t[s]:   6741.89
	Linear fluid (dielectric constant: 78.4, screening length: 5.74355 Bohr) occupying 0.733242 of unit cell:	Completed after 2 iterations at t[s]:   6768.50
	FillingsUpdate:  mu: -0.133875631  nElectrons: 448.000000  magneticMoment: [ Abs: 25.52842  Tot: +24.35289 ]
	SubspaceRotationAdjust: set factor to 2.63
ElecMinimize: Iter:  26  F: -1957.616093746656588  |grad|_K:  4.292e-06  alpha:  1.926e-02  linmin: -3.746e-06  t[s]:   6802.25
	Linear fluid (dielectric constant: 78.4, screening length: 5.74355 Bohr) occupying 0.732885 of unit cell:	Completed after 9 iterations at t[s]:   6826.67
	Linear fluid (dielectric constant: 78.4, screening length: 5.74355 Bohr) occupying 0.732840 of unit cell:	Completed after 2 iterations at t[s]:   6853.97
	FillingsUpdate:  mu: -0.135118434  nElectrons: 448.000000  magneticMoment: [ Abs: 25.61509  Tot: +24.39033 ]
	SubspaceRotationAdjust: set factor to 2.14
ElecMinimize: Iter:  27  F: -1957.616192711518352  |grad|_K:  4.169e-06  alpha:  2.167e-02  linmin: -5.898e-07  t[s]:   6887.64
	Linear fluid (dielectric constant: 78.4, screening length: 5.74355 Bohr) occupying 0.732432 of unit cell:	Completed after 8 iterations at t[s]:   6912.32
	Linear fluid (dielectric constant: 78.4, screening length: 5.74355 Bohr) occupying 0.732394 of unit cell:	Completed after 2 iterations at t[s]:   6938.86
	FillingsUpdate:  mu: -0.136314209  nElectrons: 448.000000  magneticMoment: [ Abs: 25.66952  Tot: +24.39646 ]
	SubspaceRotationAdjust: set factor to 1.82
ElecMinimize: Iter:  28  F: -1957.616294894837210  |grad|_K:  3.917e-06  alpha:  2.369e-02  linmin: -3.098e-07  t[s]:   6972.12
	Linear fluid (dielectric constant: 78.4, screening length: 5.74355 Bohr) occupying 0.731997 of unit cell:	Completed after 8 iterations at t[s]:   6996.50
	Linear fluid (dielectric constant: 78.4, screening length: 5.74355 Bohr) occupying 0.731966 of unit cell:	Completed after 2 iterations at t[s]:   7024.17
	FillingsUpdate:  mu: -0.137176322  nElectrons: 448.000000  magneticMoment: [ Abs: 25.69246  Tot: +24.37651 ]
	SubspaceRotationAdjust: set factor to 1.7
ElecMinimize: Iter:  29  F: -1957.616391940124004  |grad|_K:  3.595e-06  alpha:  2.555e-02  linmin: -1.376e-07  t[s]:   7057.70
	Linear fluid (dielectric constant: 78.4, screening length: 5.74355 Bohr) occupying 0.731616 of unit cell:	Completed after 8 iterations at t[s]:   7081.72
	Linear fluid (dielectric constant: 78.4, screening length: 5.74355 Bohr) occupying 0.731594 of unit cell:	Completed after 2 iterations at t[s]:   7108.47
	FillingsUpdate:  mu: -0.137616334  nElectrons: 448.000000  magneticMoment: [ Abs: 25.68825  Tot: +24.33759 ]
	SubspaceRotationAdjust: set factor to 1.83
ElecMinimize: Iter:  30  F: -1957.616478499118557  |grad|_K:  3.339e-06  alpha:  2.717e-02  linmin: -8.965e-08  t[s]:   7142.49
	Linear fluid (dielectric constant: 78.4, screening length: 5.74355 Bohr) occupying 0.731290 of unit cell:	Completed after 7 iterations at t[s]:   7166.88
	Linear fluid (dielectric constant: 78.4, screening length: 5.74355 Bohr) occupying 0.731278 of unit cell:	Completed after 1 iterations at t[s]:   7193.79
	FillingsUpdate:  mu: -0.137681651  nElectrons: 448.000000  magneticMoment: [ Abs: 25.66132  Tot: +24.28388 ]
	SubspaceRotationAdjust: set factor to 2.23
ElecMinimize: Iter:  31  F: -1957.616556076030065  |grad|_K:  3.246e-06  alpha:  2.825e-02  linmin: -1.684e-07  t[s]:   7227.45
	Linear fluid (dielectric constant: 78.4, screening length: 5.74355 Bohr) occupying 0.730997 of unit cell:	Completed after 5 iterations at t[s]:   7251.99
	Linear fluid (dielectric constant: 78.4, screening length: 5.74355 Bohr) occupying 0.730997 of unit cell:	Completed after 0 iterations at t[s]:   7278.32
	FillingsUpdate:  mu: -0.137521566  nElectrons: 448.000000  magneticMoment: [ Abs: 25.61177  Tot: +24.21410 ]
	SubspaceRotationAdjust: set factor to 2.66
ElecMinimize: Iter:  32  F: -1957.616629669468011  |grad|_K:  3.356e-06  alpha:  2.827e-02  linmin: -1.089e-07  t[s]:   7311.65
	Linear fluid (dielectric constant: 78.4, screening length: 5.74355 Bohr) occupying 0.730709 of unit cell:	Completed after 5 iterations at t[s]:   7336.18
	Linear fluid (dielectric constant: 78.4, screening length: 5.74355 Bohr) occupying 0.730715 of unit cell:	Completed after 0 iterations at t[s]:   7362.05
	FillingsUpdate:  mu: -0.137283044  nElectrons: 448.000000  magneticMoment: [ Abs: 25.53253  Tot: +24.11971 ]
	SubspaceRotationAdjust: set factor to 2.83
ElecMinimize: Iter:  33  F: -1957.616706476236459  |grad|_K:  3.631e-06  alpha:  2.765e-02  linmin:  1.433e-07  t[s]:   7394.95
	Linear fluid (dielectric constant: 78.4, screening length: 5.74355 Bohr) occupying 0.730380 of unit cell:	Completed after 6 iterations at t[s]:   7419.47
	Linear fluid (dielectric constant: 78.4, screening length: 5.74355 Bohr) occupying 0.730401 of unit cell:	Completed after 2 iterations at t[s]:   7446.35
	FillingsUpdate:  mu: -0.137193008  nElectrons: 448.000000  magneticMoment: [ Abs: 25.41565  Tot: +23.99295 ]
	SubspaceRotationAdjust: set factor to 2.86
ElecMinimize: Iter:  34  F: -1957.616789884902346  |grad|_K:  3.839e-06  alpha:  2.594e-02  linmin:  1.295e-07  t[s]:   7480.52
	Linear fluid (dielectric constant: 78.4, screening length: 5.74355 Bohr) occupying 0.730026 of unit cell:	Completed after 8 iterations at t[s]:   7505.60
	Linear fluid (dielectric constant: 78.4, screening length: 5.74355 Bohr) occupying 0.730062 of unit cell:	Completed after 2 iterations at t[s]:   7532.22
	FillingsUpdate:  mu: -0.137492475  nElectrons: 448.000000  magneticMoment: [ Abs: 25.26968  Tot: +23.84375 ]
	SubspaceRotationAdjust: set factor to 3.15
ElecMinimize: Iter:  35  F: -1957.616874268276433  |grad|_K:  3.774e-06  alpha:  2.346e-02  linmin:  1.202e-07  t[s]:   7566.17
	Linear fluid (dielectric constant: 78.4, screening length: 5.74355 Bohr) occupying 0.729706 of unit cell:	Completed after 8 iterations at t[s]:   7591.22
	Linear fluid (dielectric constant: 78.4, screening length: 5.74355 Bohr) occupying 0.729743 of unit cell:	Completed after 2 iterations at t[s]:   7618.16
	FillingsUpdate:  mu: -0.138137676  nElectrons: 448.000000  magneticMoment: [ Abs: 25.11997  Tot: +23.69703 ]
	SubspaceRotationAdjust: set factor to 4.3
ElecMinimize: Iter:  36  F: -1957.616947538449722  |grad|_K:  3.508e-06  alpha:  2.102e-02  linmin:  2.919e-07  t[s]:   7652.26
	Linear fluid (dielectric constant: 78.4, screening length: 5.74355 Bohr) occupying 0.729448 of unit cell:	Completed after 8 iterations at t[s]:   7677.09
	Linear fluid (dielectric constant: 78.4, screening length: 5.74355 Bohr) occupying 0.729482 of unit cell:	Completed after 2 iterations at t[s]:   7704.33
	FillingsUpdate:  mu: -0.138955881  nElectrons: 448.000000  magneticMoment: [ Abs: 24.98644  Tot: +23.57005 ]
	SubspaceRotationAdjust: set factor to 5.6
ElecMinimize: Iter:  37  F: -1957.617003282678752  |grad|_K:  3.263e-06  alpha:  1.859e-02  linmin:  6.124e-07  t[s]:   7738.44
	Linear fluid (dielectric constant: 78.4, screening length: 5.74355 Bohr) occupying 0.729252 of unit cell:	Completed after 8 iterations at t[s]:   7763.58
	Linear fluid (dielectric constant: 78.4, screening length: 5.74355 Bohr) occupying 0.729276 of unit cell:	Completed after 2 iterations at t[s]:   7790.30
	FillingsUpdate:  mu: -0.139795100  nElectrons: 448.000000  magneticMoment: [ Abs: 24.86433  Tot: +23.45592 ]
	SubspaceRotationAdjust: set factor to 6.78
ElecMinimize: Iter:  38  F: -1957.617046394496356  |grad|_K:  3.156e-06  alpha:  1.667e-02  linmin:  3.099e-06  t[s]:   7824.04
	Linear fluid (dielectric constant: 78.4, screening length: 5.74355 Bohr) occupying 0.729105 of unit cell:	Completed after 8 iterations at t[s]:   7848.61
	Linear fluid (dielectric constant: 78.4, screening length: 5.74355 Bohr) occupying 0.729097 of unit cell:	Completed after 0 iterations at t[s]:   7874.89
	FillingsUpdate:  mu: -0.140549068  nElectrons: 448.000000  magneticMoment: [ Abs: 24.72474  Tot: +23.32592 ]
	SubspaceRotationAdjust: set factor to 7.77
ElecMinimize: Iter:  39  F: -1957.617088441465967  |grad|_K:  3.455e-06  alpha:  1.741e-02  linmin: -2.701e-07  t[s]:   7907.95
	Linear fluid (dielectric constant: 78.4, screening length: 5.74355 Bohr) occupying 0.728936 of unit cell:	Completed after 6 iterations at t[s]:   7932.23
	Linear fluid (dielectric constant: 78.4, screening length: 5.74355 Bohr) occupying 0.728931 of unit cell:	Completed after 0 iterations at t[s]:   7958.99
	FillingsUpdate:  mu: -0.141235681  nElectrons: 448.000000  magneticMoment: [ Abs: 24.53173  Tot: +23.14523 ]
	SubspaceRotationAdjust: set factor to 6.34
ElecMinimize: Iter:  40  F: -1957.617141618661890  |grad|_K:  4.028e-06  alpha:  1.797e-02  linmin: -3.252e-07  t[s]:   7992.25
	Linear fluid (dielectric constant: 78.4, screening length: 5.74355 Bohr) occupying 0.728784 of unit cell:	Completed after 6 iterations at t[s]:   8016.71
	Linear fluid (dielectric constant: 78.4, screening length: 5.74355 Bohr) occupying 0.728806 of unit cell:	Completed after 1 iterations at t[s]:   8042.82
	FillingsUpdate:  mu: -0.141451799  nElectrons: 448.000000  magneticMoment: [ Abs: 24.29172  Tot: +22.91862 ]
	SubspaceRotationAdjust: set factor to 5.64
ElecMinimize: Iter:  41  F: -1957.617203960891857  |grad|_K:  3.721e-06  alpha:  1.540e-02  linmin: -3.976e-08  t[s]:   8076.76
	Linear fluid (dielectric constant: 78.4, screening length: 5.74355 Bohr) occupying 0.728743 of unit cell:	Completed after 6 iterations at t[s]:   8101.33
	Linear fluid (dielectric constant: 78.4, screening length: 5.74355 Bohr) occupying 0.728744 of unit cell:	Completed after 0 iterations at t[s]:   8127.73
	FillingsUpdate:  mu: -0.141185883  nElectrons: 448.000000  magneticMoment: [ Abs: 24.08162  Tot: +22.71888 ]
	SubspaceRotationAdjust: set factor to 7.17
ElecMinimize: Iter:  42  F: -1957.617255528207352  |grad|_K:  3.185e-06  alpha:  1.513e-02  linmin:  2.834e-08  t[s]:   8161.33
	Linear fluid (dielectric constant: 78.4, screening length: 5.74355 Bohr) occupying 0.728711 of unit cell:	Completed after 6 iterations at t[s]:   8185.83
	Linear fluid (dielectric constant: 78.4, screening length: 5.74355 Bohr) occupying 0.728708 of unit cell:	Completed after 2 iterations at t[s]:   8212.45
	FillingsUpdate:  mu: -0.140801514  nElectrons: 448.000000  magneticMoment: [ Abs: 23.90778  Tot: +22.55279 ]
	SubspaceRotationAdjust: set factor to 9.25
ElecMinimize: Iter:  43  F: -1957.617296422821255  |grad|_K:  3.085e-06  alpha:  1.648e-02  linmin: -1.110e-08  t[s]:   8246.70
	Linear fluid (dielectric constant: 78.4, screening length: 5.74355 Bohr) occupying 0.728649 of unit cell:	Completed after 5 iterations at t[s]:   8271.29
	Linear fluid (dielectric constant: 78.4, screening length: 5.74355 Bohr) occupying 0.728647 of unit cell:	Completed after 0 iterations at t[s]:   8298.19
	FillingsUpdate:  mu: -0.140539057  nElectrons: 448.000000  magneticMoment: [ Abs: 23.73316  Tot: +22.38502 ]
	SubspaceRotationAdjust: set factor to 9.94
ElecMinimize: Iter:  44  F: -1957.617336465122435  |grad|_K:  3.452e-06  alpha:  1.711e-02  linmin: -1.844e-07  t[s]:   8331.74
	Linear fluid (dielectric constant: 78.4, screening length: 5.74355 Bohr) occupying 0.728490 of unit cell:	Completed after 6 iterations at t[s]:   8356.07
	Linear fluid (dielectric constant: 78.4, screening length: 5.74355 Bohr) occupying 0.728487 of unit cell:	Completed after 0 iterations at t[s]:   8382.88
	FillingsUpdate:  mu: -0.140696610  nElectrons: 448.000000  magneticMoment: [ Abs: 23.50658  Tot: +22.16696 ]
	SubspaceRotationAdjust: set factor to 8.66
ElecMinimize: Iter:  45  F: -1957.617388186601602  |grad|_K:  3.900e-06  alpha:  1.745e-02  linmin: -2.525e-07  t[s]:   8416.48
	Linear fluid (dielectric constant: 78.4, screening length: 5.74355 Bohr) occupying 0.728180 of unit cell:	Completed after 8 iterations at t[s]:   8441.65
	Linear fluid (dielectric constant: 78.4, screening length: 5.74355 Bohr) occupying 0.728229 of unit cell:	Completed after 2 iterations at t[s]:   8467.76
	FillingsUpdate:  mu: -0.141680570  nElectrons: 448.000000  magneticMoment: [ Abs: 23.26460  Tot: +21.93527 ]
	SubspaceRotationAdjust: set factor to 9.27
ElecMinimize: Iter:  46  F: -1957.617443352862210  |grad|_K:  3.521e-06  alpha:  1.463e-02  linmin: -2.386e-10  t[s]:   8502.37
	Linear fluid (dielectric constant: 78.4, screening length: 5.74355 Bohr) occupying 0.727985 of unit cell:	Completed after 8 iterations at t[s]:   8527.00
	Linear fluid (dielectric constant: 78.4, screening length: 5.74355 Bohr) occupying 0.727971 of unit cell:	Completed after 0 iterations at t[s]:   8553.43
	FillingsUpdate:  mu: -0.142649061  nElectrons: 448.000000  magneticMoment: [ Abs: 23.06268  Tot: +21.74467 ]
	SubspaceRotationAdjust: set factor to 11.8
ElecMinimize: Iter:  47  F: -1957.617490519362264  |grad|_K:  3.295e-06  alpha:  1.550e-02  linmin: -1.435e-06  t[s]:   8587.54
	Linear fluid (dielectric constant: 78.4, screening length: 5.74355 Bohr) occupying 0.727758 of unit cell:	Completed after 8 iterations at t[s]:   8612.41
	Linear fluid (dielectric constant: 78.4, screening length: 5.74355 Bohr) occupying 0.727756 of unit cell:	Completed after 0 iterations at t[s]:   8638.72
	FillingsUpdate:  mu: -0.143476141  nElectrons: 448.000000  magneticMoment: [ Abs: 22.89764  Tot: +21.59288 ]
	SubspaceRotationAdjust: set factor to 11.6
ElecMinimize: Iter:  48  F: -1957.617532707128021  |grad|_K:  3.604e-06  alpha:  1.569e-02  linmin: -5.299e-07  t[s]:   8672.42
	Linear fluid (dielectric constant: 78.4, screening length: 5.74355 Bohr) occupying 0.727575 of unit cell:	Completed after 6 iterations at t[s]:   8696.45
	Linear fluid (dielectric constant: 78.4, screening length: 5.74355 Bohr) occupying 0.727578 of unit cell:	Completed after 0 iterations at t[s]:   8723.16
	FillingsUpdate:  mu: -0.143738511  nElectrons: 448.000000  magneticMoment: [ Abs: 22.72683  Tot: +21.44223 ]
	SubspaceRotationAdjust: set factor to 10.1
ElecMinimize: Iter:  49  F: -1957.617583168023202  |grad|_K:  3.794e-06  alpha:  1.549e-02  linmin: -5.988e-09  t[s]:   8756.25
	Linear fluid (dielectric constant: 78.4, screening length: 5.74355 Bohr) occupying 0.727462 of unit cell:	Completed after 6 iterations at t[s]:   8780.47
	Linear fluid (dielectric constant: 78.4, screening length: 5.74355 Bohr) occupying 0.727473 of unit cell:	Completed after 1 iterations at t[s]:   8806.77
	FillingsUpdate:  mu: -0.143392832  nElectrons: 448.000000  magneticMoment: [ Abs: 22.57873  Tot: +21.31937 ]
	SubspaceRotationAdjust: set factor to 9.38
ElecMinimize: Iter:  50  F: -1957.617632998990530  |grad|_K:  3.534e-06  alpha:  1.410e-02  linmin:  2.261e-08  t[s]:   8840.71
	Linear fluid (dielectric constant: 78.4, screening length: 5.74355 Bohr) occupying 0.727413 of unit cell:	Completed after 6 iterations at t[s]:   8865.25
	Linear fluid (dielectric constant: 78.4, screening length: 5.74355 Bohr) occupying 0.727409 of unit cell:	Completed after 1 iterations at t[s]:   8891.76
	FillingsUpdate:  mu: -0.142890980  nElectrons: 448.000000  magneticMoment: [ Abs: 22.46313  Tot: +21.23264 ]
	SubspaceRotationAdjust: set factor to 9.16
ElecMinimize: Iter:  51  F: -1957.617679423834261  |grad|_K:  3.391e-06  alpha:  1.518e-02  linmin: -8.989e-08  t[s]:   8925.75
	Linear fluid (dielectric constant: 78.4, screening length: 5.74355 Bohr) occupying 0.727341 of unit cell:	Completed after 6 iterations at t[s]:   8950.39
	Linear fluid (dielectric constant: 78.4, screening length: 5.74355 Bohr) occupying 0.727336 of unit cell:	Completed after 0 iterations at t[s]:   8977.24
	FillingsUpdate:  mu: -0.142657128  nElectrons: 448.000000  magneticMoment: [ Abs: 22.37122  Tot: +21.17479 ]
	SubspaceRotationAdjust: set factor to 9.06
ElecMinimize: Iter:  52  F: -1957.617725666386605  |grad|_K:  3.365e-06  alpha:  1.625e-02  linmin: -2.044e-07  t[s]:   9010.71
	Linear fluid (dielectric constant: 78.4, screening length: 5.74355 Bohr) occupying 0.727234 of unit cell:	Completed after 4 iterations at t[s]:   9034.92
	Linear fluid (dielectric constant: 78.4, screening length: 5.74355 Bohr) occupying 0.727240 of unit cell:	Completed after 1 iterations at t[s]:   9061.65
	FillingsUpdate:  mu: -0.142897736  nElectrons: 448.000000  magneticMoment: [ Abs: 22.30584  Tot: +21.14545 ]
	SubspaceRotationAdjust: set factor to 10.2
ElecMinimize: Iter:  53  F: -1957.617768632403340  |grad|_K:  3.213e-06  alpha:  1.526e-02  linmin:  3.505e-08  t[s]:   9095.42
	Linear fluid (dielectric constant: 78.4, screening length: 5.74355 Bohr) occupying 0.727144 of unit cell:	Completed after 7 iterations at t[s]:   9119.92
	Linear fluid (dielectric constant: 78.4, screening length: 5.74355 Bohr) occupying 0.727150 of unit cell:	Completed after 0 iterations at t[s]:   9146.49
	FillingsUpdate:  mu: -0.143603879  nElectrons: 448.000000  magneticMoment: [ Abs: 22.26785  Tot: +21.14125 ]
	SubspaceRotationAdjust: set factor to 12.3
ElecMinimize: Iter:  54  F: -1957.617804957529643  |grad|_K:  3.161e-06  alpha:  1.434e-02  linmin:  1.048e-06  t[s]:   9179.66
	Linear fluid (dielectric constant: 78.4, screening length: 5.74355 Bohr) occupying 0.727105 of unit cell:	Completed after 7 iterations at t[s]:   9204.13
	Linear fluid (dielectric constant: 78.4, screening length: 5.74355 Bohr) occupying 0.727102 of unit cell:	Completed after 0 iterations at t[s]:   9230.55
	FillingsUpdate:  mu: -0.144170106  nElectrons: 448.000000  magneticMoment: [ Abs: 22.25086  Tot: +21.16072 ]
	SubspaceRotationAdjust: set factor to 11.5
ElecMinimize: Iter:  55  F: -1957.617841902399050  |grad|_K:  3.545e-06  alpha:  1.542e-02  linmin:  5.559e-07  t[s]:   9264.52
	Linear fluid (dielectric constant: 78.4, screening length: 5.74355 Bohr) occupying 0.727150 of unit cell:	Completed after 4 iterations at t[s]:   9288.88
	Linear fluid (dielectric constant: 78.4, screening length: 5.74355 Bohr) occupying 0.727147 of unit cell:	Completed after 1 iterations at t[s]:   9315.78
	FillingsUpdate:  mu: -0.144433761  nElectrons: 448.000000  magneticMoment: [ Abs: 22.25468  Tot: +21.20651 ]
	SubspaceRotationAdjust: set factor to 9.38
ElecMinimize: Iter:  56  F: -1957.617886082263567  |grad|_K:  3.791e-06  alpha:  1.451e-02  linmin:  2.146e-07  t[s]:   9349.31
	Linear fluid (dielectric constant: 78.4, screening length: 5.74355 Bohr) occupying 0.727311 of unit cell:	Completed after 6 iterations at t[s]:   9374.13
	Linear fluid (dielectric constant: 78.4, screening length: 5.74355 Bohr) occupying 0.727297 of unit cell:	Completed after 1 iterations at t[s]:   9400.18
	FillingsUpdate:  mu: -0.143924142  nElectrons: 448.000000  magneticMoment: [ Abs: 22.27480  Tot: +21.26690 ]
	SubspaceRotationAdjust: set factor to 9.09
ElecMinimize: Iter:  57  F: -1957.617932372783571  |grad|_K:  3.313e-06  alpha:  1.326e-02  linmin:  2.257e-07  t[s]:   9433.16
	Linear fluid (dielectric constant: 78.4, screening length: 5.74355 Bohr) occupying 0.727458 of unit cell:	Completed after 6 iterations at t[s]:   9457.76
	Linear fluid (dielectric constant: 78.4, screening length: 5.74355 Bohr) occupying 0.727468 of unit cell:	Completed after 1 iterations at t[s]:   9484.31
	FillingsUpdate:  mu: -0.143183932  nElectrons: 448.000000  magneticMoment: [ Abs: 22.29924  Tot: +21.31928 ]
	SubspaceRotationAdjust: set factor to 10.6
ElecMinimize: Iter:  58  F: -1957.617969600645893  |grad|_K:  2.985e-06  alpha:  1.409e-02  linmin: -8.641e-09  t[s]:   9517.46
	Linear fluid (dielectric constant: 78.4, screening length: 5.74355 Bohr) occupying 0.727597 of unit cell:	Completed after 6 iterations at t[s]:   9541.48
	Linear fluid (dielectric constant: 78.4, screening length: 5.74355 Bohr) occupying 0.727608 of unit cell:	Completed after 2 iterations at t[s]:   9567.81
	FillingsUpdate:  mu: -0.142422478  nElectrons: 448.000000  magneticMoment: [ Abs: 22.32121  Tot: +21.36039 ]
	SubspaceRotationAdjust: set factor to 10.6
ElecMinimize: Iter:  59  F: -1957.618003003855392  |grad|_K:  3.139e-06  alpha:  1.524e-02  linmin: -2.623e-07  t[s]:   9601.66
	Linear fluid (dielectric constant: 78.4, screening length: 5.74355 Bohr) occupying 0.727680 of unit cell:	Completed after 6 iterations at t[s]:   9626.17
	Linear fluid (dielectric constant: 78.4, screening length: 5.74355 Bohr) occupying 0.727683 of unit cell:	Completed after 0 iterations at t[s]:   9652.92
	FillingsUpdate:  mu: -0.142069447  nElectrons: 448.000000  magneticMoment: [ Abs: 22.33877  Tot: +21.39365 ]
	SubspaceRotationAdjust: set factor to 9.81
ElecMinimize: Iter:  60  F: -1957.618042132266282  |grad|_K:  3.221e-06  alpha:  1.583e-02  linmin: -2.203e-07  t[s]:   9686.39
	Linear fluid (dielectric constant: 78.4, screening length: 5.74355 Bohr) occupying 0.727641 of unit cell:	Completed after 7 iterations at t[s]:   9710.61
	Linear fluid (dielectric constant: 78.4, screening length: 5.74355 Bohr) occupying 0.727646 of unit cell:	Completed after 2 iterations at t[s]:   9737.40
	FillingsUpdate:  mu: -0.142442279  nElectrons: 448.000000  magneticMoment: [ Abs: 22.34101  Tot: +21.40597 ]
	SubspaceRotationAdjust: set factor to 12.4
ElecMinimize: Iter:  61  F: -1957.618078082005695  |grad|_K:  2.759e-06  alpha:  1.396e-02  linmin: -1.116e-07  t[s]:   9771.55
	Linear fluid (dielectric constant: 78.4, screening length: 5.74355 Bohr) occupying 0.727547 of unit cell:	Completed after 7 iterations at t[s]:   9796.01
	Linear fluid (dielectric constant: 78.4, screening length: 5.74355 Bohr) occupying 0.727546 of unit cell:	Completed after 0 iterations at t[s]:   9822.87
	FillingsUpdate:  mu: -0.143157022  nElectrons: 448.000000  magneticMoment: [ Abs: 22.32604  Tot: +21.39531 ]
	SubspaceRotationAdjust: set factor to 15.5
ElecMinimize: Iter:  62  F: -1957.618104554286674  |grad|_K:  2.530e-06  alpha:  1.411e-02  linmin: -5.935e-07  t[s]:   9856.35
	Linear fluid (dielectric constant: 78.4, screening length: 5.74355 Bohr) occupying 0.727437 of unit cell:	Completed after 8 iterations at t[s]:   9881.69
	Linear fluid (dielectric constant: 78.4, screening length: 5.74355 Bohr) occupying 0.727424 of unit cell:	Completed after 1 iterations at t[s]:   9908.01
	FillingsUpdate:  mu: -0.143891626  nElectrons: 448.000000  magneticMoment: [ Abs: 22.28786  Tot: +21.35817 ]
	SubspaceRotationAdjust: set factor to 15.2
ElecMinimize: Iter:  63  F: -1957.618129399931604  |grad|_K:  2.942e-06  alpha:  1.576e-02  linmin: -3.381e-07  t[s]:   9941.99
	Linear fluid (dielectric constant: 78.4, screening length: 5.74355 Bohr) occupying 0.727325 of unit cell:	Completed after 6 iterations at t[s]:   9966.04
	Linear fluid (dielectric constant: 78.4, screening length: 5.74355 Bohr) occupying 0.727319 of unit cell:	Completed after 0 iterations at t[s]:   9992.44
	FillingsUpdate:  mu: -0.144299663  nElectrons: 448.000000  magneticMoment: [ Abs: 22.20169  Tot: +21.27223 ]
	SubspaceRotationAdjust: set factor to 12.3
ElecMinimize: Iter:  64  F: -1957.618165783450422  |grad|_K:  3.308e-06  alpha:  1.684e-02  linmin: -1.416e-07  t[s]:  10025.84
	Linear fluid (dielectric constant: 78.4, screening length: 5.74355 Bohr) occupying 0.727325 of unit cell:	Completed after 6 iterations at t[s]:  10050.03
	Linear fluid (dielectric constant: 78.4, screening length: 5.74355 Bohr) occupying 0.727324 of unit cell:	Completed after 2 iterations at t[s]:  10076.87
	FillingsUpdate:  mu: -0.143912111  nElectrons: 448.000000  magneticMoment: [ Abs: 22.09425  Tot: +21.16741 ]
	SubspaceRotationAdjust: set factor to 13.3
ElecMinimize: Iter:  65  F: -1957.618201534388163  |grad|_K:  2.828e-06  alpha:  1.316e-02  linmin:  3.311e-08  t[s]:  10110.55
	Linear fluid (dielectric constant: 78.4, screening length: 5.74355 Bohr) occupying 0.727394 of unit cell:	Completed after 7 iterations at t[s]:  10135.23
	Linear fluid (dielectric constant: 78.4, screening length: 5.74355 Bohr) occupying 0.727405 of unit cell:	Completed after 1 iterations at t[s]:  10161.03
	FillingsUpdate:  mu: -0.143260262  nElectrons: 448.000000  magneticMoment: [ Abs: 21.98251  Tot: +21.06301 ]
	SubspaceRotationAdjust: set factor to 14.7
ElecMinimize: Iter:  66  F: -1957.618231357176001  |grad|_K:  2.875e-06  alpha:  1.525e-02  linmin: -8.969e-09  t[s]:  10194.97
	Linear fluid (dielectric constant: 78.4, screening length: 5.74355 Bohr) occupying 0.727510 of unit cell:	Completed after 6 iterations at t[s]:  10219.37
	Linear fluid (dielectric constant: 78.4, screening length: 5.74355 Bohr) occupying 0.727522 of unit cell:	Completed after 2 iterations at t[s]:  10246.00
	FillingsUpdate:  mu: -0.142648280  nElectrons: 448.000000  magneticMoment: [ Abs: 21.82907  Tot: +20.92659 ]
	SubspaceRotationAdjust: set factor to 13.1
ElecMinimize: Iter:  67  F: -1957.618265940999208  |grad|_K:  3.289e-06  alpha:  1.702e-02  linmin: -1.877e-07  t[s]:  10279.52
	Linear fluid (dielectric constant: 78.4, screening length: 5.74355 Bohr) occupying 0.727629 of unit cell:	Completed after 3 iterations at t[s]:  10303.68
	Linear fluid (dielectric constant: 78.4, screening length: 5.74355 Bohr) occupying 0.727612 of unit cell:	Completed after 1 iterations at t[s]:  10329.67
	FillingsUpdate:  mu: -0.142664825  nElectrons: 448.000000  magneticMoment: [ Abs: 21.64000  Tot: +20.76529 ]
	SubspaceRotationAdjust: set factor to 14
ElecMinimize: Iter:  68  F: -1957.618304562368621  |grad|_K:  3.015e-06  alpha:  1.434e-02  linmin:  1.172e-07  t[s]:  10363.65
	Linear fluid (dielectric constant: 78.4, screening length: 5.74355 Bohr) occupying 0.727666 of unit cell:	Completed after 4 iterations at t[s]:  10387.59
	Linear fluid (dielectric constant: 78.4, screening length: 5.74355 Bohr) occupying 0.727662 of unit cell:	Completed after 1 iterations at t[s]:  10414.23
	FillingsUpdate:  mu: -0.143034824  nElectrons: 448.000000  magneticMoment: [ Abs: 21.48360  Tot: +20.63718 ]
	SubspaceRotationAdjust: set factor to 18.1
	SubspaceRotationAdjust: resetting CG because factor has changed by 7.51058
	Linear fluid (dielectric constant: 78.4, screening length: 5.74355 Bohr) occupying 0.727662 of unit cell:	Completed after 0 iterations at t[s]:  10462.37
ElecMinimize: 	State modified externally: resetting search direction.
ElecMinimize: Iter:  69  F: -1957.618334259351286  |grad|_K:  2.948e-06  alpha:  1.336e-02
	Linear fluid (dielectric constant: 78.4, screening length: 5.74355 Bohr) occupying 0.727690 of unit cell:	Completed after 2 iterations at t[s]:  10519.19
ElecMinimize: 	Predicted alpha/alphaT>3.000000, increasing alphaT to 4.007186e-02.
	Linear fluid (dielectric constant: 78.4, screening length: 5.74355 Bohr) occupying 0.727747 of unit cell:	Completed after 6 iterations at t[s]:  10545.28
	Linear fluid (dielectric constant: 78.4, screening length: 5.74355 Bohr) occupying 0.727804 of unit cell:	Completed after 2 iterations at t[s]:  10571.20
	FillingsUpdate:  mu: -0.142926584  nElectrons: 448.000000  magneticMoment: [ Abs: 21.48634  Tot: +20.67230 ]
	SubspaceRotationAdjust: set factor to 12.3
ElecMinimize: Iter:  70  F: -1957.618478331575943  |grad|_K:  3.781e-06  alpha:  6.736e-02  linmin: -4.967e-08  t[s]:  10605.95
	Linear fluid (dielectric constant: 78.4, screening length: 5.74355 Bohr) occupying 0.728027 of unit cell:	Completed after 8 iterations at t[s]:  10630.39
	Linear fluid (dielectric constant: 78.4, screening length: 5.74355 Bohr) occupying 0.727974 of unit cell:	Completed after 2 iterations at t[s]:  10657.45
	FillingsUpdate:  mu: -0.143649959  nElectrons: 448.000000  magneticMoment: [ Abs: 21.51423  Tot: +20.73547 ]
	SubspaceRotationAdjust: set factor to 8.2
ElecMinimize: Iter:  71  F: -1957.618658190009228  |grad|_K:  3.207e-06  alpha:  5.127e-02  linmin: -1.357e-07  t[s]:  10692.01
	Linear fluid (dielectric constant: 78.4, screening length: 5.74355 Bohr) occupying 0.728277 of unit cell:	Completed after 8 iterations at t[s]:  10716.71
	Linear fluid (dielectric constant: 78.4, screening length: 5.74355 Bohr) occupying 0.728376 of unit cell:	Completed after 7 iterations at t[s]:  10744.36
	FillingsUpdate:  mu: -0.140931242  nElectrons: 448.000000  magneticMoment: [ Abs: 21.56552  Tot: +20.78031 ]
	SubspaceRotationAdjust: set factor to 4.95
ElecMinimize: Iter:  72  F: -1957.618832154562824  |grad|_K:  3.625e-06  alpha:  6.811e-02  linmin: -4.101e-05  t[s]:  10778.88
	Linear fluid (dielectric constant: 78.4, screening length: 5.74355 Bohr) occupying 0.728265 of unit cell:	Completed after 6 iterations at t[s]:  10803.35
	Linear fluid (dielectric constant: 78.4, screening length: 5.74355 Bohr) occupying 0.728151 of unit cell:	Completed after 6 iterations at t[s]:  10831.06
	FillingsUpdate:  mu: -0.142282672  nElectrons: 448.000000  magneticMoment: [ Abs: 21.65630  Tot: +20.79547 ]
	SubspaceRotationAdjust: set factor to 5.38
ElecMinimize: Iter:  73  F: -1957.619278907804983  |grad|_K:  2.471e-06  alpha:  1.363e-01  linmin:  1.805e-07  t[s]:  10865.83
	Linear fluid (dielectric constant: 78.4, screening length: 5.74355 Bohr) occupying 0.728007 of unit cell:	Completed after 8 iterations at t[s]:  10890.09
	Linear fluid (dielectric constant: 78.4, screening length: 5.74355 Bohr) occupying 0.727869 of unit cell:	Completed after 6 iterations at t[s]:  10918.08
	FillingsUpdate:  mu: -0.144428312  nElectrons: 448.000000  magneticMoment: [ Abs: 21.75115  Tot: +20.78857 ]
	SubspaceRotationAdjust: set factor to 3.41
ElecMinimize: Iter:  74  F: -1957.619670062964587  |grad|_K:  3.094e-06  alpha:  2.647e-01  linmin:  5.850e-07  t[s]:  10953.32
	Linear fluid (dielectric constant: 78.4, screening length: 5.74355 Bohr) occupying 0.729322 of unit cell:	Completed after 11 iterations at t[s]:  10978.10
[...]
ion Ti   0.666666674541666   0.583333342083333   0.566175256878475 1
ion Ti   0.583333341208333   0.666666675416666   0.433824743121525 1
ion Ti   0.916666674541666   0.583333342083333   0.566175256878475 1
ion Ti   0.833333341208333   0.666666675416666   0.433824743121525 1
ion Ti   0.166666674541666   0.833333342083333   0.566175256878475 1
ion Ti   0.083333341208333   0.916666675416666   0.433824743121525 1
ion Ti   0.416666674541666   0.833333342083333   0.566175256878475 1
ion Ti   0.333333341208333   0.916666675416666   0.433824743121525 1
ion Ti   0.666666674541666   0.833333342083333   0.566175256878475 1
ion Ti   0.583333341208333   0.916666675416666   0.433824743121525 1
ion Ti   0.916666674541666   0.833333342083333   0.566175256878475 1
ion Ti   0.833333341208333   0.916666675416666   0.433824743121525 1
ion C   0.000000007874999   0.000000008750000   0.500000000000000 1
ion C   0.250000007874999   0.000000008750000   0.500000000000000 1
ion C   0.500000007875000   0.000000008750000   0.500000000000000 1
ion C   0.750000007875000   0.000000008750000   0.500000000000000 1
ion C   0.000000007874999   0.250000008750000   0.500000000000000 1
ion C   0.250000007874999   0.250000008750000   0.500000000000000 1
ion C   0.500000007875000   0.250000008750000   0.500000000000000 1
ion C   0.750000007875000   0.250000008750000   0.500000000000000 1
ion C   0.000000007874999   0.500000008750000   0.500000000000000 1
ion C   0.250000007874999   0.500000008750000   0.500000000000000 1
ion C   0.500000007875000   0.500000008750000   0.500000000000000 1
ion C   0.750000007875000   0.500000008750000   0.500000000000000 1
ion C   1.000000007875000   0.750000008750000   0.500000000000000 1
ion C   0.250000007874999   0.750000008750000   0.500000000000000 1
ion C   0.500000007875000   0.750000008750000   0.500000000000000 1
ion C   0.750000007875000   0.750000008750000   0.500000000000000 1


# Forces in Lattice coordinates:
force Ti   0.000000000000000   0.000000000000000  -0.010536068457008 1
force Ti   0.000000000000000  -0.000000000000000   0.010536068458373 1
force Ti  -0.000000000000000   0.000000000000000  -0.010536068457008 1
force Ti   0.000000000000000   0.000000000000000   0.010536068458373 1
force Ti   0.000000000000000  -0.000000000000000  -0.010536068457008 1
force Ti  -0.000000000000000  -0.000000000000000   0.010536068458373 1
force Ti   0.000000000000000  -0.000000000000000  -0.010536068457008 1
force Ti   0.000000000000000  -0.000000000000000   0.010536068458373 1
force Ti   0.000000000000000   0.000000000000000  -0.010536068457008 1
force Ti   0.000000000000000  -0.000000000000000   0.010536068458373 1
force Ti  -0.000000000000000   0.000000000000000  -0.010536068457008 1
force Ti  -0.000000000000000  -0.000000000000000   0.010536068458373 1
force Ti  -0.000000000000000   0.000000000000000  -0.010536068457236 1
force Ti   0.000000000000000  -0.000000000000000   0.010536068458373 1
force Ti  -0.000000000000000   0.000000000000000  -0.010536068457008 1
force Ti   0.000000000000000  -0.000000000000000   0.010536068458373 1
force Ti  -0.000000000000000  -0.000000000000000  -0.010536068457236 1
force Ti  -0.000000000000000  -0.000000000000000   0.010536068458373 1
force Ti  -0.000000000000000   0.000000000000000  -0.010536068457235 1
force Ti   0.000000000000000  -0.000000000000000   0.010536068458146 1
force Ti   0.000000000000000  -0.000000000000000  -0.010536068457236 1
force Ti   0.000000000000000  -0.000000000000000   0.010536068458373 1
force Ti  -0.000000000000000   0.000000000000000  -0.010536068457235 1
force Ti   0.000000000000000   0.000000000000000   0.010536068458373 1
force Ti   0.000000000000000  -0.000000000000000  -0.010536068457008 1
force Ti   0.000000000000000  -0.000000000000000   0.010536068458373 1
force Ti  -0.000000000000000   0.000000000000000  -0.010536068457236 1
force Ti  -0.000000000000000   0.000000000000000   0.010536068458373 1
force Ti   0.000000000000000  -0.000000000000000  -0.010536068457008 1
force Ti   0.000000000000000  -0.000000000000000   0.010536068458373 1
force Ti   0.000000000000000   0.000000000000000  -0.010536068457236 1
force Ti   0.000000000000000   0.000000000000000   0.010536068458146 1
force C  -0.000000000000000  -0.000000000000000  -0.000000000000000 1
force C   0.000000000000000  -0.000000000000000  -0.000000000000000 1
force C   0.000000000000000   0.000000000000000   0.000000000000000 1
force C   0.000000000000000  -0.000000000000000   0.000000000000000 1
force C   0.000000000000000  -0.000000000000000  -0.000000000000000 1
force C   0.000000000000000  -0.000000000000000  -0.000000000000000 1
force C   0.000000000000000  -0.000000000000000   0.000000000000000 1
force C   0.000000000000000  -0.000000000000000  -0.000000000000000 1
force C   0.000000000000000  -0.000000000000000   0.000000000000000 1
force C  -0.000000000000000   0.000000000000000  -0.000000000000000 1
force C   0.000000000000000  -0.000000000000000   0.000000000000000 1
force C  -0.000000000000000  -0.000000000000000   0.000000000000000 1
force C  -0.000000000000000   0.000000000000000   0.000000000000000 1
force C   0.000000000000000   0.000000000000000  -0.000000000000000 1
force C   0.000000000000000   0.000000000000000  -0.000000000000000 1
force C  -0.000000000000000  -0.000000000000000   0.000000000000000 1

# Energy components:
   A_diel =        0.0135514145051189
   Eewald =    10428.1005434267717646
       EH =    12040.8584487233838445
     Eloc =   -24794.0744484013121109
      Enl =      187.4126992332120381
      Exc =     -317.8556165671157032
 Exc_core =       42.4425447365583182
       KE =      455.6386320320464165
-------------------------------------
     Etot =    -1957.4636454019494067
       TS =        0.1565938633728954
-------------------------------------
        F =    -1957.6202392653221978

IonicMinimize: Iter:   0  F: -1957.620239265322198  |grad|_K:  1.521e-04  t[s]:  13751.88

#--- Lowdin population analysis ---
# oxidation-state Ti +0.840 +0.840 +0.840 +0.840 +0.840 +0.840 +0.840 +0.840 +0.840 +0.840 +0.840 +0.840 +0.840 +0.840 +0.840 +0.840 +0.840 +0.840 +0.840 +0.840 +0.840 +0.840 +0.840 +0.840 +0.840 +0.840 +0.840 +0.840 +0.840 +0.840 +0.840 +0.840
# magnetic-moments Ti +0.554 +0.554 +0.554 +0.554 +0.554 +0.554 +0.554 +0.554 +0.554 +0.554 +0.554 +0.554 +0.554 +0.554 +0.554 +0.554 +0.554 +0.554 +0.554 +0.554 +0.554 +0.554 +0.554 +0.554 +0.554 +0.554 +0.554 +0.554 +0.554 +0.554 +0.554 +0.554
# oxidation-state C -1.123 -1.123 -1.123 -1.123 -1.123 -1.123 -1.123 -1.123 -1.123 -1.123 -1.123 -1.123 -1.123 -1.123 -1.123 -1.123
# magnetic-moments C -0.015 -0.015 -0.015 -0.015 -0.015 -0.015 -0.015 -0.015 -0.015 -0.015 -0.015 -0.015 -0.015 -0.015 -0.015 -0.015

	Linear fluid (dielectric constant: 78.4, screening length: 5.74355 Bohr) occupying 0.729317 of unit cell:	Completed after 2 iterations at t[s]:  13776.42

-------- Electronic minimization -----------
	Linear fluid (dielectric constant: 78.4, screening length: 5.74355 Bohr) occupying 0.729317 of unit cell:	Completed after 0 iterations at t[s]:  13796.86
	FillingsUpdate:  mu: -0.141080248  nElectrons: 448.000000  magneticMoment: [ Abs: 22.16320  Tot: +21.19854 ]
ElecMinimize: Iter:   0  F: -1957.620239390560982  |grad|_K:  8.701e-08  alpha:  1.000e+00
	Linear fluid (dielectric constant: 78.4, screening length: 5.74355 Bohr) occupying 0.729331 of unit cell:	Completed after 3 iterations at t[s]:  13856.79
	Linear fluid (dielectric constant: 78.4, screening length: 5.74355 Bohr) occupying 0.729324 of unit cell:	Completed after 1 iterations at t[s]:  13882.48
	FillingsUpdate:  mu: -0.141053827  nElectrons: 448.000000  magneticMoment: [ Abs: 22.16234  Tot: +21.19771 ]
	SubspaceRotationAdjust: set factor to 1.53
ElecMinimize: Iter:   1  F: -1957.620240290433230  |grad|_K:  5.058e-08  alpha:  4.816e-01  linmin:  7.246e-05  t[s]:  13916.27
	Linear fluid (dielectric constant: 78.4, screening length: 5.74355 Bohr) occupying 0.729323 of unit cell:	Completed after 2 iterations at t[s]:  13940.21
	Linear fluid (dielectric constant: 78.4, screening length: 5.74355 Bohr) occupying 0.729323 of unit cell:	Completed after 0 iterations at t[s]:  13966.08
	FillingsUpdate:  mu: -0.141064522  nElectrons: 448.000000  magneticMoment: [ Abs: 22.16237  Tot: +21.19779 ]
	SubspaceRotationAdjust: set factor to 0.88
ElecMinimize: Iter:   2  F: -1957.620240499600641  |grad|_K:  3.312e-08  alpha:  2.523e-01  linmin:  1.016e-03  t[s]:  14000.05
	Linear fluid (dielectric constant: 78.4, screening length: 5.74355 Bohr) occupying 0.729323 of unit cell:	Completed after 1 iterations at t[s]:  14023.48
	Linear fluid (dielectric constant: 78.4, screening length: 5.74355 Bohr) occupying 0.729323 of unit cell:	Completed after 0 iterations at t[s]:  14049.27
ElecMinimize: 	Step increased F by 2.896741e-08, reducing alpha to 9.148652e-03.
	Linear fluid (dielectric constant: 78.4, screening length: 5.74355 Bohr) occupying 0.729323 of unit cell:	Completed after 0 iterations at t[s]:  14102.27
ElecMinimize: 	Step increased F by 3.119658e-08, reducing alpha to 9.148652e-04.
	Linear fluid (dielectric constant: 78.4, screening length: 5.74355 Bohr) occupying 0.729323 of unit cell:	Completed after 0 iterations at t[s]:  14155.71
ElecMinimize: 	Step increased F by 3.174159e-08, reducing alpha to 9.148652e-05.
ElecMinimize: 	Step failed to reduce F after 3 attempts. Quitting step.
ElecMinimize: 	Undoing step.
	Linear fluid (dielectric constant: 78.4, screening length: 5.74355 Bohr) occupying 0.729323 of unit cell:	Completed after 0 iterations at t[s]:  14208.47
ElecMinimize: 	Step failed: resetting search direction.
	FillingsUpdate:  mu: -0.141062740  nElectrons: 448.000000  magneticMoment: [ Abs: 22.16237  Tot: +21.19779 ]
	SubspaceRotationAdjust: set factor to 0.504
ElecMinimize: Iter:   3  F: -1957.620240467929079  |grad|_K:  1.303e-08  alpha:  9.149e-05
	Linear fluid (dielectric constant: 78.4, screening length: 5.74355 Bohr) occupying 0.729323 of unit cell:	Completed after 0 iterations at t[s]:  14265.06
ElecMinimize: 	Predicted alpha/alphaT>3.000000, increasing alphaT to 7.568491e-01.
	Linear fluid (dielectric constant: 78.4, screening length: 5.74355 Bohr) occupying 0.729323 of unit cell:	Completed after 1 iterations at t[s]:  14290.12
	Linear fluid (dielectric constant: 78.4, screening length: 5.74355 Bohr) occupying 0.729323 of unit cell:	Completed after 0 iterations at t[s]:  14315.14
ElecMinimize: 	Step increased F by 3.711875e-09, reducing alpha to 3.360726e-02.
	Linear fluid (dielectric constant: 78.4, screening length: 5.74355 Bohr) occupying 0.729323 of unit cell:	Completed after 0 iterations at t[s]:  14367.84
ElecMinimize: 	Step increased F by 1.286526e-08, reducing alpha to 3.360726e-03.
	Linear fluid (dielectric constant: 78.4, screening length: 5.74355 Bohr) occupying 0.729323 of unit cell:	Completed after 0 iterations at t[s]:  14420.79
ElecMinimize: 	Step increased F by 1.432841e-08, reducing alpha to 3.360726e-04.
ElecMinimize: 	Step failed to reduce F after 3 attempts. Quitting step.
ElecMinimize: 	Undoing step.
	Linear fluid (dielectric constant: 78.4, screening length: 5.74355 Bohr) occupying 0.729323 of unit cell:	Completed after 0 iterations at t[s]:  14473.32
ElecMinimize: 	Step failed along negative gradient direction.
ElecMinimize: Probably at roundoff error limit. (Stopping)
Setting wave functions to eigenvectors of Hamiltonian

# Ionic positions in lattice coordinates:
ion Ti   0.166666674541666   0.083333342083333   0.566165373817972 1
ion Ti   0.083333341208333   0.166666675416666   0.433834626182028 1
ion Ti   0.416666674541666   0.083333342083333   0.566165373817972 1
ion Ti   0.333333341208333   0.166666675416666   0.433834626182028 1
ion Ti   0.666666674541666   0.083333342083333   0.566165373817972 1
ion Ti   0.583333341208333   0.166666675416666   0.433834626182028 1
ion Ti   0.916666674541666   0.083333342083333   0.566165373817972 1
ion Ti   0.833333341208333   0.166666675416666   0.433834626182028 1
ion Ti   0.166666674541666   0.333333342083333   0.566165373817972 1
ion Ti   0.083333341208333   0.416666675416666   0.433834626182028 1
ion Ti   0.416666674541666   0.333333342083333   0.566165373817972 1
ion Ti   0.333333341208333   0.416666675416666   0.433834626182028 1
ion Ti   0.666666674541666   0.333333342083333   0.566165373817972 1
ion Ti   0.583333341208333   0.416666675416666   0.433834626182028 1
ion Ti   0.916666674541666   0.333333342083333   0.566165373817972 1
ion Ti   0.833333341208333   0.416666675416666   0.433834626182028 1
ion Ti   0.166666674541666   0.583333342083333   0.566165373817972 1
ion Ti   0.083333341208333   0.666666675416666   0.433834626182028 1
ion Ti   0.416666674541666   0.583333342083333   0.566165373817972 1
ion Ti   0.333333341208333   0.666666675416666   0.433834626182028 1
ion Ti   0.666666674541666   0.583333342083333   0.566165373817972 1
ion Ti   0.583333341208333   0.666666675416666   0.433834626182028 1
ion Ti   0.916666674541666   0.583333342083333   0.566165373817972 1
ion Ti   0.833333341208333   0.666666675416666   0.433834626182028 1
ion Ti   0.166666674541666   0.833333342083333   0.566165373817972 1
ion Ti   0.083333341208333   0.916666675416666   0.433834626182028 1
ion Ti   0.416666674541666   0.833333342083333   0.566165373817972 1
ion Ti   0.333333341208333   0.916666675416666   0.433834626182028 1
ion Ti   0.666666674541666   0.833333342083333   0.566165373817972 1
ion Ti   0.583333341208333   0.916666675416666   0.433834626182028 1
ion Ti   0.916666674541666   0.833333342083333   0.566165373817972 1
ion Ti   0.833333341208333   0.916666675416666   0.433834626182028 1
ion C   0.000000007874999   0.000000008750000   0.500000000000000 1
ion C   0.250000007874999   0.000000008750000   0.500000000000000 1
ion C   0.500000007875000   0.000000008750000   0.500000000000000 1
ion C   0.750000007875000   0.000000008750000   0.500000000000000 1
ion C   0.000000007874999   0.250000008750000   0.500000000000000 1
ion C   0.250000007874999   0.250000008750000   0.500000000000000 1
ion C   0.500000007875000   0.250000008750000   0.500000000000000 1
ion C   0.750000007875000   0.250000008750000   0.500000000000000 1
ion C   0.000000007874999   0.500000008750000   0.500000000000000 1
ion C   0.250000007874999   0.500000008750000   0.500000000000000 1
ion C   0.500000007875000   0.500000008750000   0.500000000000000 1
ion C   0.750000007875000   0.500000008750000   0.500000000000000 1
ion C   1.000000007875000   0.750000008750000   0.500000000000000 1
ion C   0.250000007874999   0.750000008750000   0.500000000000000 1
ion C   0.500000007875000   0.750000008750000   0.500000000000000 1
ion C   0.750000007875000   0.750000008750000   0.500000000000000 1


# Forces in Lattice coordinates:
force Ti   0.000000000000000   0.000000000000000  -0.003547103271833 1
force Ti   0.000000000000000  -0.000000000000000   0.003547103270241 1
force Ti  -0.000000000000000  -0.000000000000000  -0.003547103271833 1
force Ti  -0.000000000000000  -0.000000000000000   0.003547103270241 1
force Ti  -0.000000000000000   0.000000000000000  -0.003547103272060 1
force Ti   0.000000000000000  -0.000000000000000   0.003547103270241 1
force Ti   0.000000000000000  -0.000000000000000  -0.003547103272060 1
force Ti  -0.000000000000000  -0.000000000000000   0.003547103270241 1
force Ti   0.000000000000000  -0.000000000000000  -0.003547103271833 1
force Ti  -0.000000000000000  -0.000000000000000   0.003547103270241 1
force Ti  -0.000000000000000  -0.000000000000000  -0.003547103272060 1
force Ti  -0.000000000000000  -0.000000000000000   0.003547103270241 1
force Ti  -0.000000000000000   0.000000000000000  -0.003547103271833 1
force Ti  -0.000000000000000   0.000000000000000   0.003547103270241 1
force Ti  -0.000000000000000   0.000000000000000  -0.003547103272060 1
force Ti   0.000000000000000  -0.000000000000000   0.003547103270241 1
force Ti  -0.000000000000000   0.000000000000000  -0.003547103272288 1
force Ti  -0.000000000000000  -0.000000000000000   0.003547103270241 1
force Ti   0.000000000000000  -0.000000000000000  -0.003547103272060 1
force Ti  -0.000000000000000  -0.000000000000000   0.003547103270240 1
force Ti  -0.000000000000000   0.000000000000000  -0.003547103272060 1
force Ti  -0.000000000000000  -0.000000000000000   0.003547103270241 1
force Ti  -0.000000000000000   0.000000000000000  -0.003547103272060 1
force Ti   0.000000000000000  -0.000000000000000   0.003547103270241 1
force Ti   0.000000000000000   0.000000000000000  -0.003547103272060 1
force Ti  -0.000000000000000  -0.000000000000000   0.003547103270241 1
force Ti  -0.000000000000000  -0.000000000000000  -0.003547103272288 1
force Ti  -0.000000000000000  -0.000000000000000   0.003547103270241 1
force Ti   0.000000000000000  -0.000000000000000  -0.003547103272060 1
force Ti  -0.000000000000000  -0.000000000000000   0.003547103270240 1
force Ti  -0.000000000000000   0.000000000000000  -0.003547103272060 1
force Ti  -0.000000000000000  -0.000000000000000   0.003547103270241 1
force C   0.000000000000000   0.000000000000000   0.000000000000000 1
force C  -0.000000000000000  -0.000000000000000  -0.000000000000000 1
force C   0.000000000000000   0.000000000000000   0.000000000000000 1
force C   0.000000000000000   0.000000000000000   0.000000000000000 1
force C   0.000000000000000  -0.000000000000000   0.000000000000000 1
force C   0.000000000000000   0.000000000000000  -0.000000000000000 1
force C  -0.000000000000000   0.000000000000000  -0.000000000000000 1
force C   0.000000000000000   0.000000000000000   0.000000000000000 1
force C   0.000000000000000  -0.000000000000000   0.000000000000000 1
force C  -0.000000000000000   0.000000000000000   0.000000000000000 1
force C   0.000000000000000   0.000000000000000  -0.000000000000000 1
force C   0.000000000000000   0.000000000000000  -0.000000000000000 1
force C   0.000000000000000   0.000000000000000  -0.000000000000000 1
force C   0.000000000000000  -0.000000000000000   0.000000000000000 1
force C  -0.000000000000000   0.000000000000000  -0.000000000000000 1
force C   0.000000000000000   0.000000000000000  -0.000000000000000 1

# Energy components:
   A_diel =        0.0135521374194673
   Eewald =    10428.4648421642978064
       EH =    12041.2138124052762578
     Eloc =   -24794.7975861793966033
      Enl =      187.4120548347065665
      Exc =     -317.8575252733711523
 Exc_core =       42.4425373703906033
       KE =      455.6446616077768113
-------------------------------------
     Etot =    -1957.4636509329002365
       TS =        0.1565895206286038
-------------------------------------
        F =    -1957.6202404535288224

IonicMinimize: Iter:   1  F: -1957.620240453528822  |grad|_K:  5.121e-05  alpha:  1.000e+00  linmin: -1.000e+00  t[s]:  14521.79
IonicMinimize: Converged (|grad|_K<1.000000e-04).

#--- Lowdin population analysis ---
# oxidation-state Ti +0.840 +0.840 +0.840 +0.840 +0.840 +0.840 +0.840 +0.840 +0.840 +0.840 +0.840 +0.840 +0.840 +0.840 +0.840 +0.840 +0.840 +0.840 +0.840 +0.840 +0.840 +0.840 +0.840 +0.840 +0.840 +0.840 +0.840 +0.840 +0.840 +0.840 +0.840 +0.840
# magnetic-moments Ti +0.554 +0.554 +0.554 +0.554 +0.554 +0.554 +0.554 +0.554 +0.554 +0.554 +0.554 +0.554 +0.554 +0.554 +0.554 +0.554 +0.554 +0.554 +0.554 +0.554 +0.554 +0.554 +0.554 +0.554 +0.554 +0.554 +0.554 +0.554 +0.554 +0.554 +0.554 +0.554
# oxidation-state C -1.123 -1.123 -1.123 -1.123 -1.123 -1.123 -1.123 -1.123 -1.123 -1.123 -1.123 -1.123 -1.123 -1.123 -1.123 -1.123
# magnetic-moments C -0.015 -0.015 -0.015 -0.015 -0.015 -0.015 -0.015 -0.015 -0.015 -0.015 -0.015 -0.015 -0.015 -0.015 -0.015 -0.015


Dumping 'NbTe2.fillings' ... done
Dumping 'NbTe2.wfns' ... done
Dumping 'NbTe2.fluidState' ... done
Dumping 'NbTe2.ionpos' ... done
Dumping 'NbTe2.eigenvals' ... done
End date and time: Sun Jan 17 00:34:54 2021  (Duration: 0-4:02:11.73)
Done!
