
*************** JDFTx 1.5.0  ***************

Start date and time: Tue Jul 14 15:09:14 2020
Executable jdftx_gpu with command-line: -i Charged.in -o Charged.out
Running on hosts (process indices):  amax (0-3)
Divided in process groups (process indices):  0 (0)  1 (1)  2 (2)  3 (3)
gpuInit: Found compatible cuda device 0 'Tesla K80'
gpuInit: Found compatible cuda device 1 'Tesla K80'
gpuInit: Found compatible cuda device 2 'Tesla K80'
gpuInit: Found compatible cuda device 3 'Tesla K80'
gpuInit: Selected device 0
Resource initialization completed at t[s]:     14.76
Run totals: 4 processes, 24 threads, 4 GPUs


Input parsed successfully to the following command list (including defaults):

basis kpoint-dependent
cache-projectors no
coords-type Lattice
core-overlap-check none
coulomb-interaction Slab 001
coulomb-truncation-embed 0 0 0.5
davidson-band-ratio 1.1
dump End State
dump-name NbTe2.$VAR
elec-cutoff 20 100
elec-eigen-algo Davidson
elec-ex-corr gga-PBE
elec-smearing Gauss 0.0073499
electronic-minimize  \
	dirUpdateScheme      FletcherReeves \
	linminMethod         DirUpdateRecommended \
	nIterations          500 \
	history              15 \
	knormThreshold       0 \
	energyDiffThreshold  1e-08 \
	nEnergyDiff          2 \
	alphaTstart          1 \
	alphaTmin            1e-10 \
	updateTestStepSize   yes \
	alphaTreduceFactor   0.1 \
	alphaTincreaseFactor 3 \
	nAlphaAdjustMax      3 \
	wolfeEnergy          0.0001 \
	wolfeGradient        0.9 \
	fdTest               no
exchange-regularization WignerSeitzTruncated
fluid LinearPCM 298.000000 1.013250
fluid-anion F- 1 MeanFieldLJ \
	epsBulk 1 \
	pMol 0 \
	epsInf 1 \
	Pvap 0 \
	sigmaBulk 0 \
	Rvdw 2.24877 \
	Res 0 \
	tauNuc 343133
fluid-cation Na+ 1 MeanFieldLJ \
	epsBulk 1 \
	pMol 0 \
	epsInf 1 \
	Pvap 0 \
	sigmaBulk 0 \
	Rvdw 2.19208 \
	Res 0 \
	tauNuc 343133
fluid-ex-corr lda-TF lda-PZ
fluid-gummel-loop 10 1.000000e-05
fluid-minimize  \
	dirUpdateScheme      PolakRibiere \
	linminMethod         DirUpdateRecommended \
	nIterations          400 \
	history              15 \
	knormThreshold       1e-11 \
	energyDiffThreshold  0 \
	nEnergyDiff          2 \
	alphaTstart          1 \
	alphaTmin            1e-10 \
	updateTestStepSize   yes \
	alphaTreduceFactor   0.1 \
	alphaTincreaseFactor 3 \
	nAlphaAdjustMax      6 \
	wolfeEnergy          0.0001 \
	wolfeGradient        0.9 \
	fdTest               no
fluid-solvent H2O 55.338 ScalarEOS \
	epsBulk 78.4 \
	pMol 0.92466 \
	epsInf 1.77 \
	Pvap 1.06736e-10 \
	sigmaBulk 4.62e-05 \
	Rvdw 2.61727 \
	Res 1.42 \
	tauNuc 343133 \
	poleEl 15 7 1
forces-output-coords Positions
initial-state NbTe2.$VAR
ion Cu   0.084202408917149   0.907728609058582   0.486605903865121 0
ion Cu   0.334212069586201   0.592238295816326   0.513473336437162 0
ion Cu   0.415797577082850   0.092271419941417   0.513404103134879 0
ion Cu   0.165787910413797   0.407761743183674   0.486516655562834 0
ion Cu   0.584202422917150   0.907728609058582   0.486605903865121 0
ion Cu   0.834212069586201   0.592238295816326   0.513473336437162 0
ion Cu   0.915797577082850   0.092271419941417   0.513404103134879 0
ion Cu   0.665787930413799   0.407761743183674   0.486516655562834 0
ion Se   0.191544044633908   0.149524430710110   0.479157360663119 0
ion Se   0.441430849559373   0.350535938195718   0.520906718465678 0
ion Se   0.308445951366095   0.850475550289892   0.520842639336880 0
ion Se   0.058579159440628   0.649474056804282   0.479083217534320 0
ion Se   0.691544044633908   0.149524430710110   0.479157360663119 0
ion Se   0.941430809559377   0.350535938195718   0.520906718465678 0
ion Se   0.808445971366097   0.850475550289892   0.520842639336880 0
ion Se   0.558579174440625   0.649474056804282   0.479083217534320 0
ion O   0.483312007311607   0.589240761992253   0.554325683899759 0
ion O   0.233148742958812   0.910732779269435   0.445615063563185 0
ion O   0.016697981688392   0.410749243007748   0.445664309100241 0
ion O   0.266841253041191   0.089257235730566   0.554394916436817 0
ion O   0.181876111969415   0.566455429973000   0.483873799976836 0
ion O   0.431768995654461   0.933633636604683   0.515995885781611 0
ion O   0.318123888030585   0.433544570027000   0.516126200023164 0
ion O   0.068230999345542   0.066366358395313   0.484004114218389 0
ion O   0.140771138798264   0.262889860845528   0.527534587710162 0
ion O   0.390645234326859   0.237171260053674   0.472495099915371 0
ion O   0.359228861201736   0.737110139154472   0.472465356289840 0
ion O   0.109344751673144   0.762838714946331   0.527524915084626 0
ion O   0.983312047311610   0.589240761992253   0.554325683899759 0
ion O   0.733148762958806   0.910732779269435   0.445615063563185 0
ion O   0.516697976688395   0.410749243007748   0.445664309100241 0
ion O   0.766841253041192   0.089257235730566   0.554394916436817 0
ion O   0.681876111969415   0.566455429973000   0.483873799976836 0
ion O   0.931769035654457   0.933633636604683   0.515995885781611 0
ion O   0.818123888030585   0.433544570027000   0.516126200023164 0
ion O   0.568230964345543   0.066366358395313   0.484004114218389 0
ion O   0.640771138798264   0.262889860845528   0.527534587710162 0
ion O   0.890645195326859   0.237171260053674   0.472495099915371 0
ion O   0.859228861201736   0.737110139154472   0.472465356289840 0
ion O   0.609344741673143   0.762838714946331   0.527524915084626 0
ion-species GBRV/$ID_pbe.uspp
ion-width Ecut
ionic-minimize  \
	dirUpdateScheme      L-BFGS \
	linminMethod         DirUpdateRecommended \
	nIterations          0 \
	history              15 \
	knormThreshold       0.0001 \
	energyDiffThreshold  1e-06 \
	nEnergyDiff          2 \
	alphaTstart          1 \
	alphaTmin            1e-10 \
	updateTestStepSize   yes \
	alphaTreduceFactor   0.1 \
	alphaTincreaseFactor 3 \
	nAlphaAdjustMax      3 \
	wolfeEnergy          0.0001 \
	wolfeGradient        0.9 \
	fdTest               no
kpoint   0.000000000000   0.000000000000   0.000000000000  1.00000000000000
kpoint-folding 3 3 1 
latt-move-scale 1 1 1
latt-scale 1 1 1 
lattice Triclinic 22.7432 23.0807 32.0547 90 90 90
lattice-minimize  \
	dirUpdateScheme      L-BFGS \
	linminMethod         DirUpdateRecommended \
	nIterations          0 \
	history              15 \
	knormThreshold       0 \
	energyDiffThreshold  1e-06 \
	nEnergyDiff          2 \
	alphaTstart          1 \
	alphaTmin            1e-10 \
	updateTestStepSize   yes \
	alphaTreduceFactor   0.1 \
	alphaTincreaseFactor 3 \
	nAlphaAdjustMax      3 \
	wolfeEnergy          0.0001 \
	wolfeGradient        0.9 \
	fdTest               no
lcao-params -1 1e-06 0.0073499
pcm-variant CANDLE
spintype no-spin
subspace-rotation-factor 1 yes
symmetries automatic
symmetry-threshold 0.0001
target-mu -0.171252 no




---------- Setting up symmetries ----------

Found 8 point-group symmetries of the bravais lattice
Found 2 space-group symmetries with basis
Applied RMS atom displacement 2.4511e-07 bohrs to make symmetries exact.

---------- Initializing the Grid ----------
R = 
[    22.7432          0          0  ]
[          0    23.0807          0  ]
[          0          0    32.0547  ]
unit cell volume = 16826.5
G =
[   0.276266          0          0  ]
[          0   0.272226          0  ]
[          0          0   0.196015  ]
Minimum fftbox size, Smin = [  104  104  148  ]
Chosen fftbox size, S = [  108  108  150  ]

---------- Initializing tighter grid for wavefunction operations ----------
R = 
[    22.7432          0          0  ]
[          0    23.0807          0  ]
[          0          0    32.0547  ]
unit cell volume = 16826.5
G =
[   0.276266          0          0  ]
[          0   0.272226          0  ]
[          0          0   0.196015  ]
Minimum fftbox size, Smin = [  92  96  132  ]
Chosen fftbox size, S = [  96  96  140  ]

---------- Exchange Correlation functional ----------
Initalized PBE GGA exchange.
Initalized PBE GGA correlation.

---------- Setting up pseudopotentials ----------
Width of ionic core gaussian charges (only for fluid interactions / plotting) set to 0.397384

Reading pseudopotential file '/home/guoxy/vasp/jdftx-1.5.0/build/pseudopotentials/GBRV/cu_pbe.uspp':
  Title: Cu.  Created by USPP 7.3.6 on 3-2-2014
  Reference state energy: -201.059491.  19 valence electrons in orbitals:
    |300>  occupation: 2  eigenvalue: -5.020764
    |310>  occupation: 6  eigenvalue: -3.445588
    |320>  occupation: 8  eigenvalue: -0.925168
    |400>  occupation: 2  eigenvalue: -0.567638
    |410>  occupation: 0  eigenvalue: -0.326154
  lMax: 2  lLocal: 3  QijEcut: 6
  6 projectors sampled on a log grid with 613 points:
    l: 0  eig: -5.020767  rCut: 1.4
    l: 0  eig: -0.567640  rCut: 1.4
    l: 1  eig: -3.445589  rCut: 1.55
    l: 1  eig: -0.326157  rCut: 1.55
    l: 2  eig: -0.925170  rCut: 1.5
    l: 2  eig: 1.500000  rCut: 1.5
  Partial core density with radius 0.8
  Transforming core density to a uniform radial grid of dG=0.02 with 1285 points.
  Transforming local potential to a uniform radial grid of dG=0.02 with 1285 points.
  Transforming nonlocal projectors to a uniform radial grid of dG=0.02 with 432 points.
  Transforming density augmentations to a uniform radial grid of dG=0.02 with 1285 points.
  Transforming atomic orbitals to a uniform radial grid of dG=0.02 with 432 points.
  Core radius for overlap checks: 1.55 bohrs.

Reading pseudopotential file '/home/guoxy/vasp/jdftx-1.5.0/build/pseudopotentials/GBRV/se_pbe.uspp':
  Title: Se.  Created by USPP 7.3.6 on 14-9-2013
  Reference state energy: -21.672887.  6 valence electrons in orbitals:
    |400>  occupation: 2  eigenvalue: -0.635284
    |410>  occupation: 4  eigenvalue: -0.239295
  lMax: 2  lLocal: 3  QijEcut: 5
  6 projectors sampled on a log grid with 625 points:
    l: 0  eig: -0.635278  rCut: 1.5
    l: 0  eig: 0.500000  rCut: 1.5
    l: 1  eig: -0.239295  rCut: 1.5
    l: 1  eig: 0.500000  rCut: 1.5
    l: 2  eig: 0.000000  rCut: 1.8
    l: 2  eig: 1.000000  rCut: 1.8
  Partial core density with radius 1.2
  Transforming core density to a uniform radial grid of dG=0.02 with 1285 points.
  Transforming local potential to a uniform radial grid of dG=0.02 with 1285 points.
  Transforming nonlocal projectors to a uniform radial grid of dG=0.02 with 432 points.
  Transforming density augmentations to a uniform radial grid of dG=0.02 with 1285 points.
  Transforming atomic orbitals to a uniform radial grid of dG=0.02 with 432 points.
  Core radius for overlap checks: 1.80 bohrs.

Reading pseudopotential file '/home/guoxy/vasp/jdftx-1.5.0/build/pseudopotentials/GBRV/o_pbe.uspp':
  Title: O.  Created by USPP 7.3.6 on 3-2-2014
  Reference state energy: -15.894388.  6 valence electrons in orbitals:
    |200>  occupation: 2  eigenvalue: -0.878823
    |210>  occupation: 4  eigenvalue: -0.332131
  lMax: 2  lLocal: 2  QijEcut: 6
  5 projectors sampled on a log grid with 511 points:
    l: 0  eig: -0.878823  rCut: 1.25
    l: 0  eig: 0.000000  rCut: 1.25
    l: 1  eig: -0.332132  rCut: 1.25
    l: 1  eig: 0.000000  rCut: 1.25
    l: 2  eig: 1.000000  rCut: 1.25
  Partial core density with radius 0.7
  Transforming core density to a uniform radial grid of dG=0.02 with 1285 points.
  Transforming local potential to a uniform radial grid of dG=0.02 with 1285 points.
  Transforming nonlocal projectors to a uniform radial grid of dG=0.02 with 432 points.
  Transforming density augmentations to a uniform radial grid of dG=0.02 with 1285 points.
  Transforming atomic orbitals to a uniform radial grid of dG=0.02 with 432 points.
  Core radius for overlap checks: 1.25 bohrs.

Initialized 3 species with 40 total atoms.

Folded 1 k-points by 3x3x1 to 9 k-points.

---------- Setting up k-points, bands, fillings ----------
Adding inversion symmetry to k-mesh for non-inversion-symmetric unit cell.
Reduced to 5 k-points under symmetry. 
Computing the number of bands and number of electrons
Reading initial fillings from file NbTe2.fillings.
nElectrons: 344.000000   nBands: 232   nStates: 5

----- Setting up reduced wavefunction bases (one per k-point) -----
average nbasis = 71865.667 , ideal nbasis = 71883.967

---------- Setting up coulomb interaction ----------
Fluid mode embedding: using embedded box, but periodic Coulomb kernel.
(Fluid response is responsible for (approximate) separation between periodic images.)
Setting up double-sized grid for truncated Coulomb potentials:
R = 
[    22.7432          0          0  ]
[          0    23.0807          0  ]
[          0          0    64.1093  ]
unit cell volume = 33652.9
G =
[   0.276266          0          0  ]
[          0   0.272226          0  ]
[          0          0  0.0980073  ]
Chosen fftbox size, S = [  108  108  300  ]
Integer grid location selected as the embedding center:
   Grid: [  0  0  75  ]
   Lattice: [  0  0  0.5  ]
   Cartesian: [  0  0  16.0273  ]
Constructing Wigner-Seitz cell: 
*************** JDFTx 1.5.0  ***************

Start date and time: Tue Jul 14 15:09:49 2020
Executable jdftx_gpu with command-line: -i Charged.in -o Charged.out
Running on hosts (process indices):  amax (0-3)
Divided in process groups (process indices):  0 (0)  1 (1)  2 (2)  3 (3)
gpuInit: Found compatible cuda device 0 'Tesla K80'
gpuInit: Found compatible cuda device 1 'Tesla K80'
gpuInit: Found compatible cuda device 2 'Tesla K80'
gpuInit: Found compatible cuda device 3 'Tesla K80'
gpuInit: Selected device 0
Resource initialization completed at t[s]:      5.39
Run totals: 4 processes, 24 threads, 4 GPUs


Input parsed successfully to the following command list (including defaults):

basis kpoint-dependent
cache-projectors no
coords-type Lattice
core-overlap-check none
coulomb-interaction Slab 001
coulomb-truncation-embed 0 0 0.5
davidson-band-ratio 1.1
dump End State
dump-name NbTe2.$VAR
elec-cutoff 20 100
elec-eigen-algo Davidson
elec-ex-corr gga-PBE
elec-smearing Gauss 0.0073499
electronic-minimize  \
	dirUpdateScheme      FletcherReeves \
	linminMethod         DirUpdateRecommended \
	nIterations          500 \
	history              15 \
	knormThreshold       0 \
	energyDiffThreshold  1e-08 \
	nEnergyDiff          2 \
	alphaTstart          1 \
	alphaTmin            1e-10 \
	updateTestStepSize   yes \
	alphaTreduceFactor   0.1 \
	alphaTincreaseFactor 3 \
	nAlphaAdjustMax      3 \
	wolfeEnergy          0.0001 \
	wolfeGradient        0.9 \
	fdTest               no
exchange-regularization WignerSeitzTruncated
fluid LinearPCM 298.000000 1.013250
fluid-anion F- 1 MeanFieldLJ \
	epsBulk 1 \
	pMol 0 \
	epsInf 1 \
	Pvap 0 \
	sigmaBulk 0 \
	Rvdw 2.24877 \
	Res 0 \
	tauNuc 343133
fluid-cation Na+ 1 MeanFieldLJ \
	epsBulk 1 \
	pMol 0 \
	epsInf 1 \
	Pvap 0 \
	sigmaBulk 0 \
	Rvdw 2.19208 \
	Res 0 \
	tauNuc 343133
fluid-ex-corr lda-TF lda-PZ
fluid-gummel-loop 10 1.000000e-05
fluid-minimize  \
	dirUpdateScheme      PolakRibiere \
	linminMethod         DirUpdateRecommended \
	nIterations          400 \
	history              15 \
	knormThreshold       1e-11 \
	energyDiffThreshold  0 \
	nEnergyDiff          2 \
	alphaTstart          1 \
	alphaTmin            1e-10 \
	updateTestStepSize   yes \
	alphaTreduceFactor   0.1 \
	alphaTincreaseFactor 3 \
	nAlphaAdjustMax      6 \
	wolfeEnergy          0.0001 \
	wolfeGradient        0.9 \
	fdTest               no
fluid-solvent H2O 55.338 ScalarEOS \
	epsBulk 78.4 \
	pMol 0.92466 \
	epsInf 1.77 \
	Pvap 1.06736e-10 \
	sigmaBulk 4.62e-05 \
	Rvdw 2.61727 \
	Res 1.42 \
	tauNuc 343133 \
	poleEl 15 7 1
forces-output-coords Positions
initial-state NbTe2.$VAR
ion Cu   0.084202408917149   0.907728609058582   0.486605903865121 0
ion Cu   0.334212069586201   0.592238295816326   0.513473336437162 0
ion Cu   0.415797577082850   0.092271419941417   0.513404103134879 0
ion Cu   0.165787910413797   0.407761743183674   0.486516655562834 0
ion Cu   0.584202422917150   0.907728609058582   0.486605903865121 0
ion Cu   0.834212069586201   0.592238295816326   0.513473336437162 0
ion Cu   0.915797577082850   0.092271419941417   0.513404103134879 0
ion Cu   0.665787930413799   0.407761743183674   0.486516655562834 0
ion Se   0.191544044633908   0.149524430710110   0.479157360663119 0
ion Se   0.441430849559373   0.350535938195718   0.520906718465678 0
ion Se   0.308445951366095   0.850475550289892   0.520842639336880 0
ion Se   0.058579159440628   0.649474056804282   0.479083217534320 0
ion Se   0.691544044633908   0.149524430710110   0.479157360663119 0
ion Se   0.941430809559377   0.350535938195718   0.520906718465678 0
ion Se   0.808445971366097   0.850475550289892   0.520842639336880 0
ion Se   0.558579174440625   0.649474056804282   0.479083217534320 0
ion O   0.483312007311607   0.589240761992253   0.554325683899759 0
ion O   0.233148742958812   0.910732779269435   0.445615063563185 0
ion O   0.016697981688392   0.410749243007748   0.445664309100241 0
ion O   0.266841253041191   0.089257235730566   0.554394916436817 0
ion O   0.181876111969415   0.566455429973000   0.483873799976836 0
ion O   0.431768995654461   0.933633636604683   0.515995885781611 0
ion O   0.318123888030585   0.433544570027000   0.516126200023164 0
ion O   0.068230999345542   0.066366358395313   0.484004114218389 0
ion O   0.140771138798264   0.262889860845528   0.527534587710162 0
ion O   0.390645234326859   0.237171260053674   0.472495099915371 0
ion O   0.359228861201736   0.737110139154472   0.472465356289840 0
ion O   0.109344751673144   0.762838714946331   0.527524915084626 0
ion O   0.983312047311610   0.589240761992253   0.554325683899759 0
ion O   0.733148762958806   0.910732779269435   0.445615063563185 0
ion O   0.516697976688395   0.410749243007748   0.445664309100241 0
ion O   0.766841253041192   0.089257235730566   0.554394916436817 0
ion O   0.681876111969415   0.566455429973000   0.483873799976836 0
ion O   0.931769035654457   0.933633636604683   0.515995885781611 0
ion O   0.818123888030585   0.433544570027000   0.516126200023164 0
ion O   0.568230964345543   0.066366358395313   0.484004114218389 0
ion O   0.640771138798264   0.262889860845528   0.527534587710162 0
ion O   0.890645195326859   0.237171260053674   0.472495099915371 0
ion O   0.859228861201736   0.737110139154472   0.472465356289840 0
ion O   0.609344741673143   0.762838714946331   0.527524915084626 0
ion-species GBRV/$ID_pbe.uspp
ion-width Ecut
ionic-minimize  \
	dirUpdateScheme      L-BFGS \
	linminMethod         DirUpdateRecommended \
	nIterations          0 \
	history              15 \
	knormThreshold       0.0001 \
	energyDiffThreshold  1e-06 \
	nEnergyDiff          2 \
	alphaTstart          1 \
	alphaTmin            1e-10 \
	updateTestStepSize   yes \
	alphaTreduceFactor   0.1 \
	alphaTincreaseFactor 3 \
	nAlphaAdjustMax      3 \
	wolfeEnergy          0.0001 \
	wolfeGradient        0.9 \
	fdTest               no
kpoint   0.000000000000   0.000000000000   0.000000000000  1.00000000000000
kpoint-folding 3 3 1 
latt-move-scale 1 1 1
latt-scale 1 1 1 
lattice Triclinic 22.7432 23.0807 32.0547 90 90 90
lattice-minimize  \
	dirUpdateScheme      L-BFGS \
	linminMethod         DirUpdateRecommended \
	nIterations          0 \
	history              15 \
	knormThreshold       0 \
	energyDiffThreshold  1e-06 \
	nEnergyDiff          2 \
	alphaTstart          1 \
	alphaTmin            1e-10 \
	updateTestStepSize   yes \
	alphaTreduceFactor   0.1 \
	alphaTincreaseFactor 3 \
	nAlphaAdjustMax      3 \
	wolfeEnergy          0.0001 \
	wolfeGradient        0.9 \
	fdTest               no
lcao-params -1 1e-06 0.0073499
pcm-variant CANDLE
spintype no-spin
subspace-rotation-factor 1 yes
symmetries automatic
symmetry-threshold 0.0001
target-mu -0.24475 no




---------- Setting up symmetries ----------

Found 8 point-group symmetries of the bravais lattice
Found 2 space-group symmetries with basis
Applied RMS atom displacement 2.4511e-07 bohrs to make symmetries exact.

---------- Initializing the Grid ----------
R = 
[    22.7432          0          0  ]
[          0    23.0807          0  ]
[          0          0    32.0547  ]
unit cell volume = 16826.5
G =
[   0.276266          0          0  ]
[          0   0.272226          0  ]
[          0          0   0.196015  ]
Minimum fftbox size, Smin = [  104  104  148  ]
Chosen fftbox size, S = [  108  108  150  ]

---------- Initializing tighter grid for wavefunction operations ----------
R = 
[    22.7432          0          0  ]
[          0    23.0807          0  ]
[          0          0    32.0547  ]
unit cell volume = 16826.5
G =
[   0.276266          0          0  ]
[          0   0.272226          0  ]
[          0          0   0.196015  ]
Minimum fftbox size, Smin = [  92  96  132  ]
Chosen fftbox size, S = [  96  96  140  ]

---------- Exchange Correlation functional ----------
Initalized PBE GGA exchange.
Initalized PBE GGA correlation.

---------- Setting up pseudopotentials ----------
Width of ionic core gaussian charges (only for fluid interactions / plotting) set to 0.397384

Reading pseudopotential file '/home/guoxy/vasp/jdftx-1.5.0/build/pseudopotentials/GBRV/cu_pbe.uspp':
  Title: Cu.  Created by USPP 7.3.6 on 3-2-2014
  Reference state energy: -201.059491.  19 valence electrons in orbitals:
    |300>  occupation: 2  eigenvalue: -5.020764
    |310>  occupation: 6  eigenvalue: -3.445588
    |320>  occupation: 8  eigenvalue: -0.925168
    |400>  occupation: 2  eigenvalue: -0.567638
    |410>  occupation: 0  eigenvalue: -0.326154
  lMax: 2  lLocal: 3  QijEcut: 6
  6 projectors sampled on a log grid with 613 points:
    l: 0  eig: -5.020767  rCut: 1.4
    l: 0  eig: -0.567640  rCut: 1.4
    l: 1  eig: -3.445589  rCut: 1.55
    l: 1  eig: -0.326157  rCut: 1.55
    l: 2  eig: -0.925170  rCut: 1.5
    l: 2  eig: 1.500000  rCut: 1.5
  Partial core density with radius 0.8
  Transforming core density to a uniform radial grid of dG=0.02 with 1285 points.
  Transforming local potential to a uniform radial grid of dG=0.02 with 1285 points.
  Transforming nonlocal projectors to a uniform radial grid of dG=0.02 with 432 points.
  Transforming density augmentations to a uniform radial grid of dG=0.02 with 1285 points.
  Transforming atomic orbitals to a uniform radial grid of dG=0.02 with 432 points.
  Core radius for overlap checks: 1.55 bohrs.

Reading pseudopotential file '/home/guoxy/vasp/jdftx-1.5.0/build/pseudopotentials/GBRV/se_pbe.uspp':
  Title: Se.  Created by USPP 7.3.6 on 14-9-2013
  Reference state energy: -21.672887.  6 valence electrons in orbitals:
    |400>  occupation: 2  eigenvalue: -0.635284
    |410>  occupation: 4  eigenvalue: -0.239295
  lMax: 2  lLocal: 3  QijEcut: 5
  6 projectors sampled on a log grid with 625 points:
    l: 0  eig: -0.635278  rCut: 1.5
    l: 0  eig: 0.500000  rCut: 1.5
    l: 1  eig: -0.239295  rCut: 1.5
    l: 1  eig: 0.500000  rCut: 1.5
    l: 2  eig: 0.000000  rCut: 1.8
    l: 2  eig: 1.000000  rCut: 1.8
  Partial core density with radius 1.2
  Transforming core density to a uniform radial grid of dG=0.02 with 1285 points.
  Transforming local potential to a uniform radial grid of dG=0.02 with 1285 points.
  Transforming nonlocal projectors to a uniform radial grid of dG=0.02 with 432 points.
  Transforming density augmentations to a uniform radial grid of dG=0.02 with 1285 points.
  Transforming atomic orbitals to a uniform radial grid of dG=0.02 with 432 points.
  Core radius for overlap checks: 1.80 bohrs.

Reading pseudopotential file '/home/guoxy/vasp/jdftx-1.5.0/build/pseudopotentials/GBRV/o_pbe.uspp':
  Title: O.  Created by USPP 7.3.6 on 3-2-2014
  Reference state energy: -15.894388.  6 valence electrons in orbitals:
    |200>  occupation: 2  eigenvalue: -0.878823
    |210>  occupation: 4  eigenvalue: -0.332131
  lMax: 2  lLocal: 2  QijEcut: 6
  5 projectors sampled on a log grid with 511 points:
    l: 0  eig: -0.878823  rCut: 1.25
    l: 0  eig: 0.000000  rCut: 1.25
    l: 1  eig: -0.332132  rCut: 1.25
    l: 1  eig: 0.000000  rCut: 1.25
    l: 2  eig: 1.000000  rCut: 1.25
  Partial core density with radius 0.7
  Transforming core density to a uniform radial grid of dG=0.02 with 1285 points.
  Transforming local potential to a uniform radial grid of dG=0.02 with 1285 points.
  Transforming nonlocal projectors to a uniform radial grid of dG=0.02 with 432 points.
  Transforming density augmentations to a uniform radial grid of dG=0.02 with 1285 points.
  Transforming atomic orbitals to a uniform radial grid of dG=0.02 with 432 points.
  Core radius for overlap checks: 1.25 bohrs.

Initialized 3 species with 40 total atoms.

Folded 1 k-points by 3x3x1 to 9 k-points.

---------- Setting up k-points, bands, fillings ----------
Adding inversion symmetry to k-mesh for non-inversion-symmetric unit cell.
Reduced to 5 k-points under symmetry. 
Computing the number of bands and number of electrons
Reading initial fillings from file NbTe2.fillings.
nElectrons: 344.000000   nBands: 232   nStates: 5

----- Setting up reduced wavefunction bases (one per k-point) -----
average nbasis = 71865.667 , ideal nbasis = 71883.967

---------- Setting up coulomb interaction ----------
Fluid mode embedding: using embedded box, but periodic Coulomb kernel.
(Fluid response is responsible for (approximate) separation between periodic images.)
Setting up double-sized grid for truncated Coulomb potentials:
R = 
[    22.7432          0          0  ]
[          0    23.0807          0  ]
[          0          0    64.1093  ]
unit cell volume = 33652.9
G =
[   0.276266          0          0  ]
[          0   0.272226          0  ]
[          0          0  0.0980073  ]
Chosen fftbox size, S = [  108  108  300  ]
Integer grid location selected as the embedding center:
   Grid: [  0  0  75  ]
   Lattice: [  0  0  0.5  ]
   Cartesian: [  0  0  16.0273  ]
Constructing Wigner-Seitz cell: 6 faces (6 quadrilaterals, 0 hexagons)
Range-separation parameter for embedded mesh potentials due to point charges: 0.583207 bohrs.

Initializing van der Waals corrections
	NOTE: vdW corrections apply only for interactions with fluid.
	Cu:  C6:  187.33 Eh-a0^6  R0: 2.952 a0
	Se:  C6:  219.24 Eh-a0^6  R0: 3.347 a0
	 O:  C6:   12.14 Eh-a0^6  R0: 2.536 a0

---------- Setting up ewald sum ----------
Optimum gaussian width for ewald sums = 6.964786 bohr.
Real space sum over 567 unit cells with max indices [  4  4  3  ]
Reciprocal space sum over 6045 terms with max indices [  6  7  15  ]

---------- Allocating electronic variables ----------
Initializing wave functions:  reading from 'NbTe2.wfns'
----- createFluidSolver() ----- (Fluid-side solver setup)
   Initializing fluid molecule 'H2O'
     Initializing site 'O'
       Electron density: proportional to exp(-r/0.36935)*erfc((r-0.51523)/0.36823) with norm 6.826
       Charge density: gaussian nuclear width 0.478731 with net site charge 0.826
       Polarizability: cuspless exponential with width 0.32 and norm 3.73
       Hard sphere radius: 2.57003 bohrs
       Positions in reference frame:
         [ +0.000000 +0.000000 +0.000000 ]
     Initializing site 'H'
       Electron density: proportional to exp(-r/0.34641)*erfc((r-0)/0.390882) with norm 0.587
       Charge density: gaussian nuclear width 0.377945 with net site charge -0.413
       Polarizability: cuspless exponential with width 0.39 and norm 3.3
       Positions in reference frame:
         [ +0.000000 -1.441945 +1.122523 ]
         [ +0.000000 +1.441945 +1.122523 ]
     Net charge: 0   dipole magnitude: 0.927204
     Initializing spherical shell mfKernel with radius 2.61727 Bohr
     deltaS corrections:
       site 'O': -7.54299
       site 'H': -6.83917
   Initializing fluid molecule 'Na+'
     Initializing site 'Na'
       Electron density: proportional to exp(-r/0.19682)*erfc((r-0.71491)/0.41314) with norm 8.1383
       Charge density: gaussian nuclear width 0.365347 with net site charge -1
       Hard sphere radius: 1.86327 bohrs
       Positions in reference frame:
         [ +0.000000 +0.000000 +0.000000 ]
     Net charge: -1   dipole magnitude: 0
     Initializing gaussian mfKernel with width: 1.55004 Bohr
     deltaS corrections:
       site 'Na': -22.3555
   Initializing fluid molecule 'F-'
     Initializing site 'F'
       Electron density: proportional to exp(-r/0.38886)*erfc((r-0)/0.438782) with norm 8
       Charge density: gaussian nuclear width 0.374796 with net site charge 1
       Hard sphere radius: 2.39995 bohrs
       Positions in reference frame:
         [ +0.000000 +0.000000 +0.000000 ]
     Net charge: 1   dipole magnitude: 0
     Initializing gaussian mfKernel with width: 1.59012 Bohr
     deltaS corrections:
       site 'F': -9.04335

Correction to mu due to finite nuclear width = -0.0101423
   Cavity determined by nc: 0.00142 and sigma: 0.707107
   Nonlocal vdW cavity from gaussian model electron density with norm = 8 and sigma = 0.993594 bohr
   Charge asymmetry in cavity with sensitivity pCavity = 36.5 e-bohr/Eh
   Electrostatic cavity expanded by eta = 1.46 bohrs
   Weighted density cavitation model constrained by Nbulk: 0.0049383 bohr^-3, Pvap: 3.14029 kPa, Rvdw: 2.61727 bohr and sigmaBulk: 4.62e-05 Eh/bohr^2 at T: 298 K.
   Weighted density dispersion model using vdW pair potentials with single solvent site with sqrtC6eff: 0.77 SI.
Reading fluid state from 'NbTe2.fluidState'


---- Citations for features of the code used in this run ----

   Software package:
      R. Sundararaman, K. Letchworth-Weaver, K.A. Schwarz, D. Gunceler, Y. Ozhabes and T.A. Arias, 'JDFTx: software for joint density-functional theory', SoftwareX 6, 278 (2017)

   gga-PBE exchange-correlation functional:
      J.P. Perdew, K. Burke and M. Ernzerhof, Phys. Rev. Lett. 77, 3865 (1996)

   Pseudopotentials:
      KF Garrity, JW Bennett, KM Rabe and D Vanderbilt, Comput. Mater. Sci. 81, 446 (2014)

   Truncated Coulomb potentials:
      R. Sundararaman and T.A. Arias, Phys. Rev. B 87, 165122 (2013)

   Van der Waals correction pair-potentials:
      S. Grimme, J. Comput. Chem. 27, 1787 (2006)

   Charge-asymmetric nonlocally-determined local-electric (CANDLE) solvation model:
      R. Sundararaman and W.A. Goddard III, J. Chem. Phys. 142, 064107 (2015)

   Total energy minimization with Auxiliary Hamiltonian:
      C. Freysoldt, S. Boeck, and J. Neugebauer, Phys. Rev. B 79, 241103(R) (2009)

   Grand-canonical (fixed-potential) DFT:
      R. Sundararaman, W. A. Goddard III and T. A. Arias, J. Chem. Phys. 146, 114104 (2017)

This list may not be complete. Please suggest additional citations or
report any other bugs at https://github.com/shankar1729/jdftx/issues

Initialization completed successfully at t[s]:     16.85

Shifting auxilliary hamiltonian by -0.054248 to set nElectrons=344.000000
	Linear fluid (dielectric constant: 78.4, screening length: 5.74355 Bohr) occupying 0.815566 of unit cell:	Completed after 3 iterations at t[s]:     22.94

-------- Electronic minimization -----------
	Linear fluid (dielectric constant: 78.4, screening length: 5.74355 Bohr) occupying 0.815566 of unit cell:	Completed after 0 iterations at t[s]:     29.52
	FillingsUpdate:  mu: -0.244750400  nElectrons: 344.000000
ElecMinimize: Iter:   0  G: -1992.363835823872023  |grad|_K:  7.904e-05  alpha:  1.000e+00
	Linear fluid (dielectric constant: 78.4, screening length: 5.74355 Bohr) occupying 0.816871 of unit cell:	Completed after 21 iterations at t[s]:     49.25
	Linear fluid (dielectric constant: 78.4, screening length: 5.74355 Bohr) occupying 0.815139 of unit cell:	Completed after 22 iterations at t[s]:     61.68
	FillingsUpdate:  mu: -0.244750400  nElectrons: 343.473464
	SubspaceRotationAdjust: set factor to 0.639
ElecMinimize: Iter:   1  G: -1992.384005261125822  |grad|_K:  3.861e-05  alpha:  2.765e-02  linmin: -5.597e-03  t[s]:     71.64
	Linear fluid (dielectric constant: 78.4, screening length: 5.74355 Bohr) occupying 0.815186 of unit cell:	Completed after 13 iterations at t[s]:     81.21
	Linear fluid (dielectric constant: 78.4, screening length: 5.74355 Bohr) occupying 0.815233 of unit cell:	Completed after 13 iterations at t[s]:     92.06
	FillingsUpdate:  mu: -0.244750400  nElectrons: 342.870102
	SubspaceRotationAdjust: set factor to 0.558
ElecMinimize: Iter:   2  G: -1992.392863167010319  |grad|_K:  3.245e-05  alpha:  5.057e-02  linmin: -8.626e-05  t[s]:    102.31
	Linear fluid (dielectric constant: 78.4, screening length: 5.74355 Bohr) occupying 0.815392 of unit cell:	Completed after 12 iterations at t[s]:    112.57
	Linear fluid (dielectric constant: 78.4, screening length: 5.74355 Bohr) occupying 0.815432 of unit cell:	Completed after 10 iterations at t[s]:    123.98
	FillingsUpdate:  mu: -0.244750400  nElectrons: 342.479531
	SubspaceRotationAdjust: set factor to 0.389
ElecMinimize: Iter:   3  G: -1992.398589708092459  |grad|_K:  2.487e-05  alpha:  6.337e-02  linmin:  9.241e-06  t[s]:    134.78
	Linear fluid (dielectric constant: 78.4, screening length: 5.74355 Bohr) occupying 0.815661 of unit cell:	Completed after 9 iterations at t[s]:    144.03
	Linear fluid (dielectric constant: 78.4, screening length: 5.74355 Bohr) occupying 0.815653 of unit cell:	Completed after 3 iterations at t[s]:    152.38
	FillingsUpdate:  mu: -0.244750400  nElectrons: 342.431551
	SubspaceRotationAdjust: set factor to 0.5
ElecMinimize: Iter:   4  G: -1992.401738491626247  |grad|_K:  2.438e-05  alpha:  6.109e-02  linmin: -7.018e-06  t[s]:    162.66
	Linear fluid (dielectric constant: 78.4, screening length: 5.74355 Bohr) occupying 0.815945 of unit cell:	Completed after 13 iterations at t[s]:    172.46
	Linear fluid (dielectric constant: 78.4, screening length: 5.74355 Bohr) occupying 0.816321 of unit cell:	Completed after 14 iterations at t[s]:    183.55
	FillingsUpdate:  mu: -0.244750400  nElectrons: 342.371852
	SubspaceRotationAdjust: set factor to 0.483
ElecMinimize: Iter:   5  G: -1992.408968839196405  |grad|_K:  3.169e-05  alpha:  1.411e-01  linmin: -6.434e-05  t[s]:    194.45
	Linear fluid (dielectric constant: 78.4, screening length: 5.74355 Bohr) occupying 0.817559 of unit cell:	Completed after 14 iterations at t[s]:    206.93
	Linear fluid (dielectric constant: 78.4, screening length: 5.74355 Bohr) occupying 0.816848 of unit cell:	Completed after 14 iterations at t[s]:    218.04
	FillingsUpdate:  mu: -0.244750400  nElectrons: 342.183994
	SubspaceRotationAdjust: set factor to 0.537
ElecMinimize: Iter:   6  G: -1992.414232214931189  |grad|_K:  1.336e-05  alpha:  5.916e-02  linmin: -3.026e-05  t[s]:    229.53
	Linear fluid (dielectric constant: 78.4, screening length: 5.74355 Bohr) occupying 0.816994 of unit cell:	Completed after 11 iterations at t[s]:    241.55
	Linear fluid (dielectric constant: 78.4, screening length: 5.74355 Bohr) occupying 0.817001 of unit cell:	Completed after 2 iterations at t[s]:    251.43
	FillingsUpdate:  mu: -0.244750400  nElectrons: 342.083250
	SubspaceRotationAdjust: set factor to 0.624
ElecMinimize: Iter:   7  G: -1992.415159706780287  |grad|_K:  1.086e-05  alpha:  6.186e-02  linmin: -8.727e-06  t[s]:    261.85
	Linear fluid (dielectric constant: 78.4, screening length: 5.74355 Bohr) occupying 0.817159 of unit cell:	Completed after 10 iterations at t[s]:    273.18
	Linear fluid (dielectric constant: 78.4, screening length: 5.74355 Bohr) occupying 0.817423 of unit cell:	Completed after 11 iterations at t[s]:    284.40
	FillingsUpdate:  mu: -0.244750400  nElectrons: 341.928982
	SubspaceRotationAdjust: set factor to 0.662
ElecMinimize: Iter:   8  G: -1992.416812439121486  |grad|_K:  1.604e-05  alpha:  1.664e-01  linmin: -1.414e-05  t[s]:    295.91
	Linear fluid (dielectric constant: 78.4, screening length: 5.74355 Bohr) occupying 0.818445 of unit cell:	Completed after 14 iterations at t[s]:    307.25
	Linear fluid (dielectric constant: 78.4, screening length: 5.74355 Bohr) occupying 0.817847 of unit cell:	Completed after 12 iterations at t[s]:    317.69
	FillingsUpdate:  mu: -0.244750400  nElectrons: 341.913571
	SubspaceRotationAdjust: set factor to 0.853
ElecMinimize: Iter:   9  G: -1992.418278360342811  |grad|_K:  9.004e-06  alpha:  6.790e-02  linmin:  7.383e-06  t[s]:    329.21
	Linear fluid (dielectric constant: 78.4, screening length: 5.74355 Bohr) occupying 0.818016 of unit cell:	Completed after 11 iterations at t[s]:    340.22
	Linear fluid (dielectric constant: 78.4, screening length: 5.74355 Bohr) occupying 0.818011 of unit cell:	Completed after 2 iterations at t[s]:    349.28
	FillingsUpdate:  mu: -0.244750400  nElectrons: 341.973216
	SubspaceRotationAdjust: set factor to 0.797
ElecMinimize: Iter:  10  G: -1992.418724439605512  |grad|_K:  8.124e-06  alpha:  6.604e-02  linmin:  1.148e-05  t[s]:    361.18
	Linear fluid (dielectric constant: 78.4, screening length: 5.74355 Bohr) occupying 0.818171 of unit cell:	Completed after 10 iterations at t[s]:    371.72
	Linear fluid (dielectric constant: 78.4, screening length: 5.74355 Bohr) occupying 0.818274 of unit cell:	Completed after 9 iterations at t[s]:    381.70
	FillingsUpdate:  mu: -0.244750400  nElectrons: 342.017338
	SubspaceRotationAdjust: set factor to 0.898
ElecMinimize: Iter:  11  G: -1992.419320959493461  |grad|_K:  6.979e-06  alpha:  1.090e-01  linmin:  7.995e-06  t[s]:    393.21
	Linear fluid (dielectric constant: 78.4, screening length: 5.74355 Bohr) occupying 0.818480 of unit cell:	Completed after 12 iterations at t[s]:    404.96
	Linear fluid (dielectric constant: 78.4, screening length: 5.74355 Bohr) occupying 0.818368 of unit cell:	Completed after 10 iterations at t[s]:    415.44
	FillingsUpdate:  mu: -0.244750400  nElectrons: 341.988192
	SubspaceRotationAdjust: set factor to 1.03
ElecMinimize: Iter:  12  G: -1992.419522455233391  |grad|_K:  3.967e-06  alpha:  4.953e-02  linmin: -2.262e-06  t[s]:    428.88
	Linear fluid (dielectric constant: 78.4, screening length: 5.74355 Bohr) occupying 0.818404 of unit cell:	Completed after 8 iterations at t[s]:    438.33
	Linear fluid (dielectric constant: 78.4, screening length: 5.74355 Bohr) occupying 0.818444 of unit cell:	Completed after 9 iterations at t[s]:    448.91
	FillingsUpdate:  mu: -0.244750400  nElectrons: 341.955102
	SubspaceRotationAdjust: set factor to 1.01
ElecMinimize: Iter:  13  G: -1992.419662527638593  |grad|_K:  5.012e-06  alpha:  1.067e-01  linmin:  6.101e-06  t[s]:    461.94
	Linear fluid (dielectric constant: 78.4, screening length: 5.74355 Bohr) occupying 0.818572 of unit cell:	Completed after 10 iterations at t[s]:    471.64
	Linear fluid (dielectric constant: 78.4, screening length: 5.74355 Bohr) occupying 0.818528 of unit cell:	Completed after 4 iterations at t[s]:    482.51
	FillingsUpdate:  mu: -0.244750400  nElectrons: 341.963867
	SubspaceRotationAdjust: set factor to 1.1
ElecMinimize: Iter:  14  G: -1992.419809070114752  |grad|_K:  3.551e-06  alpha:  6.998e-02  linmin:  5.999e-06  t[s]:    494.50
	Linear fluid (dielectric constant: 78.4, screening length: 5.74355 Bohr) occupying 0.818570 of unit cell:	Completed after 4 iterations at t[s]:    505.60
	Linear fluid (dielectric constant: 78.4, screening length: 5.74355 Bohr) occupying 0.818573 of unit cell:	Completed after 3 iterations at t[s]:    515.28
	FillingsUpdate:  mu: -0.244750400  nElectrons: 341.973939
	SubspaceRotationAdjust: set factor to 1.09
ElecMinimize: Iter:  15  G: -1992.419888173839809  |grad|_K:  3.108e-06  alpha:  7.538e-02  linmin:  2.514e-05  t[s]:    528.10
	Linear fluid (dielectric constant: 78.4, screening length: 5.74355 Bohr) occupying 0.818604 of unit cell:	Completed after 8 iterations at t[s]:    537.77
	Linear fluid (dielectric constant: 78.4, screening length: 5.74355 Bohr) occupying 0.818598 of unit cell:	Completed after 2 iterations at t[s]:    547.96
	FillingsUpdate:  mu: -0.244750400  nElectrons: 341.959893
	SubspaceRotationAdjust: set factor to 1.13
ElecMinimize: Iter:  16  G: -1992.419936498386051  |grad|_K:  2.143e-06  alpha:  6.020e-02  linmin:  3.478e-05  t[s]:    560.88
	Linear fluid (dielectric constant: 78.4, screening length: 5.74355 Bohr) occupying 0.818607 of unit cell:	Completed after 3 iterations at t[s]:    569.19
	Linear fluid (dielectric constant: 78.4, screening length: 5.74355 Bohr) occupying 0.818614 of unit cell:	Completed after 2 iterations at t[s]:    578.88
	FillingsUpdate:  mu: -0.244750400  nElectrons: 341.957180
	SubspaceRotationAdjust: set factor to 1.23
ElecMinimize: Iter:  17  G: -1992.419976303042404  |grad|_K:  2.301e-06  alpha:  1.048e-01  linmin:  1.179e-05  t[s]:    591.13
	Linear fluid (dielectric constant: 78.4, screening length: 5.74355 Bohr) occupying 0.818627 of unit cell:	Completed after 10 iterations at t[s]:    602.11
	Linear fluid (dielectric constant: 78.4, screening length: 5.74355 Bohr) occupying 0.818621 of unit cell:	Completed after 7 iterations at t[s]:    612.26
	FillingsUpdate:  mu: -0.244750400  nElectrons: 341.975383
	SubspaceRotationAdjust: set factor to 1.09
ElecMinimize: Iter:  18  G: -1992.420001394598103  |grad|_K:  1.264e-06  alpha:  5.638e-02  linmin:  1.048e-05  t[s]:    624.44
	Linear fluid (dielectric constant: 78.4, screening length: 5.74355 Bohr) occupying 0.818619 of unit cell:	Completed after 2 iterations at t[s]:    633.12
	Linear fluid (dielectric constant: 78.4, screening length: 5.74355 Bohr) occupying 0.818617 of unit cell:	Completed after 3 iterations at t[s]:    642.37
	FillingsUpdate:  mu: -0.244750400  nElectrons: 341.981455
	SubspaceRotationAdjust: set factor to 1.02
ElecMinimize: Iter:  19  G: -1992.420014135609335  |grad|_K:  1.277e-06  alpha:  9.559e-02  linmin: -2.495e-05  t[s]:    654.87
	Linear fluid (dielectric constant: 78.4, screening length: 5.74355 Bohr) occupying 0.818608 of unit cell:	Completed after 7 iterations at t[s]:    664.64
	Linear fluid (dielectric constant: 78.4, screening length: 5.74355 Bohr) occupying 0.818610 of unit cell:	Completed after 2 iterations at t[s]:    674.55
	FillingsUpdate:  mu: -0.244750400  nElectrons: 341.971882
	SubspaceRotationAdjust: set factor to 0.912
ElecMinimize: Iter:  20  G: -1992.420024617955278  |grad|_K:  1.004e-06  alpha:  7.582e-02  linmin:  6.767e-05  t[s]:    686.39
	Linear fluid (dielectric constant: 78.4, screening length: 5.74355 Bohr) occupying 0.818602 of unit cell:	Completed after 3 iterations at t[s]:    696.27
	Linear fluid (dielectric constant: 78.4, screening length: 5.74355 Bohr) occupying 0.818594 of unit cell:	Completed after 2 iterations at t[s]:    706.52
	FillingsUpdate:  mu: -0.244750400  nElectrons: 341.968913
	SubspaceRotationAdjust: set factor to 0.949
ElecMinimize: Iter:  21  G: -1992.420036405840165  |grad|_K:  9.249e-07  alpha:  1.469e-01  linmin:  3.336e-05  t[s]:    718.90
	Linear fluid (dielectric constant: 78.4, screening length: 5.74355 Bohr) occupying 0.818578 of unit cell:	Completed after 8 iterations at t[s]:    728.61
	Linear fluid (dielectric constant: 78.4, screening length: 5.74355 Bohr) occupying 0.818587 of unit cell:	Completed after 4 iterations at t[s]:    740.62
	FillingsUpdate:  mu: -0.244750400  nElectrons: 341.976765
	SubspaceRotationAdjust: set factor to 0.842
ElecMinimize: Iter:  22  G: -1992.420041316082006  |grad|_K:  5.338e-07  alpha:  6.640e-02  linmin:  5.075e-05  t[s]:    752.56
	Linear fluid (dielectric constant: 78.4, screening length: 5.74355 Bohr) occupying 0.818583 of unit cell:	Completed after 2 iterations at t[s]:    762.34
	Linear fluid (dielectric constant: 78.4, screening length: 5.74355 Bohr) occupying 0.818580 of unit cell:	Completed after 0 iterations at t[s]:    772.03
	FillingsUpdate:  mu: -0.244750400  nElectrons: 341.979881
	SubspaceRotationAdjust: set factor to 0.914
ElecMinimize: Iter:  23  G: -1992.420044168743061  |grad|_K:  4.437e-07  alpha:  1.163e-01  linmin: -1.556e-04  t[s]:    783.65
	Linear fluid (dielectric constant: 78.4, screening length: 5.74355 Bohr) occupying 0.818573 of unit cell:	Completed after 2 iterations at t[s]:    793.11
	Linear fluid (dielectric constant: 78.4, screening length: 5.74355 Bohr) occupying 0.818574 of unit cell:	Completed after 0 iterations at t[s]:    803.29
	FillingsUpdate:  mu: -0.244750400  nElectrons: 341.980448
	SubspaceRotationAdjust: set factor to 0.909
ElecMinimize: Iter:  24  G: -1992.420045888721916  |grad|_K:  4.407e-07  alpha:  9.827e-02  linmin: -4.425e-05  t[s]:    813.72
	Linear fluid (dielectric constant: 78.4, screening length: 5.74355 Bohr) occupying 0.818568 of unit cell:	Completed after 2 iterations at t[s]:    823.27
	Linear fluid (dielectric constant: 78.4, screening length: 5.74355 Bohr) occupying 0.818569 of unit cell:	Completed after 0 iterations at t[s]:    831.96
	FillingsUpdate:  mu: -0.244750400  nElectrons: 341.982618
	SubspaceRotationAdjust: set factor to 0.841
ElecMinimize: Iter:  25  G: -1992.420047222379935  |grad|_K:  3.379e-07  alpha:  7.973e-02  linmin:  2.796e-05  t[s]:    844.20
	Linear fluid (dielectric constant: 78.4, screening length: 5.74355 Bohr) occupying 0.818566 of unit cell:	Completed after 0 iterations at t[s]:    853.64
	Linear fluid (dielectric constant: 78.4, screening length: 5.74355 Bohr) occupying 0.818563 of unit cell:	Completed after 2 iterations at t[s]:    863.75
	FillingsUpdate:  mu: -0.244750400  nElectrons: 341.980221
	SubspaceRotationAdjust: set factor to 0.96
ElecMinimize: Iter:  26  G: -1992.420048509863364  |grad|_K:  2.628e-07  alpha:  1.605e-01  linmin:  1.736e-04  t[s]:    875.25
	Linear fluid (dielectric constant: 78.4, screening length: 5.74355 Bohr) occupying 0.818559 of unit cell:	Completed after 4 iterations at t[s]:    884.56
	Linear fluid (dielectric constant: 78.4, screening length: 5.74355 Bohr) occupying 0.818561 of unit cell:	Completed after 2 iterations at t[s]:    894.97
	FillingsUpdate:  mu: -0.244750400  nElectrons: 341.978686
	SubspaceRotationAdjust: set factor to 0.816
ElecMinimize: Iter:  27  G: -1992.420048773929693  |grad|_K:  2.073e-07  alpha:  6.419e-02  linmin:  1.180e-04  t[s]:    906.63
	Linear fluid (dielectric constant: 78.4, screening length: 5.74355 Bohr) occupying 0.818560 of unit cell:	Completed after 0 iterations at t[s]:    915.19
	Linear fluid (dielectric constant: 78.4, screening length: 5.74355 Bohr) occupying 0.818560 of unit cell:	Completed after 2 iterations at t[s]:    924.25
	FillingsUpdate:  mu: -0.244750400  nElectrons: 341.980550
	SubspaceRotationAdjust: set factor to 0.931
ElecMinimize: Iter:  28  G: -1992.420049104965528  |grad|_K:  2.164e-07  alpha:  1.303e-01  linmin:  1.316e-04  t[s]:    936.46
	Linear fluid (dielectric constant: 78.4, screening length: 5.74355 Bohr) occupying 0.818559 of unit cell:	Completed after 3 iterations at t[s]:    945.34
	Linear fluid (dielectric constant: 78.4, screening length: 5.74355 Bohr) occupying 0.818559 of unit cell:	Completed after 0 iterations at t[s]:    954.70
	FillingsUpdate:  mu: -0.244750400  nElectrons: 341.982162
	SubspaceRotationAdjust: set factor to 0.844
ElecMinimize: Iter:  29  G: -1992.420049343683331  |grad|_K:  2.398e-07  alpha:  7.143e-02  linmin:  1.239e-04  t[s]:    966.06
	Linear fluid (dielectric constant: 78.4, screening length: 5.74355 Bohr) occupying 0.818559 of unit cell:	Completed after 2 iterations at t[s]:    974.99
	Linear fluid (dielectric constant: 78.4, screening length: 5.74355 Bohr) occupying 0.818559 of unit cell:	Completed after 0 iterations at t[s]:    984.73
	FillingsUpdate:  mu: -0.244750400  nElectrons: 341.981851
	SubspaceRotationAdjust: set factor to 1.03
ElecMinimize: Iter:  30  G: -1992.420049443687049  |grad|_K:  1.414e-07  alpha:  3.608e-02  linmin:  5.797e-06  t[s]:    997.18
	Linear fluid (dielectric constant: 78.4, screening length: 5.74355 Bohr) occupying 0.818559 of unit cell:	Completed after 0 iterations at t[s]:   1005.41
	Linear fluid (dielectric constant: 78.4, screening length: 5.74355 Bohr) occupying 0.818560 of unit cell:	Completed after 0 iterations at t[s]:   1014.81
	FillingsUpdate:  mu: -0.244750400  nElectrons: 341.981085
	SubspaceRotationAdjust: set factor to 1.1
ElecMinimize: Iter:  31  G: -1992.420049620725194  |grad|_K:  1.431e-07  alpha:  1.069e-01  linmin: -1.184e-08  t[s]:   1027.10
	Linear fluid (dielectric constant: 78.4, screening length: 5.74355 Bohr) occupying 0.818560 of unit cell:	Completed after 2 iterations at t[s]:   1035.82
	Linear fluid (dielectric constant: 78.4, screening length: 5.74355 Bohr) occupying 0.818560 of unit cell:	Completed after 0 iterations at t[s]:   1045.23
	FillingsUpdate:  mu: -0.244750400  nElectrons: 341.980564
	SubspaceRotationAdjust: set factor to 1.11
ElecMinimize: Iter:  32  G: -1992.420049648700342  |grad|_K:  1.486e-07  alpha:  4.352e-02  linmin:  7.990e-05  t[s]:   1057.03
	Linear fluid (dielectric constant: 78.4, screening length: 5.74355 Bohr) occupying 0.818560 of unit cell:	Completed after 0 iterations at t[s]:   1065.00
	Linear fluid (dielectric constant: 78.4, screening length: 5.74355 Bohr) occupying 0.818561 of unit cell:	Completed after 0 iterations at t[s]:   1073.93
	FillingsUpdate:  mu: -0.244750400  nElectrons: 341.979508
	SubspaceRotationAdjust: set factor to 1.28
ElecMinimize: Iter:  33  G: -1992.420049726966681  |grad|_K:  1.331e-07  alpha:  5.417e-02  linmin:  3.387e-08  t[s]:   1086.50
	Linear fluid (dielectric constant: 78.4, screening length: 5.74355 Bohr) occupying 0.818561 of unit cell:	Completed after 3 iterations at t[s]:   1095.49
	Linear fluid (dielectric constant: 78.4, screening length: 5.74355 Bohr) occupying 0.818561 of unit cell:	Completed after 0 iterations at t[s]:   1104.85
ElecMinimize: 	Step increased G by 5.726179e-09, reducing alpha to 1.342910e-03.
	Linear fluid (dielectric constant: 78.4, screening length: 5.74355 Bohr) occupying 0.818561 of unit cell:	Completed after 0 iterations at t[s]:   1123.82
	FillingsUpdate:  mu: -0.244750400  nElectrons: 341.979479
	SubspaceRotationAdjust: set factor to 0.798
ElecMinimize: Iter:  34  G: -1992.420049756402932  |grad|_K:  2.235e-07  alpha:  1.343e-03  linmin:  3.342e-04  t[s]:   1136.55
	Linear fluid (dielectric constant: 78.4, screening length: 5.74355 Bohr) occupying 0.818561 of unit cell:	Completed after 0 iterations at t[s]:   1145.07
	Linear fluid (dielectric constant: 78.4, screening length: 5.74355 Bohr) occupying 0.818561 of unit cell:	Completed after 0 iterations at t[s]:   1154.94
	FillingsUpdate:  mu: -0.244750400  nElectrons: 341.979441
	SubspaceRotationAdjust: set factor to 0.554
ElecMinimize: Iter:  35  G: -1992.420049757373590  |grad|_K:  1.862e-07  alpha:  2.453e-03  linmin: -1.457e-06  t[s]:   1167.83
	Linear fluid (dielectric constant: 78.4, screening length: 5.74355 Bohr) occupying 0.818561 of unit cell:	Completed after 0 iterations at t[s]:   1176.10
ElecMinimize: 	Predicted alpha/alphaT>3.000000, increasing alphaT to 7.357886e-03.
	Linear fluid (dielectric constant: 78.4, screening length: 5.74355 Bohr) occupying 0.818561 of unit cell:	Completed after 0 iterations at t[s]:   1185.16
ElecMinimize: 	Predicted alpha/alphaT>3.000000, increasing alphaT to 2.207366e-02.
	Linear fluid (dielectric constant: 78.4, screening length: 5.74355 Bohr) occupying 0.818561 of unit cell:	Completed after 0 iterations at t[s]:   1195.26
	Linear fluid (dielectric constant: 78.4, screening length: 5.74355 Bohr) occupying 0.818562 of unit cell:	Completed after 1 iterations at t[s]:   1205.10
	FillingsUpdate:  mu: -0.244750400  nElectrons: 341.980125
	SubspaceRotationAdjust: set factor to 0.889
ElecMinimize: Iter:  36  G: -1992.420049760917891  |grad|_K:  1.170e-07  alpha:  3.804e-02  linmin:  5.845e-05  t[s]:   1216.39
ElecMinimize: Converged (|Delta G|<1.000000e-08 for 2 iters).
Setting wave functions to eigenvectors of Hamiltonian

# Ionic positions in lattice coordinates:
ion Cu   0.084202415917150   0.907728609058582   0.486605903865121 0
ion Cu   0.334212069586201   0.592238295816326   0.513473336437162 0
ion Cu   0.415797577082850   0.092271419941417   0.513404103134879 0
ion Cu   0.165787920413798   0.407761743183674   0.486516655562834 0
ion Cu   0.584202415917150   0.907728609058582   0.486605903865121 0
ion Cu   0.834212069586201   0.592238295816326   0.513473336437162 0
ion Cu   0.915797577082850   0.092271419941417   0.513404103134879 0
ion Cu   0.665787920413798   0.407761743183674   0.486516655562834 0
ion Se   0.191544044633908   0.149524430710110   0.479157360663119 0
ion Se   0.441430829559375   0.350535938195718   0.520906718465678 0
ion Se   0.308445961366096   0.850475550289892   0.520842639336880 0
ion Se   0.058579166940626   0.649474056804282   0.479083217534320 0
ion Se   0.691544044633908   0.149524430710110   0.479157360663119 0
ion Se   0.941430829559375   0.350535938195718   0.520906718465678 0
ion Se   0.808445961366096   0.850475550289892   0.520842639336880 0
ion Se   0.558579166940626   0.649474056804282   0.479083217534320 0
ion O   0.483312027311609   0.589240761992253   0.554325683899759 0
ion O   0.233148752958809   0.910732779269435   0.445615063563185 0
ion O   0.016697979188393   0.410749243007748   0.445664309100241 0
ion O   0.266841253041192   0.089257235730566   0.554394916436817 0
ion O   0.181876111969415   0.566455429973000   0.483873799976836 0
ion O   0.431769015654459   0.933633636604683   0.515995885781611 0
ion O   0.318123888030585   0.433544570027000   0.516126200023164 0
ion O   0.068230981845542   0.066366358395313   0.484004114218389 0
ion O   0.140771138798264   0.262889860845528   0.527534587710162 0
ion O   0.390645214826859   0.237171260053674   0.472495099915371 0
ion O   0.359228861201736   0.737110139154472   0.472465356289840 0
ion O   0.109344746673143   0.762838714946331   0.527524915084626 0
ion O   0.983312027311609   0.589240761992253   0.554325683899759 0
ion O   0.733148752958809   0.910732779269435   0.445615063563185 0
ion O   0.516697979188393   0.410749243007748   0.445664309100241 0
ion O   0.766841253041192   0.089257235730566   0.554394916436817 0
ion O   0.681876111969415   0.566455429973000   0.483873799976836 0
ion O   0.931769015654459   0.933633636604683   0.515995885781611 0
ion O   0.818123888030585   0.433544570027000   0.516126200023164 0
ion O   0.568230981845542   0.066366358395313   0.484004114218389 0
ion O   0.640771138798264   0.262889860845528   0.527534587710162 0
ion O   0.890645214826859   0.237171260053674   0.472495099915371 0
ion O   0.859228861201736   0.737110139154472   0.472465356289840 0
ion O   0.609344746673143   0.762838714946331   0.527524915084626 0


# Forces in Lattice coordinates:
force Cu   0.002849701221092   0.064527737069769  -0.042088337511382 0
force Cu   0.008012868552559  -0.063017298617687   0.042059592298070 0
force Cu  -0.003449504629440  -0.064403088597134   0.042538033841117 0
force Cu  -0.007326296796379   0.062756410168042  -0.042037276053840 0
force Cu   0.002849701221092   0.064527737069769  -0.042088337511382 0
force Cu   0.008012868552559  -0.063017298617687   0.042059592298070 0
force Cu  -0.003449504629440  -0.064403088597134   0.042538033841117 0
force Cu  -0.007326296796379   0.062756410168042  -0.042037276053840 0
force Se   0.000271728454507   0.002964744383740  -0.193343037550569 0
force Se   0.004650164658198  -0.010359989845425   0.194326064062720 0
force Se   0.001244528131656  -0.003686551145032   0.195329201045654 0
force Se  -0.004886254824012   0.010732441578295  -0.191132813304279 0
force Se   0.000271728454507   0.002964744383740  -0.193343037550569 0
force Se   0.004650164658198  -0.010359989845425   0.194326064062720 0
force Se   0.001244528131656  -0.003686551145032   0.195329201045654 0
force Se  -0.004886254824012   0.010732441578295  -0.191132813304279 0
force O  -0.079598194081682   0.035764404431843  -0.136970277251137 0
force O  -0.075925606973511  -0.036116349459756   0.138662155174035 0
force O   0.079451726753823  -0.035238670561960   0.134799625769940 0
force O   0.075503813436203   0.036785563163613  -0.140443979616890 0
force O  -0.002767343788408  -0.021167099973390   0.065070409346845 0
force O  -0.003441816372550   0.013231239457770  -0.065193538979940 0
force O   0.002748926417498   0.021704641214564  -0.065489336234687 0
force O   0.003176847405444  -0.013607663886331   0.065229365158166 0
force O   0.005572446242006   0.057461373488868  -0.061751815058756 0
force O   0.008544150944125  -0.058552828594524   0.062569882683650 0
force O  -0.005739875730683  -0.057305577903062   0.061806236340090 0
force O  -0.008897296178022   0.057360212401316  -0.064236027418168 0
force O  -0.079598194081682   0.035764404431843  -0.136970277251137 0
force O  -0.075925606973511  -0.036116349459756   0.138662155174035 0
force O   0.079451726753823  -0.035238670561960   0.134799625769940 0
force O   0.075503813436203   0.036785563163613  -0.140443979616890 0
force O  -0.002767343788408  -0.021167099973390   0.065070409346845 0
force O  -0.003441816372550   0.013231239457770  -0.065193538979940 0
force O   0.002748926417498   0.021704641214564  -0.065489336234687 0
force O   0.003176847405444  -0.013607663886331   0.065229365158166 0
force O   0.005572446242006   0.057461373488868  -0.061751815058756 0
force O   0.008544150944125  -0.058552828594524   0.062569882683650 0
force O  -0.005739875730683  -0.057305577903062   0.061806236340090 0
force O  -0.008897296178022   0.057360212401316  -0.064236027418168 0

# Energy components:
   A_diel =       -0.1220624529336473
   Eewald =     5642.5734715034186593
       EH =     7410.8275198179881045
     Eloc =   -15602.7643808046177583
      Enl =      369.0518972177351316
      Exc =     -360.1810643702540915
 Exc_core =       99.7633809028906171
       KE =      364.7455082505183555
  MuShift =        0.0204861131195719
-------------------------------------
     Etot =    -2076.0852438221354532
       TS =        0.0345782402382853
-------------------------------------
        F =    -2076.1198220623737143
      muN =      -83.6997723014558659
-------------------------------------
        G =    -1992.4200497609178910

IonicMinimize: Iter:   0  G: -1992.420049760917891  |grad|_K:  0.000e+00  t[s]:   1225.73
IonicMinimize: Converged (|grad|_K<1.000000e-04).

#--- Lowdin population analysis ---
# oxidation-state Cu +0.426 +0.426 +0.426 +0.426 +0.426 +0.426 +0.426 +0.426
# oxidation-state Se +1.682 +1.682 +1.682 +1.682 +1.682 +1.682 +1.682 +1.682
# oxidation-state O -0.542 -0.542 -0.542 -0.542 -0.451 -0.451 -0.451 -0.451 -0.569 -0.569 -0.569 -0.568 -0.542 -0.542 -0.542 -0.542 -0.451 -0.451 -0.451 -0.451 -0.569 -0.569 -0.569 -0.568


Dumping 'NbTe2.fillings' ... done
Dumping 'NbTe2.wfns' ... done
Dumping 'NbTe2.fluidState' ... done
Dumping 'NbTe2.eigenvals' ... done
End date and time: Tue Jul 14 15:30:19 2020  (Duration: 0-0:20:29.53)
Done!
