
*************** JDFTx 1.5.0  ***************

Start date and time: Thu Apr 22 22:18:02 2021
Executable jdftx_gpu with command-line: -i Charged.in -o Charged.out
Running on hosts (process indices):  amax (0-6)
Divided in process groups (process indices):  0 (0)  1 (1)  2 (2)  3 (3)  4 (4)  5 (5)  6 (6)
gpuInit: Found compatible cuda device 0 'Tesla K80'
gpuInit: Found compatible cuda device 1 'Tesla K80'
gpuInit: Found compatible cuda device 2 'Tesla K80'
gpuInit: Found compatible cuda device 3 'Tesla K80'
gpuInit: Found compatible cuda device 4 'Tesla K80'
gpuInit: Found compatible cuda device 5 'Tesla K80'
gpuInit: Found compatible cuda device 6 'Tesla K80'
gpuInit: Selected device 0
Resource initialization completed at t[s]:      3.87
Run totals: 7 processes, 24 threads, 7 GPUs


Input parsed successfully to the following command list (including defaults):

basis kpoint-dependent
cache-projectors no
coords-type Lattice
core-overlap-check none
coulomb-interaction Slab 001
coulomb-truncation-embed 0.5 0.5 0.5
davidson-band-ratio 1.1
dump End State
dump-name NbTe2.$VAR
elec-cutoff 20
elec-eigen-algo Davidson
elec-ex-corr gga-PBE
elec-smearing Gauss 0.0073499
electronic-minimize  \
	dirUpdateScheme      FletcherReeves \
	linminMethod         DirUpdateRecommended \
	nIterations          200 \
	history              15 \
	knormThreshold       0 \
	energyDiffThreshold  1e-08 \
	nEnergyDiff          2 \
	alphaTstart          1 \
	alphaTmin            1e-10 \
	updateTestStepSize   yes \
	alphaTreduceFactor   0.1 \
	alphaTincreaseFactor 3 \
	nAlphaAdjustMax      3 \
	wolfeEnergy          0.0001 \
	wolfeGradient        0.9 \
	fdTest               no
exchange-regularization WignerSeitzTruncated
fluid LinearPCM 298.000000 1.013250
fluid-anion F- 1 MeanFieldLJ \
	epsBulk 1 \
	pMol 0 \
	epsInf 1 \
	Pvap 0 \
	sigmaBulk 0 \
	Rvdw 2.24877 \
	Res 0 \
	tauNuc 343133
fluid-cation Na+ 1 MeanFieldLJ \
	epsBulk 1 \
	pMol 0 \
	epsInf 1 \
	Pvap 0 \
	sigmaBulk 0 \
	Rvdw 2.19208 \
	Res 0 \
	tauNuc 343133
fluid-ex-corr lda-TF lda-PZ
fluid-gummel-loop 10 1.000000e-05
fluid-minimize  \
	dirUpdateScheme      PolakRibiere \
	linminMethod         DirUpdateRecommended \
	nIterations          400 \
	history              15 \
	knormThreshold       1e-11 \
	energyDiffThreshold  0 \
	nEnergyDiff          2 \
	alphaTstart          1 \
	alphaTmin            1e-10 \
	updateTestStepSize   yes \
	alphaTreduceFactor   0.1 \
	alphaTincreaseFactor 3 \
	nAlphaAdjustMax      6 \
	wolfeEnergy          0.0001 \
	wolfeGradient        0.9 \
	fdTest               no
fluid-solvent H2O 55.338 ScalarEOS \
	epsBulk 78.4 \
	pMol 0.92466 \
	epsInf 1.77 \
	Pvap 1.06736e-10 \
	sigmaBulk 4.62e-05 \
	Rvdw 2.61727 \
	Res 1.42 \
	tauNuc 343133 \
	poleEl 15 7 1
forces-output-coords Positions
initial-state NbTe2.$VAR
ion Cr  -0.000000000000000   0.125924682713965   0.566921689361069 1
ion Cr   0.125000000000000   0.125924005446850   0.433539991994632 1
ion Cr   0.250000000000000   0.125924682713965   0.566921689361069 1
ion Cr   0.375000000000000   0.125924005446850   0.433539991994632 1
ion Cr   0.500000000000000   0.125924682713965   0.566921689361069 1
ion Cr   0.625000000000000   0.125924005446850   0.433539991994632 1
ion Cr   0.750000000000000   0.125924682713965   0.566921689361069 1
ion Cr   0.875000000000000   0.125924005446850   0.433539991994632 1
ion Cr   0.000000000000000   0.375924682713965   0.566921689361069 1
ion Cr   0.125000000000000   0.375924005446850   0.433539991994632 1
ion Cr   0.250000000000000   0.375924682713965   0.566921689361069 1
ion Cr   0.375000000000000   0.375924005446850   0.433539991994632 1
ion Cr   0.500000000000000   0.375924682713965   0.566921689361069 1
ion Cr   0.625000000000000   0.375924005446850   0.433539991994632 1
ion Cr   0.750000000000000   0.375924682713965   0.566921689361069 1
ion Cr   0.875000000000000   0.375924005446850   0.433539991994632 1
ion Cr  -0.000000000000000   0.625924682713966   0.566921689361069 1
ion Cr   0.125000000000000   0.625924005446850   0.433539991994632 1
ion Cr   0.250000000000000   0.625924682713966   0.566921689361069 1
ion Cr   0.375000000000000   0.625924005446850   0.433539991994632 1
ion Cr   0.500000000000000   0.625924682713966   0.566921689361069 1
ion Cr   0.625000000000000   0.625924005446850   0.433539991994632 1
ion Cr   0.750000000000000   0.625924682713966   0.566921689361069 1
ion Cr   0.875000000000000   0.625924005446850   0.433539991994632 1
ion Cr   0.000000000000000   0.875924682713966   0.566921689361069 1
ion Cr   0.125000000000000   0.875924005446850   0.433539991994632 1
ion Cr   0.250000000000000   0.875924682713966   0.566921689361069 1
ion Cr   0.375000000000000   0.875924005446850   0.433539991994632 1
ion Cr   0.500000000000000   0.875924682713966   0.566921689361069 1
ion Cr   0.625000000000000   0.875924005446850   0.433539991994632 1
ion Cr   0.750000000000000   0.875924682713966   0.566921689361069 1
ion Cr   0.875000000000000   0.875924005446850   0.433539991994632 1
ion B  -0.000000000000000   0.000925669764899   0.478904511995150 1
ion B   0.125000000000000   0.000923495549978   0.521638227202347 1
ion B   0.250000000000000   0.000925669764899   0.478904511995150 1
ion B   0.375000000000000   0.000923495549978   0.521638227202347 1
ion B   0.500000000000000   0.000925669764899   0.478904511995150 1
ion B   0.625000000000000   0.000923495549978   0.521638227202347 1
ion B   0.750000000000000   0.000925669764899   0.478904511995150 1
ion B   0.875000000000000   0.000923495549978   0.521638227202347 1
ion B  -0.000000000000000   0.250925669764899   0.478904511995150 1
ion B   0.125000000000000   0.250923495549978   0.521638227202347 1
ion B   0.250000000000000   0.250925669764899   0.478904511995150 1
ion B   0.375000000000000   0.250923495549978   0.521638227202347 1
ion B   0.500000000000000   0.250925669764899   0.478904511995150 1
ion B   0.625000000000000   0.250923495549978   0.521638227202347 1
ion B   0.750000000000000   0.250925669764899   0.478904511995150 1
ion B   0.875000000000000   0.250923495549978   0.521638227202347 1
ion B   0.000000000000000   0.500925669764899   0.478904511995150 1
ion B   0.125000000000000   0.500923495549978   0.521638227202347 1
ion B   0.250000000000000   0.500925669764899   0.478904511995150 1
ion B   0.375000000000000   0.500923495549978   0.521638227202347 1
ion B   0.500000000000000   0.500925669764899   0.478904511995150 1
ion B   0.625000000000000   0.500923495549978   0.521638227202347 1
ion B   0.750000000000000   0.500925669764899   0.478904511995150 1
ion B   0.875000000000000   0.500923495549978   0.521638227202347 1
ion B   0.000000000000000   0.750925669764899   0.478904511995150 1
ion B   0.125000000000000   0.750923495549978   0.521638227202347 1
ion B   0.250000000000000   0.750925669764899   0.478904511995150 1
ion B   0.375000000000000   0.750923495549978   0.521638227202347 1
ion B   0.500000000000000   0.750925669764899   0.478904511995150 1
ion B   0.625000000000000   0.750923495549978   0.521638227202347 1
ion B   0.750000000000000   0.750925669764899   0.478904511995150 1
ion B   0.875000000000000   0.750923495549978   0.521638227202347 1
ion O   0.125000000000000   0.125920066654541   0.626931865232538 1
ion O   0.000000000000000   0.125922084869767   0.373573749214265 1
ion O   0.375000000000000   0.125920066654541   0.626931865232538 1
ion O   0.250000000000000   0.125922084869767   0.373573749214265 1
ion O   0.625000000000000   0.125920066654541   0.626931865232538 1
ion O   0.500000000000000   0.125922084869767   0.373573749214265 1
ion O   0.875000000000000   0.125920066654541   0.626931865232538 1
ion O   0.750000000000000   0.125922084869767   0.373573749214265 1
ion O   0.125000000000000   0.375920066654541   0.626931865232538 1
ion O   0.000000000000000   0.375922084869767   0.373573749214265 1
ion O   0.375000000000000   0.375920066654541   0.626931865232538 1
ion O   0.250000000000000   0.375922084869767   0.373573749214265 1
ion O   0.625000000000000   0.375920066654541   0.626931865232538 1
ion O   0.500000000000000   0.375922084869767   0.373573749214265 1
ion O   0.875000000000000   0.375920066654541   0.626931865232538 1
ion O   0.750000000000000   0.375922084869767   0.373573749214265 1
ion O   0.125000000000000   0.625920066654541   0.626931865232538 1
ion O  -0.000000000000000   0.625922084869767   0.373573749214265 1
ion O   0.375000000000000   0.625920066654541   0.626931865232538 1
ion O   0.250000000000000   0.625922084869767   0.373573749214265 1
ion O   0.625000000000000   0.625920066654541   0.626931865232538 1
ion O   0.500000000000000   0.625922084869767   0.373573749214265 1
ion O   0.875000000000000   0.625920066654541   0.626931865232538 1
ion O   0.750000000000000   0.625922084869767   0.373573749214265 1
ion O   0.125000000000000   0.875920066654541   0.626931865232538 1
ion O  -0.000000000000000   0.875922084869767   0.373573749214265 1
ion O   0.375000000000000   0.875920066654541   0.626931865232538 1
ion O   0.250000000000000   0.875922084869767   0.373573749214265 1
ion O   0.625000000000000   0.875920066654541   0.626931865232538 1
ion O   0.500000000000000   0.875922084869767   0.373573749214265 1
ion O   0.875000000000000   0.875920066654541   0.626931865232538 1
ion O   0.750000000000000   0.875922084869767   0.373573749214265 1
ion-species GBRV/$ID_pbe.uspp
ion-width Ecut
ionic-minimize  \
	dirUpdateScheme      L-BFGS \
	linminMethod         DirUpdateRecommended \
	nIterations          500 \
	history              15 \
	knormThreshold       0.0001 \
	energyDiffThreshold  1e-06 \
	nEnergyDiff          2 \
	alphaTstart          1 \
	alphaTmin            1e-10 \
	updateTestStepSize   yes \
	alphaTreduceFactor   0.1 \
	alphaTincreaseFactor 3 \
	nAlphaAdjustMax      3 \
	wolfeEnergy          0.0001 \
	wolfeGradient        0.9 \
	fdTest               no
kpoint   0.000000000000   0.000000000000   0.000000000000  1.00000000000000
kpoint-folding 3 3 1 
latt-move-scale 1 1 1
latt-scale 1.88973 1.88973 1.88973 
lattice Triclinic 10.9748 11.5423 19.8366 90 90 90
lattice-minimize  \
	dirUpdateScheme      L-BFGS \
	linminMethod         DirUpdateRecommended \
	nIterations          0 \
	history              15 \
	knormThreshold       0 \
	energyDiffThreshold  1e-06 \
	nEnergyDiff          2 \
	alphaTstart          1 \
	alphaTmin            1e-10 \
	updateTestStepSize   yes \
	alphaTreduceFactor   0.1 \
	alphaTincreaseFactor 3 \
	nAlphaAdjustMax      3 \
	wolfeEnergy          0.0001 \
	wolfeGradient        0.9 \
	fdTest               no
lcao-params -1 1e-06 0.0073499
pcm-variant CANDLE
spintype no-spin
subspace-rotation-factor 1 yes
symmetries automatic
symmetry-threshold 0.0001
target-mu -0.171252 no




---------- Setting up symmetries ----------

Found 8 point-group symmetries of the bravais lattice
Found 64 space-group symmetries with basis
Applied RMS atom displacement 3.98104e-05 bohrs to make symmetries exact.

---------- Initializing the Grid ----------
R = 
[    20.7394          0          0  ]
[          0    21.8118          0  ]
[          0          0    37.4857  ]
unit cell volume = 16957.1
G =
[   0.302959          0          0  ]
[          0   0.288064          0  ]
[          0          0   0.167615  ]
Minimum fftbox size, Smin = [  84  88  152  ]
Chosen fftbox size, S = [  84  90  160  ]

---------- Exchange Correlation functional ----------
Initalized PBE GGA exchange.
Initalized PBE GGA correlation.

---------- Setting up pseudopotentials ----------
Width of ionic core gaussian charges (only for fluid interactions / plotting) set to 0.397384

Reading pseudopotential file '/home/guoxy/vasp/jdftx-1.5.0/build/pseudopotentials/GBRV/cr_pbe.uspp':
  Title: Cr.  Created by USPP 7.3.6 on 15-6-15
  Reference state energy: -87.029289.  14 valence electrons in orbitals:
    |300>  occupation: 2  eigenvalue: -3.285614
    |310>  occupation: 6  eigenvalue: -2.226709
    |400>  occupation: 1.6  eigenvalue: -0.454946
    |320>  occupation: 3.4  eigenvalue: -0.614185
  lMax: 2  lLocal: 3  QijEcut: 6
  6 projectors sampled on a log grid with 595 points:
    l: 0  eig: -3.285615  rCut: 1.55
    l: 0  eig: -0.454949  rCut: 1.55
    l: 1  eig: -2.226708  rCut: 1.55
    l: 1  eig: 0.500000  rCut: 1.55
    l: 2  eig: -0.614184  rCut: 1.7
    l: 2  eig: 0.500000  rCut: 1.7
  Partial core density with radius 0.75
  Transforming core density to a uniform radial grid of dG=0.02 with 1134 points.
  Transforming local potential to a uniform radial grid of dG=0.02 with 1134 points.
  Transforming nonlocal projectors to a uniform radial grid of dG=0.02 with 432 points.
  Transforming density augmentations to a uniform radial grid of dG=0.02 with 1134 points.
  Transforming atomic orbitals to a uniform radial grid of dG=0.02 with 432 points.
  Core radius for overlap checks: 1.70 bohrs.

Reading pseudopotential file '/home/guoxy/vasp/jdftx-1.5.0/build/pseudopotentials/GBRV/b_pbe.uspp':
  Title: B.  Created by USPP 7.3.6 on 8-4-15
  Reference state energy: -2.950027.  3 valence electrons in orbitals:
    |200>  occupation: 2  eigenvalue: -0.346865
    |210>  occupation: 1  eigenvalue: -0.132618
  lMax: 1  lLocal: 2  QijEcut: 6
  4 projectors sampled on a log grid with 559 points:
    l: 0  eig: -0.346865  rCut: 1.25
    l: 0  eig: -0.500000  rCut: 1.25
    l: 1  eig: -0.346865  rCut: 1.25
    l: 1  eig: -1.000000  rCut: 1.25
  Partial core density with radius 0.9
  Transforming core density to a uniform radial grid of dG=0.02 with 1134 points.
  Transforming local potential to a uniform radial grid of dG=0.02 with 1134 points.
  Transforming nonlocal projectors to a uniform radial grid of dG=0.02 with 432 points.
  Transforming density augmentations to a uniform radial grid of dG=0.02 with 1134 points.
  Transforming atomic orbitals to a uniform radial grid of dG=0.02 with 432 points.
  Core radius for overlap checks: 1.25 bohrs.

Reading pseudopotential file '/home/guoxy/vasp/jdftx-1.5.0/build/pseudopotentials/GBRV/o_pbe.uspp':
  Title: O.  Created by USPP 7.3.6 on 3-2-2014
  Reference state energy: -15.894388.  6 valence electrons in orbitals:
    |200>  occupation: 2  eigenvalue: -0.878823
    |210>  occupation: 4  eigenvalue: -0.332131
  lMax: 2  lLocal: 2  QijEcut: 6
  5 projectors sampled on a log grid with 511 points:
    l: 0  eig: -0.878823  rCut: 1.25
    l: 0  eig: 0.000000  rCut: 1.25
    l: 1  eig: -0.332132  rCut: 1.25
    l: 1  eig: 0.000000  rCut: 1.25
    l: 2  eig: 1.000000  rCut: 1.25
  Partial core density with radius 0.7
  Transforming core density to a uniform radial grid of dG=0.02 with 1134 points.
  Transforming local potential to a uniform radial grid of dG=0.02 with 1134 points.
  Transforming nonlocal projectors to a uniform radial grid of dG=0.02 with 432 points.
  Transforming density augmentations to a uniform radial grid of dG=0.02 with 1134 points.
  Transforming atomic orbitals to a uniform radial grid of dG=0.02 with 432 points.
  Core radius for overlap checks: 1.25 bohrs.

Initialized 3 species with 96 total atoms.

Folded 1 k-points by 3x3x1 to 9 k-points.

---------- Setting up k-points, bands, fillings ----------
Reduced to 4 k-points under symmetry. 
Computing the number of bands and number of electrons
Calculating initial fillings.
nElectrons: 736.000000   nBands: 576   nStates: 4

----- Setting up reduced wavefunction bases (one per k-point) -----
average nbasis = 72434.778 , ideal nbasis = 72442.214

---------- Setting up coulomb interaction ----------
Fluid mode embedding: using embedded box, but periodic Coulomb kernel.
(Fluid response is responsible for (approximate) separation between periodic images.)
Setting up double-sized grid for truncated Coulomb potentials:
R = 
[    20.7394          0          0  ]
[          0    21.8118          0  ]
[          0          0    74.9715  ]
unit cell volume = 33914.3
G =
[   0.302959          0          0  ]
[          0   0.288064          0  ]
[          0          0  0.0838077  ]
Chosen fftbox size, S = [  84  90  320  ]
Integer grid location selected as the embedding center:
   Grid: [  42  45  80  ]
   Lattice: [  0.5  0.5  0.5  ]
   Cartesian: [  10.3697  10.9059  18.7429  ]
Constructing Wigner-Seitz cell: 6 faces (6 quadrilaterals, 0 hexagons)
Range-separation parameter for embedded mesh potentials due to point charges: 0.626857 bohrs.

Initializing van der Waals corrections
	NOTE: vdW corrections apply only for interactions with fluid.
	Cr:  C6:  187.33 Eh-a0^6  R0: 2.952 a0
	 B:  C6:   54.29 Eh-a0^6  R0: 2.806 a0
	 O:  C6:   12.14 Eh-a0^6  R0: 2.536 a0

---------- Setting up ewald sum ----------
Optimum gaussian width for ewald sums = 6.034747 bohr.
Real space sum over 405 unit cells with max indices [  4  4  2  ]
Reciprocal space sum over 9225 terms with max indices [  7  7  20  ]

---------- Allocating electronic variables ----------
Initializing wave functions:  linear combination of atomic orbitals
Cr pseudo-atom occupations:   s ( 2 0 )  p ( 6 )  d ( 6 )
B pseudo-atom occupations:   s ( 2 )  p ( 1 )
O pseudo-atom occupations:   s ( 2 )  p ( 4 )
	FillingsUpdate:  mu: -0.171251800  nElectrons: 736.000000
LCAOMinimize: Iter:   0  G: -3106.2229120912779763  |grad|_K:  1.336e-02  alpha:  1.000e+00
	FillingsUpdate:  mu: -0.171251800  nElectrons: 736.000000
LCAOMinimize: Iter:   1  G: -3204.1514844392800114  |grad|_K:  1.461e-02  alpha:  2.138e-01  linmin: -2.293e-01  cgtest:  4.063e-01  t[s]:    119.76
	FillingsUpdate:  mu: -0.171251800  nElectrons: 736.000000
LCAOMinimize: Iter:   2  G: -3228.7430548286488374  |grad|_K:  1.281e-02  alpha:  3.465e-02  linmin: -3.390e-01  cgtest:  7.930e-01  t[s]:    163.45
LCAOMinimize: 	Wrong curvature in test step, increasing alphaT to 1.039480e-01.
	FillingsUpdate:  mu: -0.171251800  nElectrons: 736.000000
LCAOMinimize: Iter:   3  G: -3238.5476158014075736  |grad|_K:  1.200e-02  alpha: -4.403e-01  linmin: -3.273e-01  cgtest:  8.653e-01  t[s]:    206.59
	FillingsUpdate:  mu: -0.171251800  nElectrons: 736.000000
LCAOMinimize: Iter:   4  G: -3256.3770479014096964  |grad|_K:  8.338e-03  alpha:  1.423e-01  linmin:  3.522e-01  cgtest: -3.828e-01  t[s]:    250.13
LCAOMinimize: 	Bad step direction: g.d > 0.
LCAOMinimize: 	Undoing step.
LCAOMinimize: 	Step failed: resetting search direction.
	FillingsUpdate:  mu: -0.171251800  nElectrons: 736.000000
LCAOMinimize: Iter:   5  G: -3256.3770479014096964  |grad|_K:  8.338e-03  alpha:  0.000e+00
	FillingsUpdate:  mu: -0.171251800  nElectrons: 736.000000
LCAOMinimize: Iter:   6  G: -3259.2997688337295585  |grad|_K:  1.254e-03  alpha:  7.859e-02  linmin:  1.967e-01  cgtest: -6.512e-01  t[s]:    325.03
	FillingsUpdate:  mu: -0.171251800  nElectrons: 736.000000
LCAOMinimize: Iter:   7  G: -3259.3298101524974300  |grad|_K:  1.293e-03  alpha:  4.741e-02  linmin: -1.191e-02  cgtest:  4.256e-01  t[s]:    369.16
	FillingsUpdate:  mu: -0.171251800  nElectrons: 736.000000
LCAOMinimize: Iter:   8  G: -3259.4050484049230363  |grad|_K:  8.058e-04  alpha:  6.413e-02  linmin: -3.367e-02  cgtest: -2.000e-01  t[s]:    412.75
	FillingsUpdate:  mu: -0.171251800  nElectrons: 736.000000
LCAOMinimize: Iter:   9  G: -3259.4200513559344472  |grad|_K:  2.821e-04  alpha:  3.277e-02  linmin: -6.449e-02  cgtest: -1.566e-01  t[s]:    457.12
	FillingsUpdate:  mu: -0.171251800  nElectrons: 736.000000
LCAOMinimize: Iter:  10  G: -3259.4225229895032498  |grad|_K:  2.328e-04  alpha:  3.657e-02  linmin: -2.173e-01  cgtest:  9.237e-01  t[s]:    500.62
LCAOMinimize: Encountered beta<0, resetting CG.
	FillingsUpdate:  mu: -0.171251800  nElectrons: 736.000000
LCAOMinimize: Iter:  11  G: -3259.4244384698049544  |grad|_K:  2.110e-04  alpha:  4.570e-02  linmin: -2.561e-01  cgtest:  8.893e-01  t[s]:    544.19
	FillingsUpdate:  mu: -0.171251800  nElectrons: 736.000000
LCAOMinimize: Iter:  12  G: -3259.4257929117065942  |grad|_K:  2.046e-04  alpha:  4.532e-02  linmin: -2.009e-01  cgtest:  7.757e-01  t[s]:    587.51
	FillingsUpdate:  mu: -0.171251800  nElectrons: 736.000000
LCAOMinimize: Iter:  13  G: -3259.4269666078371301  |grad|_K:  1.897e-04  alpha:  4.016e-02  linmin: -1.944e-01  cgtest:  6.896e-01  t[s]:    631.06
	FillingsUpdate:  mu: -0.171251800  nElectrons: 736.000000
LCAOMinimize: Iter:  14  G: -3259.4278999483340158  |grad|_K:  1.686e-04  alpha:  3.569e-02  linmin: -2.371e-01  cgtest:  8.001e-01  t[s]:    674.70
	FillingsUpdate:  mu: -0.171251800  nElectrons: 736.000000
LCAOMinimize: Iter:  15  G: -3259.4284743987145703  |grad|_K:  1.575e-04  alpha:  3.146e-02  linmin: -2.602e-01  cgtest:  9.289e-01  t[s]:    718.25
	FillingsUpdate:  mu: -0.171251800  nElectrons: 736.000000
LCAOMinimize: Iter:  16  G: -3259.4288630315140836  |grad|_K:  1.507e-04  alpha:  2.730e-02  linmin: -2.713e-01  cgtest:  9.783e-01  t[s]:    761.66
LCAOMinimize: Encountered beta<0, resetting CG.
	FillingsUpdate:  mu: -0.171251800  nElectrons: 736.000000
LCAOMinimize: Iter:  17  G: -3259.4291549292966010  |grad|_K:  1.457e-04  alpha:  2.323e-02  linmin: -2.766e-01  cgtest:  9.955e-01  t[s]:    805.49
LCAOMinimize: Encountered beta<0, resetting CG.
	FillingsUpdate:  mu: -0.171251800  nElectrons: 736.000000
LCAOMinimize: Iter:  18  G: -3259.4293748193481406  |grad|_K:  1.419e-04  alpha:  1.935e-02  linmin: -2.780e-01  cgtest:  9.994e-01  t[s]:    848.87
LCAOMinimize: Encountered beta<0, resetting CG.
	FillingsUpdate:  mu: -0.171251800  nElectrons: 736.000000
LCAOMinimize: Iter:  19  G: -3259.4295404805361613  |grad|_K:  1.389e-04  alpha:  1.581e-02  linmin: -2.786e-01  cgtest:  9.997e-01  t[s]:    892.47
LCAOMinimize: Encountered beta<0, resetting CG.
	FillingsUpdate:  mu: -0.171251800  nElectrons: 736.000000
LCAOMinimize: Iter:  20  G: -3259.4296652578423164  |grad|_K:  1.366e-04  alpha:  1.274e-02  linmin: -2.790e-01  cgtest:  9.998e-01  t[s]:    936.78
LCAOMinimize: Encountered beta<0, resetting CG.
	FillingsUpdate:  mu: -0.171251800  nElectrons: 736.000000
LCAOMinimize: Iter:  21  G: -3259.4297593159126336  |grad|_K:  1.348e-04  alpha:  1.014e-02  linmin: -2.793e-01  cgtest:  9.998e-01  t[s]:    980.17
LCAOMinimize: Encountered beta<0, resetting CG.
	FillingsUpdate:  mu: -0.171251800  nElectrons: 736.000000
LCAOMinimize: Iter:  22  G: -3259.4298303250056961  |grad|_K:  1.334e-04  alpha:  7.992e-03  linmin: -2.795e-01  cgtest:  9.999e-01  t[s]:   1023.75
LCAOMinimize: Encountered beta<0, resetting CG.
	FillingsUpdate:  mu: -0.171251800  nElectrons: 736.000000
LCAOMinimize: Iter:  23  G: -3259.4298840279807337  |grad|_K:  1.323e-04  alpha:  6.256e-03  linmin: -2.797e-01  cgtest:  9.999e-01  t[s]:   1067.11
LCAOMinimize: Encountered beta<0, resetting CG.
	FillingsUpdate:  mu: -0.171251800  nElectrons: 736.000000
LCAOMinimize: Iter:  24  G: -3259.4299247134476900  |grad|_K:  1.314e-04  alpha:  4.870e-03  linmin: -2.799e-01  cgtest:  9.999e-01  t[s]:   1110.52
LCAOMinimize: Encountered beta<0, resetting CG.
	FillingsUpdate:  mu: -0.171251800  nElectrons: 736.000000
LCAOMinimize: Iter:  25  G: -3259.4299555856914594  |grad|_K:  1.308e-04  alpha:  3.774e-03  linmin: -2.800e-01  cgtest:  9.999e-01  t[s]:   1154.62
LCAOMinimize: Encountered beta<0, resetting CG.
	FillingsUpdate:  mu: -0.171251800  nElectrons: 736.000000
LCAOMinimize: Iter:  26  G: -3259.4299790436721196  |grad|_K:  1.303e-04  alpha:  2.916e-03  linmin: -2.801e-01  cgtest:  1.000e+00  t[s]:   1198.12
LCAOMinimize: Encountered beta<0, resetting CG.
	FillingsUpdate:  mu: -0.171251800  nElectrons: 736.000000
LCAOMinimize: Iter:  27  G: -3259.4299968885225098  |grad|_K:  1.299e-04  alpha:  2.246e-03  linmin: -2.802e-01  cgtest:  1.000e+00  t[s]:   1241.92
LCAOMinimize: Encountered beta<0, resetting CG.
	FillingsUpdate:  mu: -0.171251800  nElectrons: 736.000000
LCAOMinimize: Iter:  28  G: -3259.4300104756607652  |grad|_K:  1.296e-04  alpha:  1.727e-03  linmin: -2.802e-01  cgtest:  1.000e+00  t[s]:   1285.70
LCAOMinimize: Encountered beta<0, resetting CG.
	FillingsUpdate:  mu: -0.171251800  nElectrons: 736.000000
LCAOMinimize: Iter:  29  G: -3259.4300208286322231  |grad|_K:  1.294e-04  alpha:  1.326e-03  linmin: -2.803e-01  cgtest:  1.000e+00  t[s]:   1329.46
LCAOMinimize: Encountered beta<0, resetting CG.
	FillingsUpdate:  mu: -0.171251800  nElectrons: 736.000000
LCAOMinimize: Iter:  30  G: -3259.4300287219880374  |grad|_K:  1.292e-04  alpha:  1.017e-03  linmin: -2.803e-01  cgtest:  1.000e+00  t[s]:   1372.87
LCAOMinimize: Encountered beta<0, resetting CG.
LCAOMinimize: None of the convergence criteria satisfied after 30 iterations.
----- createFluidSolver() ----- (Fluid-side solver setup)
   Initializing fluid molecule 'H2O'
     Initializing site 'O'
       Electron density: proportional to exp(-r/0.36935)*erfc((r-0.51523)/0.36823) with norm 6.826
       Charge density: gaussian nuclear width 0.478731 with net site charge 0.826
       Polarizability: cuspless exponential with width 0.32 and norm 3.73
       Hard sphere radius: 2.57003 bohrs
       Positions in reference frame:
         [ +0.000000 +0.000000 +0.000000 ]
     Initializing site 'H'
       Electron density: proportional to exp(-r/0.34641)*erfc((r-0)/0.390882) with norm 0.587
       Charge density: gaussian nuclear width 0.377945 with net site charge -0.413
       Polarizability: cuspless exponential with width 0.39 and norm 3.3
       Positions in reference frame:
         [ +0.000000 -1.441945 +1.122523 ]
         [ +0.000000 +1.441945 +1.122523 ]
     Net charge: 0   dipole magnitude: 0.927204
     Initializing spherical shell mfKernel with radius 2.61727 Bohr
     deltaS corrections:
       site 'O': -7.54299
       site 'H': -6.83917
   Initializing fluid molecule 'Na+'
     Initializing site 'Na'
       Electron density: proportional to exp(-r/0.19682)*erfc((r-0.71491)/0.41314) with norm 8.1383
       Charge density: gaussian nuclear width 0.365347 with net site charge -1
       Hard sphere radius: 1.86327 bohrs
       Positions in reference frame:
         [ +0.000000 +0.000000 +0.000000 ]
     Net charge: -1   dipole magnitude: 0
     Initializing gaussian mfKernel with width: 1.55004 Bohr
     deltaS corrections:
       site 'Na': -22.3555
   Initializing fluid molecule 'F-'
     Initializing site 'F'
       Electron density: proportional to exp(-r/0.38886)*erfc((r-0)/0.438782) with norm 8
       Charge density: gaussian nuclear width 0.374796 with net site charge 1
       Hard sphere radius: 2.39995 bohrs
       Positions in reference frame:
         [ +0.000000 +0.000000 +0.000000 ]
     Net charge: 1   dipole magnitude: 0
     Initializing gaussian mfKernel with width: 1.59012 Bohr
     deltaS corrections:
       site 'F': -9.04335

Correction to mu due to finite nuclear width = -0.0215325
   Cavity determined by nc: 0.00142 and sigma: 0.707107
   Nonlocal vdW cavity from gaussian model electron density with norm = 8 and sigma = 0.993594 bohr
   Charge asymmetry in cavity with sensitivity pCavity = 36.5 e-bohr/Eh
   Electrostatic cavity expanded by eta = 1.46 bohrs
   Weighted density cavitation model constrained by Nbulk: 0.0049383 bohr^-3, Pvap: 3.14029 kPa, Rvdw: 2.61727 bohr and sigmaBulk: 4.62e-05 Eh/bohr^2 at T: 298 K.
   Weighted density dispersion model using vdW pair potentials with single solvent site with sqrtC6eff: 0.77 SI.


---- Citations for features of the code used in this run ----

   Software package:
      R. Sundararaman, K. Letchworth-Weaver, K.A. Schwarz, D. Gunceler, Y. Ozhabes and T.A. Arias, 'JDFTx: software for joint density-functional theory', SoftwareX 6, 278 (2017)

   gga-PBE exchange-correlation functional:
      J.P. Perdew, K. Burke and M. Ernzerhof, Phys. Rev. Lett. 77, 3865 (1996)

   Pseudopotentials:
      KF Garrity, JW Bennett, KM Rabe and D Vanderbilt, Comput. Mater. Sci. 81, 446 (2014)

   Truncated Coulomb potentials:
      R. Sundararaman and T.A. Arias, Phys. Rev. B 87, 165122 (2013)

   Van der Waals correction pair-potentials:
      S. Grimme, J. Comput. Chem. 27, 1787 (2006)

   Charge-asymmetric nonlocally-determined local-electric (CANDLE) solvation model:
      R. Sundararaman and W.A. Goddard III, J. Chem. Phys. 142, 064107 (2015)

   Total energy minimization with Auxiliary Hamiltonian:
      C. Freysoldt, S. Boeck, and J. Neugebauer, Phys. Rev. B 79, 241103(R) (2009)

   Grand-canonical (fixed-potential) DFT:
      R. Sundararaman, W. A. Goddard III and T. A. Arias, J. Chem. Phys. 146, 114104 (2017)

This list may not be complete. Please suggest additional citations or
report any other bugs at https://github.com/shankar1729/jdftx/issues

Initialization completed successfully at t[s]:   1382.85

Fluid solver invoked on fresh (partially random / LCAO) wavefunctions
Running a vacuum solve first:

-------- Initial electronic minimization -----------
	FillingsUpdate:  mu: -0.125410413  nElectrons: 736.000000
ElecMinimize: Iter:   0  G: -3259.552175341054863  |grad|_K:  1.994e-04  alpha:  1.000e+00
	FillingsUpdate:  mu: -0.158172164  nElectrons: 736.000000
	SubspaceRotationAdjust: set factor to 1.01
ElecMinimize: Iter:   1  G: -3261.768840544864361  |grad|_K:  1.483e-04  alpha:  3.354e-01  linmin:  2.271e-05  t[s]:   1492.84
	FillingsUpdate:  mu: -0.074983160  nElectrons: 736.000000
	SubspaceRotationAdjust: set factor to 0.66
ElecMinimize: Iter:   2  G: -3262.702222467667070  |grad|_K:  1.208e-04  alpha:  2.543e-01  linmin:  6.269e-06  t[s]:   1561.08
	FillingsUpdate:  mu: -0.157975965  nElectrons: 736.000000
	SubspaceRotationAdjust: set factor to 0.409
ElecMinimize: Iter:   3  G: -3263.022844080467621  |grad|_K:  6.083e-05  alpha:  1.408e-01  linmin:  7.793e-05  t[s]:   1628.92
ElecMinimize: 	Predicted alpha/alphaT>3.000000, increasing alphaT to 4.225094e-01.
	FillingsUpdate:  mu: -0.141760878  nElectrons: 736.000000
	SubspaceRotationAdjust: set factor to 0.366
ElecMinimize: Iter:   4  G: -3263.277496475639964  |grad|_K:  4.157e-05  alpha:  4.205e-01  linmin:  3.410e-05  t[s]:   1715.27
	FillingsUpdate:  mu: -0.137218180  nElectrons: 736.000000
	SubspaceRotationAdjust: set factor to 0.253
ElecMinimize: Iter:   5  G: -3263.301759376145583  |grad|_K:  3.619e-05  alpha:  8.422e-02  linmin: -2.067e-05  t[s]:   1783.32
	FillingsUpdate:  mu: -0.124423936  nElectrons: 736.000000
	SubspaceRotationAdjust: set factor to 0.336
ElecMinimize: Iter:   6  G: -3263.355861614479181  |grad|_K:  2.288e-05  alpha:  2.464e-01  linmin:  3.565e-05  t[s]:   1851.19
	FillingsUpdate:  mu: -0.132000853  nElectrons: 736.000000
	SubspaceRotationAdjust: set factor to 0.228
ElecMinimize: Iter:   7  G: -3263.379266502211976  |grad|_K:  2.510e-05  alpha:  2.703e-01  linmin:  1.302e-05  t[s]:   1918.96
	FillingsUpdate:  mu: -0.134583237  nElectrons: 736.000000
	SubspaceRotationAdjust: set factor to 0.15
ElecMinimize: Iter:   8  G: -3263.388273190437303  |grad|_K:  1.396e-05  alpha:  8.491e-02  linmin: -2.591e-05  t[s]:   1986.89
ElecMinimize: 	Predicted alpha/alphaT>3.000000, increasing alphaT to 2.547404e-01.
	FillingsUpdate:  mu: -0.137866142  nElectrons: 736.000000
	SubspaceRotationAdjust: set factor to 0.171
ElecMinimize: Iter:   9  G: -3263.396929853275196  |grad|_K:  1.089e-05  alpha:  2.637e-01  linmin:  2.106e-06  t[s]:   2073.21
	FillingsUpdate:  mu: -0.138116250  nElectrons: 736.000000
	SubspaceRotationAdjust: set factor to 0.136
ElecMinimize: Iter:  10  G: -3263.400931005073744  |grad|_K:  9.403e-06  alpha:  2.011e-01  linmin:  1.850e-06  t[s]:   2141.20
	FillingsUpdate:  mu: -0.136910073  nElectrons: 736.000000
	SubspaceRotationAdjust: set factor to 0.193
ElecMinimize: Iter:  11  G: -3263.405019301837001  |grad|_K:  6.537e-06  alpha:  2.763e-01  linmin:  7.351e-06  t[s]:   2209.88
	FillingsUpdate:  mu: -0.135650335  nElectrons: 736.000000
	SubspaceRotationAdjust: set factor to 0.173
ElecMinimize: Iter:  12  G: -3263.406808601445391  |grad|_K:  5.885e-06  alpha:  2.504e-01  linmin:  1.500e-06  t[s]:   2277.97
	FillingsUpdate:  mu: -0.134753270  nElectrons: 736.000000
	SubspaceRotationAdjust: set factor to 0.141
ElecMinimize: Iter:  13  G: -3263.408002397682594  |grad|_K:  4.720e-06  alpha:  2.057e-01  linmin:  1.947e-07  t[s]:   2345.69
	FillingsUpdate:  mu: -0.134960249  nElectrons: 736.000000
	SubspaceRotationAdjust: set factor to 0.189
ElecMinimize: Iter:  14  G: -3263.409172542068973  |grad|_K:  3.347e-06  alpha:  3.134e-01  linmin: -1.383e-06  t[s]:   2413.42
	FillingsUpdate:  mu: -0.135793016  nElectrons: 736.000000
	SubspaceRotationAdjust: set factor to 0.172
ElecMinimize: Iter:  15  G: -3263.409789025351529  |grad|_K:  3.609e-06  alpha:  3.282e-01  linmin:  7.169e-07  t[s]:   2481.50
	FillingsUpdate:  mu: -0.136117779  nElectrons: 736.000000
	SubspaceRotationAdjust: set factor to 0.128
	SubspaceRotationAdjust: resetting CG because factor has changed by 0.127982
ElecMinimize: 	State modified externally: resetting search direction.
ElecMinimize: Iter:  16  G: -3263.410220618221501  |grad|_K:  2.495e-06  alpha:  1.977e-01
	FillingsUpdate:  mu: -0.135623163  nElectrons: 736.000000
	SubspaceRotationAdjust: set factor to 0.165
ElecMinimize: Iter:  17  G: -3263.410498398878644  |grad|_K:  1.752e-06  alpha:  2.662e-01  linmin:  3.599e-07  t[s]:   2653.94
	FillingsUpdate:  mu: -0.135402678  nElectrons: 736.000000
	SubspaceRotationAdjust: set factor to 0.152
ElecMinimize: Iter:  18  G: -3263.410658742188389  |grad|_K:  1.285e-06  alpha:  3.118e-01  linmin:  2.819e-08  t[s]:   2722.44
	FillingsUpdate:  mu: -0.135558916  nElectrons: 736.000000
	SubspaceRotationAdjust: set factor to 0.15
ElecMinimize: Iter:  19  G: -3263.410756915808633  |grad|_K:  1.185e-06  alpha:  3.551e-01  linmin:  1.143e-07  t[s]:   2791.12
	FillingsUpdate:  mu: -0.135627236  nElectrons: 736.000000
	SubspaceRotationAdjust: set factor to 0.133
ElecMinimize: Iter:  20  G: -3263.410842162099470  |grad|_K:  1.102e-06  alpha:  3.622e-01  linmin:  3.353e-08  t[s]:   2858.84
	FillingsUpdate:  mu: -0.135662791  nElectrons: 736.000000
	SubspaceRotationAdjust: set factor to 0.112
ElecMinimize: Iter:  21  G: -3263.410918819645303  |grad|_K:  9.375e-07  alpha:  3.765e-01  linmin:  9.631e-08  t[s]:   2926.26
	FillingsUpdate:  mu: -0.135817689  nElectrons: 736.000000
	SubspaceRotationAdjust: set factor to 0.106
ElecMinimize: Iter:  22  G: -3263.410977542490400  |grad|_K:  7.439e-07  alpha:  3.988e-01  linmin:  7.446e-07  t[s]:   2994.08
	FillingsUpdate:  mu: -0.135676013  nElectrons: 736.000000
	SubspaceRotationAdjust: set factor to 0.105
ElecMinimize: Iter:  23  G: -3263.411020249301600  |grad|_K:  7.426e-07  alpha:  4.616e-01  linmin:  5.271e-07  t[s]:   3062.88
	FillingsUpdate:  mu: -0.135493374  nElectrons: 736.000000
	SubspaceRotationAdjust: set factor to 0.109
ElecMinimize: Iter:  24  G: -3263.411052869646937  |grad|_K:  4.775e-07  alpha:  3.534e-01  linmin:  2.079e-07  t[s]:   3130.07
	FillingsUpdate:  mu: -0.135644139  nElectrons: 736.000000
	SubspaceRotationAdjust: set factor to 0.116
ElecMinimize: Iter:  25  G: -3263.411068640971735  |grad|_K:  3.895e-07  alpha:  4.131e-01  linmin:  4.424e-07  t[s]:   3197.54
	FillingsUpdate:  mu: -0.135752399  nElectrons: 736.000000
	SubspaceRotationAdjust: set factor to 0.131
ElecMinimize: Iter:  26  G: -3263.411078205750528  |grad|_K:  2.724e-07  alpha:  3.766e-01  linmin:  2.265e-07  t[s]:   3266.52
	FillingsUpdate:  mu: -0.135716874  nElectrons: 736.000000
	SubspaceRotationAdjust: set factor to 0.117
ElecMinimize: Iter:  27  G: -3263.411082143794374  |grad|_K:  2.044e-07  alpha:  3.170e-01  linmin:  6.266e-08  t[s]:   3334.41
	FillingsUpdate:  mu: -0.135683912  nElectrons: 736.000000
	SubspaceRotationAdjust: set factor to 0.0855
ElecMinimize: Iter:  28  G: -3263.411084366733576  |grad|_K:  1.505e-07  alpha:  3.177e-01  linmin:  5.603e-08  t[s]:   3401.65
	FillingsUpdate:  mu: -0.135673322  nElectrons: 736.000000
	SubspaceRotationAdjust: set factor to 0.0852
ElecMinimize: Iter:  29  G: -3263.411085748304231  |grad|_K:  1.057e-07  alpha:  3.641e-01  linmin:  3.567e-08  t[s]:   3469.62
	FillingsUpdate:  mu: -0.135656246  nElectrons: 736.000000
	SubspaceRotationAdjust: set factor to 0.0961
ElecMinimize: Iter:  30  G: -3263.411086350690766  |grad|_K:  7.520e-08  alpha:  3.219e-01  linmin:  2.770e-08  t[s]:   3537.66
	FillingsUpdate:  mu: -0.135658833  nElectrons: 736.000000
	SubspaceRotationAdjust: set factor to 0.108
ElecMinimize: Iter:  31  G: -3263.411086674143917  |grad|_K:  5.222e-08  alpha:  3.414e-01  linmin: -4.787e-08  t[s]:   3605.32
	FillingsUpdate:  mu: -0.135673931  nElectrons: 736.000000
	SubspaceRotationAdjust: set factor to 0.128
ElecMinimize: Iter:  32  G: -3263.411086847609567  |grad|_K:  4.321e-08  alpha:  3.794e-01  linmin:  5.503e-08  t[s]:   3673.78
	FillingsUpdate:  mu: -0.135675684  nElectrons: 736.000000
	SubspaceRotationAdjust: set factor to 0.149
ElecMinimize: Iter:  33  G: -3263.411086983081532  |grad|_K:  3.841e-08  alpha:  4.329e-01  linmin: -8.943e-08  t[s]:   3741.91
	FillingsUpdate:  mu: -0.135677225  nElectrons: 736.000000
	SubspaceRotationAdjust: set factor to 0.16
ElecMinimize: Iter:  34  G: -3263.411087089205921  |grad|_K:  3.730e-08  alpha:  4.286e-01  linmin: -2.829e-08  t[s]:   3810.47
	FillingsUpdate:  mu: -0.135683469  nElectrons: 736.000000
	SubspaceRotationAdjust: set factor to 0.162
ElecMinimize: Iter:  35  G: -3263.411087171260533  |grad|_K:  2.795e-08  alpha:  3.512e-01  linmin:  4.113e-09  t[s]:   3878.86
	FillingsUpdate:  mu: -0.135680505  nElectrons: 736.000000
	SubspaceRotationAdjust: set factor to 0.15
ElecMinimize: Iter:  36  G: -3263.411087220780246  |grad|_K:  2.695e-08  alpha:  3.792e-01  linmin: -4.060e-08  t[s]:   3946.74
	FillingsUpdate:  mu: -0.135675931  nElectrons: 736.000000
	SubspaceRotationAdjust: set factor to 0.126
ElecMinimize: Iter:  37  G: -3263.411087250108267  |grad|_K:  1.967e-08  alpha:  2.403e-01  linmin:  1.702e-08  t[s]:   4014.55
	FillingsUpdate:  mu: -0.135673552  nElectrons: 736.000000
	SubspaceRotationAdjust: set factor to 0.121
ElecMinimize: Iter:  38  G: -3263.411087276832404  |grad|_K:  1.872e-08  alpha:  4.117e-01  linmin: -2.386e-09  t[s]:   4082.07
	FillingsUpdate:  mu: -0.135674401  nElectrons: 736.000000
	SubspaceRotationAdjust: set factor to 0.138
ElecMinimize: Iter:  39  G: -3263.411087294365643  |grad|_K:  1.240e-08  alpha:  2.992e-01  linmin: -5.785e-09  t[s]:   4149.69
	FillingsUpdate:  mu: -0.135674836  nElectrons: 736.000000
	SubspaceRotationAdjust: set factor to 0.142
ElecMinimize: Iter:  40  G: -3263.411087305050842  |grad|_K:  1.117e-08  alpha:  4.156e-01  linmin:  5.789e-08  t[s]:   4216.59
	FillingsUpdate:  mu: -0.135674762  nElectrons: 736.000000
	SubspaceRotationAdjust: set factor to 0.111
ElecMinimize: Iter:  41  G: -3263.411087310299990  |grad|_K:  7.610e-09  alpha:  2.489e-01  linmin: -6.288e-08  t[s]:   4284.85
	FillingsUpdate:  mu: -0.135674835  nElectrons: 736.000000
	SubspaceRotationAdjust: set factor to 0.106
ElecMinimize: Iter:  42  G: -3263.411087313125336  |grad|_K:  5.581e-09  alpha:  2.842e-01  linmin: -8.140e-07  t[s]:   4352.76
ElecMinimize: Converged (|Delta G|<1.000000e-08 for 2 iters).
Setting wave functions to eigenvectors of Hamiltonian
Vacuum energy after initial minimize, F = -3263.411087313125336

Shifting auxilliary hamiltonian by -0.035577 to set nElectrons=736.000000
	Linear fluid (dielectric constant: 78.4, screening length: 5.74355 Bohr) occupying 0.750325 of unit cell:	Completed after 19 iterations at t[s]:   4369.58

-------- Electronic minimization -----------
	Linear fluid (dielectric constant: 78.4, screening length: 5.74355 Bohr) occupying 0.750325 of unit cell:	Completed after 0 iterations at t[s]:   4385.17
	FillingsUpdate:  mu: -0.171251800  nElectrons: 736.000000
ElecMinimize: Iter:   0  G: -3263.405441495938703  |grad|_K:  6.119e-05  alpha:  1.000e+00
	Linear fluid (dielectric constant: 78.4, screening length: 5.74355 Bohr) occupying 0.792687 of unit cell:	Completed after 18 iterations at t[s]:   4443.19
	Linear fluid (dielectric constant: 78.4, screening length: 5.74355 Bohr) occupying 0.764827 of unit cell:	Completed after 25 iterations at t[s]:   4470.47
	FillingsUpdate:  mu: -0.171251800  nElectrons: 737.979251
	SubspaceRotationAdjust: set factor to 0.0597
ElecMinimize: Iter:   1  G: -3263.471057593185833  |grad|_K:  2.632e-05  alpha:  1.309e-01  linmin:  8.481e-03  t[s]:   4502.58
	Linear fluid (dielectric constant: 78.4, screening length: 5.74355 Bohr) occupying 0.766007 of unit cell:	Completed after 15 iterations at t[s]:   4527.97
ElecMinimize: 	Predicted alpha/alphaT>3.000000, increasing alphaT to 3.926551e-01.
	Linear fluid (dielectric constant: 78.4, screening length: 5.74355 Bohr) occupying 0.768264 of unit cell:	Completed after 16 iterations at t[s]:   4554.11
	Linear fluid (dielectric constant: 78.4, screening length: 5.74355 Bohr) occupying 0.768691 of unit cell:	Completed after 12 iterations at t[s]:   4579.05
	FillingsUpdate:  mu: -0.171251800  nElectrons: 738.341623
	SubspaceRotationAdjust: set factor to 0.0539
ElecMinimize: Iter:   2  G: -3263.515922090214190  |grad|_K:  2.267e-05  alpha:  4.444e-01  linmin: -2.986e-06  t[s]:   4608.92
	Linear fluid (dielectric constant: 78.4, screening length: 5.74355 Bohr) occupying 0.779371 of unit cell:	Completed after 20 iterations at t[s]:   4636.46
	Linear fluid (dielectric constant: 78.4, screening length: 5.74355 Bohr) occupying 0.778988 of unit cell:	Completed after 12 iterations at t[s]:   4661.47
	FillingsUpdate:  mu: -0.171251800  nElectrons: 739.489599
	SubspaceRotationAdjust: set factor to 0.0509
ElecMinimize: Iter:   3  G: -3263.552483546072835  |grad|_K:  1.433e-05  alpha:  4.238e-01  linmin:  4.652e-04  t[s]:   4691.86
	Linear fluid (dielectric constant: 78.4, screening length: 5.74355 Bohr) occupying 0.780383 of unit cell:	Completed after 16 iterations at t[s]:   4717.27
	Linear fluid (dielectric constant: 78.4, screening length: 5.74355 Bohr) occupying 0.780466 of unit cell:	Completed after 9 iterations at t[s]:   4741.80
	FillingsUpdate:  mu: -0.171251800  nElectrons: 739.763524
	SubspaceRotationAdjust: set factor to 0.0555
ElecMinimize: Iter:   4  G: -3263.567705095172641  |grad|_K:  1.101e-05  alpha:  4.516e-01  linmin: -1.230e-05  t[s]:   4772.14
	Linear fluid (dielectric constant: 78.4, screening length: 5.74355 Bohr) occupying 0.782379 of unit cell:	Completed after 18 iterations at t[s]:   4798.48
	Linear fluid (dielectric constant: 78.4, screening length: 5.74355 Bohr) occupying 0.782440 of unit cell:	Completed after 7 iterations at t[s]:   4822.95
	FillingsUpdate:  mu: -0.171251800  nElectrons: 740.151043
	SubspaceRotationAdjust: set factor to 0.0605
ElecMinimize: Iter:   5  G: -3263.577202212875363  |grad|_K:  9.675e-06  alpha:  4.676e-01  linmin:  1.029e-05  t[s]:   4852.70
	Linear fluid (dielectric constant: 78.4, screening length: 5.74355 Bohr) occupying 0.782780 of unit cell:	Completed after 15 iterations at t[s]:   4877.70
	Linear fluid (dielectric constant: 78.4, screening length: 5.74355 Bohr) occupying 0.782746 of unit cell:	Completed after 12 iterations at t[s]:   4902.52
	FillingsUpdate:  mu: -0.171251800  nElectrons: 740.259928
	SubspaceRotationAdjust: set factor to 0.0706
ElecMinimize: Iter:   6  G: -3263.583731277039078  |grad|_K:  8.723e-06  alpha:  4.166e-01  linmin: -5.413e-07  t[s]:   4932.91
	Linear fluid (dielectric constant: 78.4, screening length: 5.74355 Bohr) occupying 0.783197 of unit cell:	Completed after 15 iterations at t[s]:   4958.17
	Linear fluid (dielectric constant: 78.4, screening length: 5.74355 Bohr) occupying 0.783208 of unit cell:	Completed after 3 iterations at t[s]:   4981.27
	FillingsUpdate:  mu: -0.171251800  nElectrons: 740.392209
	SubspaceRotationAdjust: set factor to 0.08
ElecMinimize: Iter:   7  G: -3263.589176116232920  |grad|_K:  7.635e-06  alpha:  4.270e-01  linmin: -8.406e-06  t[s]:   5010.39
	Linear fluid (dielectric constant: 78.4, screening length: 5.74355 Bohr) occupying 0.784770 of unit cell:	Completed after 20 iterations at t[s]:   5036.06
	Linear fluid (dielectric constant: 78.4, screening length: 5.74355 Bohr) occupying 0.784638 of unit cell:	Completed after 12 iterations at t[s]:   5062.85
	FillingsUpdate:  mu: -0.171251800  nElectrons: 740.732649
	SubspaceRotationAdjust: set factor to 0.07
ElecMinimize: Iter:   8  G: -3263.592971928164388  |grad|_K:  6.510e-06  alpha:  3.870e-01  linmin:  1.101e-04  t[s]:   5092.80
	Linear fluid (dielectric constant: 78.4, screening length: 5.74355 Bohr) occupying 0.784214 of unit cell:	Completed after 18 iterations at t[s]:   5119.37
	Linear fluid (dielectric constant: 78.4, screening length: 5.74355 Bohr) occupying 0.784204 of unit cell:	Completed after 5 iterations at t[s]:   5143.41
	FillingsUpdate:  mu: -0.171251800  nElectrons: 740.652493
	SubspaceRotationAdjust: set factor to 0.0515
ElecMinimize: Iter:   9  G: -3263.595749524503844  |grad|_K:  5.527e-06  alpha:  3.958e-01  linmin: -9.689e-06  t[s]:   5172.51
	Linear fluid (dielectric constant: 78.4, screening length: 5.74355 Bohr) occupying 0.784947 of unit cell:	Completed after 16 iterations at t[s]:   5198.05
	Linear fluid (dielectric constant: 78.4, screening length: 5.74355 Bohr) occupying 0.784961 of unit cell:	Completed after 2 iterations at t[s]:   5221.78
	FillingsUpdate:  mu: -0.171251800  nElectrons: 740.852461
	SubspaceRotationAdjust: set factor to 0.0553
ElecMinimize: Iter:  10  G: -3263.597819330328093  |grad|_K:  4.649e-06  alpha:  4.039e-01  linmin:  1.762e-05  t[s]:   5251.21
	Linear fluid (dielectric constant: 78.4, screening length: 5.74355 Bohr) occupying 0.785254 of unit cell:	Completed after 13 iterations at t[s]:   5276.00
	Linear fluid (dielectric constant: 78.4, screening length: 5.74355 Bohr) occupying 0.785242 of unit cell:	Completed after 3 iterations at t[s]:   5299.34
	FillingsUpdate:  mu: -0.171251800  nElectrons: 740.942319
	SubspaceRotationAdjust: set factor to 0.0678
ElecMinimize: Iter:  11  G: -3263.599217712831432  |grad|_K:  4.292e-06  alpha:  3.876e-01  linmin: -5.161e-08  t[s]:   5329.05
	Linear fluid (dielectric constant: 78.4, screening length: 5.74355 Bohr) occupying 0.785006 of unit cell:	Completed after 14 iterations at t[s]:   5355.33
	Linear fluid (dielectric constant: 78.4, screening length: 5.74355 Bohr) occupying 0.784920 of unit cell:	Completed after 12 iterations at t[s]:   5379.92
	FillingsUpdate:  mu: -0.171251800  nElectrons: 740.884358
	SubspaceRotationAdjust: set factor to 0.0656
ElecMinimize: Iter:  12  G: -3263.600844057162703  |grad|_K:  4.508e-06  alpha:  5.266e-01  linmin: -4.261e-06  t[s]:   5410.62
	Linear fluid (dielectric constant: 78.4, screening length: 5.74355 Bohr) occupying 0.785374 of unit cell:	Completed after 16 iterations at t[s]:   5436.50
	Linear fluid (dielectric constant: 78.4, screening length: 5.74355 Bohr) occupying 0.785305 of unit cell:	Completed after 11 iterations at t[s]:   5461.76
	FillingsUpdate:  mu: -0.171251800  nElectrons: 741.017123
	SubspaceRotationAdjust: set factor to 0.0645
ElecMinimize: Iter:  13  G: -3263.602357957945969  |grad|_K:  4.424e-06  alpha:  4.438e-01  linmin:  3.500e-06  t[s]:   5491.95
	Linear fluid (dielectric constant: 78.4, screening length: 5.74355 Bohr) occupying 0.785225 of unit cell:	Completed after 11 iterations at t[s]:   5517.31
	Linear fluid (dielectric constant: 78.4, screening length: 5.74355 Bohr) occupying 0.785211 of unit cell:	Completed after 7 iterations at t[s]:   5541.03
	FillingsUpdate:  mu: -0.171251800  nElectrons: 741.029848
	SubspaceRotationAdjust: set factor to 0.0711
ElecMinimize: Iter:  14  G: -3263.604048325166332  |grad|_K:  4.328e-06  alpha:  5.162e-01  linmin:  4.709e-06  t[s]:   5570.52
	Linear fluid (dielectric constant: 78.4, screening length: 5.74355 Bohr) occupying 0.785053 of unit cell:	Completed after 12 iterations at t[s]:   5595.50
	Linear fluid (dielectric constant: 78.4, screening length: 5.74355 Bohr) occupying 0.785094 of unit cell:	Completed after 9 iterations at t[s]:   5620.09
	FillingsUpdate:  mu: -0.171251800  nElectrons: 741.028204
	SubspaceRotationAdjust: set factor to 0.0785
ElecMinimize: Iter:  15  G: -3263.605243485310439  |grad|_K:  3.544e-06  alpha:  3.812e-01  linmin:  5.479e-07  t[s]:   5650.12
	Linear fluid (dielectric constant: 78.4, screening length: 5.74355 Bohr) occupying 0.785142 of unit cell:	Completed after 12 iterations at t[s]:   5675.10
	Linear fluid (dielectric constant: 78.4, screening length: 5.74355 Bohr) occupying 0.785141 of unit cell:	Completed after 2 iterations at t[s]:   5698.27
	FillingsUpdate:  mu: -0.171251800  nElectrons: 741.062997
	SubspaceRotationAdjust: set factor to 0.0811
ElecMinimize: Iter:  16  G: -3263.606022971623133  |grad|_K:  2.712e-06  alpha:  3.705e-01  linmin:  5.387e-06  t[s]:   5727.12
	Linear fluid (dielectric constant: 78.4, screening length: 5.74355 Bohr) occupying 0.784932 of unit cell:	Completed after 13 iterations at t[s]:   5752.61
	Linear fluid (dielectric constant: 78.4, screening length: 5.74355 Bohr) occupying 0.784955 of unit cell:	Completed after 6 iterations at t[s]:   5776.01
	FillingsUpdate:  mu: -0.171251800  nElectrons: 741.024176
	SubspaceRotationAdjust: set factor to 0.0751
ElecMinimize: Iter:  17  G: -3263.606428613759817  |grad|_K:  2.024e-06  alpha:  3.297e-01  linmin:  4.866e-06  t[s]:   5805.62
	Linear fluid (dielectric constant: 78.4, screening length: 5.74355 Bohr) occupying 0.785086 of unit cell:	Completed after 14 iterations at t[s]:   5830.86
	Linear fluid (dielectric constant: 78.4, screening length: 5.74355 Bohr) occupying 0.785083 of unit cell:	Completed after 0 iterations at t[s]:   5853.79
	FillingsUpdate:  mu: -0.171251800  nElectrons: 741.066307
	SubspaceRotationAdjust: set factor to 0.0587
ElecMinimize: Iter:  18  G: -3263.606649401212053  |grad|_K:  1.477e-06  alpha:  3.220e-01  linmin:  1.376e-05  t[s]:   5883.10
	Linear fluid (dielectric constant: 78.4, screening length: 5.74355 Bohr) occupying 0.784955 of unit cell:	Completed after 12 iterations at t[s]:   5908.71
	Linear fluid (dielectric constant: 78.4, screening length: 5.74355 Bohr) occupying 0.784947 of unit cell:	Completed after 2 iterations at t[s]:   5931.48
	FillingsUpdate:  mu: -0.171251800  nElectrons: 741.032868
	SubspaceRotationAdjust: set factor to 0.0567
ElecMinimize: Iter:  19  G: -3263.606774057155690  |grad|_K:  1.032e-06  alpha:  3.419e-01  linmin: -4.326e-05  t[s]:   5960.82
	Linear fluid (dielectric constant: 78.4, screening length: 5.74355 Bohr) occupying 0.784918 of unit cell:	Completed after 5 iterations at t[s]:   5984.40
	Linear fluid (dielectric constant: 78.4, screening length: 5.74355 Bohr) occupying 0.784920 of unit cell:	Completed after 0 iterations at t[s]:   6006.30
	FillingsUpdate:  mu: -0.171251800  nElectrons: 741.027314
	SubspaceRotationAdjust: set factor to 0.0694
ElecMinimize: Iter:  20  G: -3263.606831682379834  |grad|_K:  7.879e-07  alpha:  3.191e-01  linmin:  5.388e-06  t[s]:   6035.22
	Linear fluid (dielectric constant: 78.4, screening length: 5.74355 Bohr) occupying 0.784944 of unit cell:	Completed after 11 iterations at t[s]:   6059.41
	Linear fluid (dielectric constant: 78.4, screening length: 5.74355 Bohr) occupying 0.784951 of unit cell:	Completed after 3 iterations at t[s]:   6082.92
	FillingsUpdate:  mu: -0.171251800  nElectrons: 741.036682
	SubspaceRotationAdjust: set factor to 0.0744
ElecMinimize: Iter:  21  G: -3263.606873382612775  |grad|_K:  5.953e-07  alpha:  4.022e-01  linmin:  4.464e-06  t[s]:   6112.75
	Linear fluid (dielectric constant: 78.4, screening length: 5.74355 Bohr) occupying 0.784915 of unit cell:	Completed after 6 iterations at t[s]:   6136.76
	Linear fluid (dielectric constant: 78.4, screening length: 5.74355 Bohr) occupying 0.784916 of unit cell:	Completed after 0 iterations at t[s]:   6158.83
	FillingsUpdate:  mu: -0.171251800  nElectrons: 741.027787
	SubspaceRotationAdjust: set factor to 0.0861
ElecMinimize: Iter:  22  G: -3263.606896477145710  |grad|_K:  5.334e-07  alpha:  3.894e-01  linmin:  5.678e-06  t[s]:   6187.43
	Linear fluid (dielectric constant: 78.4, screening length: 5.74355 Bohr) occupying 0.784890 of unit cell:	Completed after 8 iterations at t[s]:   6211.51
	Linear fluid (dielectric constant: 78.4, screening length: 5.74355 Bohr) occupying 0.784890 of unit cell:	Completed after 0 iterations at t[s]:   6233.42
	FillingsUpdate:  mu: -0.171251800  nElectrons: 741.020833
	SubspaceRotationAdjust: set factor to 0.104
ElecMinimize: Iter:  23  G: -3263.606914990260520  |grad|_K:  4.336e-07  alpha:  3.897e-01  linmin: -8.588e-06  t[s]:   6262.67
	Linear fluid (dielectric constant: 78.4, screening length: 5.74355 Bohr) occupying 0.784907 of unit cell:	Completed after 10 iterations at t[s]:   6286.83
	Linear fluid (dielectric constant: 78.4, screening length: 5.74355 Bohr) occupying 0.784908 of unit cell:	Completed after 0 iterations at t[s]:   6309.22
	FillingsUpdate:  mu: -0.171251800  nElectrons: 741.025360
	SubspaceRotationAdjust: set factor to 0.108
ElecMinimize: Iter:  24  G: -3263.606928131577206  |grad|_K:  4.058e-07  alpha:  4.147e-01  linmin: -3.460e-06  t[s]:   6338.10
	Linear fluid (dielectric constant: 78.4, screening length: 5.74355 Bohr) occupying 0.784862 of unit cell:	Completed after 9 iterations at t[s]:   6362.50
	Linear fluid (dielectric constant: 78.4, screening length: 5.74355 Bohr) occupying 0.784872 of unit cell:	Completed after 3 iterations at t[s]:   6385.25
	FillingsUpdate:  mu: -0.171251800  nElectrons: 741.015006
	SubspaceRotationAdjust: set factor to 0.102
ElecMinimize: Iter:  25  G: -3263.606937327362175  |grad|_K:  3.413e-07  alpha:  3.310e-01  linmin:  1.117e-05  t[s]:   6414.79
	Linear fluid (dielectric constant: 78.4, screening length: 5.74355 Bohr) occupying 0.784887 of unit cell:	Completed after 9 iterations at t[s]:   6439.25
	Linear fluid (dielectric constant: 78.4, screening length: 5.74355 Bohr) occupying 0.784886 of unit cell:	Completed after 0 iterations at t[s]:   6461.71
	FillingsUpdate:  mu: -0.171251800  nElectrons: 741.018614
	SubspaceRotationAdjust: set factor to 0.0865
ElecMinimize: Iter:  26  G: -3263.606943329342812  |grad|_K:  3.022e-07  alpha:  3.123e-01  linmin:  6.825e-06  t[s]:   6489.94
	Linear fluid (dielectric constant: 78.4, screening length: 5.74355 Bohr) occupying 0.784850 of unit cell:	Completed after 9 iterations at t[s]:   6514.60
	Linear fluid (dielectric constant: 78.4, screening length: 5.74355 Bohr) occupying 0.784857 of unit cell:	Completed after 2 iterations at t[s]:   6536.93
	FillingsUpdate:  mu: -0.171251800  nElectrons: 741.010503
	SubspaceRotationAdjust: set factor to 0.064
ElecMinimize: Iter:  27  G: -3263.606947127644162  |grad|_K:  2.164e-07  alpha:  2.517e-01  linmin:  1.550e-05  t[s]:   6566.23
	Linear fluid (dielectric constant: 78.4, screening length: 5.74355 Bohr) occupying 0.784867 of unit cell:	Completed after 3 iterations at t[s]:   6589.27
	Linear fluid (dielectric constant: 78.4, screening length: 5.74355 Bohr) occupying 0.784873 of unit cell:	Completed after 4 iterations at t[s]:   6611.84
	FillingsUpdate:  mu: -0.171251800  nElectrons: 741.014447
	SubspaceRotationAdjust: set factor to 0.0592
ElecMinimize: Iter:  28  G: -3263.606949963326770  |grad|_K:  1.873e-07  alpha:  3.865e-01  linmin:  1.284e-05  t[s]:   6641.55
	Linear fluid (dielectric constant: 78.4, screening length: 5.74355 Bohr) occupying 0.784870 of unit cell:	Completed after 2 iterations at t[s]:   6664.72
	Linear fluid (dielectric constant: 78.4, screening length: 5.74355 Bohr) occupying 0.784870 of unit cell:	Completed after 0 iterations at t[s]:   6685.98
	FillingsUpdate:  mu: -0.171251800  nElectrons: 741.013714
	SubspaceRotationAdjust: set factor to 0.0757
ElecMinimize: Iter:  29  G: -3263.606951867200223  |grad|_K:  1.442e-07  alpha:  3.355e-01  linmin: -1.900e-06  t[s]:   6714.77
	Linear fluid (dielectric constant: 78.4, screening length: 5.74355 Bohr) occupying 0.784862 of unit cell:	Completed after 2 iterations at t[s]:   6738.12
	Linear fluid (dielectric constant: 78.4, screening length: 5.74355 Bohr) occupying 0.784860 of unit cell:	Completed after 0 iterations at t[s]:   6759.26
	FillingsUpdate:  mu: -0.171251800  nElectrons: 741.010982
	SubspaceRotationAdjust: set factor to 0.088
ElecMinimize: Iter:  30  G: -3263.606953291506215  |grad|_K:  1.229e-07  alpha:  4.048e-01  linmin: -9.642e-06  t[s]:   6788.06
	Linear fluid (dielectric constant: 78.4, screening length: 5.74355 Bohr) occupying 0.784856 of unit cell:	Completed after 3 iterations at t[s]:   6811.38
	Linear fluid (dielectric constant: 78.4, screening length: 5.74355 Bohr) occupying 0.784857 of unit cell:	Completed after 0 iterations at t[s]:   6833.07
	FillingsUpdate:  mu: -0.171251800  nElectrons: 741.010226
	SubspaceRotationAdjust: set factor to 0.0996
ElecMinimize: Iter:  31  G: -3263.606954318655880  |grad|_K:  1.290e-07  alpha:  3.962e-01  linmin: -1.595e-05  t[s]:   6862.10
	Linear fluid (dielectric constant: 78.4, screening length: 5.74355 Bohr) occupying 0.784876 of unit cell:	Completed after 3 iterations at t[s]:   6885.16
	Linear fluid (dielectric constant: 78.4, screening length: 5.74355 Bohr) occupying 0.784877 of unit cell:	Completed after 0 iterations at t[s]:   6906.43
	FillingsUpdate:  mu: -0.171251800  nElectrons: 741.015795
	SubspaceRotationAdjust: set factor to 0.0888
ElecMinimize: Iter:  32  G: -3263.606955503489644  |grad|_K:  1.169e-07  alpha:  4.012e-01  linmin: -3.138e-06  t[s]:   6935.71
	Linear fluid (dielectric constant: 78.4, screening length: 5.74355 Bohr) occupying 0.784874 of unit cell:	Completed after 2 iterations at t[s]:   6959.08
	Linear fluid (dielectric constant: 78.4, screening length: 5.74355 Bohr) occupying 0.784874 of unit cell:	Completed after 0 iterations at t[s]:   6980.45
	FillingsUpdate:  mu: -0.171251800  nElectrons: 741.015278
	SubspaceRotationAdjust: set factor to 0.109
ElecMinimize: Iter:  33  G: -3263.606956268698468  |grad|_K:  1.108e-07  alpha:  3.308e-01  linmin:  1.159e-06  t[s]:   7009.16
	Linear fluid (dielectric constant: 78.4, screening length: 5.74355 Bohr) occupying 0.784869 of unit cell:	Completed after 2 iterations at t[s]:   7031.85
	Linear fluid (dielectric constant: 78.4, screening length: 5.74355 Bohr) occupying 0.784867 of unit cell:	Completed after 0 iterations at t[s]:   7053.40
	FillingsUpdate:  mu: -0.171251800  nElectrons: 741.013462
	SubspaceRotationAdjust: set factor to 0.119
ElecMinimize: Iter:  34  G: -3263.606957086594321  |grad|_K:  8.608e-08  alpha:  3.995e-01  linmin: -4.247e-06  t[s]:   7082.63
	Linear fluid (dielectric constant: 78.4, screening length: 5.74355 Bohr) occupying 0.784874 of unit cell:	Completed after 3 iterations at t[s]:   7105.59
	Linear fluid (dielectric constant: 78.4, screening length: 5.74355 Bohr) occupying 0.784872 of unit cell:	Completed after 0 iterations at t[s]:   7127.19
	FillingsUpdate:  mu: -0.171251800  nElectrons: 741.014768
	SubspaceRotationAdjust: set factor to 0.128
ElecMinimize: Iter:  35  G: -3263.606957471899022  |grad|_K:  7.546e-08  alpha:  3.055e-01  linmin:  1.681e-06  t[s]:   7155.35
	Linear fluid (dielectric constant: 78.4, screening length: 5.74355 Bohr) occupying 0.784874 of unit cell:	Completed after 0 iterations at t[s]:   7177.94
	Linear fluid (dielectric constant: 78.4, screening length: 5.74355 Bohr) occupying 0.784875 of unit cell:	Completed after 0 iterations at t[s]:   7198.81
	FillingsUpdate:  mu: -0.171251800  nElectrons: 741.015375
	SubspaceRotationAdjust: set factor to 0.142
ElecMinimize: Iter:  36  G: -3263.606957889267051  |grad|_K:  6.501e-08  alpha:  4.433e-01  linmin:  5.363e-08  t[s]:   7227.95
	Linear fluid (dielectric constant: 78.4, screening length: 5.74355 Bohr) occupying 0.784873 of unit cell:	Completed after 1 iterations at t[s]:   7250.91
	Linear fluid (dielectric constant: 78.4, screening length: 5.74355 Bohr) occupying 0.784874 of unit cell:	Completed after 0 iterations at t[s]:   7272.23
	FillingsUpdate:  mu: -0.171251800  nElectrons: 741.015072
	SubspaceRotationAdjust: set factor to 0.151
ElecMinimize: Iter:  37  G: -3263.606957959281772  |grad|_K:  7.434e-08  alpha:  1.930e-01  linmin: -1.017e-06  t[s]:   7300.68
	Linear fluid (dielectric constant: 78.4, screening length: 5.74355 Bohr) occupying 0.784876 of unit cell:	Completed after 1 iterations at t[s]:   7323.24
	Linear fluid (dielectric constant: 78.4, screening length: 5.74355 Bohr) occupying 0.784875 of unit cell:	Completed after 0 iterations at t[s]:   7344.10
	FillingsUpdate:  mu: -0.171251800  nElectrons: 741.015378
	SubspaceRotationAdjust: set factor to 0.163
ElecMinimize: Iter:  38  G: -3263.606958068721724  |grad|_K:  6.218e-08  alpha:  1.298e-01  linmin: -2.186e-06  t[s]:   7372.80
	Linear fluid (dielectric constant: 78.4, screening length: 5.74355 Bohr) occupying 0.784874 of unit cell:	Completed after 1 iterations at t[s]:   7395.65
	Linear fluid (dielectric constant: 78.4, screening length: 5.74355 Bohr) occupying 0.784874 of unit cell:	Completed after 0 iterations at t[s]:   7417.07
	FillingsUpdate:  mu: -0.171251800  nElectrons: 741.015015
	SubspaceRotationAdjust: set factor to 0.205
ElecMinimize: Iter:  39  G: -3263.606958162427873  |grad|_K:  4.732e-08  alpha:  1.367e-01  linmin: -2.409e-05  t[s]:   7445.60
	Linear fluid (dielectric constant: 78.4, screening length: 5.74355 Bohr) occupying 0.784871 of unit cell:	Completed after 0 iterations at t[s]:   7468.13
	Linear fluid (dielectric constant: 78.4, screening length: 5.74355 Bohr) occupying 0.784870 of unit cell:	Completed after 2 iterations at t[s]:   7489.68
	FillingsUpdate:  mu: -0.171251800  nElectrons: 741.013669
	SubspaceRotationAdjust: set factor to 0.219
ElecMinimize: Iter:  40  G: -3263.606958190253863  |grad|_K:  5.079e-08  alpha:  1.753e-01  linmin:  2.216e-05  t[s]:   7519.18
	Linear fluid (dielectric constant: 78.4, screening length: 5.74355 Bohr) occupying 0.784864 of unit cell:	Completed after 0 iterations at t[s]:   7541.52
	Linear fluid (dielectric constant: 78.4, screening length: 5.74355 Bohr) occupying 0.784866 of unit cell:	Completed after 0 iterations at t[s]:   7562.66
	FillingsUpdate:  mu: -0.171251800  nElectrons: 741.012580
	SubspaceRotationAdjust: set factor to 0.232
ElecMinimize: Iter:  41  G: -3263.606958218035288  |grad|_K:  5.673e-08  alpha:  1.133e-01  linmin:  7.319e-09  t[s]:   7591.92
	Linear fluid (dielectric constant: 78.4, screening length: 5.74355 Bohr) occupying 0.784862 of unit cell:	Completed after 2 iterations at t[s]:   7614.67
	Linear fluid (dielectric constant: 78.4, screening length: 5.74355 Bohr) occupying 0.784864 of unit cell:	Completed after 0 iterations at t[s]:   7636.25
	FillingsUpdate:  mu: -0.171251800  nElectrons: 741.012011
	SubspaceRotationAdjust: set factor to 0.149
ElecMinimize: Iter:  42  G: -3263.606958229755492  |grad|_K:  9.029e-08  alpha:  5.127e-02  linmin:  6.183e-06  t[s]:   7664.67
	Linear fluid (dielectric constant: 78.4, screening length: 5.74355 Bohr) occupying 0.784865 of unit cell:	Completed after 0 iterations at t[s]:   7687.03
	Linear fluid (dielectric constant: 78.4, screening length: 5.74355 Bohr) occupying 0.784864 of unit cell:	Completed after 0 iterations at t[s]:   7708.06
	FillingsUpdate:  mu: -0.171251800  nElectrons: 741.012013
	SubspaceRotationAdjust: set factor to 0.0993
ElecMinimize: Iter:  43  G: -3263.606958280133313  |grad|_K:  7.355e-08  alpha:  4.352e-02  linmin: -8.239e-09  t[s]:   7736.67
	Linear fluid (dielectric constant: 78.4, screening length: 5.74355 Bohr) occupying 0.784868 of unit cell:	Completed after 2 iterations at t[s]:   7759.90
	Linear fluid (dielectric constant: 78.4, screening length: 5.74355 Bohr) occupying 0.784866 of unit cell:	Completed after 0 iterations at t[s]:   7780.69
ElecMinimize: 	Step increased G by 7.021299e-10, reducing alpha to 2.030522e-03.
	Linear fluid (dielectric constant: 78.4, screening length: 5.74355 Bohr) occupying 0.784865 of unit cell:	Completed after 0 iterations at t[s]:   7826.73
ElecMinimize: 	Step increased G by 5.639777e-09, reducing alpha to 2.030522e-04.
	Linear fluid (dielectric constant: 78.4, screening length: 5.74355 Bohr) occupying 0.784864 of unit cell:	Completed after 0 iterations at t[s]:   7872.42
ElecMinimize: 	Step increased G by 6.573373e-09, reducing alpha to 2.030522e-05.
ElecMinimize: 	Step failed to reduce G after 3 attempts. Quitting step.
ElecMinimize: 	Undoing step.
	Linear fluid (dielectric constant: 78.4, screening length: 5.74355 Bohr) occupying 0.784864 of unit cell:	Completed after 0 iterations at t[s]:   7919.13
ElecMinimize: 	Step failed: resetting search direction.
	FillingsUpdate:  mu: -0.171251800  nElectrons: 741.012017
	SubspaceRotationAdjust: set factor to 0.195
ElecMinimize: Iter:  44  G: -3263.606958273553573  |grad|_K:  4.213e-08  alpha:  2.031e-05
	Linear fluid (dielectric constant: 78.4, screening length: 5.74355 Bohr) occupying 0.784865 of unit cell:	Completed after 0 iterations at t[s]:   7970.35
ElecMinimize: 	Predicted alpha/alphaT>3.000000, increasing alphaT to 1.305609e-01.
	Linear fluid (dielectric constant: 78.4, screening length: 5.74355 Bohr) occupying 0.784867 of unit cell:	Completed after 0 iterations at t[s]:   7991.19
	Linear fluid (dielectric constant: 78.4, screening length: 5.74355 Bohr) occupying 0.784870 of unit cell:	Completed after 0 iterations at t[s]:   8012.35
	FillingsUpdate:  mu: -0.171251800  nElectrons: 741.013383
	SubspaceRotationAdjust: set factor to 0.19
ElecMinimize: Iter:  45  G: -3263.606958358572228  |grad|_K:  3.431e-08  alpha:  2.858e-01  linmin:  2.799e-07  t[s]:   8040.99
	Linear fluid (dielectric constant: 78.4, screening length: 5.74355 Bohr) occupying 0.784881 of unit cell:	Completed after 3 iterations at t[s]:   8064.25
	Linear fluid (dielectric constant: 78.4, screening length: 5.74355 Bohr) occupying 0.784871 of unit cell:	Completed after 2 iterations at t[s]:   8086.61
ElecMinimize: 	Step increased G by 4.769436e-08, reducing alpha to 3.567199e-03.
	Linear fluid (dielectric constant: 78.4, screening length: 5.74355 Bohr) occupying 0.784870 of unit cell:	Completed after 0 iterations at t[s]:   8133.33
ElecMinimize: 	Step increased G by 2.828165e-08, reducing alpha to 3.567199e-04.
	Linear fluid (dielectric constant: 78.4, screening length: 5.74355 Bohr) occupying 0.784870 of unit cell:	Completed after 0 iterations at t[s]:   8179.13
ElecMinimize: 	Step increased G by 2.643810e-08, reducing alpha to 3.567199e-05.
ElecMinimize: 	Step failed to reduce G after 3 attempts. Quitting step.
ElecMinimize: 	Undoing step.
	Linear fluid (dielectric constant: 78.4, screening length: 5.74355 Bohr) occupying 0.784870 of unit cell:	Completed after 0 iterations at t[s]:   8225.21
ElecMinimize: 	Step failed: resetting search direction.
	FillingsUpdate:  mu: -0.171251800  nElectrons: 741.013387
	SubspaceRotationAdjust: set factor to 0.146
ElecMinimize: Iter:  46  G: -3263.606958332172326  |grad|_K:  6.486e-08  alpha:  3.567e-05
	Linear fluid (dielectric constant: 78.4, screening length: 5.74355 Bohr) occupying 0.784853 of unit cell:	Completed after 7 iterations at t[s]:   8277.17
	Linear fluid (dielectric constant: 78.4, screening length: 5.74355 Bohr) occupying 0.784866 of unit cell:	Completed after 3 iterations at t[s]:   8299.94
	FillingsUpdate:  mu: -0.171251800  nElectrons: 741.012466
	SubspaceRotationAdjust: set factor to 0.0776
ElecMinimize: Iter:  47  G: -3263.606958375063641  |grad|_K:  6.429e-08  alpha:  5.687e-02  linmin:  8.537e-04  t[s]:   8329.80
	Linear fluid (dielectric constant: 78.4, screening length: 5.74355 Bohr) occupying 0.784867 of unit cell:	Completed after 0 iterations at t[s]:   8352.39
	Linear fluid (dielectric constant: 78.4, screening length: 5.74355 Bohr) occupying 0.784867 of unit cell:	Completed after 0 iterations at t[s]:   8373.50
	FillingsUpdate:  mu: -0.171251800  nElectrons: 741.012591
	SubspaceRotationAdjust: set factor to 0.0463
ElecMinimize: Iter:  48  G: -3263.606958398089773  |grad|_K:  4.796e-08  alpha:  1.077e-01  linmin: -1.022e-06  t[s]:   8401.89
	Linear fluid (dielectric constant: 78.4, screening length: 5.74355 Bohr) occupying 0.784871 of unit cell:	Completed after 0 iterations at t[s]:   8424.74
ElecMinimize: 	Predicted alpha/alphaT>3.000000, increasing alphaT to 3.230966e-01.
	Linear fluid (dielectric constant: 78.4, screening length: 5.74355 Bohr) occupying 0.784879 of unit cell:	Completed after 6 iterations at t[s]:   8446.86
	Linear fluid (dielectric constant: 78.4, screening length: 5.74355 Bohr) occupying 0.784870 of unit cell:	Completed after 3 iterations at t[s]:   8469.27
ElecMinimize: 	Step increased G by 3.857076e-08, reducing alpha to 7.955764e-03.
	Linear fluid (dielectric constant: 78.4, screening length: 5.74355 Bohr) occupying 0.784867 of unit cell:	Completed after 0 iterations at t[s]:   8516.13
ElecMinimize: 	Step increased G by 1.002718e-08, reducing alpha to 7.955764e-04.
	Linear fluid (dielectric constant: 78.4, screening length: 5.74355 Bohr) occupying 0.784867 of unit cell:	Completed after 0 iterations at t[s]:   8561.79
ElecMinimize: 	Step increased G by 7.422841e-09, reducing alpha to 7.955764e-05.
ElecMinimize: 	Step failed to reduce G after 3 attempts. Quitting step.
ElecMinimize: 	Undoing step.
	Linear fluid (dielectric constant: 78.4, screening length: 5.74355 Bohr) occupying 0.784867 of unit cell:	Completed after 0 iterations at t[s]:   8607.50
ElecMinimize: 	Step failed: resetting search direction.
	FillingsUpdate:  mu: -0.171251800  nElectrons: 741.012598
	SubspaceRotationAdjust: set factor to 0.0239
ElecMinimize: Iter:  49  G: -3263.606958390694672  |grad|_K:  2.813e-08  alpha:  7.956e-05
	Linear fluid (dielectric constant: 78.4, screening length: 5.74355 Bohr) occupying 0.784866 of unit cell:	Completed after 0 iterations at t[s]:   8658.02
ElecMinimize: 	Predicted alpha/alphaT>3.000000, increasing alphaT to 3.230966e-01.
	Linear fluid (dielectric constant: 78.4, screening length: 5.74355 Bohr) occupying 0.784864 of unit cell:	Completed after 0 iterations at t[s]:   8678.62
	Linear fluid (dielectric constant: 78.4, screening length: 5.74355 Bohr) occupying 0.784864 of unit cell:	Completed after 2 iterations at t[s]:   8700.45
ElecMinimize: 	Step increased G by 4.898402e-08, reducing alpha to 3.407882e-02.
	Linear fluid (dielectric constant: 78.4, screening length: 5.74355 Bohr) occupying 0.784867 of unit cell:	Completed after 0 iterations at t[s]:   8746.94
ElecMinimize: 	Step increased G by 1.072203e-08, reducing alpha to 3.407882e-03.
	Linear fluid (dielectric constant: 78.4, screening length: 5.74355 Bohr) occupying 0.784867 of unit cell:	Completed after 0 iterations at t[s]:   8793.01
ElecMinimize: 	Step increased G by 1.029002e-08, reducing alpha to 3.407882e-04.
ElecMinimize: 	Step failed to reduce G after 3 attempts. Quitting step.
ElecMinimize: 	Undoing step.
	Linear fluid (dielectric constant: 78.4, screening length: 5.74355 Bohr) occupying 0.784867 of unit cell:	Completed after 0 iterations at t[s]:   8838.71
ElecMinimize: 	Step failed along negative gradient direction.
ElecMinimize: Probably at roundoff error limit. (Stopping)
Setting wave functions to eigenvectors of Hamiltonian
Single-point solvation energy estimate, DeltaG = -0.195871067174266

# Ionic positions in lattice coordinates:
ion Cr   0.000000000000000   0.125923334166667   0.566921689361069 1
ion Cr   0.125000000000000   0.125923334166667   0.433539991994632 1
ion Cr   0.250000000000000   0.125923334166667   0.566921689361069 1
ion Cr   0.375000000000000   0.125923334166667   0.433539991994632 1
ion Cr   0.500000000000000   0.125923334166667   0.566921689361069 1
ion Cr   0.625000000000000   0.125923334166667   0.433539991994632 1
ion Cr   0.750000000000000   0.125923334166667   0.566921689361069 1
ion Cr   0.875000000000000   0.125923334166667   0.433539991994632 1
ion Cr   0.000000000000000   0.375923334166667   0.566921689361069 1
ion Cr   0.125000000000000   0.375923334166667   0.433539991994632 1
ion Cr   0.250000000000000   0.375923334166667   0.566921689361069 1
ion Cr   0.375000000000000   0.375923334166667   0.433539991994632 1
ion Cr   0.500000000000000   0.375923334166667   0.566921689361069 1
ion Cr   0.625000000000000   0.375923334166667   0.433539991994632 1
ion Cr   0.750000000000000   0.375923334166667   0.566921689361069 1
ion Cr   0.875000000000000   0.375923334166667   0.433539991994632 1
ion Cr   0.000000000000000   0.625923334166667   0.566921689361069 1
ion Cr   0.125000000000000   0.625923334166667   0.433539991994632 1
ion Cr   0.250000000000000   0.625923334166667   0.566921689361069 1
ion Cr   0.375000000000000   0.625923334166667   0.433539991994632 1
ion Cr   0.500000000000000   0.625923334166667   0.566921689361069 1
ion Cr   0.625000000000000   0.625923334166667   0.433539991994632 1
ion Cr   0.750000000000000   0.625923334166667   0.566921689361069 1
ion Cr   0.875000000000000   0.625923334166667   0.433539991994632 1
ion Cr   0.000000000000000   0.875923334166667   0.566921689361069 1
ion Cr   0.125000000000000   0.875923334166667   0.433539991994632 1
ion Cr   0.250000000000000   0.875923334166667   0.566921689361069 1
ion Cr   0.375000000000000   0.875923334166667   0.433539991994632 1
ion Cr   0.500000000000000   0.875923334166667   0.566921689361069 1
ion Cr   0.625000000000000   0.875923334166667   0.433539991994632 1
ion Cr   0.750000000000000   0.875923334166667   0.566921689361069 1
ion Cr   0.875000000000000   0.875923334166667   0.433539991994632 1
ion B   0.000000000000000   0.000923334166667   0.478904511995150 1
ion B   0.125000000000000   0.000923334166667   0.521638227202347 1
ion B   0.250000000000000   0.000923334166667   0.478904511995150 1
ion B   0.375000000000000   0.000923334166667   0.521638227202347 1
ion B   0.500000000000000   0.000923334166667   0.478904511995150 1
ion B   0.625000000000000   0.000923334166667   0.521638227202347 1
ion B   0.750000000000000   0.000923334166667   0.478904511995150 1
ion B   0.875000000000000   0.000923334166667   0.521638227202347 1
ion B   0.000000000000000   0.250923334166667   0.478904511995150 1
ion B   0.125000000000000   0.250923334166667   0.521638227202347 1
ion B   0.250000000000000   0.250923334166667   0.478904511995150 1
ion B   0.375000000000000   0.250923334166667   0.521638227202347 1
ion B   0.500000000000000   0.250923334166667   0.478904511995150 1
ion B   0.625000000000000   0.250923334166667   0.521638227202347 1
ion B   0.750000000000000   0.250923334166667   0.478904511995150 1
ion B   0.875000000000000   0.250923334166667   0.521638227202347 1
ion B   0.000000000000000   0.500923334166667   0.478904511995150 1
ion B   0.125000000000000   0.500923334166667   0.521638227202347 1
ion B   0.250000000000000   0.500923334166667   0.478904511995150 1
ion B   0.375000000000000   0.500923334166667   0.521638227202347 1
ion B   0.500000000000000   0.500923334166667   0.478904511995150 1
ion B   0.625000000000000   0.500923334166667   0.521638227202347 1
ion B   0.750000000000000   0.500923334166667   0.478904511995150 1
ion B   0.875000000000000   0.500923334166667   0.521638227202347 1
ion B   0.000000000000000   0.750923334166667   0.478904511995150 1
ion B   0.125000000000000   0.750923334166667   0.521638227202347 1
ion B   0.250000000000000   0.750923334166667   0.478904511995150 1
ion B   0.375000000000000   0.750923334166667   0.521638227202347 1
ion B   0.500000000000000   0.750923334166667   0.478904511995150 1
ion B   0.625000000000000   0.750923334166667   0.521638227202347 1
ion B   0.750000000000000   0.750923334166667   0.478904511995150 1
ion B   0.875000000000000   0.750923334166667   0.521638227202347 1
ion O   0.125000000000000   0.125923334166667   0.626931865232538 1
ion O   0.000000000000000   0.125923334166667   0.373573749214265 1
ion O   0.375000000000000   0.125923334166667   0.626931865232538 1
ion O   0.250000000000000   0.125923334166667   0.373573749214265 1
ion O   0.625000000000000   0.125923334166667   0.626931865232538 1
ion O   0.500000000000000   0.125923334166667   0.373573749214265 1
ion O   0.875000000000000   0.125923334166667   0.626931865232538 1
ion O   0.750000000000000   0.125923334166667   0.373573749214265 1
ion O   0.125000000000000   0.375923334166667   0.626931865232538 1
ion O   0.000000000000000   0.375923334166667   0.373573749214265 1
ion O   0.375000000000000   0.375923334166667   0.626931865232538 1
ion O   0.250000000000000   0.375923334166667   0.373573749214265 1
ion O   0.625000000000000   0.375923334166667   0.626931865232538 1
ion O   0.500000000000000   0.375923334166667   0.373573749214265 1
ion O   0.875000000000000   0.375923334166667   0.626931865232538 1
ion O   0.750000000000000   0.375923334166667   0.373573749214265 1
ion O   0.125000000000000   0.625923334166667   0.626931865232538 1
ion O   0.000000000000000   0.625923334166667   0.373573749214265 1
ion O   0.375000000000000   0.625923334166667   0.626931865232538 1
ion O   0.250000000000000   0.625923334166667   0.373573749214265 1
ion O   0.625000000000000   0.625923334166667   0.626931865232538 1
ion O   0.500000000000000   0.625923334166667   0.373573749214265 1
ion O   0.875000000000000   0.625923334166667   0.626931865232538 1
ion O   0.750000000000000   0.625923334166667   0.373573749214265 1
ion O   0.125000000000000   0.875923334166667   0.626931865232538 1
ion O   0.000000000000000   0.875923334166667   0.373573749214265 1
ion O   0.375000000000000   0.875923334166667   0.626931865232538 1
ion O   0.250000000000000   0.875923334166667   0.373573749214265 1
ion O   0.625000000000000   0.875923334166667   0.626931865232538 1
ion O   0.500000000000000   0.875923334166667   0.373573749214265 1
ion O   0.875000000000000   0.875923334166667   0.626931865232538 1
ion O   0.750000000000000   0.875923334166667   0.373573749214265 1


# Forces in Lattice coordinates:
force Cr   0.000000000000000  -0.000000000000000  -0.745950879488776 1
force Cr   0.000000000000000   0.000000000000000   0.733190670700456 1
force Cr   0.000000000000000  -0.000000000000000  -0.745950879489002 1
force Cr   0.000000000000000   0.000000000000000   0.733190670700455 1
force Cr  -0.000000000000000  -0.000000000000000  -0.745950879489002 1
force Cr   0.000000000000000   0.000000000000000   0.733190670700682 1
force Cr   0.000000000000000  -0.000000000000000  -0.745950879488775 1
force Cr   0.000000000000000  -0.000000000000000   0.733190670700683 1
force Cr   0.000000000000000  -0.000000000000000  -0.745950879489002 1
force Cr  -0.000000000000000  -0.000000000000000   0.733190670699999 1
force Cr   0.000000000000000  -0.000000000000000  -0.745950879488775 1
force Cr   0.000000000000000   0.000000000000000   0.733190670700000 1
force Cr   0.000000000000000  -0.000000000000000  -0.745950879488775 1
force Cr  -0.000000000000000   0.000000000000000   0.733190670700000 1
force Cr  -0.000000000000000  -0.000000000000000  -0.745950879489001 1
force Cr  -0.000000000000000   0.000000000000000   0.733190670700227 1
force Cr   0.000000000000000  -0.000000000000000  -0.745950879489002 1
force Cr  -0.000000000000000   0.000000000000000   0.733190670700681 1
force Cr  -0.000000000000000  -0.000000000000000  -0.745950879488775 1
force Cr  -0.000000000000000   0.000000000000000   0.733190670700455 1
force Cr  -0.000000000000000  -0.000000000000000  -0.745950879488776 1
force Cr  -0.000000000000000   0.000000000000000   0.733190670700227 1
force Cr  -0.000000000000000  -0.000000000000000  -0.745950879488775 1
force Cr  -0.000000000000000  -0.000000000000000   0.733190670700456 1
force Cr   0.000000000000000  -0.000000000000000  -0.745950879488775 1
force Cr  -0.000000000000000  -0.000000000000000   0.733190670700001 1
force Cr  -0.000000000000000  -0.000000000000000  -0.745950879488774 1
force Cr  -0.000000000000000   0.000000000000000   0.733190670699773 1
force Cr   0.000000000000000  -0.000000000000000  -0.745950879488775 1
force Cr  -0.000000000000000   0.000000000000000   0.733190670700228 1
force Cr  -0.000000000000000  -0.000000000000000  -0.745950879489002 1
force Cr  -0.000000000000000   0.000000000000000   0.733190670700000 1
[...]
	Linear fluid (dielectric constant: 78.4, screening length: 5.74355 Bohr) occupying 0.784396 of unit cell:	Completed after 0 iterations at t[s]:  35773.10
	FillingsUpdate:  mu: -0.171251800  nElectrons: 741.942607
	SubspaceRotationAdjust: set factor to 0.148
ElecMinimize: Iter:  21  G: -3263.645914746054586  |grad|_K:  6.238e-08  alpha:  5.772e-03  linmin:  7.687e-04  t[s]:  35802.05
	Linear fluid (dielectric constant: 78.4, screening length: 5.74355 Bohr) occupying 0.784396 of unit cell:	Completed after 0 iterations at t[s]:  35824.69
ElecMinimize: 	Predicted alpha/alphaT>3.000000, increasing alphaT to 1.731649e-02.
	Linear fluid (dielectric constant: 78.4, screening length: 5.74355 Bohr) occupying 0.784397 of unit cell:	Completed after 0 iterations at t[s]:  35845.37
ElecMinimize: 	Predicted alpha/alphaT>3.000000, increasing alphaT to 5.194948e-02.
	Linear fluid (dielectric constant: 78.4, screening length: 5.74355 Bohr) occupying 0.784397 of unit cell:	Completed after 0 iterations at t[s]:  35866.55
	Linear fluid (dielectric constant: 78.4, screening length: 5.74355 Bohr) occupying 0.784397 of unit cell:	Completed after 0 iterations at t[s]:  35887.37
	FillingsUpdate:  mu: -0.171251800  nElectrons: 741.942796
	SubspaceRotationAdjust: set factor to 0.106
ElecMinimize: Iter:  22  G: -3263.645914772645483  |grad|_K:  4.804e-08  alpha:  7.593e-02  linmin: -4.031e-06  t[s]:  35916.12
	Linear fluid (dielectric constant: 78.4, screening length: 5.74355 Bohr) occupying 0.784395 of unit cell:	Completed after 1 iterations at t[s]:  35938.98
	Linear fluid (dielectric constant: 78.4, screening length: 5.74355 Bohr) occupying 0.784396 of unit cell:	Completed after 0 iterations at t[s]:  35959.94
	FillingsUpdate:  mu: -0.171251800  nElectrons: 741.942296
	SubspaceRotationAdjust: set factor to 0.0972
ElecMinimize: Iter:  23  G: -3263.645914783894113  |grad|_K:  3.441e-08  alpha:  5.543e-02  linmin: -1.049e-03  t[s]:  35988.91
	Linear fluid (dielectric constant: 78.4, screening length: 5.74355 Bohr) occupying 0.784395 of unit cell:	Completed after 0 iterations at t[s]:  36011.40
ElecMinimize: 	Predicted alpha/alphaT>3.000000, increasing alphaT to 1.662799e-01.
	Linear fluid (dielectric constant: 78.4, screening length: 5.74355 Bohr) occupying 0.784392 of unit cell:	Completed after 2 iterations at t[s]:  36032.56
	Linear fluid (dielectric constant: 78.4, screening length: 5.74355 Bohr) occupying 0.784395 of unit cell:	Completed after 0 iterations at t[s]:  36053.89
	FillingsUpdate:  mu: -0.171251800  nElectrons: 741.941780
	SubspaceRotationAdjust: set factor to 0.0726
ElecMinimize: Iter:  24  G: -3263.645914794586588  |grad|_K:  5.328e-08  alpha:  5.443e-02  linmin:  1.783e-03  t[s]:  36082.54
ElecMinimize: 	Bad step direction: g.d > 0.
ElecMinimize: 	Undoing step.
	Linear fluid (dielectric constant: 78.4, screening length: 5.74355 Bohr) occupying 0.784395 of unit cell:	Completed after 0 iterations at t[s]:  36105.00
ElecMinimize: 	Step failed: resetting search direction.
	FillingsUpdate:  mu: -0.171251800  nElectrons: 741.941780
	SubspaceRotationAdjust: set factor to 0.0607
ElecMinimize: Iter:  25  G: -3263.645914794571581  |grad|_K:  4.858e-08  alpha:  0.000e+00
	Linear fluid (dielectric constant: 78.4, screening length: 5.74355 Bohr) occupying 0.784396 of unit cell:	Completed after 0 iterations at t[s]:  36156.02
ElecMinimize: 	Predicted alpha/alphaT>3.000000, increasing alphaT to 1.632914e-01.
	Linear fluid (dielectric constant: 78.4, screening length: 5.74355 Bohr) occupying 0.784397 of unit cell:	Completed after 1 iterations at t[s]:  36177.50
	Linear fluid (dielectric constant: 78.4, screening length: 5.74355 Bohr) occupying 0.784396 of unit cell:	Completed after 0 iterations at t[s]:  36198.78
ElecMinimize: 	Step increased G by 6.366008e-09, reducing alpha to 8.006883e-03.
	Linear fluid (dielectric constant: 78.4, screening length: 5.74355 Bohr) occupying 0.784395 of unit cell:	Completed after 0 iterations at t[s]:  36244.95
ElecMinimize: 	Step increased G by 8.280040e-09, reducing alpha to 8.006883e-04.
	Linear fluid (dielectric constant: 78.4, screening length: 5.74355 Bohr) occupying 0.784395 of unit cell:	Completed after 0 iterations at t[s]:  36290.59
ElecMinimize: 	Step increased G by 8.727966e-09, reducing alpha to 8.006883e-05.
ElecMinimize: 	Step failed to reduce G after 3 attempts. Quitting step.
ElecMinimize: 	Undoing step.
	Linear fluid (dielectric constant: 78.4, screening length: 5.74355 Bohr) occupying 0.784395 of unit cell:	Completed after 0 iterations at t[s]:  36336.29
ElecMinimize: 	Step failed along negative gradient direction.
ElecMinimize: Probably at roundoff error limit. (Stopping)
Setting wave functions to eigenvectors of Hamiltonian

# Ionic positions in lattice coordinates:
ion Cr   0.000000000000000   0.125923334166667   0.566263642491738 1
ion Cr   0.125000000000000   0.125923334166667   0.434194819914947 1
ion Cr   0.250000000000000   0.125923334166667   0.566263642491738 1
ion Cr   0.375000000000000   0.125923334166667   0.434194819914947 1
ion Cr   0.500000000000000   0.125923334166667   0.566263642491738 1
ion Cr   0.625000000000000   0.125923334166667   0.434194819914947 1
ion Cr   0.750000000000000   0.125923334166667   0.566263642491738 1
ion Cr   0.875000000000000   0.125923334166667   0.434194819914947 1
ion Cr  -0.000000000000000   0.375923334166667   0.566263642491738 1
ion Cr   0.125000000000000   0.375923334166667   0.434194819914947 1
ion Cr   0.250000000000000   0.375923334166667   0.566263642491738 1
ion Cr   0.375000000000000   0.375923334166667   0.434194819914947 1
ion Cr   0.500000000000000   0.375923334166667   0.566263642491738 1
ion Cr   0.625000000000000   0.375923334166667   0.434194819914947 1
ion Cr   0.750000000000000   0.375923334166667   0.566263642491738 1
ion Cr   0.875000000000000   0.375923334166667   0.434194819914947 1
ion Cr   0.000000000000000   0.625923334166667   0.566263642491738 1
ion Cr   0.125000000000000   0.625923334166667   0.434194819914947 1
ion Cr   0.250000000000000   0.625923334166667   0.566263642491738 1
ion Cr   0.375000000000000   0.625923334166667   0.434194819914947 1
ion Cr   0.500000000000000   0.625923334166667   0.566263642491738 1
ion Cr   0.625000000000000   0.625923334166667   0.434194819914947 1
ion Cr   0.750000000000000   0.625923334166667   0.566263642491738 1
ion Cr   0.875000000000000   0.625923334166667   0.434194819914947 1
ion Cr  -0.000000000000000   0.875923334166667   0.566263642491738 1
ion Cr   0.125000000000000   0.875923334166667   0.434194819914947 1
ion Cr   0.250000000000000   0.875923334166667   0.566263642491738 1
ion Cr   0.375000000000000   0.875923334166667   0.434194819914947 1
ion Cr   0.500000000000000   0.875923334166667   0.566263642491738 1
ion Cr   0.625000000000000   0.875923334166667   0.434194819914947 1
ion Cr   0.750000000000000   0.875923334166667   0.566263642491738 1
ion Cr   0.875000000000000   0.875923334166667   0.434194819914947 1
ion B  -0.000000000000000   0.000923334166667   0.478462988728870 1
ion B   0.125000000000000   0.000923334166667   0.522070898843486 1
ion B   0.250000000000000   0.000923334166667   0.478462988728870 1
ion B   0.375000000000000   0.000923334166667   0.522070898843486 1
ion B   0.500000000000000   0.000923334166667   0.478462988728870 1
ion B   0.625000000000000   0.000923334166667   0.522070898843486 1
ion B   0.750000000000000   0.000923334166667   0.478462988728870 1
ion B   0.875000000000000   0.000923334166667   0.522070898843486 1
ion B  -0.000000000000000   0.250923334166667   0.478462988728870 1
ion B   0.125000000000000   0.250923334166667   0.522070898843486 1
ion B   0.250000000000000   0.250923334166667   0.478462988728870 1
ion B   0.375000000000000   0.250923334166667   0.522070898843486 1
ion B   0.500000000000000   0.250923334166667   0.478462988728870 1
ion B   0.625000000000000   0.250923334166667   0.522070898843486 1
ion B   0.750000000000000   0.250923334166667   0.478462988728870 1
ion B   0.875000000000000   0.250923334166667   0.522070898843486 1
ion B   0.000000000000000   0.500923334166667   0.478462988728870 1
ion B   0.125000000000000   0.500923334166667   0.522070898843486 1
ion B   0.250000000000000   0.500923334166667   0.478462988728870 1
ion B   0.375000000000000   0.500923334166667   0.522070898843486 1
ion B   0.500000000000000   0.500923334166667   0.478462988728870 1
ion B   0.625000000000000   0.500923334166667   0.522070898843486 1
ion B   0.750000000000000   0.500923334166667   0.478462988728870 1
ion B   0.875000000000000   0.500923334166667   0.522070898843486 1
ion B  -0.000000000000000   0.750923334166667   0.478462988728870 1
ion B   0.125000000000000   0.750923334166667   0.522070898843486 1
ion B   0.250000000000000   0.750923334166667   0.478462988728870 1
ion B   0.375000000000000   0.750923334166667   0.522070898843486 1
ion B   0.500000000000000   0.750923334166667   0.478462988728870 1
ion B   0.625000000000000   0.750923334166667   0.522070898843486 1
ion B   0.750000000000000   0.750923334166667   0.478462988728870 1
ion B   0.875000000000000   0.750923334166667   0.522070898843486 1
ion O   0.125000000000000   0.125923334166667   0.629638459842684 1
ion O  -0.000000000000000   0.125923334166667   0.370879225178275 1
ion O   0.375000000000000   0.125923334166667   0.629638459842684 1
ion O   0.250000000000000   0.125923334166667   0.370879225178275 1
ion O   0.625000000000000   0.125923334166667   0.629638459842684 1
ion O   0.500000000000000   0.125923334166667   0.370879225178275 1
ion O   0.875000000000000   0.125923334166667   0.629638459842684 1
ion O   0.750000000000000   0.125923334166667   0.370879225178275 1
ion O   0.125000000000000   0.375923334166667   0.629638459842684 1
ion O  -0.000000000000000   0.375923334166667   0.370879225178275 1
ion O   0.375000000000000   0.375923334166667   0.629638459842684 1
ion O   0.250000000000000   0.375923334166667   0.370879225178275 1
ion O   0.625000000000000   0.375923334166667   0.629638459842684 1
ion O   0.500000000000000   0.375923334166667   0.370879225178275 1
ion O   0.875000000000000   0.375923334166667   0.629638459842684 1
ion O   0.750000000000000   0.375923334166667   0.370879225178275 1
ion O   0.125000000000000   0.625923334166667   0.629638459842684 1
ion O  -0.000000000000000   0.625923334166667   0.370879225178275 1
ion O   0.375000000000000   0.625923334166667   0.629638459842684 1
ion O   0.250000000000000   0.625923334166667   0.370879225178275 1
ion O   0.625000000000000   0.625923334166667   0.629638459842684 1
ion O   0.500000000000000   0.625923334166667   0.370879225178275 1
ion O   0.875000000000000   0.625923334166667   0.629638459842684 1
ion O   0.750000000000000   0.625923334166667   0.370879225178275 1
ion O   0.125000000000000   0.875923334166667   0.629638459842684 1
ion O   0.000000000000000   0.875923334166667   0.370879225178275 1
ion O   0.375000000000000   0.875923334166667   0.629638459842684 1
ion O   0.250000000000000   0.875923334166667   0.370879225178275 1
ion O   0.625000000000000   0.875923334166667   0.629638459842684 1
ion O   0.500000000000000   0.875923334166667   0.370879225178275 1
ion O   0.875000000000000   0.875923334166667   0.629638459842684 1
ion O   0.750000000000000   0.875923334166667   0.370879225178275 1


# Forces in Lattice coordinates:
force Cr  -0.000000000000000  -0.000000000000000  -0.000201789126661 1
force Cr   0.000000000000000  -0.000000000000000  -0.002106448752701 1
force Cr  -0.000000000000000  -0.000000000000000  -0.000201789127116 1
force Cr   0.000000000000000   0.000000000000000  -0.002106448752702 1
force Cr  -0.000000000000000  -0.000000000000000  -0.000201789126889 1
force Cr   0.000000000000000  -0.000000000000000  -0.002106448752476 1
force Cr  -0.000000000000000   0.000000000000000  -0.000201789126661 1
force Cr  -0.000000000000000  -0.000000000000000  -0.002106448752475 1
force Cr  -0.000000000000000  -0.000000000000000  -0.000201789126888 1
force Cr   0.000000000000000  -0.000000000000000  -0.002106448752702 1
force Cr  -0.000000000000000   0.000000000000000  -0.000201789127116 1
force Cr   0.000000000000000  -0.000000000000000  -0.002106448752929 1
force Cr   0.000000000000000  -0.000000000000000  -0.000201789126887 1
force Cr  -0.000000000000000  -0.000000000000000  -0.002106448752929 1
force Cr   0.000000000000000  -0.000000000000000  -0.000201789126889 1
force Cr  -0.000000000000000   0.000000000000000  -0.002106448752701 1
force Cr  -0.000000000000000  -0.000000000000000  -0.000201789126888 1
force Cr   0.000000000000000  -0.000000000000000  -0.002106448752701 1
force Cr   0.000000000000000  -0.000000000000000  -0.000201789127115 1
force Cr   0.000000000000000   0.000000000000000  -0.002106448752929 1
force Cr   0.000000000000000  -0.000000000000000  -0.000201789127344 1
force Cr   0.000000000000000  -0.000000000000000  -0.002106448752700 1
force Cr   0.000000000000000   0.000000000000000  -0.000201789127798 1
force Cr  -0.000000000000000  -0.000000000000000  -0.002106448752701 1
force Cr  -0.000000000000000  -0.000000000000000  -0.000201789127343 1
force Cr  -0.000000000000000  -0.000000000000000  -0.002106448752702 1
force Cr   0.000000000000000  -0.000000000000000  -0.000201789127115 1
force Cr   0.000000000000000  -0.000000000000000  -0.002106448752930 1
force Cr  -0.000000000000000  -0.000000000000000  -0.000201789127343 1
force Cr  -0.000000000000000   0.000000000000000  -0.002106448752929 1
force Cr  -0.000000000000000  -0.000000000000000  -0.000201789127343 1
force Cr   0.000000000000000   0.000000000000000  -0.002106448752702 1
force B   0.000000000000000   0.000000000000000  -0.003131450885039 1
force B   0.000000000000000   0.000000000000000  -0.003893394861115 1
force B   0.000000000000000  -0.000000000000000  -0.003131450885010 1
force B   0.000000000000000  -0.000000000000000  -0.003893394861115 1
force B  -0.000000000000000  -0.000000000000000  -0.003131450885011 1
force B   0.000000000000000  -0.000000000000000  -0.003893394861115 1
force B   0.000000000000000  -0.000000000000000  -0.003131450885011 1
force B   0.000000000000000  -0.000000000000000  -0.003893394861115 1
force B   0.000000000000000  -0.000000000000000  -0.003131450885153 1
force B   0.000000000000000  -0.000000000000000  -0.003893394861087 1
force B  -0.000000000000000   0.000000000000000  -0.003131450885067 1
force B   0.000000000000000   0.000000000000000  -0.003893394861086 1
force B  -0.000000000000000   0.000000000000000  -0.003131450885067 1
force B   0.000000000000000  -0.000000000000000  -0.003893394861115 1
force B  -0.000000000000000   0.000000000000000  -0.003131450885124 1
force B  -0.000000000000000  -0.000000000000000  -0.003893394861058 1
force B  -0.000000000000000   0.000000000000000  -0.003131450885181 1
force B   0.000000000000000  -0.000000000000000  -0.003893394861115 1
force B   0.000000000000000  -0.000000000000000  -0.003131450885210 1
force B  -0.000000000000000  -0.000000000000000  -0.003893394861115 1
force B   0.000000000000000  -0.000000000000000  -0.003131450885181 1
force B  -0.000000000000000  -0.000000000000000  -0.003893394861115 1
force B  -0.000000000000000  -0.000000000000000  -0.003131450885210 1
force B  -0.000000000000000   0.000000000000000  -0.003893394861143 1
force B   0.000000000000000  -0.000000000000000  -0.003131450885096 1
force B  -0.000000000000000  -0.000000000000000  -0.003893394861115 1
force B   0.000000000000000   0.000000000000000  -0.003131450885124 1
force B  -0.000000000000000   0.000000000000000  -0.003893394861115 1
force B   0.000000000000000  -0.000000000000000  -0.003131450885096 1
force B  -0.000000000000000   0.000000000000000  -0.003893394861115 1
force B  -0.000000000000000   0.000000000000000  -0.003131450885067 1
force B  -0.000000000000000   0.000000000000000  -0.003893394861115 1
force O  -0.000000000000000   0.000000000000000  -0.003193702330947 1
force O   0.000000000000000   0.000000000000000  -0.005690742567975 1
force O  -0.000000000000000  -0.000000000000000  -0.003193702331174 1
force O   0.000000000000000   0.000000000000000  -0.005690742567747 1
force O   0.000000000000000   0.000000000000000  -0.003193702331174 1
force O  -0.000000000000000   0.000000000000000  -0.005690742567975 1
force O  -0.000000000000000  -0.000000000000000  -0.003193702331178 1
force O  -0.000000000000000   0.000000000000000  -0.005690742567747 1
force O   0.000000000000000   0.000000000000000  -0.003193702331856 1
force O   0.000000000000000   0.000000000000000  -0.005690742567520 1
force O  -0.000000000000000   0.000000000000000  -0.003193702331853 1
force O  -0.000000000000000   0.000000000000000  -0.005690742567744 1
force O   0.000000000000000   0.000000000000000  -0.003193702331625 1
force O   0.000000000000000  -0.000000000000000  -0.005690742567744 1
force O   0.000000000000000   0.000000000000000  -0.003193702331853 1
force O   0.000000000000000   0.000000000000000  -0.005690742567747 1
force O   0.000000000000000   0.000000000000000  -0.003193702332759 1
force O   0.000000000000000   0.000000000000000  -0.005690742567975 1
force O  -0.000000000000000   0.000000000000000  -0.003193702332531 1
force O   0.000000000000000   0.000000000000000  -0.005690742567975 1
force O  -0.000000000000000   0.000000000000000  -0.003193702332762 1
force O  -0.000000000000000   0.000000000000000  -0.005690742567975 1
force O   0.000000000000000   0.000000000000000  -0.003193702332759 1
force O   0.000000000000000  -0.000000000000000  -0.005690742567975 1
force O   0.000000000000000   0.000000000000000  -0.003193702331853 1
force O  -0.000000000000000  -0.000000000000000  -0.005690742567978 1
force O  -0.000000000000000   0.000000000000000  -0.003193702332080 1
force O  -0.000000000000000   0.000000000000000  -0.005690742567978 1
force O   0.000000000000000  -0.000000000000000  -0.003193702331625 1
force O  -0.000000000000000   0.000000000000000  -0.005690742567975 1
force O   0.000000000000000  -0.000000000000000  -0.003193702331853 1
force O  -0.000000000000000   0.000000000000000  -0.005690742567975 1

# Energy components:
   A_diel =       -2.1329125756172482
   Eewald =    31801.7555143039826362
       EH =    35080.1362007919815369
     Eloc =   -71090.7980586073390441
      Enl =      384.7545731111658824
      Exc =     -524.2858817003902914
 Exc_core =       37.5012998082197910
       KE =      922.6788240776099883
  MuShift =       -0.1279415615460812
-------------------------------------
     Etot =    -3390.5183823519355428
       TS =        0.1863986635622932
-------------------------------------
        F =    -3390.7047810154977014
      muN =     -127.0588662296222680
-------------------------------------
        G =    -3263.6459147858754477

IonicMinimize: Iter:   6  G: -3263.645914785875448  |grad|_K:  2.571e-05  alpha:  1.000e+00  linmin:  3.703e-01  t[s]:  36383.46
IonicMinimize: Converged (|grad|_K<1.000000e-04).

#--- Lowdin population analysis ---
# oxidation-state Cr +1.147 +1.146 +1.147 +1.146 +1.147 +1.146 +1.147 +1.146 +1.147 +1.146 +1.147 +1.146 +1.147 +1.146 +1.147 +1.146 +1.147 +1.146 +1.147 +1.146 +1.147 +1.146 +1.147 +1.146 +1.147 +1.146 +1.147 +1.146 +1.147 +1.146 +1.147 +1.146
# oxidation-state B -0.599 -0.598 -0.599 -0.598 -0.599 -0.598 -0.599 -0.598 -0.599 -0.598 -0.599 -0.598 -0.599 -0.598 -0.599 -0.598 -0.599 -0.598 -0.599 -0.598 -0.599 -0.598 -0.599 -0.598 -0.599 -0.598 -0.599 -0.598 -0.599 -0.598 -0.599 -0.598
# oxidation-state O -0.627 -0.626 -0.627 -0.626 -0.627 -0.626 -0.627 -0.626 -0.627 -0.626 -0.627 -0.626 -0.627 -0.626 -0.627 -0.626 -0.627 -0.626 -0.627 -0.626 -0.627 -0.626 -0.627 -0.626 -0.627 -0.626 -0.627 -0.626 -0.627 -0.626 -0.627 -0.626


Dumping 'NbTe2.fillings' ... done
Dumping 'NbTe2.wfns' ... done
Dumping 'NbTe2.fluidState' ... done
Dumping 'NbTe2.ionpos' ... done
Dumping 'NbTe2.eigenvals' ... done
End date and time: Fri Apr 23 08:24:34 2021  (Duration: 0-10:06:32.43)
Done!
