
*************** JDFTx 1.5.0  ***************

Start date and time: Sat Jul 11 20:48:16 2020
Executable jdftx_gpu with command-line: -i Charged.in -o Charged.out
Running on hosts (process indices):  amax (0-1)
Divided in process groups (process indices):  0 (0)  1 (1)
gpuInit: Found compatible cuda device 0 'Tesla K80'
gpuInit: Found compatible cuda device 1 'Tesla K80'
gpuInit: Selected device 0
Resource initialization completed at t[s]:     10.99
Run totals: 2 processes, 24 threads, 2 GPUs


Input parsed successfully to the following command list (including defaults):

basis kpoint-dependent
cache-projectors no
coords-type Lattice
core-overlap-check none
coulomb-interaction Slab 001
coulomb-truncation-embed 0 0 0.5
davidson-band-ratio 1.1
dump End State
dump-name NbTe2.$VAR
elec-cutoff 20 100
elec-eigen-algo Davidson
elec-ex-corr gga-PBE
elec-smearing Gauss 0.0073499
electronic-minimize  \
	dirUpdateScheme      FletcherReeves \
	linminMethod         DirUpdateRecommended \
	nIterations          500 \
	history              15 \
	knormThreshold       0 \
	energyDiffThreshold  1e-08 \
	nEnergyDiff          2 \
	alphaTstart          1 \
	alphaTmin            1e-10 \
	updateTestStepSize   yes \
	alphaTreduceFactor   0.1 \
	alphaTincreaseFactor 3 \
	nAlphaAdjustMax      3 \
	wolfeEnergy          0.0001 \
	wolfeGradient        0.9 \
	fdTest               no
exchange-regularization WignerSeitzTruncated
fluid LinearPCM 298.000000 1.013250
fluid-anion F- 1 MeanFieldLJ \
	epsBulk 1 \
	pMol 0 \
	epsInf 1 \
	Pvap 0 \
	sigmaBulk 0 \
	Rvdw 2.24877 \
	Res 0 \
	tauNuc 343133
fluid-cation Na+ 1 MeanFieldLJ \
	epsBulk 1 \
	pMol 0 \
	epsInf 1 \
	Pvap 0 \
	sigmaBulk 0 \
	Rvdw 2.19208 \
	Res 0 \
	tauNuc 343133
fluid-ex-corr lda-TF lda-PZ
fluid-gummel-loop 10 1.000000e-05
fluid-minimize  \
	dirUpdateScheme      PolakRibiere \
	linminMethod         DirUpdateRecommended \
	nIterations          400 \
	history              15 \
	knormThreshold       1e-11 \
	energyDiffThreshold  0 \
	nEnergyDiff          2 \
	alphaTstart          1 \
	alphaTmin            1e-10 \
	updateTestStepSize   yes \
	alphaTreduceFactor   0.1 \
	alphaTincreaseFactor 3 \
	nAlphaAdjustMax      6 \
	wolfeEnergy          0.0001 \
	wolfeGradient        0.9 \
	fdTest               no
fluid-solvent H2O 55.338 ScalarEOS \
	epsBulk 78.4 \
	pMol 0.92466 \
	epsInf 1.77 \
	Pvap 1.06736e-10 \
	sigmaBulk 4.62e-05 \
	Rvdw 2.61727 \
	Res 1.42 \
	tauNuc 343133 \
	poleEl 15 7 1
forces-output-coords Positions
initial-state NbTe2.$VAR
ion Nb   0.164711947170022   0.181924217945280   0.493697461390396 0
ion Nb   0.006185445828327   0.979237082062930   0.499294445408692 0
ion Nb   0.798824643013548   0.802314002536881   0.503467136493547 0
ion Nb   0.592453983748957   0.623711067727317   0.504599753888221 0
ion Nb   0.496641101938186   0.983312035893660   0.499848410517623 0
ion Nb   0.396628611125776   0.424475162921498   0.493401615882344 0
ion Nb   0.297364039288239   0.803778420272542   0.503256145071686 0
ion Nb   0.093522112006535   0.621771123109329   0.504452744243137 0
ion Nb   0.894062061105078   0.380018359875534   0.498487759033372 0
ion Ir   0.733267499274165   0.214523914209211   0.494836688533187 0
ion Se   0.939618953562520   0.262495240826678   0.595109575015832 0
ion Se   0.174782081753371   0.330601326211472   0.413807929589528 0
ion Se   0.722725437497270   0.078869888986438   0.573422478191376 0
ion Se   0.955502315543167   0.123911505841938   0.405697395656558 0
ion Se   0.532890461745949   0.867514758847137   0.598429590212974 0
ion Se   0.761606087221205   0.931319410525242   0.405470551542714 0
ion Se   0.658712677211984   0.337498080394364   0.404745991301708 0
ion Se   0.331845673018051   0.672303219805476   0.600118534513086 0
ion Se   0.224902051806799   0.063960952089549   0.589393468644686 0
ion Se   0.478620622923790   0.140410996955857   0.423420788653566 0
ion Se   0.564414235349768   0.740834738832458   0.407842439859594 0
ion Se   0.133597368284488   0.466310949451696   0.584925027772201 0
ion Se   0.029996579041672   0.865620697939378   0.599087260587245 0
ion Se   0.363042181368131   0.549445626619957   0.409087055805167 0
ion Se   0.265492771980559   0.932174445369178   0.403238573960963 0
ion Se   0.832506067939422   0.670836968067416   0.600027146633874 0
ion Se   0.062197065757023   0.740016274559616   0.407982562790482 0
ion Se   0.632674363375966   0.469093477058816   0.585596935077480 0
ion Se   0.865706925120038   0.536282903063143   0.424229494728747 0
ion-species GBRV/$ID_pbe.uspp
ion-width Ecut
ionic-minimize  \
	dirUpdateScheme      L-BFGS \
	linminMethod         DirUpdateRecommended \
	nIterations          0 \
	history              15 \
	knormThreshold       0.0001 \
	energyDiffThreshold  1e-06 \
	nEnergyDiff          2 \
	alphaTstart          1 \
	alphaTmin            1e-10 \
	updateTestStepSize   yes \
	alphaTreduceFactor   0.1 \
	alphaTincreaseFactor 3 \
	nAlphaAdjustMax      3 \
	wolfeEnergy          0.0001 \
	wolfeGradient        0.9 \
	fdTest               no
kpoint   0.000000000000   0.000000000000   0.000000000000  1.00000000000000
kpoint-folding 5 2 1 
latt-move-scale 1 1 1
latt-scale 1 1 1 
lattice Triclinic 13.0583 28.5428 34.8986 90 90 83.5088
lattice-minimize  \
	dirUpdateScheme      L-BFGS \
	linminMethod         DirUpdateRecommended \
	nIterations          0 \
	history              15 \
	knormThreshold       0 \
	energyDiffThreshold  1e-06 \
	nEnergyDiff          2 \
	alphaTstart          1 \
	alphaTmin            1e-10 \
	updateTestStepSize   yes \
	alphaTreduceFactor   0.1 \
	alphaTincreaseFactor 3 \
	nAlphaAdjustMax      3 \
	wolfeEnergy          0.0001 \
	wolfeGradient        0.9 \
	fdTest               no
lcao-params -1 1e-06 0.0073499
pcm-variant CANDLE
spintype no-spin
subspace-rotation-factor 1 yes
symmetries automatic
symmetry-threshold 0.0001
target-mu -0.171252 no




---------- Setting up symmetries ----------

Found 4 point-group symmetries of the bravais lattice
Found 1 space-group symmetries with basis
Applied RMS atom displacement 0 bohrs to make symmetries exact.

---------- Initializing the Grid ----------
R = 
[    13.0583    3.22678          0  ]
[          0    28.3598          0  ]
[          0          0    34.8986  ]
unit cell volume = 12924.1
G =
[   0.481163 -0.0547467          0  ]
[          0   0.221552          0  ]
[          0          0   0.180041  ]
Minimum fftbox size, Smin = [  60  132  160  ]
Chosen fftbox size, S = [  60  140  160  ]

---------- Initializing tighter grid for wavefunction operations ----------
R = 
[    13.0583    3.22678          0  ]
[          0    28.3598          0  ]
[          0          0    34.8986  ]
unit cell volume = 12924.1
G =
[   0.481163 -0.0547467          0  ]
[          0   0.221552          0  ]
[          0          0   0.180041  ]
Minimum fftbox size, Smin = [  56  116  144  ]
Chosen fftbox size, S = [  56  120  144  ]

---------- Exchange Correlation functional ----------
Initalized PBE GGA exchange.
Initalized PBE GGA correlation.

---------- Setting up pseudopotentials ----------
Width of ionic core gaussian charges (only for fluid interactions / plotting) set to 0.397384

Reading pseudopotential file '/home/guoxy/vasp/jdftx-1.5.0/build/pseudopotentials/GBRV/nb_pbe.uspp':
  Title: Nb.  Created by USPP 7.3.6 on 14-9-2013
  Reference state energy: -58.592548.  13 valence electrons in orbitals:
    |400>  occupation: 2  eigenvalue: -2.145853
    |410>  occupation: 6  eigenvalue: -1.268635
    |420>  occupation: 4  eigenvalue: -0.111734
    |500>  occupation: 1  eigenvalue: -0.146332
    |510>  occupation: 0  eigenvalue: -0.040820
  lMax: 2  lLocal: 3  QijEcut: 5
  6 projectors sampled on a log grid with 627 points:
    l: 0  eig: -2.145854  rCut: 1.8
    l: 0  eig: -0.146334  rCut: 1.8
    l: 1  eig: -1.268634  rCut: 2
    l: 1  eig: 0.150000  rCut: 2
    l: 2  eig: -0.040820  rCut: 2.2
    l: 2  eig: 0.150000  rCut: 2.2
  Partial core density with radius 1.2
  Transforming core density to a uniform radial grid of dG=0.02 with 1338 points.
  Transforming local potential to a uniform radial grid of dG=0.02 with 1338 points.
  Transforming nonlocal projectors to a uniform radial grid of dG=0.02 with 432 points.
  Transforming density augmentations to a uniform radial grid of dG=0.02 with 1338 points.
  Transforming atomic orbitals to a uniform radial grid of dG=0.02 with 432 points.
  Core radius for overlap checks: 2.20 bohrs.

Reading pseudopotential file '/home/guoxy/vasp/jdftx-1.5.0/build/pseudopotentials/GBRV/ir_pbe.uspp':
  Title: Ir.  Created by USPP 7.3.6 on 3-2-2014
  Reference state energy: -90.436894.  15 valence electrons in orbitals:
    |510>  occupation: 6  eigenvalue: -2.019590
    |520>  occupation: 8.5  eigenvalue: -0.306422
    |600>  occupation: 0  eigenvalue: -0.312524
    |610>  occupation: 0  eigenvalue: -0.124096
  lMax: 2  lLocal: 3  QijEcut: 5
  7 projectors sampled on a log grid with 745 points:
    l: 0  eig: -0.312523  rCut: 2.55
    l: 0  eig: 0.250000  rCut: 2.55
    l: 1  eig: -2.019590  rCut: 1.62
    l: 1  eig: -0.124096  rCut: 1.62
    l: 1  eig: 1.000000  rCut: 1.62
    l: 2  eig: -0.500000  rCut: 1.65
    l: 2  eig: -0.306421  rCut: 1.65
  Partial core density with radius 1.15
  Transforming core density to a uniform radial grid of dG=0.02 with 1338 points.
  Transforming local potential to a uniform radial grid of dG=0.02 with 1338 points.
  Transforming nonlocal projectors to a uniform radial grid of dG=0.02 with 432 points.
  Transforming density augmentations to a uniform radial grid of dG=0.02 with 1338 points.
  Transforming atomic orbitals to a uniform radial grid of dG=0.02 with 432 points.
  Core radius for overlap checks: 2.55 bohrs.

Reading pseudopotential file '/home/guoxy/vasp/jdftx-1.5.0/build/pseudopotentials/GBRV/se_pbe.uspp':
  Title: Se.  Created by USPP 7.3.6 on 14-9-2013
  Reference state energy: -21.672887.  6 valence electrons in orbitals:
    |400>  occupation: 2  eigenvalue: -0.635284
    |410>  occupation: 4  eigenvalue: -0.239295
  lMax: 2  lLocal: 3  QijEcut: 5
  6 projectors sampled on a log grid with 625 points:
    l: 0  eig: -0.635278  rCut: 1.5
    l: 0  eig: 0.500000  rCut: 1.5
    l: 1  eig: -0.239295  rCut: 1.5
    l: 1  eig: 0.500000  rCut: 1.5
    l: 2  eig: 0.000000  rCut: 1.8
    l: 2  eig: 1.000000  rCut: 1.8
  Partial core density with radius 1.2
  Transforming core density to a uniform radial grid of dG=0.02 with 1338 points.
  Transforming local potential to a uniform radial grid of dG=0.02 with 1338 points.
  Transforming nonlocal projectors to a uniform radial grid of dG=0.02 with 432 points.
  Transforming density augmentations to a uniform radial grid of dG=0.02 with 1338 points.
  Transforming atomic orbitals to a uniform radial grid of dG=0.02 with 432 points.
  Core radius for overlap checks: 1.80 bohrs.

Initialized 3 species with 29 total atoms.

Folded 1 k-points by 5x2x1 to 10 k-points.

---------- Setting up k-points, bands, fillings ----------
Adding inversion symmetry to k-mesh for non-inversion-symmetric unit cell.
Reduced to 6 k-points under symmetry. 
Computing the number of bands and number of electrons
Reading initial fillings from file NbTe2.fillings.
nElectrons: 246.000000   nBands: 205   nStates: 6

----- Setting up reduced wavefunction bases (one per k-point) -----
average nbasis = 55213.300 , ideal nbasis = 55212.649

---------- Setting up coulomb interaction ----------
Fluid mode embedding: using embedded box, but periodic Coulomb kernel.
(Fluid response is responsible for (approximate) separation between periodic images.)
Setting up double-sized grid for truncated Coulomb potentials:
R = 
[    13.0583    3.22678          0  ]
[          0    28.3598          0  ]
[          0          0    69.7973  ]
unit cell volume = 25848.2
G =
[   0.481163 -0.0547467          0  ]
[          0   0.221552          0  ]
[          0          0  0.0900205  ]
Chosen fftbox size, S = [  60  140  320  ]
Integer grid location selected as the embedding center:
   Grid: [  0  0  80  ]
   Lattice: [  0  0  0.5  ]
   Cartesian: [  0  0  17.4493  ]
Constructing Wigner-Seitz cell: 8 faces (6 quadrilaterals, 2 hexagons)
Range-separation parameter for embedded mesh potentials due to point charges: 0.589189 bohrs.

Initializing van der Waals corrections
	NOTE: vdW corrections apply only for interactions with fluid.
	Nb:  C6:  427.91 Eh-a0^6  R0: 3.097 a0
	Ir:  C6:  815.23 Eh-a0^6  R0: 3.326 a0 (WARNING: beyond Grimme's data set)
	Se:  C6:  219.24 Eh-a0^6  R0: 3.347 a0

---------- Setting up ewald sum ----------
Optimum gaussian width for ewald sums = 6.729564 bohr.
Real space sum over 585 unit cells with max indices [  6  4  2  ]
Reciprocal space sum over 5355 terms with max indices [  4  8  17  ]

---------- Allocating electronic variables ----------
Initializing wave functions:  reading from 'NbTe2.wfns'
----- createFluidSolver() ----- (Fluid-side solver setup)
   Initializing fluid molecule 'H2O'
     Initializing site 'O'
       Electron density: proportional to exp(-r/0.36935)*erfc((r-0.51523)/0.36823) with norm 6.826
       Charge density: gaussian nuclear width 0.478731 with net site charge 0.826
       Polarizability: cuspless exponential with width 0.32 and norm 3.73
       Hard sphere radius: 2.57003 bohrs
       Positions in reference frame:
         [ +0.000000 +0.000000 +0.000000 ]
     Initializing site 'H'
       Electron density: proportional to exp(-r/0.34641)*erfc((r-0)/0.390882) with norm 0.587
       Charge density: gaussian nuclear width 0.377945 with net site charge -0.413
       Polarizability: cuspless exponential with width 0.39 and norm 3.3
       Positions in reference frame:
         [ +0.000000 -1.441945 +1.122523 ]
         [ +0.000000 +1.441945 +1.122523 ]
     Net charge: 0   dipole magnitude: 0.927204
     Initializing spherical shell mfKernel with radius 2.61727 Bohr
     deltaS corrections:
       site 'O': -7.54299
       site 'H': -6.83917
   Initializing fluid molecule 'Na+'
     Initializing site 'Na'
       Electron density: proportional to exp(-r/0.19682)*erfc((r-0.71491)/0.41314) with norm 8.1383
       Charge density: gaussian nuclear width 0.365347 with net site charge -1
       Hard sphere radius: 1.86327 bohrs
       Positions in reference frame:
         [ +0.000000 +0.000000 +0.000000 ]
     Net charge: -1   dipole magnitude: 0
     Initializing gaussian mfKernel with width: 1.55004 Bohr
     deltaS corrections:
       site 'Na': -22.3555
   Initializing fluid molecule 'F-'
     Initializing site 'F'
       Electron density: proportional to exp(-r/0.38886)*erfc((r-0)/0.438782) with norm 8
       Charge density: gaussian nuclear width 0.374796 with net site charge 1
       Hard sphere radius: 2.39995 bohrs
       Positions in reference frame:
         [ +0.000000 +0.000000 +0.000000 ]
     Net charge: 1   dipole magnitude: 0
     Initializing gaussian mfKernel with width: 1.59012 Bohr
     deltaS corrections:
       site 'F': -9.04335

Correction to mu due to finite nuclear width = -0.00944289
   Cavity determined by nc: 0.00142 and sigma: 0.707107
   Nonlocal vdW cavity from gaussian model electron density with norm = 8 and sigma = 0.993594 bohr
   Charge asymmetry in cavity with sensitivity pCavity = 36.5 e-bohr/Eh
   Electrostatic cavity expanded by eta = 1.46 bohrs
   Weighted density cavitation model constrained by Nbulk: 0.0049383 bohr^-3, Pvap: 3.14029 kPa, Rvdw: 2.61727 bohr and sigmaBulk: 4.62e-05 Eh/bohr^2 at T: 298 K.
   Weighted density dispersion model using vdW pair potentials with single solvent site with sqrtC6eff: 0.77 SI.
Reading fluid state from 'NbTe2.fluidState'


---- Citations for features of the code used in this run ----

   Software package:
      R. Sundararaman, K. Letchworth-Weaver, K.A. Schwarz, D. Gunceler, Y. Ozhabes and T.A. Arias, 'JDFTx: software for joint density-functional theory', SoftwareX 6, 278 (2017)

   gga-PBE exchange-correlation functional:
      J.P. Perdew, K. Burke and M. Ernzerhof, Phys. Rev. Lett. 77, 3865 (1996)

   Pseudopotentials:
      KF Garrity, JW Bennett, KM Rabe and D Vanderbilt, Comput. Mater. Sci. 81, 446 (2014)

   Truncated Coulomb potentials:
      R. Sundararaman and T.A. Arias, Phys. Rev. B 87, 165122 (2013)

   Van der Waals correction pair-potentials:
      S. Grimme, J. Comput. Chem. 27, 1787 (2006)

   Charge-asymmetric nonlocally-determined local-electric (CANDLE) solvation model:
      R. Sundararaman and W.A. Goddard III, J. Chem. Phys. 142, 064107 (2015)

   Total energy minimization with Auxiliary Hamiltonian:
      C. Freysoldt, S. Boeck, and J. Neugebauer, Phys. Rev. B 79, 241103(R) (2009)

   Grand-canonical (fixed-potential) DFT:
      R. Sundararaman, W. A. Goddard III and T. A. Arias, J. Chem. Phys. 146, 114104 (2017)

This list may not be complete. Please suggest additional citations or
report any other bugs at https://github.com/shankar1729/jdftx/issues

Initialization completed successfully at t[s]:     17.75


*************** JDFTx 1.5.0  ***************


*************** JDFTx 1.5.0  ***************

Start date and time: Sun Jul 12 18:58:47 2020
Executable jdftx_gpu with command-line: -i Charged.in -o Charged.out
Running on hosts (process indices):  amax (0-3)
Divided in process groups (process indices):  0 (0)  1 (1)  2 (2)  3 (3)
gpuInit: Found compatible cuda device 0 'Tesla K80'
gpuInit: Found compatible cuda device 1 'Tesla K80'
gpuInit: Found compatible cuda device 2 'Tesla K80'
gpuInit: Found compatible cuda device 3 'Tesla K80'
gpuInit: Selected device 0
Resource initialization completed at t[s]:     15.99
Run totals: 4 processes, 24 threads, 4 GPUs


Input parsed successfully to the following command list (including defaults):

basis kpoint-dependent
cache-projectors no
coords-type Lattice
core-overlap-check none
coulomb-interaction Slab 001
coulomb-truncation-embed 0 0 0.5
davidson-band-ratio 1.1
dump End State
dump-name NbTe2.$VAR
elec-cutoff 20 100
elec-eigen-algo Davidson
elec-ex-corr gga-PBE
elec-smearing Gauss 0.0073499
electronic-minimize  \
	dirUpdateScheme      FletcherReeves \
	linminMethod         DirUpdateRecommended \
	nIterations          500 \
	history              15 \
	knormThreshold       0 \
	energyDiffThreshold  1e-08 \
	nEnergyDiff          2 \
	alphaTstart          1 \
	alphaTmin            1e-10 \
	updateTestStepSize   yes \
	alphaTreduceFactor   0.1 \
	alphaTincreaseFactor 3 \
	nAlphaAdjustMax      3 \
	wolfeEnergy          0.0001 \
	wolfeGradient        0.9 \
	fdTest               no
exchange-regularization WignerSeitzTruncated
fluid LinearPCM 298.000000 1.013250
fluid-anion F- 1 MeanFieldLJ \
	epsBulk 1 \
	pMol 0 \
	epsInf 1 \
	Pvap 0 \
	sigmaBulk 0 \
	Rvdw 2.24877 \
	Res 0 \
	tauNuc 343133
fluid-cation Na+ 1 MeanFieldLJ \
	epsBulk 1 \
	pMol 0 \
	epsInf 1 \
	Pvap 0 \
	sigmaBulk 0 \
	Rvdw 2.19208 \
	Res 0 \
	tauNuc 343133
fluid-ex-corr lda-TF lda-PZ
fluid-gummel-loop 10 1.000000e-05
fluid-minimize  \
	dirUpdateScheme      PolakRibiere \
	linminMethod         DirUpdateRecommended \
	nIterations          400 \
	history              15 \
	knormThreshold       1e-11 \
	energyDiffThreshold  0 \
	nEnergyDiff          2 \
	alphaTstart          1 \
	alphaTmin            1e-10 \
	updateTestStepSize   yes \
	alphaTreduceFactor   0.1 \
	alphaTincreaseFactor 3 \
	nAlphaAdjustMax      6 \
	wolfeEnergy          0.0001 \
	wolfeGradient        0.9 \
	fdTest               no
fluid-solvent H2O 55.338 ScalarEOS \
	epsBulk 78.4 \
	pMol 0.92466 \
	epsInf 1.77 \
	Pvap 1.06736e-10 \
	sigmaBulk 4.62e-05 \
	Rvdw 2.61727 \
	Res 1.42 \
	tauNuc 343133 \
	poleEl 15 7 1
forces-output-coords Positions
initial-state NbTe2.$VAR
ion Nb   0.164711947170022   0.181924217945280   0.493697461390396 0
ion Nb   0.006185445828327   0.979237082062930   0.499294445408692 0
ion Nb   0.798824643013548   0.802314002536881   0.503467136493547 0
ion Nb   0.592453983748957   0.623711067727317   0.504599753888221 0
ion Nb   0.496641101938186   0.983312035893660   0.499848410517623 0
ion Nb   0.396628611125776   0.424475162921498   0.493401615882344 0
ion Nb   0.297364039288239   0.803778420272542   0.503256145071686 0
ion Nb   0.093522112006535   0.621771123109329   0.504452744243137 0
ion Nb   0.894062061105078   0.380018359875534   0.498487759033372 0
ion Ir   0.733267499274165   0.214523914209211   0.494836688533187 0
ion Se   0.939618953562520   0.262495240826678   0.595109575015832 0
ion Se   0.174782081753371   0.330601326211472   0.413807929589528 0
ion Se   0.722725437497270   0.078869888986438   0.573422478191376 0
ion Se   0.955502315543167   0.123911505841938   0.405697395656558 0
ion Se   0.532890461745949   0.867514758847137   0.598429590212974 0
ion Se   0.761606087221205   0.931319410525242   0.405470551542714 0
ion Se   0.658712677211984   0.337498080394364   0.404745991301708 0
ion Se   0.331845673018051   0.672303219805476   0.600118534513086 0
ion Se   0.224902051806799   0.063960952089549   0.589393468644686 0
ion Se   0.478620622923790   0.140410996955857   0.423420788653566 0
ion Se   0.564414235349768   0.740834738832458   0.407842439859594 0
ion Se   0.133597368284488   0.466310949451696   0.584925027772201 0
ion Se   0.029996579041672   0.865620697939378   0.599087260587245 0
ion Se   0.363042181368131   0.549445626619957   0.409087055805167 0
ion Se   0.265492771980559   0.932174445369178   0.403238573960963 0
ion Se   0.832506067939422   0.670836968067416   0.600027146633874 0
ion Se   0.062197065757023   0.740016274559616   0.407982562790482 0
ion Se   0.632674363375966   0.469093477058816   0.585596935077480 0
ion Se   0.865706925120038   0.536282903063143   0.424229494728747 0
ion-species GBRV/$ID_pbe.uspp
ion-width Ecut
ionic-minimize  \
	dirUpdateScheme      L-BFGS \
	linminMethod         DirUpdateRecommended \
	nIterations          0 \
	history              15 \
	knormThreshold       0.0001 \
	energyDiffThreshold  1e-06 \
	nEnergyDiff          2 \
	alphaTstart          1 \
	alphaTmin            1e-10 \
	updateTestStepSize   yes \
	alphaTreduceFactor   0.1 \
	alphaTincreaseFactor 3 \
	nAlphaAdjustMax      3 \
	wolfeEnergy          0.0001 \
	wolfeGradient        0.9 \
	fdTest               no
kpoint   0.000000000000   0.000000000000   0.000000000000  1.00000000000000
kpoint-folding 5 2 1 
latt-move-scale 1 1 1
latt-scale 1 1 1 
lattice Triclinic 13.0583 28.5428 34.8986 90 90 83.5088
lattice-minimize  \
	dirUpdateScheme      L-BFGS \
	linminMethod         DirUpdateRecommended \
	nIterations          0 \
	history              15 \
	knormThreshold       0 \
	energyDiffThreshold  1e-06 \
	nEnergyDiff          2 \
	alphaTstart          1 \
	alphaTmin            1e-10 \
	updateTestStepSize   yes \
	alphaTreduceFactor   0.1 \
	alphaTincreaseFactor 3 \
	nAlphaAdjustMax      3 \
	wolfeEnergy          0.0001 \
	wolfeGradient        0.9 \
	fdTest               no
lcao-params -1 1e-06 0.0073499
pcm-variant CANDLE
spintype no-spin
subspace-rotation-factor 1 yes
symmetries automatic
symmetry-threshold 0.0001
target-mu -0.24475 no




---------- Setting up symmetries ----------

Found 4 point-group symmetries of the bravais lattice
Found 1 space-group symmetries with basis
Applied RMS atom displacement 0 bohrs to make symmetries exact.

---------- Initializing the Grid ----------
R = 
[    13.0583    3.22678          0  ]
[          0    28.3598          0  ]
[          0          0    34.8986  ]
unit cell volume = 12924.1
G =
[   0.481163 -0.0547467          0  ]
[          0   0.221552          0  ]
[          0          0   0.180041  ]
Minimum fftbox size, Smin = [  60  132  160  ]
Chosen fftbox size, S = [  60  140  160  ]

---------- Initializing tighter grid for wavefunction operations ----------
R = 
[    13.0583    3.22678          0  ]
[          0    28.3598          0  ]
[          0          0    34.8986  ]
unit cell volume = 12924.1
G =
[   0.481163 -0.0547467          0  ]
[          0   0.221552          0  ]
[          0          0   0.180041  ]
Minimum fftbox size, Smin = [  56  116  144  ]
Chosen fftbox size, S = [  56  120  144  ]

---------- Exchange Correlation functional ----------
Initalized PBE GGA exchange.
Initalized PBE GGA correlation.

---------- Setting up pseudopotentials ----------
Width of ionic core gaussian charges (only for fluid interactions / plotting) set to 0.397384

Reading pseudopotential file '/home/guoxy/vasp/jdftx-1.5.0/build/pseudopotentials/GBRV/nb_pbe.uspp':
  Title: Nb.  Created by USPP 7.3.6 on 14-9-2013
  Reference state energy: -58.592548.  13 valence electrons in orbitals:
    |400>  occupation: 2  eigenvalue: -2.145853
    |410>  occupation: 6  eigenvalue: -1.268635
    |420>  occupation: 4  eigenvalue: -0.111734
    |500>  occupation: 1  eigenvalue: -0.146332
    |510>  occupation: 0  eigenvalue: -0.040820
  lMax: 2  lLocal: 3  QijEcut: 5
  6 projectors sampled on a log grid with 627 points:
    l: 0  eig: -2.145854  rCut: 1.8
    l: 0  eig: -0.146334  rCut: 1.8
    l: 1  eig: -1.268634  rCut: 2
    l: 1  eig: 0.150000  rCut: 2
    l: 2  eig: -0.040820  rCut: 2.2
    l: 2  eig: 0.150000  rCut: 2.2
  Partial core density with radius 1.2
  Transforming core density to a uniform radial grid of dG=0.02 with 1338 points.
  Transforming local potential to a uniform radial grid of dG=0.02 with 1338 points.
  Transforming nonlocal projectors to a uniform radial grid of dG=0.02 with 432 points.
  Transforming density augmentations to a uniform radial grid of dG=0.02 with 1338 points.
  Transforming atomic orbitals to a uniform radial grid of dG=0.02 with 432 points.
  Core radius for overlap checks: 2.20 bohrs.

Reading pseudopotential file '/home/guoxy/vasp/jdftx-1.5.0/build/pseudopotentials/GBRV/ir_pbe.uspp':
  Title: Ir.  Created by USPP 7.3.6 on 3-2-2014
  Reference state energy: -90.436894.  15 valence electrons in orbitals:
    |510>  occupation: 6  eigenvalue: -2.019590
    |520>  occupation: 8.5  eigenvalue: -0.306422
    |600>  occupation: 0  eigenvalue: -0.312524
    |610>  occupation: 0  eigenvalue: -0.124096
  lMax: 2  lLocal: 3  QijEcut: 5
  7 projectors sampled on a log grid with 745 points:
    l: 0  eig: -0.312523  rCut: 2.55
    l: 0  eig: 0.250000  rCut: 2.55
    l: 1  eig: -2.019590  rCut: 1.62
    l: 1  eig: -0.124096  rCut: 1.62
    l: 1  eig: 1.000000  rCut: 1.62
    l: 2  eig: -0.500000  rCut: 1.65
    l: 2  eig: -0.306421  rCut: 1.65
  Partial core density with radius 1.15
  Transforming core density to a uniform radial grid of dG=0.02 with 1338 points.
  Transforming local potential to a uniform radial grid of dG=0.02 with 1338 points.
  Transforming nonlocal projectors to a uniform radial grid of dG=0.02 with 432 points.
  Transforming density augmentations to a uniform radial grid of dG=0.02 with 1338 points.
  Transforming atomic orbitals to a uniform radial grid of dG=0.02 with 432 points.
  Core radius for overlap checks: 2.55 bohrs.

Reading pseudopotential file '/home/guoxy/vasp/jdftx-1.5.0/build/pseudopotentials/GBRV/se_pbe.uspp':
  Title: Se.  Created by USPP 7.3.6 on 14-9-2013
  Reference state energy: -21.672887.  6 valence electrons in orbitals:
    |400>  occupation: 2  eigenvalue: -0.635284
    |410>  occupation: 4  eigenvalue: -0.239295
  lMax: 2  lLocal: 3  QijEcut: 5
  6 projectors sampled on a log grid with 625 points:
    l: 0  eig: -0.635278  rCut: 1.5
    l: 0  eig: 0.500000  rCut: 1.5
    l: 1  eig: -0.239295  rCut: 1.5
    l: 1  eig: 0.500000  rCut: 1.5
    l: 2  eig: 0.000000  rCut: 1.8
    l: 2  eig: 1.000000  rCut: 1.8
  Partial core density with radius 1.2
  Transforming core density to a uniform radial grid of dG=0.02 with 1338 points.
  Transforming local potential to a uniform radial grid of dG=0.02 with 1338 points.
  Transforming nonlocal projectors to a uniform radial grid of dG=0.02 with 432 points.
  Transforming density augmentations to a uniform radial grid of dG=0.02 with 1338 points.
  Transforming atomic orbitals to a uniform radial grid of dG=0.02 with 432 points.
  Core radius for overlap checks: 1.80 bohrs.

Initialized 3 species with 29 total atoms.

Folded 1 k-points by 5x2x1 to 10 k-points.

---------- Setting up k-points, bands, fillings ----------
Adding inversion symmetry to k-mesh for non-inversion-symmetric unit cell.
Reduced to 6 k-points under symmetry. 
Computing the number of bands and number of electrons
Reading initial fillings from file NbTe2.fillings.
nElectrons: 246.000000   nBands: 205   nStates: 6

----- Setting up reduced wavefunction bases (one per k-point) -----
average nbasis = 55213.300 , ideal nbasis = 55212.649

---------- Setting up coulomb interaction ----------
Fluid mode embedding: using embedded box, but periodic Coulomb kernel.
(Fluid response is responsible for (approximate) separation between periodic images.)
Setting up double-sized grid for truncated Coulomb potentials:
R = 
[    13.0583    3.22678          0  ]
[          0    28.3598          0  ]
[          0          0    69.7973  ]
unit cell volume = 25848.2
G =
[   0.481163 -0.0547467          0  ]
[          0   0.221552          0  ]
[          0          0  0.0900205  ]
Chosen fftbox size, S = [  60  140  320  ]
Integer grid location selected as the embedding center:
   Grid: [  0  0  80  ]
   Lattice: [  0  0  0.5  ]
   Cartesian: [  0  0  17.4493  ]
Constructing Wigner-Seitz cell: 8 faces (6 quadrilaterals, 2 hexagons)
Range-separation parameter for embedded mesh potentials due to point charges: 0.589189 bohrs.

Initializing van der Waals corrections
	NOTE: vdW corrections apply only for interactions with fluid.
	Nb:  C6:  427.91 Eh-a0^6  R0: 3.097 a0
	Ir:  C6:  815.23 Eh-a0^6  R0: 3.326 a0 (WARNING: beyond Grimme's data set)
	Se:  C6:  219.24 Eh-a0^6  R0: 3.347 a0

---------- Setting up ewald sum ----------
Optimum gaussian width for ewald sums = 6.729564 bohr.
Real space sum over 585 unit cells with max indices [  6  4  2  ]
Reciprocal space sum over 5355 terms with max indices [  4  8  17  ]

---------- Allocating electronic variables ----------
Initializing wave functions:  reading from 'NbTe2.wfns'
----- createFluidSolver() ----- (Fluid-side solver setup)
   Initializing fluid molecule 'H2O'
     Initializing site 'O'
       Electron density: proportional to exp(-r/0.36935)*erfc((r-0.51523)/0.36823) with norm 6.826
       Charge density: gaussian nuclear width 0.478731 with net site charge 0.826
       Polarizability: cuspless exponential with width 0.32 and norm 3.73
       Hard sphere radius: 2.57003 bohrs
       Positions in reference frame:
         [ +0.000000 +0.000000 +0.000000 ]
     Initializing site 'H'
       Electron density: proportional to exp(-r/0.34641)*erfc((r-0)/0.390882) with norm 0.587
       Charge density: gaussian nuclear width 0.377945 with net site charge -0.413
       Polarizability: cuspless exponential with width 0.39 and norm 3.3
       Positions in reference frame:
         [ +0.000000 -1.441945 +1.122523 ]
         [ +0.000000 +1.441945 +1.122523 ]
     Net charge: 0   dipole magnitude: 0.927204
     Initializing spherical shell mfKernel with radius 2.61727 Bohr
     deltaS corrections:
       site 'O': -7.54299
       site 'H': -6.83917
   Initializing fluid molecule 'Na+'
     Initializing site 'Na'
       Electron density: proportional to exp(-r/0.19682)*erfc((r-0.71491)/0.41314) with norm 8.1383
       Charge density: gaussian nuclear width 0.365347 with net site charge -1
       Hard sphere radius: 1.86327 bohrs
       Positions in reference frame:
         [ +0.000000 +0.000000 +0.000000 ]
     Net charge: -1   dipole magnitude: 0
     Initializing gaussian mfKernel with width: 1.55004 Bohr
     deltaS corrections:
       site 'Na': -22.3555
   Initializing fluid molecule 'F-'
     Initializing site 'F'
       Electron density: proportional to exp(-r/0.38886)*erfc((r-0)/0.438782) with norm 8
       Charge density: gaussian nuclear width 0.374796 with net site charge 1
       Hard sphere radius: 2.39995 bohrs
       Positions in reference frame:
         [ +0.000000 +0.000000 +0.000000 ]
     Net charge: 1   dipole magnitude: 0
     Initializing gaussian mfKernel with width: 1.59012 Bohr
     deltaS corrections:
       site 'F': -9.04335

Correction to mu due to finite nuclear width = -0.00944289
   Cavity determined by nc: 0.00142 and sigma: 0.707107
   Nonlocal vdW cavity from gaussian model electron density with norm = 8 and sigma = 0.993594 bohr
   Charge asymmetry in cavity with sensitivity pCavity = 36.5 e-bohr/Eh
   Electrostatic cavity expanded by eta = 1.46 bohrs
   Weighted density cavitation model constrained by Nbulk: 0.0049383 bohr^-3, Pvap: 3.14029 kPa, Rvdw: 2.61727 bohr and sigmaBulk: 4.62e-05 Eh/bohr^2 at T: 298 K.
   Weighted density dispersion model using vdW pair potentials with single solvent site with sqrtC6eff: 0.77 SI.
Reading fluid state from 'NbTe2.fluidState'


---- Citations for features of the code used in this run ----

   Software package:
      R. Sundararaman, K. Letchworth-Weaver, K.A. Schwarz, D. Gunceler, Y. Ozhabes and T.A. Arias, 'JDFTx: software for joint density-functional theory', SoftwareX 6, 278 (2017)

   gga-PBE exchange-correlation functional:
      J.P. Perdew, K. Burke and M. Ernzerhof, Phys. Rev. Lett. 77, 3865 (1996)

   Pseudopotentials:
      KF Garrity, JW Bennett, KM Rabe and D Vanderbilt, Comput. Mater. Sci. 81, 446 (2014)

   Truncated Coulomb potentials:
      R. Sundararaman and T.A. Arias, Phys. Rev. B 87, 165122 (2013)

   Van der Waals correction pair-potentials:
      S. Grimme, J. Comput. Chem. 27, 1787 (2006)

   Charge-asymmetric nonlocally-determined local-electric (CANDLE) solvation model:
      R. Sundararaman and W.A. Goddard III, J. Chem. Phys. 142, 064107 (2015)

   Total energy minimization with Auxiliary Hamiltonian:
      C. Freysoldt, S. Boeck, and J. Neugebauer, Phys. Rev. B 79, 241103(R) (2009)

   Grand-canonical (fixed-potential) DFT:
      R. Sundararaman, W. A. Goddard III and T. A. Arias, J. Chem. Phys. 146, 114104 (2017)

This list may not be complete. Please suggest additional citations or
report any other bugs at https://github.com/shankar1729/jdftx/issues

Initialization completed successfully at t[s]:     30.46

Shifting auxilliary hamiltonian by -0.070086 to set nElectrons=246.000000
	Linear fluid (dielectric constant: 78.4, screening length: 5.74355 Bohr) occupying 0.753349 of unit cell:	Completed after 0 iterations at t[s]:     32.87

-------- Electronic minimization -----------
	Linear fluid (dielectric constant: 78.4, screening length: 5.74355 Bohr) occupying 0.753349 of unit cell:	Completed after 0 iterations at t[s]:     35.66
	FillingsUpdate:  mu: -0.244750400  nElectrons: 246.000000
ElecMinimize: Iter:   0  G: -714.250928511795792  |grad|_K:  1.045e-04  alpha:  1.000e+00
	Linear fluid (dielectric constant: 78.4, screening length: 5.74355 Bohr) occupying 0.759848 of unit cell:	Completed after 28 iterations at t[s]:     45.31
	Linear fluid (dielectric constant: 78.4, screening length: 5.74355 Bohr) occupying 0.753481 of unit cell:	Completed after 27 iterations at t[s]:     50.81
	FillingsUpdate:  mu: -0.244750400  nElectrons: 245.480668
	SubspaceRotationAdjust: set factor to 0.509
ElecMinimize: Iter:   1  G: -714.277329079707556  |grad|_K:  5.198e-05  alpha:  2.433e-02  linmin: -4.410e-02  t[s]:     55.04
	Linear fluid (dielectric constant: 78.4, screening length: 5.74355 Bohr) occupying 0.753656 of unit cell:	Completed after 16 iterations at t[s]:     59.68
	Linear fluid (dielectric constant: 78.4, screening length: 5.74355 Bohr) occupying 0.753766 of unit cell:	Completed after 14 iterations at t[s]:     64.67
	FillingsUpdate:  mu: -0.244750400  nElectrons: 244.879750
	SubspaceRotationAdjust: set factor to 0.314
ElecMinimize: Iter:   2  G: -714.287880689691292  |grad|_K:  3.119e-05  alpha:  3.964e-02  linmin:  3.556e-04  t[s]:     68.96
	Linear fluid (dielectric constant: 78.4, screening length: 5.74355 Bohr) occupying 0.753994 of unit cell:	Completed after 14 iterations at t[s]:     73.26
ElecMinimize: 	Predicted alpha/alphaT>3.000000, increasing alphaT to 1.189141e-01.
	Linear fluid (dielectric constant: 78.4, screening length: 5.74355 Bohr) occupying 0.754444 of unit cell:	Completed after 18 iterations at t[s]:     78.19
	Linear fluid (dielectric constant: 78.4, screening length: 5.74355 Bohr) occupying 0.754728 of unit cell:	Completed after 16 iterations at t[s]:     83.07
	FillingsUpdate:  mu: -0.244750400  nElectrons: 244.147621
	SubspaceRotationAdjust: set factor to 0.189
ElecMinimize: Iter:   3  G: -714.298782321943463  |grad|_K:  3.718e-05  alpha:  1.698e-01  linmin:  2.513e-04  t[s]:     87.24
	Linear fluid (dielectric constant: 78.4, screening length: 5.74355 Bohr) occupying 0.756396 of unit cell:	Completed after 17 iterations at t[s]:     91.97
	Linear fluid (dielectric constant: 78.4, screening length: 5.74355 Bohr) occupying 0.755887 of unit cell:	Completed after 12 iterations at t[s]:     96.69
	FillingsUpdate:  mu: -0.244750400  nElectrons: 243.788651
	SubspaceRotationAdjust: set factor to 0.145
ElecMinimize: Iter:   4  G: -714.309559385500052  |grad|_K:  2.346e-05  alpha:  1.168e-01  linmin:  9.163e-07  t[s]:    101.00
	Linear fluid (dielectric constant: 78.4, screening length: 5.74355 Bohr) occupying 0.756531 of unit cell:	Completed after 16 iterations at t[s]:    105.56
	Linear fluid (dielectric constant: 78.4, screening length: 5.74355 Bohr) occupying 0.756715 of unit cell:	Completed after 12 iterations at t[s]:    109.85
	FillingsUpdate:  mu: -0.244750400  nElectrons: 243.794779
	SubspaceRotationAdjust: set factor to 0.153
ElecMinimize: Iter:   5  G: -714.315205609705117  |grad|_K:  1.732e-05  alpha:  1.505e-01  linmin: -6.083e-05  t[s]:    113.93
	Linear fluid (dielectric constant: 78.4, screening length: 5.74355 Bohr) occupying 0.757371 of unit cell:	Completed after 18 iterations at t[s]:    118.50
	Linear fluid (dielectric constant: 78.4, screening length: 5.74355 Bohr) occupying 0.757699 of unit cell:	Completed after 16 iterations at t[s]:    123.13
	FillingsUpdate:  mu: -0.244750400  nElectrons: 243.802887
	SubspaceRotationAdjust: set factor to 0.114
	SubspaceRotationAdjust: resetting CG because factor has changed by 0.113715
	Linear fluid (dielectric constant: 78.4, screening length: 5.74355 Bohr) occupying 0.757699 of unit cell:	Completed after 0 iterations at t[s]:    129.46
ElecMinimize: 	State modified externally: resetting search direction.
ElecMinimize: Iter:   6  G: -714.319877119741818  |grad|_K:  1.512e-05  alpha:  2.268e-01
	Linear fluid (dielectric constant: 78.4, screening length: 5.74355 Bohr) occupying 0.757947 of unit cell:	Completed after 16 iterations at t[s]:    138.05
	Linear fluid (dielectric constant: 78.4, screening length: 5.74355 Bohr) occupying 0.758154 of unit cell:	Completed after 16 iterations at t[s]:    142.77
	FillingsUpdate:  mu: -0.244750400  nElectrons: 243.598781
	SubspaceRotationAdjust: set factor to 0.0945
ElecMinimize: Iter:   7  G: -714.326372134598728  |grad|_K:  8.471e-06  alpha:  4.174e-01  linmin: -2.016e-05  t[s]:    147.03
	Linear fluid (dielectric constant: 78.4, screening length: 5.74355 Bohr) occupying 0.758651 of unit cell:	Completed after 14 iterations at t[s]:    151.53
	Linear fluid (dielectric constant: 78.4, screening length: 5.74355 Bohr) occupying 0.759075 of unit cell:	Completed after 14 iterations at t[s]:    156.48
	FillingsUpdate:  mu: -0.244750400  nElectrons: 243.770994
	SubspaceRotationAdjust: set factor to 0.112
ElecMinimize: Iter:   8  G: -714.330188918995646  |grad|_K:  4.166e-06  alpha:  7.775e-01  linmin: -4.392e-04  t[s]:    160.81
	Linear fluid (dielectric constant: 78.4, screening length: 5.74355 Bohr) occupying 0.759477 of unit cell:	Completed after 14 iterations at t[s]:    165.20
	Linear fluid (dielectric constant: 78.4, screening length: 5.74355 Bohr) occupying 0.759648 of unit cell:	Completed after 8 iterations at t[s]:    169.44
	FillingsUpdate:  mu: -0.244750400  nElectrons: 243.772298
	SubspaceRotationAdjust: set factor to 0.137
ElecMinimize: Iter:   9  G: -714.331526631789188  |grad|_K:  4.137e-06  alpha:  1.119e+00  linmin: -4.101e-05  t[s]:    173.60
	Linear fluid (dielectric constant: 78.4, screening length: 5.74355 Bohr) occupying 0.760187 of unit cell:	Completed after 14 iterations at t[s]:    178.14
	Linear fluid (dielectric constant: 78.4, screening length: 5.74355 Bohr) occupying 0.760060 of unit cell:	Completed after 10 iterations at t[s]:    182.55
	FillingsUpdate:  mu: -0.244750400  nElectrons: 243.690573
	SubspaceRotationAdjust: set factor to 0.156
ElecMinimize: Iter:  10  G: -714.332509028147228  |grad|_K:  3.118e-06  alpha:  8.418e-01  linmin: -1.807e-06  t[s]:    186.79
	Linear fluid (dielectric constant: 78.4, screening length: 5.74355 Bohr) occupying 0.760274 of unit cell:	Completed after 13 iterations at t[s]:    191.35
	Linear fluid (dielectric constant: 78.4, screening length: 5.74355 Bohr) occupying 0.760309 of unit cell:	Completed after 9 iterations at t[s]:    195.89
	FillingsUpdate:  mu: -0.244750400  nElectrons: 243.691881
	SubspaceRotationAdjust: set factor to 0.166
ElecMinimize: Iter:  11  G: -714.333164431131536  |grad|_K:  3.049e-06  alpha:  9.894e-01  linmin: -2.632e-05  t[s]:    200.19
	Linear fluid (dielectric constant: 78.4, screening length: 5.74355 Bohr) occupying 0.760572 of unit cell:	Completed after 16 iterations at t[s]:    204.65
	Linear fluid (dielectric constant: 78.4, screening length: 5.74355 Bohr) occupying 0.760463 of unit cell:	Completed after 12 iterations at t[s]:    209.10
	FillingsUpdate:  mu: -0.244750400  nElectrons: 243.636658
	SubspaceRotationAdjust: set factor to 0.148
ElecMinimize: Iter:  12  G: -714.333516059473368  |grad|_K:  2.372e-06  alpha:  5.555e-01  linmin:  9.038e-06  t[s]:    213.39
	Linear fluid (dielectric constant: 78.4, screening length: 5.74355 Bohr) occupying 0.760611 of unit cell:	Completed after 12 iterations at t[s]:    217.65
	Linear fluid (dielectric constant: 78.4, screening length: 5.74355 Bohr) occupying 0.760650 of unit cell:	Completed after 9 iterations at t[s]:    221.99
	FillingsUpdate:  mu: -0.244750400  nElectrons: 243.644061
	SubspaceRotationAdjust: set factor to 0.13
ElecMinimize: Iter:  13  G: -714.333787197883453  |grad|_K:  2.004e-06  alpha:  7.082e-01  linmin: -2.195e-05  t[s]:    226.17
	Linear fluid (dielectric constant: 78.4, screening length: 5.74355 Bohr) occupying 0.760833 of unit cell:	Completed after 12 iterations at t[s]:    230.77
	Linear fluid (dielectric constant: 78.4, screening length: 5.74355 Bohr) occupying 0.760809 of unit cell:	Completed after 7 iterations at t[s]:    235.07
	FillingsUpdate:  mu: -0.244750400  nElectrons: 243.596059
	SubspaceRotationAdjust: set factor to 0.116
ElecMinimize: Iter:  14  G: -714.333955140078729  |grad|_K:  1.272e-06  alpha:  6.119e-01  linmin:  8.826e-06  t[s]:    239.33
	Linear fluid (dielectric constant: 78.4, screening length: 5.74355 Bohr) occupying 0.760908 of unit cell:	Completed after 9 iterations at t[s]:    243.35
	Linear fluid (dielectric constant: 78.4, screening length: 5.74355 Bohr) occupying 0.760925 of unit cell:	Completed after 2 iterations at t[s]:    247.12
	FillingsUpdate:  mu: -0.244750400  nElectrons: 243.589890
	SubspaceRotationAdjust: set factor to 0.129
ElecMinimize: Iter:  15  G: -714.334034011317499  |grad|_K:  9.099e-07  alpha:  7.173e-01  linmin: -1.737e-05  t[s]:    251.26
	Linear fluid (dielectric constant: 78.4, screening length: 5.74355 Bohr) occupying 0.761002 of unit cell:	Completed after 8 iterations at t[s]:    255.72
	Linear fluid (dielectric constant: 78.4, screening length: 5.74355 Bohr) occupying 0.760991 of unit cell:	Completed after 2 iterations at t[s]:    259.50
	FillingsUpdate:  mu: -0.244750400  nElectrons: 243.587594
	SubspaceRotationAdjust: set factor to 0.136
ElecMinimize: Iter:  16  G: -714.334068727649765  |grad|_K:  5.819e-07  alpha:  6.156e-01  linmin:  4.800e-06  t[s]:    263.64
	Linear fluid (dielectric constant: 78.4, screening length: 5.74355 Bohr) occupying 0.761023 of unit cell:	Completed after 9 iterations at t[s]:    267.89
	Linear fluid (dielectric constant: 78.4, screening length: 5.74355 Bohr) occupying 0.761023 of unit cell:	Completed after 0 iterations at t[s]:    271.67
	FillingsUpdate:  mu: -0.244750400  nElectrons: 243.575422
	SubspaceRotationAdjust: set factor to 0.126
ElecMinimize: Iter:  17  G: -714.334082930774798  |grad|_K:  3.962e-07  alpha:  6.167e-01  linmin: -1.215e-04  t[s]:    275.94
	Linear fluid (dielectric constant: 78.4, screening length: 5.74355 Bohr) occupying 0.761042 of unit cell:	Completed after 7 iterations at t[s]:    279.94
	Linear fluid (dielectric constant: 78.4, screening length: 5.74355 Bohr) occupying 0.761041 of unit cell:	Completed after 0 iterations at t[s]:    283.42
	FillingsUpdate:  mu: -0.244750400  nElectrons: 243.574519
	SubspaceRotationAdjust: set factor to 0.107
ElecMinimize: Iter:  18  G: -714.334089174504243  |grad|_K:  2.550e-07  alpha:  5.797e-01  linmin:  1.416e-04  t[s]:    287.61
	Linear fluid (dielectric constant: 78.4, screening length: 5.74355 Bohr) occupying 0.761050 of unit cell:	Completed after 3 iterations at t[s]:    291.44
	Linear fluid (dielectric constant: 78.4, screening length: 5.74355 Bohr) occupying 0.761050 of unit cell:	Completed after 0 iterations at t[s]:    295.05
	FillingsUpdate:  mu: -0.244750400  nElectrons: 243.569972
	SubspaceRotationAdjust: set factor to 0.119
ElecMinimize: Iter:  19  G: -714.334091720228344  |grad|_K:  1.597e-07  alpha:  5.827e-01  linmin: -1.189e-04  t[s]:    299.24
	Linear fluid (dielectric constant: 78.4, screening length: 5.74355 Bohr) occupying 0.761055 of unit cell:	Completed after 3 iterations at t[s]:    303.28
	Linear fluid (dielectric constant: 78.4, screening length: 5.74355 Bohr) occupying 0.761055 of unit cell:	Completed after 0 iterations at t[s]:    307.08
	FillingsUpdate:  mu: -0.244750400  nElectrons: 243.568195
	SubspaceRotationAdjust: set factor to 0.139
ElecMinimize: Iter:  20  G: -714.334092696017365  |grad|_K:  1.045e-07  alpha:  5.544e-01  linmin: -1.722e-04  t[s]:    311.40
	Linear fluid (dielectric constant: 78.4, screening length: 5.74355 Bohr) occupying 0.761057 of unit cell:	Completed after 1 iterations at t[s]:    315.18
	Linear fluid (dielectric constant: 78.4, screening length: 5.74355 Bohr) occupying 0.761057 of unit cell:	Completed after 0 iterations at t[s]:    318.67
	FillingsUpdate:  mu: -0.244750400  nElectrons: 243.568321
	SubspaceRotationAdjust: set factor to 0.173
ElecMinimize: Iter:  21  G: -714.334093183139089  |grad|_K:  6.149e-08  alpha:  6.278e-01  linmin: -2.607e-04  t[s]:    322.91
	Linear fluid (dielectric constant: 78.4, screening length: 5.74355 Bohr) occupying 0.761058 of unit cell:	Completed after 0 iterations at t[s]:    326.37
	Linear fluid (dielectric constant: 78.4, screening length: 5.74355 Bohr) occupying 0.761058 of unit cell:	Completed after 0 iterations at t[s]:    329.98
	FillingsUpdate:  mu: -0.244750400  nElectrons: 243.568170
	SubspaceRotationAdjust: set factor to 0.232
ElecMinimize: Iter:  22  G: -714.334093444371206  |grad|_K:  5.081e-08  alpha:  9.519e-01  linmin: -3.369e-08  t[s]:    334.17
	Linear fluid (dielectric constant: 78.4, screening length: 5.74355 Bohr) occupying 0.761057 of unit cell:	Completed after 2 iterations at t[s]:    337.81
	Linear fluid (dielectric constant: 78.4, screening length: 5.74355 Bohr) occupying 0.761057 of unit cell:	Completed after 0 iterations at t[s]:    341.43
	FillingsUpdate:  mu: -0.244750400  nElectrons: 243.567972
	SubspaceRotationAdjust: set factor to 0.276
ElecMinimize: Iter:  23  G: -714.334093522336730  |grad|_K:  5.521e-08  alpha:  6.018e-01  linmin: -1.088e-04  t[s]:    345.60
	Linear fluid (dielectric constant: 78.4, screening length: 5.74355 Bohr) occupying 0.761055 of unit cell:	Completed after 0 iterations at t[s]:    349.22
	Linear fluid (dielectric constant: 78.4, screening length: 5.74355 Bohr) occupying 0.761055 of unit cell:	Completed after 0 iterations at t[s]:    352.98
	FillingsUpdate:  mu: -0.244750400  nElectrons: 243.567663
	SubspaceRotationAdjust: set factor to 0.349
ElecMinimize: Iter:  24  G: -714.334093670503762  |grad|_K:  5.517e-08  alpha:  6.275e-01  linmin:  7.955e-08  t[s]:    357.06
	Linear fluid (dielectric constant: 78.4, screening length: 5.74355 Bohr) occupying 0.761051 of unit cell:	Completed after 3 iterations at t[s]:    360.80
	Linear fluid (dielectric constant: 78.4, screening length: 5.74355 Bohr) occupying 0.761054 of unit cell:	Completed after 2 iterations at t[s]:    364.62
ElecMinimize: 	Step increased G by 8.990139e-08, reducing alpha to 1.129841e-02.
	Linear fluid (dielectric constant: 78.4, screening length: 5.74355 Bohr) occupying 0.761055 of unit cell:	Completed after 0 iterations at t[s]:    371.74
ElecMinimize: 	Step increased G by 6.620837e-08, reducing alpha to 1.129841e-03.
	Linear fluid (dielectric constant: 78.4, screening length: 5.74355 Bohr) occupying 0.761055 of unit cell:	Completed after 0 iterations at t[s]:    378.96
ElecMinimize: 	Step increased G by 6.432413e-08, reducing alpha to 1.129841e-04.
ElecMinimize: 	Step failed to reduce G after 3 attempts. Quitting step.
ElecMinimize: 	Undoing step.
	Linear fluid (dielectric constant: 78.4, screening length: 5.74355 Bohr) occupying 0.761055 of unit cell:	Completed after 0 iterations at t[s]:    386.19
ElecMinimize: 	Step failed: resetting search direction.
	FillingsUpdate:  mu: -0.244750400  nElectrons: 243.567662
	SubspaceRotationAdjust: set factor to 0.241
ElecMinimize: Iter:  25  G: -714.334093606208512  |grad|_K:  1.034e-07  alpha:  1.130e-04
	Linear fluid (dielectric constant: 78.4, screening length: 5.74355 Bohr) occupying 0.761053 of unit cell:	Completed after 7 iterations at t[s]:    394.46
	Linear fluid (dielectric constant: 78.4, screening length: 5.74355 Bohr) occupying 0.761054 of unit cell:	Completed after 7 iterations at t[s]:    398.64
	FillingsUpdate:  mu: -0.244750400  nElectrons: 243.568799
	SubspaceRotationAdjust: set factor to 0.114
ElecMinimize: Iter:  26  G: -714.334093661241468  |grad|_K:  5.999e-08  alpha:  1.260e-01  linmin:  1.314e-03  t[s]:    402.86
	Linear fluid (dielectric constant: 78.4, screening length: 5.74355 Bohr) occupying 0.761054 of unit cell:	Completed after 0 iterations at t[s]:    406.41
ElecMinimize: 	Predicted alpha/alphaT>3.000000, increasing alphaT to 3.778831e-01.
	Linear fluid (dielectric constant: 78.4, screening length: 5.74355 Bohr) occupying 0.761053 of unit cell:	Completed after 0 iterations at t[s]:    410.23
	Linear fluid (dielectric constant: 78.4, screening length: 5.74355 Bohr) occupying 0.761053 of unit cell:	Completed after 0 iterations at t[s]:    413.99
	FillingsUpdate:  mu: -0.244750400  nElectrons: 243.568403
	SubspaceRotationAdjust: set factor to 0.132
ElecMinimize: Iter:  27  G: -714.334093752137846  |grad|_K:  4.738e-08  alpha:  4.819e-01  linmin:  2.598e-07  t[s]:    418.24
	Linear fluid (dielectric constant: 78.4, screening length: 5.74355 Bohr) occupying 0.761051 of unit cell:	Completed after 4 iterations at t[s]:    421.97
	Linear fluid (dielectric constant: 78.4, screening length: 5.74355 Bohr) occupying 0.761052 of unit cell:	Completed after 2 iterations at t[s]:    425.86
ElecMinimize: 	Step increased G by 7.025938e-08, reducing alpha to 1.160735e-02.
	Linear fluid (dielectric constant: 78.4, screening length: 5.74355 Bohr) occupying 0.761053 of unit cell:	Completed after 0 iterations at t[s]:    433.00
ElecMinimize: 	Step increased G by 5.477102e-08, reducing alpha to 1.160735e-03.
	Linear fluid (dielectric constant: 78.4, screening length: 5.74355 Bohr) occupying 0.761053 of unit cell:	Completed after 0 iterations at t[s]:    440.24
ElecMinimize: 	Step increased G by 5.334493e-08, reducing alpha to 1.160735e-04.
ElecMinimize: 	Step failed to reduce G after 3 attempts. Quitting step.
ElecMinimize: 	Undoing step.
	Linear fluid (dielectric constant: 78.4, screening length: 5.74355 Bohr) occupying 0.761053 of unit cell:	Completed after 0 iterations at t[s]:    447.44
ElecMinimize: 	Step failed: resetting search direction.
	FillingsUpdate:  mu: -0.244750400  nElectrons: 243.568401
	SubspaceRotationAdjust: set factor to 0.106
ElecMinimize: Iter:  28  G: -714.334093698796778  |grad|_K:  6.195e-08  alpha:  1.161e-04
	Linear fluid (dielectric constant: 78.4, screening length: 5.74355 Bohr) occupying 0.761052 of unit cell:	Completed after 3 iterations at t[s]:    455.30
	Linear fluid (dielectric constant: 78.4, screening length: 5.74355 Bohr) occupying 0.761052 of unit cell:	Completed after 0 iterations at t[s]:    458.81
	FillingsUpdate:  mu: -0.244750400  nElectrons: 243.569030
	SubspaceRotationAdjust: set factor to 0.0604
ElecMinimize: Iter:  29  G: -714.334093756036737  |grad|_K:  4.193e-08  alpha:  2.318e-01  linmin:  3.860e-03  t[s]:    462.85
	Linear fluid (dielectric constant: 78.4, screening length: 5.74355 Bohr) occupying 0.761052 of unit cell:	Completed after 0 iterations at t[s]:    466.17
	Linear fluid (dielectric constant: 78.4, screening length: 5.74355 Bohr) occupying 0.761052 of unit cell:	Completed after 1 iterations at t[s]:    469.72
ElecMinimize: 	Step increased G by 3.204320e-08, reducing alpha to 6.937378e-02.
	Linear fluid (dielectric constant: 78.4, screening length: 5.74355 Bohr) occupying 0.761052 of unit cell:	Completed after 0 iterations at t[s]:    476.59
ElecMinimize: 	Step increased G by 1.858780e-09, reducing alpha to 6.937378e-03.
	Linear fluid (dielectric constant: 78.4, screening length: 5.74355 Bohr) occupying 0.761052 of unit cell:	Completed after 0 iterations at t[s]:    483.77
ElecMinimize: 	Step increased G by 1.268620e-08, reducing alpha to 6.937378e-04.
ElecMinimize: 	Step failed to reduce G after 3 attempts. Quitting step.
ElecMinimize: 	Undoing step.
	Linear fluid (dielectric constant: 78.4, screening length: 5.74355 Bohr) occupying 0.761052 of unit cell:	Completed after 0 iterations at t[s]:    490.81
ElecMinimize: 	Step failed: resetting search direction.
	FillingsUpdate:  mu: -0.244750400  nElectrons: 243.569028
	SubspaceRotationAdjust: set factor to 0.0477
ElecMinimize: Iter:  30  G: -714.334093743309836  |grad|_K:  1.434e-08  alpha:  6.937e-04
	Linear fluid (dielectric constant: 78.4, screening length: 5.74355 Bohr) occupying 0.761052 of unit cell:	Completed after 0 iterations at t[s]:    498.52
ElecMinimize: 	Predicted alpha/alphaT>3.000000, increasing alphaT to 6.953662e-01.
	Linear fluid (dielectric constant: 78.4, screening length: 5.74355 Bohr) occupying 0.761052 of unit cell:	Completed after 0 iterations at t[s]:    502.27
	Linear fluid (dielectric constant: 78.4, screening length: 5.74355 Bohr) occupying 0.761052 of unit cell:	Completed after 0 iterations at t[s]:    506.07
	FillingsUpdate:  mu: -0.244750400  nElectrons: 243.569243
	SubspaceRotationAdjust: set factor to 0.0562
ElecMinimize: Iter:  31  G: -714.334093757925302  |grad|_K:  1.547e-08  alpha:  1.045e+00  linmin:  1.728e-06  t[s]:    510.28
	Linear fluid (dielectric constant: 78.4, screening length: 5.74355 Bohr) occupying 0.761050 of unit cell:	Completed after 1 iterations at t[s]:    513.79
	Linear fluid (dielectric constant: 78.4, screening length: 5.74355 Bohr) occupying 0.761051 of unit cell:	Completed after 0 iterations at t[s]:    517.39
ElecMinimize: 	Step increased G by 1.621186e-08, reducing alpha to 3.107697e-02.
	Linear fluid (dielectric constant: 78.4, screening length: 5.74355 Bohr) occupying 0.761052 of unit cell:	Completed after 0 iterations at t[s]:    524.41
ElecMinimize: 	Step increased G by 1.892784e-08, reducing alpha to 3.107697e-03.
	Linear fluid (dielectric constant: 78.4, screening length: 5.74355 Bohr) occupying 0.761052 of unit cell:	Completed after 0 iterations at t[s]:    531.49
ElecMinimize: 	Step increased G by 1.936235e-08, reducing alpha to 3.107697e-04.
ElecMinimize: 	Step failed to reduce G after 3 attempts. Quitting step.
ElecMinimize: 	Undoing step.
	Linear fluid (dielectric constant: 78.4, screening length: 5.74355 Bohr) occupying 0.761052 of unit cell:	Completed after 0 iterations at t[s]:    538.75
ElecMinimize: 	Step failed: resetting search direction.
	FillingsUpdate:  mu: -0.244750400  nElectrons: 243.569244
	SubspaceRotationAdjust: set factor to 0.0555
ElecMinimize: Iter:  32  G: -714.334093738553861  |grad|_K:  2.416e-08  alpha:  3.108e-04
	Linear fluid (dielectric constant: 78.4, screening length: 5.74355 Bohr) occupying 0.761051 of unit cell:	Completed after 0 iterations at t[s]:    546.68
	Linear fluid (dielectric constant: 78.4, screening length: 5.74355 Bohr) occupying 0.761051 of unit cell:	Completed after 0 iterations at t[s]:    550.16
	FillingsUpdate:  mu: -0.244750400  nElectrons: 243.569016
	SubspaceRotationAdjust: set factor to 0.0721
ElecMinimize: Iter:  33  G: -714.334093755695676  |grad|_K:  1.737e-08  alpha:  5.877e-01  linmin: -3.479e-04  t[s]:    554.17
	Linear fluid (dielectric constant: 78.4, screening length: 5.74355 Bohr) occupying 0.761051 of unit cell:	Completed after 0 iterations at t[s]:    557.55
	Linear fluid (dielectric constant: 78.4, screening length: 5.74355 Bohr) occupying 0.761050 of unit cell:	Completed after 2 iterations at t[s]:    561.30
ElecMinimize: 	Step increased G by 9.451026e-08, reducing alpha to 1.628869e-01.
	Linear fluid (dielectric constant: 78.4, screening length: 5.74355 Bohr) occupying 0.761051 of unit cell:	Completed after 3 iterations at t[s]:    568.59
ElecMinimize: 	Step increased G by 8.594725e-11, reducing alpha to 1.628869e-02.
	Linear fluid (dielectric constant: 78.4, screening length: 5.74355 Bohr) occupying 0.761051 of unit cell:	Completed after 0 iterations at t[s]:    575.56
	FillingsUpdate:  mu: -0.244750400  nElectrons: 243.569010
	SubspaceRotationAdjust: set factor to 0.0686
ElecMinimize: Iter:  34  G: -714.334093756197376  |grad|_K:  1.851e-08  alpha:  1.629e-02  linmin:  5.976e-05  t[s]:    579.84
	Linear fluid (dielectric constant: 78.4, screening length: 5.74355 Bohr) occupying 0.761051 of unit cell:	Completed after 0 iterations at t[s]:    583.45
ElecMinimize: 	Predicted alpha/alphaT>3.000000, increasing alphaT to 4.886607e-02.
	Linear fluid (dielectric constant: 78.4, screening length: 5.74355 Bohr) occupying 0.761051 of unit cell:	Completed after 0 iterations at t[s]:    586.86
ElecMinimize: 	Predicted alpha/alphaT>3.000000, increasing alphaT to 1.465982e-01.
	Linear fluid (dielectric constant: 78.4, screening length: 5.74355 Bohr) occupying 0.761051 of unit cell:	Completed after 0 iterations at t[s]:    590.47
	Linear fluid (dielectric constant: 78.4, screening length: 5.74355 Bohr) occupying 0.761051 of unit cell:	Completed after 0 iterations at t[s]:    594.09
	FillingsUpdate:  mu: -0.244750400  nElectrons: 243.569023
	SubspaceRotationAdjust: set factor to 0.0686
ElecMinimize: Iter:  35  G: -714.334093761857275  |grad|_K:  1.356e-08  alpha:  2.547e-01  linmin: -2.647e-06  t[s]:    598.22
ElecMinimize: Converged (|Delta G|<1.000000e-08 for 2 iters).
Setting wave functions to eigenvectors of Hamiltonian

# Ionic positions in lattice coordinates:
ion Nb   0.164711947170022   0.181924217945280   0.493697461390396 0
ion Nb   0.006185445828327   0.979237082062930   0.499294445408692 0
ion Nb   0.798824643013548   0.802314002536881   0.503467136493547 0
ion Nb   0.592453983748957   0.623711067727317   0.504599753888221 0
ion Nb   0.496641101938186   0.983312035893660   0.499848410517623 0
ion Nb   0.396628611125776   0.424475162921498   0.493401615882344 0
ion Nb   0.297364039288239   0.803778420272542   0.503256145071686 0
ion Nb   0.093522112006535   0.621771123109329   0.504452744243137 0
ion Nb   0.894062061105078   0.380018359875534   0.498487759033372 0
ion Ir   0.733267499274165   0.214523914209211   0.494836688533187 0
ion Se   0.939618953562520   0.262495240826678   0.595109575015832 0
ion Se   0.174782081753371   0.330601326211472   0.413807929589528 0
ion Se   0.722725437497270   0.078869888986438   0.573422478191376 0
ion Se   0.955502315543167   0.123911505841938   0.405697395656558 0
ion Se   0.532890461745949   0.867514758847137   0.598429590212974 0
ion Se   0.761606087221205   0.931319410525242   0.405470551542714 0
ion Se   0.658712677211984   0.337498080394364   0.404745991301708 0
ion Se   0.331845673018051   0.672303219805476   0.600118534513086 0
ion Se   0.224902051806799   0.063960952089549   0.589393468644686 0
ion Se   0.478620622923790   0.140410996955857   0.423420788653566 0
ion Se   0.564414235349768   0.740834738832458   0.407842439859594 0
ion Se   0.133597368284488   0.466310949451696   0.584925027772201 0
ion Se   0.029996579041672   0.865620697939378   0.599087260587245 0
ion Se   0.363042181368131   0.549445626619957   0.409087055805167 0
ion Se   0.265492771980559   0.932174445369178   0.403238573960963 0
ion Se   0.832506067939422   0.670836968067416   0.600027146633874 0
ion Se   0.062197065757023   0.740016274559616   0.407982562790482 0
ion Se   0.632674363375966   0.469093477058816   0.585596935077480 0
ion Se   0.865706925120038   0.536282903063143   0.424229494728747 0


# Forces in Lattice coordinates:
force Nb  -0.022404271390349   0.020969850613334   0.108558851826406 0
force Nb  -0.029772402269362   0.134582877869843  -0.051487161311684 0
force Nb  -0.007401226508500   0.043721165956163   0.037827931285226 0
force Nb   0.052747516563406  -0.195386839981188   0.028973480040138 0
force Nb   0.033959112063538   0.174316026162235  -0.008148743192182 0
force Nb  -0.051373247689820   0.143656989571475  -0.014408775808625 0
force Nb  -0.002753370902273  -0.043410127344718   0.047581069591879 0
force Nb  -0.042606161310534  -0.218683213764161   0.052655877828220 0
force Nb   0.025544015107777   0.026474701432319   0.051783338245999 0
force Ir   0.047217965420407  -0.137195180160253  -0.166295234561258 0
force Se   0.020411716448488  -0.034028233683293  -0.057212234420362 0
force Se   0.011458338185881   0.001790982708982   0.052116437038219 0
force Se   0.022126699133682   0.017508015325256  -0.009238030961964 0
force Se  -0.048146958931173   0.021666697349665   0.043766941729258 0
force Se   0.003002475317530  -0.003921244673027  -0.103920376612650 0
force Se  -0.000950631966866   0.014357615541111   0.062859106097928 0
force Se   0.000199795644899  -0.029794792106226   0.006985233725815 0
force Se  -0.006291545185857  -0.003850981077913  -0.121128856048849 0
force Se  -0.011212375701000   0.000558025310421  -0.045466676999730 0
force Se   0.008684332172667  -0.009973076301665   0.031121340939789 0
force Se  -0.007566881280413   0.023128172935582   0.046524588963605 0
force Se   0.020559547950082   0.041783652890677  -0.055531949754613 0
force Se   0.007708513517177   0.000607211661791  -0.085907118012787 0
force Se   0.001379978251687  -0.048701593062325   0.063106784702624 0
force Se  -0.006147023437738   0.023118659400370   0.111677146469269 0
force Se  -0.003814044049556  -0.037112137076901  -0.049349691782182 0
force Se   0.009502201768589   0.016331427839889   0.071272064126317 0
force Se  -0.011752586798523  -0.008243257933807  -0.010012404733400 0
force Se  -0.001503916883600   0.058709912562274  -0.010596227535324 0

# Energy components:
   A_diel =       -0.1045180286018542
   Eewald =     4099.7503830583236777
       EH =     4666.8757474476542484
     Eloc =    -9756.7097135179938050
      Enl =      137.9485613113527620
      Exc =     -389.5203720012375470
 Exc_core =      262.1779591169663490
       KE =      205.6464667492506067
  MuShift =        0.0229554602261076
-------------------------------------
     Etot =     -773.9125304040595665
       TS =        0.0351791068351471
-------------------------------------
        F =     -773.9477095108946969
      muN =      -59.6136157490373861
-------------------------------------
        G =     -714.3340937618572752

IonicMinimize: Iter:   0  G: -714.334093761857275  |grad|_K:  0.000e+00  t[s]:    601.34
IonicMinimize: Converged (|grad|_K<1.000000e-04).

#--- Lowdin population analysis ---
# oxidation-state Nb -0.371 -0.530 -0.570 -0.530 -0.526 -0.376 -0.549 -0.522 -0.481
# oxidation-state Ir -0.783
# oxidation-state Se +0.558 +0.381 +0.440 +0.615 +0.465 +0.455 +0.507 +0.445 +0.439 +0.408 +0.475 +0.368 +0.480 +0.505 +0.451 +0.471 +0.474 +0.403 +0.318


Dumping 'NbTe2.fillings' ... done
Dumping 'NbTe2.wfns' ... done
Dumping 'NbTe2.fluidState' ... done
Dumping 'NbTe2.eigenvals' ... done
End date and time: Sun Jul 12 19:08:51 2020  (Duration: 0-0:10:03.54)
Done!
