
*************** JDFTx 1.5.0  ***************

Start date and time: Thu Jul 16 22:29:15 2020
Executable jdftx_gpu with command-line: -i Neutral.in -o Neutral.out
Running on hosts (process indices):  amax (0-5)
Divided in process groups (process indices):  0 (0)  1 (1)  2 (2)  3 (3)  4 (4)  5 (5)
gpuInit: Found compatible cuda device 0 'Tesla K80'
gpuInit: Found compatible cuda device 1 'Tesla K80'
gpuInit: Found compatible cuda device 2 'Tesla K80'
gpuInit: Found compatible cuda device 3 'Tesla K80'
gpuInit: Found compatible cuda device 4 'Tesla K80'
gpuInit: Found compatible cuda device 5 'Tesla K80'
gpuInit: Selected device 0
Resource initialization completed at t[s]:      9.03
Run totals: 6 processes, 24 threads, 6 GPUs


Input parsed successfully to the following command list (including defaults):

basis kpoint-dependent
cache-projectors no
coords-type Lattice
core-overlap-check none
coulomb-interaction Slab 001
coulomb-truncation-embed 0 0 0.5
davidson-band-ratio 1.1
dump End State
dump-name NbTe2.$VAR
elec-cutoff 20 100
elec-eigen-algo Davidson
elec-ex-corr gga-PBE
elec-smearing Gauss 0.0073499
electronic-minimize  \
	dirUpdateScheme      FletcherReeves \
	linminMethod         DirUpdateRecommended \
	nIterations          500 \
	history              15 \
	knormThreshold       0 \
	energyDiffThreshold  1e-08 \
	nEnergyDiff          2 \
	alphaTstart          1 \
	alphaTmin            1e-10 \
	updateTestStepSize   yes \
	alphaTreduceFactor   0.1 \
	alphaTincreaseFactor 3 \
	nAlphaAdjustMax      3 \
	wolfeEnergy          0.0001 \
	wolfeGradient        0.9 \
	fdTest               no
exchange-regularization WignerSeitzTruncated
fluid LinearPCM 298.000000 1.013250
fluid-anion F- 1 MeanFieldLJ \
	epsBulk 1 \
	pMol 0 \
	epsInf 1 \
	Pvap 0 \
	sigmaBulk 0 \
	Rvdw 2.24877 \
	Res 0 \
	tauNuc 343133
fluid-cation Na+ 1 MeanFieldLJ \
	epsBulk 1 \
	pMol 0 \
	epsInf 1 \
	Pvap 0 \
	sigmaBulk 0 \
	Rvdw 2.19208 \
	Res 0 \
	tauNuc 343133
fluid-ex-corr lda-TF lda-PZ
fluid-gummel-loop 10 1.000000e-05
fluid-minimize  \
	dirUpdateScheme      PolakRibiere \
	linminMethod         DirUpdateRecommended \
	nIterations          400 \
	history              15 \
	knormThreshold       1e-11 \
	energyDiffThreshold  0 \
	nEnergyDiff          2 \
	alphaTstart          1 \
	alphaTmin            1e-10 \
	updateTestStepSize   yes \
	alphaTreduceFactor   0.1 \
	alphaTincreaseFactor 3 \
	nAlphaAdjustMax      6 \
	wolfeEnergy          0.0001 \
	wolfeGradient        0.9 \
	fdTest               no
fluid-solvent H2O 55.338 ScalarEOS \
	epsBulk 78.4 \
	pMol 0.92466 \
	epsInf 1.77 \
	Pvap 1.06736e-10 \
	sigmaBulk 4.62e-05 \
	Rvdw 2.61727 \
	Res 1.42 \
	tauNuc 343133 \
	poleEl 15 7 1
forces-output-coords Positions
initial-state NbTe2.$VAR
ion Sc   0.375911290117357   0.532002974146917   0.552604669707406 0
ion Sc   0.208338694721614   0.684190214835559   0.447365530290229 0
ion Sc   0.463343873282364   0.338546979718701   0.494943581338926 0
ion Sc   0.120944134742904   0.877662005092528   0.505046000941236 0
ion Sc   0.345916711800651   0.335472806005385   0.598101087114150 0
ion Sc   0.238344264242660   0.880670670558119   0.401881957060813 0
ion Sc   0.216415161755953   0.420045109390987   0.518567858735795 0
ion Sc   0.367902689182951   0.796190377048385   0.481362677172897 0
ion Sc   0.333701893986379   0.427641506474777   0.416315901727503 0
ion Sc   0.250618396936631   0.788527546708254   0.583644022350753 0
ion Sc   0.309290557094446   0.229228110970716   0.463509890103039 0
ion Sc   0.274955271792999   0.986906624619451   0.536467618299973 0
ion Sc   0.875911316117359   0.532002974146917   0.552604669707406 0
ion Sc   0.708338667721615   0.684190214835559   0.447365530290229 0
ion Sc   0.963343873282364   0.338546979718701   0.494943581338926 0
ion Sc   0.620944121742907   0.877662005092528   0.505046000941236 0
ion Sc   0.845916685800649   0.335472806005385   0.598101087114150 0
ion Sc   0.738344238242658   0.880670670558119   0.401881957060813 0
ion Sc   0.716415161755953   0.420045109390987   0.518567858735795 0
ion Sc   0.867902689182951   0.796190377048385   0.481362677172897 0
ion Sc   0.833701840986379   0.427641506474777   0.416315901727503 0
ion Sc   0.750618396936631   0.788527546708254   0.583644022350753 0
ion Sc   0.809290557094446   0.229228110970716   0.463509890103039 0
ion Sc   0.774955245793004   0.986906624619451   0.536467618299973 0
ion C   0.236377985491472   0.794301924616579   0.482147106927931 0
ion C   0.348037728065650   0.421745847830968   0.517817270274192 0
ion C   0.252887654905154   0.872556388363732   0.503179240847216 0
ion C   0.331298728859094   0.343634490482961   0.496727118327568 0
ion C   0.736377985491472   0.794301924616579   0.482147106927931 0
ion C   0.848037675065649   0.421745847830968   0.517817270274192 0
ion C   0.752887654905154   0.872556388363732   0.503179240847216 0
ion C   0.831298676859096   0.343634490482961   0.496727118327568 0
ion I   0.380651777024983   0.477599562356786   0.671569569193318 0
ion I   0.203715715274620   0.738599501924996   0.328523323245364 0
ion I   0.033027414156793   0.489315928438222   0.535878713973076 0
ion I   0.050973660211212   0.726828821463481   0.464112276943291 0
ion I   0.215957234321270   0.602409736889296   0.567916785366192 0
ion I   0.368438980083330   0.613776986770553   0.432073756392921 0
ion I   0.272980862405057   0.059475125464777   0.416075555848918 0
ion I   0.311338402782008   0.156793920634257   0.584010257952182 0
ion I   0.462657753085646   0.172199952113646   0.445519879423870 0
ion I   0.121567714845611   0.044103696830611   0.554402330145323 0
ion I   0.146593795317131   0.279546883332978   0.476527987088141 0
ion I   0.437830512784525   0.936614266560454   0.523543145162084 0
ion I   0.387752172889085   0.843273541668965   0.361987985110492 0
ion I   0.196282072791838   0.373223514345277   0.637916598381212 0
ion I   0.088227537857998   0.949495932141631   0.390352986381742 0
ion I   0.496055749393104   0.266741861615907   0.609839600495728 0
ion I   0.402303770982723   0.709088533736006   0.594702667510493 0
ion I   0.182064373294313   0.506984187799622   0.405222420003831 0
ion I   0.102976079037072   0.813630939135860   0.623907905586408 0
ion I   0.481261174927595   0.402554915962103   0.376226713508645 0
ion I   0.290186677403318   0.921594040147337   0.656508421228499 0
ion I   0.294281548152493   0.294284300803251   0.343539528838652 0
ion I   0.880651750024977   0.477599562356786   0.671569569193318 0
ion I   0.703715689274617   0.738599501924996   0.328523323245364 0
ion I   0.533027466156797   0.489315928438222   0.535878713973076 0
ion I   0.550973607211218   0.726828821463481   0.464112276943291 0
ion I   0.715957234321270   0.602409736889296   0.567916785366192 0
ion I   0.868438980083330   0.613776986770553   0.432073756392921 0
ion I   0.772980836405055   0.059475125464777   0.416075555848918 0
ion I   0.811338402782008   0.156793920634257   0.584010257952182 0
ion I   0.962657806085647   0.172199952113646   0.445519879423870 0
ion I   0.621567701845607   0.044103696830611   0.554402330145323 0
ion I   0.646593782317134   0.279546883332978   0.476527987088141 0
ion I   0.937830512784525   0.936614266560454   0.523543145162084 0
ion I   0.887752172889085   0.843273541668965   0.361987985110492 0
ion I   0.696282072791838   0.373223514345277   0.637916598381212 0
ion I   0.588227577858001   0.949495932141631   0.390352986381742 0
ion I   0.996055802393105   0.266741861615907   0.609839600495728 0
ion I   0.902303718982725   0.709088533736006   0.594702667510493 0
ion I   0.682064425294317   0.506984187799622   0.405222420003831 0
ion I   0.602976105037067   0.813630939135860   0.623907905586408 0
ion I   0.981261226927593   0.402554915962103   0.376226713508645 0
ion I   0.790186704403317   0.921594040147337   0.656508421228499 0
ion I   0.794281495152499   0.294284300803251   0.343539528838652 0
ion-species GBRV/$ID_pbe.uspp
ion-width Ecut
ionic-minimize  \
	dirUpdateScheme      L-BFGS \
	linminMethod         DirUpdateRecommended \
	nIterations          0 \
	history              15 \
	knormThreshold       0.0001 \
	energyDiffThreshold  1e-06 \
	nEnergyDiff          2 \
	alphaTstart          1 \
	alphaTmin            1e-10 \
	updateTestStepSize   yes \
	alphaTreduceFactor   0.1 \
	alphaTincreaseFactor 3 \
	nAlphaAdjustMax      3 \
	wolfeEnergy          0.0001 \
	wolfeGradient        0.9 \
	fdTest               no
kpoint   0.000000000000   0.000000000000   0.000000000000  1.00000000000000
kpoint-folding 3 3 1 
latt-move-scale 1 1 1
latt-scale 1 1 1 
lattice Triclinic 34.1882 30.5336 42.9805 90 90 83.1108
lattice-minimize  \
	dirUpdateScheme      L-BFGS \
	linminMethod         DirUpdateRecommended \
	nIterations          0 \
	history              15 \
	knormThreshold       0 \
	energyDiffThreshold  1e-06 \
	nEnergyDiff          2 \
	alphaTstart          1 \
	alphaTmin            1e-10 \
	updateTestStepSize   yes \
	alphaTreduceFactor   0.1 \
	alphaTincreaseFactor 3 \
	nAlphaAdjustMax      3 \
	wolfeEnergy          0.0001 \
	wolfeGradient        0.9 \
	fdTest               no
lcao-params -1 1e-06 0.0073499
pcm-variant CANDLE
spintype no-spin
subspace-rotation-factor 1 yes
symmetries automatic
symmetry-threshold 0.0001



---------- Setting up symmetries ----------

Found 4 point-group symmetries of the bravais lattice
Found 2 space-group symmetries with basis
Applied RMS atom displacement 5.5043e-07 bohrs to make symmetries exact.

---------- Initializing the Grid ----------
R = 
[    34.1882     3.6625          0  ]
[          0    30.3132          0  ]
[          0          0    42.9805  ]
unit cell volume = 44542.9
G =
[   0.183782  -0.022205          0  ]
[          0   0.207276          0  ]
[          0          0   0.146187  ]
Minimum fftbox size, Smin = [  156  140  196  ]
Chosen fftbox size, S = [  160  140  196  ]

---------- Initializing tighter grid for wavefunction operations ----------
R = 
[    34.1882     3.6625          0  ]
[          0    30.3132          0  ]
[          0          0    42.9805  ]
unit cell volume = 44542.9
G =
[   0.183782  -0.022205          0  ]
[          0   0.207276          0  ]
[          0          0   0.146187  ]
Minimum fftbox size, Smin = [  140  124  176  ]
Chosen fftbox size, S = [  140  126  180  ]

---------- Exchange Correlation functional ----------
Initalized PBE GGA exchange.
Initalized PBE GGA correlation.

---------- Setting up pseudopotentials ----------
Width of ionic core gaussian charges (only for fluid interactions / plotting) set to 0.397384

Reading pseudopotential file '/home/guoxy/vasp/jdftx-1.5.0/build/pseudopotentials/GBRV/sc_pbe.uspp':
  Title: Sc.  Created by USPP 7.3.6 on 14-9-2013
  Reference state energy: -46.994501.  11 valence electrons in orbitals:
    |300>  occupation: 2  eigenvalue: -2.022603
    |310>  occupation: 6  eigenvalue: -1.235690
    |400>  occupation: 2  eigenvalue: -0.153725
    |320>  occupation: 1  eigenvalue: -0.118830
    |410>  occupation: 0  eigenvalue: -0.053919
  lMax: 2  lLocal: 3  QijEcut: 5
  6 projectors sampled on a log grid with 593 points:
    l: 0  eig: -2.022603  rCut: 2.2
    l: 0  eig: -0.153726  rCut: 2.2
    l: 1  eig: -1.235690  rCut: 2.2
    l: 1  eig: -0.053919  rCut: 2.2
    l: 2  eig: -0.118830  rCut: 2.2
    l: 2  eig: 0.150000  rCut: 2.2
  Partial core density with radius 1
  Transforming core density to a uniform radial grid of dG=0.02 with 1316 points.
  Transforming local potential to a uniform radial grid of dG=0.02 with 1316 points.
  Transforming nonlocal projectors to a uniform radial grid of dG=0.02 with 432 points.
  Transforming density augmentations to a uniform radial grid of dG=0.02 with 1316 points.
  Transforming atomic orbitals to a uniform radial grid of dG=0.02 with 432 points.
  Core radius for overlap checks: 2.20 bohrs.

Reading pseudopotential file '/home/guoxy/vasp/jdftx-1.5.0/build/pseudopotentials/GBRV/c_pbe.uspp':
  Title: C.  Created by USPP 7.3.6 on 3-2-2014
  Reference state energy: -5.406344.  4 valence electrons in orbitals:
    |200>  occupation: 2  eigenvalue: -0.504890
    |210>  occupation: 2  eigenvalue: -0.194356
  lMax: 1  lLocal: 2  QijEcut: 5
  4 projectors sampled on a log grid with 503 points:
    l: 0  eig: -0.504890  rCut: 1.3
    l: 0  eig: 0.000000  rCut: 1.3
    l: 1  eig: -0.194357  rCut: 1.3
    l: 1  eig: 0.000000  rCut: 1.3
  Partial core density with radius 1.1
  Transforming core density to a uniform radial grid of dG=0.02 with 1316 points.
  Transforming local potential to a uniform radial grid of dG=0.02 with 1316 points.
  Transforming nonlocal projectors to a uniform radial grid of dG=0.02 with 432 points.
  Transforming density augmentations to a uniform radial grid of dG=0.02 with 1316 points.
  Transforming atomic orbitals to a uniform radial grid of dG=0.02 with 432 points.
  Core radius for overlap checks: 1.30 bohrs.

Reading pseudopotential file '/home/guoxy/vasp/jdftx-1.5.0/build/pseudopotentials/GBRV/i_pbe.uspp':
  Title: I.  Created by USPP 7.3.6 on 14-9-2013
  Reference state energy: -32.770235.  7 valence electrons in orbitals:
    |500>  occupation: 2  eigenvalue: -0.639712
    |510>  occupation: 5  eigenvalue: -0.260406
  lMax: 2  lLocal: 3  QijEcut: 5
  6 projectors sampled on a log grid with 725 points:
    l: 0  eig: -0.639710  rCut: 1.9
    l: 0  eig: 0.000000  rCut: 1.9
    l: 1  eig: -0.260404  rCut: 2
    l: 1  eig: 0.000000  rCut: 2
    l: 2  eig: -0.500000  rCut: 2.45
    l: 2  eig: 0.500000  rCut: 2.45
  Partial core density with radius 1.3
  Transforming core density to a uniform radial grid of dG=0.02 with 1316 points.
  Transforming local potential to a uniform radial grid of dG=0.02 with 1316 points.
  Transforming nonlocal projectors to a uniform radial grid of dG=0.02 with 432 points.
  Transforming density augmentations to a uniform radial grid of dG=0.02 with 1316 points.
  Transforming atomic orbitals to a uniform radial grid of dG=0.02 with 432 points.
  Core radius for overlap checks: 2.45 bohrs.

Initialized 3 species with 76 total atoms.

Folded 1 k-points by 3x3x1 to 9 k-points.

---------- Setting up k-points, bands, fillings ----------
Adding inversion symmetry to k-mesh for non-inversion-symmetric unit cell.
Reduced to 5 k-points under symmetry. 
Computing the number of bands and number of electrons
Calculating initial fillings.
nElectrons: 604.000000   nBands: 520   nStates: 5

----- Setting up reduced wavefunction bases (one per k-point) -----
average nbasis = 190289.000 , ideal nbasis = 190290.715

---------- Setting up coulomb interaction ----------
Fluid mode embedding: using embedded box, but periodic Coulomb kernel.
(Fluid response is responsible for (approximate) separation between periodic images.)
Setting up double-sized grid for truncated Coulomb potentials:
R = 
[    34.1882     3.6625          0  ]
[          0    30.3132          0  ]
[          0          0     85.961  ]
unit cell volume = 89085.8
G =
[   0.183782  -0.022205          0  ]
[          0   0.207276          0  ]
[          0          0  0.0730935  ]
Chosen fftbox size, S = [  160  140  392  ]
Integer grid location selected as the embedding center:
   Grid: [  0  0  98  ]
   Lattice: [  0  0  0.5  ]
   Cartesian: [  0  0  21.4902  ]
Constructing Wigner-Seitz cell: 8 faces (6 quadrilaterals, 2 hexagons)
Range-separation parameter for embedded mesh potentials due to point charges: 0.590769 bohrs.

Initializing van der Waals corrections
	NOTE: vdW corrections apply only for interactions with fluid.
	Sc:  C6:  187.33 Eh-a0^6  R0: 2.952 a0
	 C:  C6:   30.35 Eh-a0^6  R0: 2.744 a0
	 I:  C6:  546.38 Eh-a0^6  R0: 3.575 a0

---------- Setting up ewald sum ----------
Optimum gaussian width for ewald sums = 8.657198 bohr.
Real space sum over 405 unit cells with max indices [  4  4  2  ]
Reciprocal space sum over 7425 terms with max indices [  7  7  16  ]

---------- Allocating electronic variables ----------
Initializing wave functions:  linear combination of atomic orbitals
Sc pseudo-atom occupations:   s ( 2 2 )  p ( 6 0 )  d ( 1 )
C pseudo-atom occupations:   s ( 2 )  p ( 2 )
I pseudo-atom occupations:   s ( 2 )  p ( 5 )
	FillingsUpdate:  mu: -0.083466860  nElectrons: 604.000000
LCAOMinimize: Iter:   0  F: -1681.6760481792607607  |grad|_K:  4.235e-03  alpha:  1.000e+00
	FillingsUpdate:  mu: -0.105839205  nElectrons: 604.000000
LCAOMinimize: Iter:   1  F: -1684.1636153213680700  |grad|_K:  2.464e-03  alpha:  1.198e-01  linmin: -4.388e-01  cgtest:  8.962e-01  t[s]:    178.31
LCAOMinimize: Encountered beta<0, resetting CG.
	FillingsUpdate:  mu: -0.147010961  nElectrons: 604.000000
LCAOMinimize: Iter:   2  F: -1685.1469615670946496  |grad|_K:  4.958e-04  alpha:  2.544e-01  linmin:  1.837e-01  cgtest: -4.580e-01  t[s]:    222.53
	FillingsUpdate:  mu: -0.132094648  nElectrons: 604.000000
LCAOMinimize: Iter:   3  F: -1685.1650773524595479  |grad|_K:  3.019e-04  alpha:  1.689e-01  linmin: -4.844e-04  cgtest:  6.099e-01  t[s]:    267.43
LCAOMinimize: Encountered beta<0, resetting CG.
	FillingsUpdate:  mu: -0.125557017  nElectrons: 604.000000
LCAOMinimize: Iter:   4  F: -1685.1802421579636757  |grad|_K:  9.959e-05  alpha:  2.448e-01  linmin: -2.632e-03  cgtest:  7.797e-03  t[s]:    312.98
	FillingsUpdate:  mu: -0.127776041  nElectrons: 604.000000
LCAOMinimize: Iter:   5  F: -1685.1815208980788157  |grad|_K:  1.081e-04  alpha:  1.898e-01  linmin: -1.535e-04  cgtest: -2.882e-03  t[s]:    357.75
	FillingsUpdate:  mu: -0.130200839  nElectrons: 604.000000
LCAOMinimize: Iter:   6  F: -1685.1827574281799116  |grad|_K:  6.326e-05  alpha:  1.558e-01  linmin: -3.242e-04  cgtest: -9.795e-03  t[s]:    400.96
	FillingsUpdate:  mu: -0.128842253  nElectrons: 604.000000
LCAOMinimize: Iter:   7  F: -1685.1833226940082113  |grad|_K:  2.256e-05  alpha:  2.080e-01  linmin:  8.082e-04  cgtest: -2.505e-03  t[s]:    446.20
	FillingsUpdate:  mu: -0.128117030  nElectrons: 604.000000
LCAOMinimize: Iter:   8  F: -1685.1833860691488098  |grad|_K:  8.039e-06  alpha:  1.838e-01  linmin:  1.627e-04  cgtest:  5.747e-03  t[s]:    490.47
	FillingsUpdate:  mu: -0.128112660  nElectrons: 604.000000
LCAOMinimize: Iter:   9  F: -1685.1834025318908061  |grad|_K:  6.919e-06  alpha:  3.757e-01  linmin:  1.596e-04  cgtest: -1.162e-03  t[s]:    536.64
	FillingsUpdate:  mu: -0.128154433  nElectrons: 604.000000
LCAOMinimize: Iter:  10  F: -1685.1834051433791046  |grad|_K:  2.612e-06  alpha:  8.047e-02  linmin: -3.477e-05  cgtest:  3.864e-03  t[s]:    579.10
	FillingsUpdate:  mu: -0.128242983  nElectrons: 604.000000
LCAOMinimize: Iter:  11  F: -1685.1834061040169672  |grad|_K:  1.211e-06  alpha:  2.074e-01  linmin: -4.055e-05  cgtest: -1.050e-03  t[s]:    625.51
	FillingsUpdate:  mu: -0.128264104  nElectrons: 604.000000
LCAOMinimize: Iter:  12  F: -1685.1834064180936821  |grad|_K:  8.162e-07  alpha:  3.158e-01  linmin: -6.928e-05  cgtest: -1.476e-05  t[s]:    671.01
LCAOMinimize: Converged (|Delta F|<1.000000e-06 for 2 iters).
----- createFluidSolver() ----- (Fluid-side solver setup)
   Initializing fluid molecule 'H2O'
     Initializing site 'O'
       Electron density: proportional to exp(-r/0.36935)*erfc((r-0.51523)/0.36823) with norm 6.826
       Charge density: gaussian nuclear width 0.478731 with net site charge 0.826
       Polarizability: cuspless exponential with width 0.32 and norm 3.73
       Hard sphere radius: 2.57003 bohrs
       Positions in reference frame:
         [ +0.000000 +0.000000 +0.000000 ]
     Initializing site 'H'
       Electron density: proportional to exp(-r/0.34641)*erfc((r-0)/0.390882) with norm 0.587
       Charge density: gaussian nuclear width 0.377945 with net site charge -0.413
       Polarizability: cuspless exponential with width 0.39 and norm 3.3
       Positions in reference frame:
         [ +0.000000 -1.441945 +1.122523 ]
         [ +0.000000 +1.441945 +1.122523 ]
     Net charge: 0   dipole magnitude: 0.927204
     Initializing spherical shell mfKernel with radius 2.61727 Bohr
     deltaS corrections:
       site 'O': -7.54299
       site 'H': -6.83917
   Initializing fluid molecule 'Na+'
     Initializing site 'Na'
       Electron density: proportional to exp(-r/0.19682)*erfc((r-0.71491)/0.41314) with norm 8.1383
       Charge density: gaussian nuclear width 0.365347 with net site charge -1
       Hard sphere radius: 1.86327 bohrs
       Positions in reference frame:
         [ +0.000000 +0.000000 +0.000000 ]
     Net charge: -1   dipole magnitude: 0
     Initializing gaussian mfKernel with width: 1.55004 Bohr
     deltaS corrections:
       site 'Na': -22.3555
   Initializing fluid molecule 'F-'
     Initializing site 'F'
       Electron density: proportional to exp(-r/0.38886)*erfc((r-0)/0.438782) with norm 8
       Charge density: gaussian nuclear width 0.374796 with net site charge 1
       Hard sphere radius: 2.39995 bohrs
       Positions in reference frame:
         [ +0.000000 +0.000000 +0.000000 ]
     Net charge: 1   dipole magnitude: 0
     Initializing gaussian mfKernel with width: 1.59012 Bohr
     deltaS corrections:
       site 'F': -9.04335

Correction to mu due to finite nuclear width = -0.0067271
   Cavity determined by nc: 0.00142 and sigma: 0.707107
   Nonlocal vdW cavity from gaussian model electron density with norm = 8 and sigma = 0.993594 bohr
   Charge asymmetry in cavity with sensitivity pCavity = 36.5 e-bohr/Eh
   Electrostatic cavity expanded by eta = 1.46 bohrs
   Weighted density cavitation model constrained by Nbulk: 0.0049383 bohr^-3, Pvap: 3.14029 kPa, Rvdw: 2.61727 bohr and sigmaBulk: 4.62e-05 Eh/bohr^2 at T: 298 K.
   Weighted density dispersion model using vdW pair potentials with single solvent site with sqrtC6eff: 0.77 SI.


---- Citations for features of the code used in this run ----

   Software package:
      R. Sundararaman, K. Letchworth-Weaver, K.A. Schwarz, D. Gunceler, Y. Ozhabes and T.A. Arias, 'JDFTx: software for joint density-functional theory', SoftwareX 6, 278 (2017)

   gga-PBE exchange-correlation functional:
      J.P. Perdew, K. Burke and M. Ernzerhof, Phys. Rev. Lett. 77, 3865 (1996)

   Pseudopotentials:
      KF Garrity, JW Bennett, KM Rabe and D Vanderbilt, Comput. Mater. Sci. 81, 446 (2014)

   Truncated Coulomb potentials:
      R. Sundararaman and T.A. Arias, Phys. Rev. B 87, 165122 (2013)

   Van der Waals correction pair-potentials:
      S. Grimme, J. Comput. Chem. 27, 1787 (2006)

   Charge-asymmetric nonlocally-determined local-electric (CANDLE) solvation model:
      R. Sundararaman and W.A. Goddard III, J. Chem. Phys. 142, 064107 (2015)

   Total energy minimization with Auxiliary Hamiltonian:
      C. Freysoldt, S. Boeck, and J. Neugebauer, Phys. Rev. B 79, 241103(R) (2009)

This list may not be complete. Please suggest additional citations or
report any other bugs at https://github.com/shankar1729/jdftx/issues

Initialization completed successfully at t[s]:    686.47

Fluid solver invoked on fresh (partially random / LCAO) wavefunctions
Running a vacuum solve first:

-------- Initial electronic minimization -----------

*************** JDFTx 1.5.0  ***************

Start date and time: Fri Jul 17 10:36:50 2020
Executable jdftx_gpu with command-line: -i Neutral.in -o Neutral.out
Running on hosts (process indices):  amax (0-5)
Divided in process groups (process indices):  0 (0)  1 (1)  2 (2)  3 (3)  4 (4)  5 (5)
gpuInit: Found compatible cuda device 0 'Tesla K80'
gpuInit: Found compatible cuda device 1 'Tesla K80'
gpuInit: Found compatible cuda device 2 'Tesla K80'
gpuInit: Found compatible cuda device 3 'Tesla K80'
gpuInit: Found compatible cuda device 4 'Tesla K80'
gpuInit: Found compatible cuda device 5 'Tesla K80'
gpuInit: Selected device 0
Resource initialization completed at t[s]:     15.81
Run totals: 6 processes, 24 threads, 6 GPUs


Input parsed successfully to the following command list (including defaults):

basis kpoint-dependent
cache-projectors no
coords-type Lattice
core-overlap-check none
coulomb-interaction Slab 001
coulomb-truncation-embed 0 0 0.5
davidson-band-ratio 1.1
dump End State
dump-name NbTe2.$VAR
elec-cutoff 20 100
elec-eigen-algo Davidson
elec-ex-corr gga-PBE
elec-smearing Gauss 0.0073499
electronic-minimize  \
	dirUpdateScheme      FletcherReeves \
	linminMethod         DirUpdateRecommended \
	nIterations          500 \
	history              15 \
	knormThreshold       0 \
	energyDiffThreshold  1e-08 \
	nEnergyDiff          2 \
	alphaTstart          1 \
	alphaTmin            1e-10 \
	updateTestStepSize   yes \
	alphaTreduceFactor   0.1 \
	alphaTincreaseFactor 3 \
	nAlphaAdjustMax      3 \
	wolfeEnergy          0.0001 \
	wolfeGradient        0.9 \
	fdTest               no
exchange-regularization WignerSeitzTruncated
fluid LinearPCM 298.000000 1.013250
fluid-anion F- 1 MeanFieldLJ \
	epsBulk 1 \
	pMol 0 \
	epsInf 1 \
	Pvap 0 \
	sigmaBulk 0 \
	Rvdw 2.24877 \
	Res 0 \
	tauNuc 343133
fluid-cation Na+ 1 MeanFieldLJ \
	epsBulk 1 \
	pMol 0 \
	epsInf 1 \
	Pvap 0 \
	sigmaBulk 0 \
	Rvdw 2.19208 \
	Res 0 \
	tauNuc 343133
fluid-ex-corr lda-TF lda-PZ
fluid-gummel-loop 10 1.000000e-05
fluid-minimize  \
	dirUpdateScheme      PolakRibiere \
	linminMethod         DirUpdateRecommended \
	nIterations          400 \
	history              15 \
	knormThreshold       1e-11 \
	energyDiffThreshold  0 \
	nEnergyDiff          2 \
	alphaTstart          1 \
	alphaTmin            1e-10 \
	updateTestStepSize   yes \
	alphaTreduceFactor   0.1 \
	alphaTincreaseFactor 3 \
	nAlphaAdjustMax      6 \
	wolfeEnergy          0.0001 \
	wolfeGradient        0.9 \
	fdTest               no
fluid-solvent H2O 55.338 ScalarEOS \
	epsBulk 78.4 \
	pMol 0.92466 \
	epsInf 1.77 \
	Pvap 1.06736e-10 \
	sigmaBulk 4.62e-05 \
	Rvdw 2.61727 \
	Res 1.42 \
	tauNuc 343133 \
	poleEl 15 7 1
forces-output-coords Positions
initial-state NbTe2.$VAR
ion Sc   0.375911290117357   0.532002974146917   0.552604669707406 0
ion Sc   0.208338694721614   0.684190214835559   0.447365530290229 0
ion Sc   0.463343873282364   0.338546979718701   0.494943581338926 0
ion Sc   0.120944134742904   0.877662005092528   0.505046000941236 0
ion Sc   0.345916711800651   0.335472806005385   0.598101087114150 0
ion Sc   0.238344264242660   0.880670670558119   0.401881957060813 0
ion Sc   0.216415161755953   0.420045109390987   0.518567858735795 0
ion Sc   0.367902689182951   0.796190377048385   0.481362677172897 0
ion Sc   0.333701893986379   0.427641506474777   0.416315901727503 0
ion Sc   0.250618396936631   0.788527546708254   0.583644022350753 0
ion Sc   0.309290557094446   0.229228110970716   0.463509890103039 0
ion Sc   0.274955271792999   0.986906624619451   0.536467618299973 0
ion Sc   0.875911316117359   0.532002974146917   0.552604669707406 0
ion Sc   0.708338667721615   0.684190214835559   0.447365530290229 0
ion Sc   0.963343873282364   0.338546979718701   0.494943581338926 0
ion Sc   0.620944121742907   0.877662005092528   0.505046000941236 0
ion Sc   0.845916685800649   0.335472806005385   0.598101087114150 0
ion Sc   0.738344238242658   0.880670670558119   0.401881957060813 0
ion Sc   0.716415161755953   0.420045109390987   0.518567858735795 0
ion Sc   0.867902689182951   0.796190377048385   0.481362677172897 0
ion Sc   0.833701840986379   0.427641506474777   0.416315901727503 0
ion Sc   0.750618396936631   0.788527546708254   0.583644022350753 0
ion Sc   0.809290557094446   0.229228110970716   0.463509890103039 0
ion Sc   0.774955245793004   0.986906624619451   0.536467618299973 0
ion C   0.236377985491472   0.794301924616579   0.482147106927931 0
ion C   0.348037728065650   0.421745847830968   0.517817270274192 0
ion C   0.252887654905154   0.872556388363732   0.503179240847216 0
ion C   0.331298728859094   0.343634490482961   0.496727118327568 0
ion C   0.736377985491472   0.794301924616579   0.482147106927931 0
ion C   0.848037675065649   0.421745847830968   0.517817270274192 0
ion C   0.752887654905154   0.872556388363732   0.503179240847216 0
ion C   0.831298676859096   0.343634490482961   0.496727118327568 0
ion I   0.380651777024983   0.477599562356786   0.671569569193318 0
ion I   0.203715715274620   0.738599501924996   0.328523323245364 0
ion I   0.033027414156793   0.489315928438222   0.535878713973076 0
ion I   0.050973660211212   0.726828821463481   0.464112276943291 0
ion I   0.215957234321270   0.602409736889296   0.567916785366192 0
ion I   0.368438980083330   0.613776986770553   0.432073756392921 0
ion I   0.272980862405057   0.059475125464777   0.416075555848918 0
ion I   0.311338402782008   0.156793920634257   0.584010257952182 0
ion I   0.462657753085646   0.172199952113646   0.445519879423870 0
ion I   0.121567714845611   0.044103696830611   0.554402330145323 0
ion I   0.146593795317131   0.279546883332978   0.476527987088141 0
ion I   0.437830512784525   0.936614266560454   0.523543145162084 0
ion I   0.387752172889085   0.843273541668965   0.361987985110492 0
ion I   0.196282072791838   0.373223514345277   0.637916598381212 0
ion I   0.088227537857998   0.949495932141631   0.390352986381742 0
ion I   0.496055749393104   0.266741861615907   0.609839600495728 0
ion I   0.402303770982723   0.709088533736006   0.594702667510493 0
ion I   0.182064373294313   0.506984187799622   0.405222420003831 0
ion I   0.102976079037072   0.813630939135860   0.623907905586408 0
ion I   0.481261174927595   0.402554915962103   0.376226713508645 0
ion I   0.290186677403318   0.921594040147337   0.656508421228499 0
ion I   0.294281548152493   0.294284300803251   0.343539528838652 0
ion I   0.880651750024977   0.477599562356786   0.671569569193318 0
ion I   0.703715689274617   0.738599501924996   0.328523323245364 0
ion I   0.533027466156797   0.489315928438222   0.535878713973076 0
ion I   0.550973607211218   0.726828821463481   0.464112276943291 0
ion I   0.715957234321270   0.602409736889296   0.567916785366192 0
ion I   0.868438980083330   0.613776986770553   0.432073756392921 0
ion I   0.772980836405055   0.059475125464777   0.416075555848918 0
ion I   0.811338402782008   0.156793920634257   0.584010257952182 0
ion I   0.962657806085647   0.172199952113646   0.445519879423870 0
ion I   0.621567701845607   0.044103696830611   0.554402330145323 0
ion I   0.646593782317134   0.279546883332978   0.476527987088141 0
ion I   0.937830512784525   0.936614266560454   0.523543145162084 0
ion I   0.887752172889085   0.843273541668965   0.361987985110492 0
ion I   0.696282072791838   0.373223514345277   0.637916598381212 0
ion I   0.588227577858001   0.949495932141631   0.390352986381742 0
ion I   0.996055802393105   0.266741861615907   0.609839600495728 0
ion I   0.902303718982725   0.709088533736006   0.594702667510493 0
ion I   0.682064425294317   0.506984187799622   0.405222420003831 0
ion I   0.602976105037067   0.813630939135860   0.623907905586408 0
ion I   0.981261226927593   0.402554915962103   0.376226713508645 0
ion I   0.790186704403317   0.921594040147337   0.656508421228499 0
ion I   0.794281495152499   0.294284300803251   0.343539528838652 0
ion-species GBRV/$ID_pbe.uspp
ion-width Ecut
ionic-minimize  \
	dirUpdateScheme      L-BFGS \
	linminMethod         DirUpdateRecommended \
	nIterations          0 \
	history              15 \
	knormThreshold       0.0001 \
	energyDiffThreshold  1e-06 \
	nEnergyDiff          2 \
	alphaTstart          1 \
	alphaTmin            1e-10 \
	updateTestStepSize   yes \
	alphaTreduceFactor   0.1 \
	alphaTincreaseFactor 3 \
	nAlphaAdjustMax      3 \
	wolfeEnergy          0.0001 \
	wolfeGradient        0.9 \
	fdTest               no
kpoint   0.000000000000   0.000000000000   0.000000000000  1.00000000000000
kpoint-folding 3 3 1 
latt-move-scale 1 1 1
latt-scale 1 1 1 
lattice Triclinic 34.1882 30.5336 42.9805 90 90 83.1108
lattice-minimize  \
	dirUpdateScheme      L-BFGS \
	linminMethod         DirUpdateRecommended \
	nIterations          0 \
	history              15 \
	knormThreshold       0 \
	energyDiffThreshold  1e-06 \
	nEnergyDiff          2 \
	alphaTstart          1 \
	alphaTmin            1e-10 \
	updateTestStepSize   yes \
	alphaTreduceFactor   0.1 \
	alphaTincreaseFactor 3 \
	nAlphaAdjustMax      3 \
	wolfeEnergy          0.0001 \
	wolfeGradient        0.9 \
	fdTest               no
lcao-params -1 1e-06 0.0073499
pcm-variant CANDLE
spintype no-spin
subspace-rotation-factor 1 yes
symmetries automatic
symmetry-threshold 0.0001



---------- Setting up symmetries ----------

Found 4 point-group symmetries of the bravais lattice
Found 2 space-group symmetries with basis
Applied RMS atom displacement 5.5043e-07 bohrs to make symmetries exact.

---------- Initializing the Grid ----------
R = 
[    34.1882     3.6625          0  ]
[          0    30.3132          0  ]
[          0          0    42.9805  ]
unit cell volume = 44542.9
G =
[   0.183782  -0.022205          0  ]
[          0   0.207276          0  ]
[          0          0   0.146187  ]
Minimum fftbox size, Smin = [  156  140  196  ]
Chosen fftbox size, S = [  160  140  196  ]

---------- Initializing tighter grid for wavefunction operations ----------
R = 
[    34.1882     3.6625          0  ]
[          0    30.3132          0  ]
[          0          0    42.9805  ]
unit cell volume = 44542.9
G =
[   0.183782  -0.022205          0  ]
[          0   0.207276          0  ]
[          0          0   0.146187  ]
Minimum fftbox size, Smin = [  140  124  176  ]
Chosen fftbox size, S = [  140  126  180  ]

---------- Exchange Correlation functional ----------
Initalized PBE GGA exchange.
Initalized PBE GGA correlation.

---------- Setting up pseudopotentials ----------
Width of ionic core gaussian charges (only for fluid interactions / plotting) set to 0.397384

Reading pseudopotential file '/home/guoxy/vasp/jdftx-1.5.0/build/pseudopotentials/GBRV/sc_pbe.uspp':
  Title: Sc.  Created by USPP 7.3.6 on 14-9-2013
  Reference state energy: -46.994501.  11 valence electrons in orbitals:
    |300>  occupation: 2  eigenvalue: -2.022603
    |310>  occupation: 6  eigenvalue: -1.235690
    |400>  occupation: 2  eigenvalue: -0.153725
    |320>  occupation: 1  eigenvalue: -0.118830
    |410>  occupation: 0  eigenvalue: -0.053919
  lMax: 2  lLocal: 3  QijEcut: 5
  6 projectors sampled on a log grid with 593 points:
    l: 0  eig: -2.022603  rCut: 2.2
    l: 0  eig: -0.153726  rCut: 2.2
    l: 1  eig: -1.235690  rCut: 2.2
    l: 1  eig: -0.053919  rCut: 2.2
    l: 2  eig: -0.118830  rCut: 2.2
    l: 2  eig: 0.150000  rCut: 2.2
  Partial core density with radius 1
  Transforming core density to a uniform radial grid of dG=0.02 with 1316 points.
  Transforming local potential to a uniform radial grid of dG=0.02 with 1316 points.
  Transforming nonlocal projectors to a uniform radial grid of dG=0.02 with 432 points.
  Transforming density augmentations to a uniform radial grid of dG=0.02 with 1316 points.
  Transforming atomic orbitals to a uniform radial grid of dG=0.02 with 432 points.
  Core radius for overlap checks: 2.20 bohrs.

Reading pseudopotential file '/home/guoxy/vasp/jdftx-1.5.0/build/pseudopotentials/GBRV/c_pbe.uspp':
  Title: C.  Created by USPP 7.3.6 on 3-2-2014
  Reference state energy: -5.406344.  4 valence electrons in orbitals:
    |200>  occupation: 2  eigenvalue: -0.504890
    |210>  occupation: 2  eigenvalue: -0.194356
  lMax: 1  lLocal: 2  QijEcut: 5
  4 projectors sampled on a log grid with 503 points:
    l: 0  eig: -0.504890  rCut: 1.3
    l: 0  eig: 0.000000  rCut: 1.3
    l: 1  eig: -0.194357  rCut: 1.3
    l: 1  eig: 0.000000  rCut: 1.3
  Partial core density with radius 1.1
  Transforming core density to a uniform radial grid of dG=0.02 with 1316 points.
  Transforming local potential to a uniform radial grid of dG=0.02 with 1316 points.
  Transforming nonlocal projectors to a uniform radial grid of dG=0.02 with 432 points.
  Transforming density augmentations to a uniform radial grid of dG=0.02 with 1316 points.
  Transforming atomic orbitals to a uniform radial grid of dG=0.02 with 432 points.
  Core radius for overlap checks: 1.30 bohrs.

Reading pseudopotential file '/home/guoxy/vasp/jdftx-1.5.0/build/pseudopotentials/GBRV/i_pbe.uspp':
  Title: I.  Created by USPP 7.3.6 on 14-9-2013
  Reference state energy: -32.770235.  7 valence electrons in orbitals:
    |500>  occupation: 2  eigenvalue: -0.639712
    |510>  occupation: 5  eigenvalue: -0.260406
  lMax: 2  lLocal: 3  QijEcut: 5
  6 projectors sampled on a log grid with 725 points:
    l: 0  eig: -0.639710  rCut: 1.9
    l: 0  eig: 0.000000  rCut: 1.9
    l: 1  eig: -0.260404  rCut: 2
    l: 1  eig: 0.000000  rCut: 2
    l: 2  eig: -0.500000  rCut: 2.45
    l: 2  eig: 0.500000  rCut: 2.45
  Partial core density with radius 1.3
  Transforming core density to a uniform radial grid of dG=0.02 with 1316 points.
  Transforming local potential to a uniform radial grid of dG=0.02 with 1316 points.
  Transforming nonlocal projectors to a uniform radial grid of dG=0.02 with 432 points.
  Transforming density augmentations to a uniform radial grid of dG=0.02 with 1316 points.
  Transforming atomic orbitals to a uniform radial grid of dG=0.02 with 432 points.
  Core radius for overlap checks: 2.45 bohrs.

Initialized 3 species with 76 total atoms.

Folded 1 k-points by 3x3x1 to 9 k-points.

---------- Setting up k-points, bands, fillings ----------
Adding inversion symmetry to k-mesh for non-inversion-symmetric unit cell.
Reduced to 5 k-points under symmetry. 
Computing the number of bands and number of electrons
Calculating initial fillings.
nElectrons: 604.000000   nBands: 520   nStates: 5

----- Setting up reduced wavefunction bases (one per k-point) -----
average nbasis = 190289.000 , ideal nbasis = 190290.715

---------- Setting up coulomb interaction ----------
Fluid mode embedding: using embedded box, but periodic Coulomb kernel.
(Fluid response is responsible for (approximate) separation between periodic images.)
Setting up double-sized grid for truncated Coulomb potentials:
R = 
[    34.1882     3.6625          0  ]
[          0    30.3132          0  ]
[          0          0     85.961  ]
unit cell volume = 89085.8
G =
[   0.183782  -0.022205          0  ]
[          0   0.207276          0  ]
[          0          0  0.0730935  ]
Chosen fftbox size, S = [  160  140  392  ]
Integer grid location selected as the embedding center:
   Grid: [  0  0  98  ]
   Lattice: [  0  0  0.5  ]
   Cartesian: [  0  0  21.4902  ]
Constructing Wigner-Seitz cell: 8 faces (6 quadrilaterals, 2 hexagons)
Range-separation parameter for embedded mesh potentials due to point charges: 0.590769 bohrs.

Initializing van der Waals corrections
	NOTE: vdW corrections apply only for interactions with fluid.
	Sc:  C6:  187.33 Eh-a0^6  R0: 2.952 a0
	 C:  C6:   30.35 Eh-a0^6  R0: 2.744 a0
	 I:  C6:  546.38 Eh-a0^6  R0: 3.575 a0

---------- Setting up ewald sum ----------
Optimum gaussian width for ewald sums = 8.657198 bohr.
Real space sum over 405 unit cells with max indices [  4  4  2  ]
Reciprocal space sum over 7425 terms with max indices [  7  7  16  ]

---------- Allocating electronic variables ----------
Initializing wave functions:  linear combination of atomic orbitals
Sc pseudo-atom occupations:   s ( 2 2 )  p ( 6 0 )  d ( 1 )
C pseudo-atom occupations:   s ( 2 )  p ( 2 )
I pseudo-atom occupations:   s ( 2 )  p ( 5 )
	FillingsUpdate:  mu: -0.083466836  nElectrons: 604.000000
LCAOMinimize: Iter:   0  F: -1681.6760482580828011  |grad|_K:  4.235e-03  alpha:  1.000e+00
	FillingsUpdate:  mu: -0.105839197  nElectrons: 604.000000
LCAOMinimize: Iter:   1  F: -1684.1636153366553117  |grad|_K:  2.464e-03  alpha:  1.198e-01  linmin: -4.388e-01  cgtest:  8.962e-01  t[s]:    152.81
LCAOMinimize: Encountered beta<0, resetting CG.
	FillingsUpdate:  mu: -0.147010960  nElectrons: 604.000000
LCAOMinimize: Iter:   2  F: -1685.1469615773451096  |grad|_K:  4.958e-04  alpha:  2.544e-01  linmin:  1.837e-01  cgtest: -4.580e-01  t[s]:    185.22
	FillingsUpdate:  mu: -0.132094636  nElectrons: 604.000000
LCAOMinimize: Iter:   3  F: -1685.1650773634682992  |grad|_K:  3.019e-04  alpha:  1.689e-01  linmin: -4.845e-04  cgtest:  6.099e-01  t[s]:    216.96
LCAOMinimize: Encountered beta<0, resetting CG.
	FillingsUpdate:  mu: -0.125556968  nElectrons: 604.000000
LCAOMinimize: Iter:   4  F: -1685.1802422520729579  |grad|_K:  9.958e-05  alpha:  2.448e-01  linmin: -2.633e-03  cgtest:  7.798e-03  t[s]:    248.38
	FillingsUpdate:  mu: -0.127777191  nElectrons: 604.000000
LCAOMinimize: Iter:   5  F: -1685.1815213049335398  |grad|_K:  1.081e-04  alpha:  1.899e-01  linmin: -1.540e-04  cgtest: -2.879e-03  t[s]:    279.83
	FillingsUpdate:  mu: -0.130200793  nElectrons: 604.000000
LCAOMinimize: Iter:   6  F: -1685.1827574486678714  |grad|_K:  6.326e-05  alpha:  1.557e-01  linmin: -3.228e-04  cgtest: -9.818e-03  t[s]:    313.26
	FillingsUpdate:  mu: -0.128842318  nElectrons: 604.000000
LCAOMinimize: Iter:   7  F: -1685.1833226938249481  |grad|_K:  2.256e-05  alpha:  2.079e-01  linmin:  8.084e-04  cgtest: -2.473e-03  t[s]:    345.90
	FillingsUpdate:  mu: -0.128117047  nElectrons: 604.000000
LCAOMinimize: Iter:   8  F: -1685.1833860690578604  |grad|_K:  8.039e-06  alpha:  1.838e-01  linmin:  1.628e-04  cgtest:  5.745e-03  t[s]:    380.46
	FillingsUpdate:  mu: -0.128112627  nElectrons: 604.000000
LCAOMinimize: Iter:   9  F: -1685.1834025306636704  |grad|_K:  6.920e-06  alpha:  3.757e-01  linmin:  1.588e-04  cgtest: -1.157e-03  t[s]:    421.79
	FillingsUpdate:  mu: -0.128154406  nElectrons: 604.000000
LCAOMinimize: Iter:  10  F: -1685.1834051433570494  |grad|_K:  2.612e-06  alpha:  8.047e-02  linmin: -3.453e-05  cgtest:  3.849e-03  t[s]:    458.84
	FillingsUpdate:  mu: -0.128242984  nElectrons: 604.000000
LCAOMinimize: Iter:  11  F: -1685.1834061040110555  |grad|_K:  1.210e-06  alpha:  2.074e-01  linmin: -8.519e-05  cgtest: -8.719e-04  t[s]:    494.13
	FillingsUpdate:  mu: -0.128264093  nElectrons: 604.000000
LCAOMinimize: Iter:  12  F: -1685.1834064180907262  |grad|_K:  8.161e-07  alpha:  3.158e-01  linmin: -9.103e-05  cgtest: -9.053e-05  t[s]:    534.98
LCAOMinimize: Converged (|Delta F|<1.000000e-06 for 2 iters).
----- createFluidSolver() ----- (Fluid-side solver setup)
   Initializing fluid molecule 'H2O'
     Initializing site 'O'
       Electron density: proportional to exp(-r/0.36935)*erfc((r-0.51523)/0.36823) with norm 6.826
       Charge density: gaussian nuclear width 0.478731 with net site charge 0.826
       Polarizability: cuspless exponential with width 0.32 and norm 3.73
       Hard sphere radius: 2.57003 bohrs
       Positions in reference frame:
         [ +0.000000 +0.000000 +0.000000 ]
     Initializing site 'H'
       Electron density: proportional to exp(-r/0.34641)*erfc((r-0)/0.390882) with norm 0.587
       Charge density: gaussian nuclear width 0.377945 with net site charge -0.413
       Polarizability: cuspless exponential with width 0.39 and norm 3.3
       Positions in reference frame:
         [ +0.000000 -1.441945 +1.122523 ]
         [ +0.000000 +1.441945 +1.122523 ]
     Net charge: 0   dipole magnitude: 0.927204
     Initializing spherical shell mfKernel with radius 2.61727 Bohr
     deltaS corrections:
       site 'O': -7.54299
       site 'H': -6.83917
   Initializing fluid molecule 'Na+'
     Initializing site 'Na'
       Electron density: proportional to exp(-r/0.19682)*erfc((r-0.71491)/0.41314) with norm 8.1383
       Charge density: gaussian nuclear width 0.365347 with net site charge -1
       Hard sphere radius: 1.86327 bohrs
       Positions in reference frame:
         [ +0.000000 +0.000000 +0.000000 ]
     Net charge: -1   dipole magnitude: 0
     Initializing gaussian mfKernel with width: 1.55004 Bohr
     deltaS corrections:
       site 'Na': -22.3555
   Initializing fluid molecule 'F-'
     Initializing site 'F'
       Electron density: proportional to exp(-r/0.38886)*erfc((r-0)/0.438782) with norm 8
       Charge density: gaussian nuclear width 0.374796 with net site charge 1
       Hard sphere radius: 2.39995 bohrs
       Positions in reference frame:
         [ +0.000000 +0.000000 +0.000000 ]
     Net charge: 1   dipole magnitude: 0
     Initializing gaussian mfKernel with width: 1.59012 Bohr
     deltaS corrections:
       site 'F': -9.04335

Correction to mu due to finite nuclear width = -0.0067271
   Cavity determined by nc: 0.00142 and sigma: 0.707107
   Nonlocal vdW cavity from gaussian model electron density with norm = 8 and sigma = 0.993594 bohr
   Charge asymmetry in cavity with sensitivity pCavity = 36.5 e-bohr/Eh
   Electrostatic cavity expanded by eta = 1.46 bohrs
   Weighted density cavitation model constrained by Nbulk: 0.0049383 bohr^-3, Pvap: 3.14029 kPa, Rvdw: 2.61727 bohr and sigmaBulk: 4.62e-05 Eh/bohr^2 at T: 298 K.
   Weighted density dispersion model using vdW pair potentials with single solvent site with sqrtC6eff: 0.77 SI.


---- Citations for features of the code used in this run ----

   Software package:
      R. Sundararaman, K. Letchworth-Weaver, K.A. Schwarz, D. Gunceler, Y. Ozhabes and T.A. Arias, 'JDFTx: software for joint density-functional theory', SoftwareX 6, 278 (2017)

   gga-PBE exchange-correlation functional:
      J.P. Perdew, K. Burke and M. Ernzerhof, Phys. Rev. Lett. 77, 3865 (1996)

   Pseudopotentials:
      KF Garrity, JW Bennett, KM Rabe and D Vanderbilt, Comput. Mater. Sci. 81, 446 (2014)

   Truncated Coulomb potentials:
      R. Sundararaman and T.A. Arias, Phys. Rev. B 87, 165122 (2013)

   Van der Waals correction pair-potentials:
      S. Grimme, J. Comput. Chem. 27, 1787 (2006)

   Charge-asymmetric nonlocally-determined local-electric (CANDLE) solvation model:
      R. Sundararaman and W.A. Goddard III, J. Chem. Phys. 142, 064107 (2015)

   Total energy minimization with Auxiliary Hamiltonian:
      C. Freysoldt, S. Boeck, and J. Neugebauer, Phys. Rev. B 79, 241103(R) (2009)

This list may not be complete. Please suggest additional citations or
report any other bugs at https://github.com/shankar1729/jdftx/issues

Initialization completed successfully at t[s]:    553.74

Fluid solver invoked on fresh (partially random / LCAO) wavefunctions
Running a vacuum solve first:

-------- Initial electronic minimization -----------

*************** JDFTx 1.5.0  ***************

Start date and time: Fri Jul 17 12:26:26 2020
Executable jdftx_gpu with command-line: -i Neutral.in -o Neutral.out
Running on hosts (process indices):  amax (0-5)
Divided in process groups (process indices):  0 (0)  1 (1)  2 (2)  3 (3)  4 (4)  5 (5)
gpuInit: Found compatible cuda device 0 'Tesla K80'
gpuInit: Found compatible cuda device 1 'Tesla K80'
gpuInit: Found compatible cuda device 2 'Tesla K80'
gpuInit: Found compatible cuda device 3 'Tesla K80'
gpuInit: Found compatible cuda device 4 'Tesla K80'
gpuInit: Found compatible cuda device 5 'Tesla K80'
gpuInit: Selected device 0
Resource initialization completed at t[s]:     15.94
Run totals: 6 processes, 24 threads, 6 GPUs


Input parsed successfully to the following command list (including defaults):

basis kpoint-dependent
cache-projectors no
coords-type Lattice
core-overlap-check none
coulomb-interaction Slab 001
coulomb-truncation-embed 0 0 0.5
davidson-band-ratio 1.1
dump End State
dump-name NbTe2.$VAR
elec-cutoff 20 100
elec-eigen-algo Davidson
elec-ex-corr gga-PBE
elec-smearing Gauss 0.0073499
electronic-minimize  \
	dirUpdateScheme      FletcherReeves \
	linminMethod         DirUpdateRecommended \
	nIterations          500 \
	history              15 \
	knormThreshold       0 \
	energyDiffThreshold  1e-08 \
	nEnergyDiff          2 \
	alphaTstart          1 \
	alphaTmin            1e-10 \
	updateTestStepSize   yes \
	alphaTreduceFactor   0.1 \
	alphaTincreaseFactor 3 \
	nAlphaAdjustMax      3 \
	wolfeEnergy          0.0001 \
	wolfeGradient        0.9 \
	fdTest               no
exchange-regularization WignerSeitzTruncated
fluid LinearPCM 298.000000 1.013250
fluid-anion F- 1 MeanFieldLJ \
	epsBulk 1 \
	pMol 0 \
	epsInf 1 \
	Pvap 0 \
	sigmaBulk 0 \
	Rvdw 2.24877 \
	Res 0 \
	tauNuc 343133
fluid-cation Na+ 1 MeanFieldLJ \
	epsBulk 1 \
	pMol 0 \
	epsInf 1 \
	Pvap 0 \
	sigmaBulk 0 \
	Rvdw 2.19208 \
	Res 0 \
	tauNuc 343133
fluid-ex-corr lda-TF lda-PZ
fluid-gummel-loop 10 1.000000e-05
fluid-minimize  \
	dirUpdateScheme      PolakRibiere \
	linminMethod         DirUpdateRecommended \
	nIterations          400 \
	history              15 \
	knormThreshold       1e-11 \
	energyDiffThreshold  0 \
	nEnergyDiff          2 \
	alphaTstart          1 \
	alphaTmin            1e-10 \
	updateTestStepSize   yes \
	alphaTreduceFactor   0.1 \
	alphaTincreaseFactor 3 \
	nAlphaAdjustMax      6 \
	wolfeEnergy          0.0001 \
	wolfeGradient        0.9 \
	fdTest               no
fluid-solvent H2O 55.338 ScalarEOS \
	epsBulk 78.4 \
	pMol 0.92466 \
	epsInf 1.77 \
	Pvap 1.06736e-10 \
	sigmaBulk 4.62e-05 \
	Rvdw 2.61727 \
	Res 1.42 \
	tauNuc 343133 \
	poleEl 15 7 1
forces-output-coords Positions
initial-state NbTe2.$VAR
ion Sc   0.375911290117357   0.532002974146917   0.552604669707406 0
ion Sc   0.208338694721614   0.684190214835559   0.447365530290229 0
ion Sc   0.463343873282364   0.338546979718701   0.494943581338926 0
ion Sc   0.120944134742904   0.877662005092528   0.505046000941236 0
ion Sc   0.345916711800651   0.335472806005385   0.598101087114150 0
ion Sc   0.238344264242660   0.880670670558119   0.401881957060813 0
ion Sc   0.216415161755953   0.420045109390987   0.518567858735795 0
ion Sc   0.367902689182951   0.796190377048385   0.481362677172897 0
ion Sc   0.333701893986379   0.427641506474777   0.416315901727503 0
ion Sc   0.250618396936631   0.788527546708254   0.583644022350753 0
ion Sc   0.309290557094446   0.229228110970716   0.463509890103039 0
ion Sc   0.274955271792999   0.986906624619451   0.536467618299973 0
ion Sc   0.875911316117359   0.532002974146917   0.552604669707406 0
ion Sc   0.708338667721615   0.684190214835559   0.447365530290229 0
ion Sc   0.963343873282364   0.338546979718701   0.494943581338926 0
ion Sc   0.620944121742907   0.877662005092528   0.505046000941236 0
ion Sc   0.845916685800649   0.335472806005385   0.598101087114150 0
ion Sc   0.738344238242658   0.880670670558119   0.401881957060813 0
ion Sc   0.716415161755953   0.420045109390987   0.518567858735795 0
ion Sc   0.867902689182951   0.796190377048385   0.481362677172897 0
ion Sc   0.833701840986379   0.427641506474777   0.416315901727503 0
ion Sc   0.750618396936631   0.788527546708254   0.583644022350753 0
ion Sc   0.809290557094446   0.229228110970716   0.463509890103039 0
ion Sc   0.774955245793004   0.986906624619451   0.536467618299973 0
ion C   0.236377985491472   0.794301924616579   0.482147106927931 0
ion C   0.348037728065650   0.421745847830968   0.517817270274192 0
ion C   0.252887654905154   0.872556388363732   0.503179240847216 0
ion C   0.331298728859094   0.343634490482961   0.496727118327568 0
ion C   0.736377985491472   0.794301924616579   0.482147106927931 0
ion C   0.848037675065649   0.421745847830968   0.517817270274192 0
ion C   0.752887654905154   0.872556388363732   0.503179240847216 0
ion C   0.831298676859096   0.343634490482961   0.496727118327568 0
ion I   0.380651777024983   0.477599562356786   0.671569569193318 0
ion I   0.203715715274620   0.738599501924996   0.328523323245364 0
ion I   0.033027414156793   0.489315928438222   0.535878713973076 0
ion I   0.050973660211212   0.726828821463481   0.464112276943291 0
ion I   0.215957234321270   0.602409736889296   0.567916785366192 0
ion I   0.368438980083330   0.613776986770553   0.432073756392921 0
ion I   0.272980862405057   0.059475125464777   0.416075555848918 0
ion I   0.311338402782008   0.156793920634257   0.584010257952182 0
ion I   0.462657753085646   0.172199952113646   0.445519879423870 0
ion I   0.121567714845611   0.044103696830611   0.554402330145323 0
ion I   0.146593795317131   0.279546883332978   0.476527987088141 0
ion I   0.437830512784525   0.936614266560454   0.523543145162084 0
ion I   0.387752172889085   0.843273541668965   0.361987985110492 0
ion I   0.196282072791838   0.373223514345277   0.637916598381212 0
ion I   0.088227537857998   0.949495932141631   0.390352986381742 0
ion I   0.496055749393104   0.266741861615907   0.609839600495728 0
ion I   0.402303770982723   0.709088533736006   0.594702667510493 0
ion I   0.182064373294313   0.506984187799622   0.405222420003831 0
ion I   0.102976079037072   0.813630939135860   0.623907905586408 0
ion I   0.481261174927595   0.402554915962103   0.376226713508645 0
ion I   0.290186677403318   0.921594040147337   0.656508421228499 0
ion I   0.294281548152493   0.294284300803251   0.343539528838652 0
ion I   0.880651750024977   0.477599562356786   0.671569569193318 0
ion I   0.703715689274617   0.738599501924996   0.328523323245364 0
ion I   0.533027466156797   0.489315928438222   0.535878713973076 0
ion I   0.550973607211218   0.726828821463481   0.464112276943291 0
ion I   0.715957234321270   0.602409736889296   0.567916785366192 0
ion I   0.868438980083330   0.613776986770553   0.432073756392921 0
ion I   0.772980836405055   0.059475125464777   0.416075555848918 0
ion I   0.811338402782008   0.156793920634257   0.584010257952182 0
ion I   0.962657806085647   0.172199952113646   0.445519879423870 0
ion I   0.621567701845607   0.044103696830611   0.554402330145323 0
ion I   0.646593782317134   0.279546883332978   0.476527987088141 0
ion I   0.937830512784525   0.936614266560454   0.523543145162084 0
ion I   0.887752172889085   0.843273541668965   0.361987985110492 0
ion I   0.696282072791838   0.373223514345277   0.637916598381212 0
ion I   0.588227577858001   0.949495932141631   0.390352986381742 0
ion I   0.996055802393105   0.266741861615907   0.609839600495728 0
ion I   0.902303718982725   0.709088533736006   0.594702667510493 0
ion I   0.682064425294317   0.506984187799622   0.405222420003831 0
ion I   0.602976105037067   0.813630939135860   0.623907905586408 0
ion I   0.981261226927593   0.402554915962103   0.376226713508645 0
ion I   0.790186704403317   0.921594040147337   0.656508421228499 0
ion I   0.794281495152499   0.294284300803251   0.343539528838652 0
ion-species GBRV/$ID_pbe.uspp
ion-width Ecut
ionic-minimize  \
	dirUpdateScheme      L-BFGS \
	linminMethod         DirUpdateRecommended \
	nIterations          0 \
	history              15 \
	knormThreshold       0.0001 \
	energyDiffThreshold  1e-06 \
	nEnergyDiff          2 \
	alphaTstart          1 \
	alphaTmin            1e-10 \
	updateTestStepSize   yes \
	alphaTreduceFactor   0.1 \
	alphaTincreaseFactor 3 \
	nAlphaAdjustMax      3 \
	wolfeEnergy          0.0001 \
	wolfeGradient        0.9 \
	fdTest               no
kpoint   0.000000000000   0.000000000000   0.000000000000  1.00000000000000
kpoint-folding 2 2 1 
latt-move-scale 1 1 1
latt-scale 1 1 1 
lattice Triclinic 34.1882 30.5336 42.9805 90 90 83.1108
lattice-minimize  \
	dirUpdateScheme      L-BFGS \
	linminMethod         DirUpdateRecommended \
	nIterations          0 \
	history              15 \
	knormThreshold       0 \
	energyDiffThreshold  1e-06 \
	nEnergyDiff          2 \
	alphaTstart          1 \
	alphaTmin            1e-10 \
	updateTestStepSize   yes \
	alphaTreduceFactor   0.1 \
	alphaTincreaseFactor 3 \
	nAlphaAdjustMax      3 \
	wolfeEnergy          0.0001 \
	wolfeGradient        0.9 \
	fdTest               no
lcao-params -1 1e-06 0.0073499
pcm-variant CANDLE
spintype no-spin
subspace-rotation-factor 1 yes
symmetries automatic
symmetry-threshold 0.0001



---------- Setting up symmetries ----------

Found 4 point-group symmetries of the bravais lattice
Found 2 space-group symmetries with basis
Applied RMS atom displacement 5.5043e-07 bohrs to make symmetries exact.

---------- Initializing the Grid ----------
R = 
[    34.1882     3.6625          0  ]
[          0    30.3132          0  ]
[          0          0    42.9805  ]
unit cell volume = 44542.9
G =
[   0.183782  -0.022205          0  ]
[          0   0.207276          0  ]
[          0          0   0.146187  ]
Minimum fftbox size, Smin = [  156  140  196  ]
Chosen fftbox size, S = [  160  140  196  ]

---------- Initializing tighter grid for wavefunction operations ----------
R = 
[    34.1882     3.6625          0  ]
[          0    30.3132          0  ]
[          0          0    42.9805  ]
unit cell volume = 44542.9
G =
[   0.183782  -0.022205          0  ]
[          0   0.207276          0  ]
[          0          0   0.146187  ]
Minimum fftbox size, Smin = [  140  124  176  ]
Chosen fftbox size, S = [  140  126  180  ]

---------- Exchange Correlation functional ----------
Initalized PBE GGA exchange.
Initalized PBE GGA correlation.

---------- Setting up pseudopotentials ----------
Width of ionic core gaussian charges (only for fluid interactions / plotting) set to 0.397384

Reading pseudopotential file '/home/guoxy/vasp/jdftx-1.5.0/build/pseudopotentials/GBRV/sc_pbe.uspp':
  Title: Sc.  Created by USPP 7.3.6 on 14-9-2013
  Reference state energy: -46.994501.  11 valence electrons in orbitals:
    |300>  occupation: 2  eigenvalue: -2.022603
    |310>  occupation: 6  eigenvalue: -1.235690
    |400>  occupation: 2  eigenvalue: -0.153725
    |320>  occupation: 1  eigenvalue: -0.118830
    |410>  occupation: 0  eigenvalue: -0.053919
  lMax: 2  lLocal: 3  QijEcut: 5
  6 projectors sampled on a log grid with 593 points:
    l: 0  eig: -2.022603  rCut: 2.2
    l: 0  eig: -0.153726  rCut: 2.2
    l: 1  eig: -1.235690  rCut: 2.2
    l: 1  eig: -0.053919  rCut: 2.2
    l: 2  eig: -0.118830  rCut: 2.2
    l: 2  eig: 0.150000  rCut: 2.2
  Partial core density with radius 1
  Transforming core density to a uniform radial grid of dG=0.02 with 1316 points.
  Transforming local potential to a uniform radial grid of dG=0.02 with 1316 points.
  Transforming nonlocal projectors to a uniform radial grid of dG=0.02 with 432 points.
  Transforming density augmentations to a uniform radial grid of dG=0.02 with 1316 points.
  Transforming atomic orbitals to a uniform radial grid of dG=0.02 with 432 points.
  Core radius for overlap checks: 2.20 bohrs.

Reading pseudopotential file '/home/guoxy/vasp/jdftx-1.5.0/build/pseudopotentials/GBRV/c_pbe.uspp':
  Title: C.  Created by USPP 7.3.6 on 3-2-2014
  Reference state energy: -5.406344.  4 valence electrons in orbitals:
    |200>  occupation: 2  eigenvalue: -0.504890
    |210>  occupation: 2  eigenvalue: -0.194356
  lMax: 1  lLocal: 2  QijEcut: 5
  4 projectors sampled on a log grid with 503 points:
    l: 0  eig: -0.504890  rCut: 1.3
    l: 0  eig: 0.000000  rCut: 1.3
    l: 1  eig: -0.194357  rCut: 1.3
    l: 1  eig: 0.000000  rCut: 1.3
  Partial core density with radius 1.1
  Transforming core density to a uniform radial grid of dG=0.02 with 1316 points.
  Transforming local potential to a uniform radial grid of dG=0.02 with 1316 points.
  Transforming nonlocal projectors to a uniform radial grid of dG=0.02 with 432 points.
  Transforming density augmentations to a uniform radial grid of dG=0.02 with 1316 points.
  Transforming atomic orbitals to a uniform radial grid of dG=0.02 with 432 points.
  Core radius for overlap checks: 1.30 bohrs.

Reading pseudopotential file '/home/guoxy/vasp/jdftx-1.5.0/build/pseudopotentials/GBRV/i_pbe.uspp':
  Title: I.  Created by USPP 7.3.6 on 14-9-2013
  Reference state energy: -32.770235.  7 valence electrons in orbitals:
    |500>  occupation: 2  eigenvalue: -0.639712
    |510>  occupation: 5  eigenvalue: -0.260406
  lMax: 2  lLocal: 3  QijEcut: 5
  6 projectors sampled on a log grid with 725 points:
    l: 0  eig: -0.639710  rCut: 1.9
    l: 0  eig: 0.000000  rCut: 1.9
    l: 1  eig: -0.260404  rCut: 2
    l: 1  eig: 0.000000  rCut: 2
    l: 2  eig: -0.500000  rCut: 2.45
    l: 2  eig: 0.500000  rCut: 2.45
  Partial core density with radius 1.3
  Transforming core density to a uniform radial grid of dG=0.02 with 1316 points.
  Transforming local potential to a uniform radial grid of dG=0.02 with 1316 points.
  Transforming nonlocal projectors to a uniform radial grid of dG=0.02 with 432 points.
  Transforming density augmentations to a uniform radial grid of dG=0.02 with 1316 points.
  Transforming atomic orbitals to a uniform radial grid of dG=0.02 with 432 points.
  Core radius for overlap checks: 2.45 bohrs.

Initialized 3 species with 76 total atoms.

Folded 1 k-points by 2x2x1 to 4 k-points.

---------- Setting up k-points, bands, fillings ----------
No reducable k-points. 
Computing the number of bands and number of electrons
Calculating initial fillings.
nElectrons: 604.000000   nBands: 520   nStates: 4

----- Setting up reduced wavefunction bases (one per k-point) -----
average nbasis = 190315.250 , ideal nbasis = 190290.715

---------- Setting up coulomb interaction ----------
Fluid mode embedding: using embedded box, but periodic Coulomb kernel.
(Fluid response is responsible for (approximate) separation between periodic images.)
Setting up double-sized grid for truncated Coulomb potentials:
R = 
[    34.1882     3.6625          0  ]
[          0    30.3132          0  ]
[          0          0     85.961  ]
unit cell volume = 89085.8
G =
[   0.183782  -0.022205          0  ]
[          0   0.207276          0  ]
[          0          0  0.0730935  ]
Chosen fftbox size, S = [  160  140  392  ]
Integer grid location selected as the embedding center:
   Grid: [  0  0  98  ]
   Lattice: [  0  0  0.5  ]
   Cartesian: [  0  0  21.4902  ]
Constructing Wigner-Seitz cell: 8 faces (6 quadrilaterals, 2 hexagons)
Range-separation parameter for embedded mesh potentials due to point charges: 0.590769 bohrs.

Initializing van der Waals corrections
	NOTE: vdW corrections apply only for interactions with fluid.
	Sc:  C6:  187.33 Eh-a0^6  R0: 2.952 a0
	 C:  C6:   30.35 Eh-a0^6  R0: 2.744 a0
	 I:  C6:  546.38 Eh-a0^6  R0: 3.575 a0

---------- Setting up ewald sum ----------
Optimum gaussian width for ewald sums = 8.657198 bohr.
Real space sum over 405 unit cells with max indices [  4  4  2  ]
Reciprocal space sum over 7425 terms with max indices [  7  7  16  ]

---------- Allocating electronic variables ----------
Initializing wave functions:  linear combination of atomic orbitals
Sc pseudo-atom occupations:   s ( 2 2 )  p ( 6 0 )  d ( 1 )
C pseudo-atom occupations:   s ( 2 )  p ( 2 )
I pseudo-atom occupations:   s ( 2 )  p ( 5 )
	FillingsUpdate:  mu: -0.083472013  nElectrons: 604.000000
LCAOMinimize: Iter:   0  F: -1681.6759970629345844  |grad|_K:  4.735e-03  alpha:  1.000e+00
	FillingsUpdate:  mu: -0.105842748  nElectrons: 604.000000
LCAOMinimize: Iter:   1  F: -1684.1635790740094762  |grad|_K:  2.755e-03  alpha:  1.198e-01  linmin: -4.495e-01  cgtest:  8.962e-01  t[s]:    117.51
LCAOMinimize: Encountered beta<0, resetting CG.
	FillingsUpdate:  mu: -0.147012469  nElectrons: 604.000000
LCAOMinimize: Iter:   2  F: -1685.1469344772542627  |grad|_K:  5.543e-04  alpha:  2.544e-01  linmin:  1.882e-01  cgtest: -4.580e-01  t[s]:    147.80
	FillingsUpdate:  mu: -0.132096562  nElectrons: 604.000000
LCAOMinimize: Iter:   3  F: -1685.1650504520732738  |grad|_K:  3.376e-04  alpha:  1.689e-01  linmin: -4.958e-04  cgtest:  6.099e-01  t[s]:    178.23
LCAOMinimize: Encountered beta<0, resetting CG.
	FillingsUpdate:  mu: -0.125560135  nElectrons: 604.000000
LCAOMinimize: Iter:   4  F: -1685.1802127694247702  |grad|_K:  1.117e-04  alpha:  2.447e-01  linmin: -2.666e-03  cgtest:  7.772e-03  t[s]:    210.51
	FillingsUpdate:  mu: -0.127743274  nElectrons: 604.000000
LCAOMinimize: Iter:   5  F: -1685.1814822053891021  |grad|_K:  1.208e-04  alpha:  1.872e-01  linmin: -1.431e-04  cgtest: -2.984e-03  t[s]:    240.53
	FillingsUpdate:  mu: -0.130203824  nElectrons: 604.000000
LCAOMinimize: Iter:   6  F: -1685.1827302638330366  |grad|_K:  7.065e-05  alpha:  1.575e-01  linmin: -3.748e-04  cgtest: -9.097e-03  t[s]:    272.14
	FillingsUpdate:  mu: -0.128841825  nElectrons: 604.000000
LCAOMinimize: Iter:   7  F: -1685.1832961306602101  |grad|_K:  2.522e-05  alpha:  2.086e-01  linmin:  8.251e-04  cgtest: -3.452e-03  t[s]:    305.85
	FillingsUpdate:  mu: -0.128118065  nElectrons: 604.000000
LCAOMinimize: Iter:   8  F: -1685.1833595030427659  |grad|_K:  8.985e-06  alpha:  1.838e-01  linmin:  1.657e-04  cgtest:  5.814e-03  t[s]:    338.41
	FillingsUpdate:  mu: -0.128115281  nElectrons: 604.000000
LCAOMinimize: Iter:   9  F: -1685.1833760088816234  |grad|_K:  7.668e-06  alpha:  3.769e-01  linmin:  1.663e-04  cgtest: -1.181e-03  t[s]:    371.46
	FillingsUpdate:  mu: -0.128156850  nElectrons: 604.000000
LCAOMinimize: Iter:  10  F: -1685.1833785760329647  |grad|_K:  2.924e-06  alpha:  8.050e-02  linmin: -3.279e-05  cgtest:  3.813e-03  t[s]:    405.08
	FillingsUpdate:  mu: -0.128244294  nElectrons: 604.000000
LCAOMinimize: Iter:  11  F: -1685.1833795351994922  |grad|_K:  1.353e-06  alpha:  2.066e-01  linmin: -1.360e-04  cgtest: -7.059e-04  t[s]:    438.12
	FillingsUpdate:  mu: -0.128265588  nElectrons: 604.000000
LCAOMinimize: Iter:  12  F: -1685.1833798492721144  |grad|_K:  9.125e-07  alpha:  3.157e-01  linmin: -4.365e-05  cgtest: -4.398e-04  t[s]:    471.49
LCAOMinimize: Converged (|Delta F|<1.000000e-06 for 2 iters).
----- createFluidSolver() ----- (Fluid-side solver setup)
   Initializing fluid molecule 'H2O'
     Initializing site 'O'
       Electron density: proportional to exp(-r/0.36935)*erfc((r-0.51523)/0.36823) with norm 6.826
       Charge density: gaussian nuclear width 0.478731 with net site charge 0.826
       Polarizability: cuspless exponential with width 0.32 and norm 3.73
       Hard sphere radius: 2.57003 bohrs
       Positions in reference frame:
         [ +0.000000 +0.000000 +0.000000 ]
     Initializing site 'H'
       Electron density: proportional to exp(-r/0.34641)*erfc((r-0)/0.390882) with norm 0.587
       Charge density: gaussian nuclear width 0.377945 with net site charge -0.413
       Polarizability: cuspless exponential with width 0.39 and norm 3.3
       Positions in reference frame:
         [ +0.000000 -1.441945 +1.122523 ]
         [ +0.000000 +1.441945 +1.122523 ]
     Net charge: 0   dipole magnitude: 0.927204
     Initializing spherical shell mfKernel with radius 2.61727 Bohr
     deltaS corrections:
       site 'O': -7.54299
       site 'H': -6.83917
   Initializing fluid molecule 'Na+'
     Initializing site 'Na'
       Electron density: proportional to exp(-r/0.19682)*erfc((r-0.71491)/0.41314) with norm 8.1383
       Charge density: gaussian nuclear width 0.365347 with net site charge -1
       Hard sphere radius: 1.86327 bohrs
       Positions in reference frame:
         [ +0.000000 +0.000000 +0.000000 ]
     Net charge: -1   dipole magnitude: 0
     Initializing gaussian mfKernel with width: 1.55004 Bohr
     deltaS corrections:
       site 'Na': -22.3555
   Initializing fluid molecule 'F-'
     Initializing site 'F'
       Electron density: proportional to exp(-r/0.38886)*erfc((r-0)/0.438782) with norm 8
       Charge density: gaussian nuclear width 0.374796 with net site charge 1
       Hard sphere radius: 2.39995 bohrs
       Positions in reference frame:
         [ +0.000000 +0.000000 +0.000000 ]
     Net charge: 1   dipole magnitude: 0
     Initializing gaussian mfKernel with width: 1.59012 Bohr
     deltaS corrections:
       site 'F': -9.04335

Correction to mu due to finite nuclear width = -0.0067271
   Cavity determined by nc: 0.00142 and sigma: 0.707107
   Nonlocal vdW cavity from gaussian model electron density with norm = 8 and sigma = 0.993594 bohr
   Charge asymmetry in cavity with sensitivity pCavity = 36.5 e-bohr/Eh
   Electrostatic cavity expanded by eta = 1.46 bohrs
   Weighted density cavitation model constrained by Nbulk: 0.0049383 bohr^-3, Pvap: 3.14029 kPa, Rvdw: 2.61727 bohr and sigmaBulk: 4.62e-05 Eh/bohr^2 at T: 298 K.
   Weighted density dispersion model using vdW pair potentials with single solvent site with sqrtC6eff: 0.77 SI.


---- Citations for features of the code used in this run ----

   Software package:
      R. Sundararaman, K. Letchworth-Weaver, K.A. Schwarz, D. Gunceler, Y. Ozhabes and T.A. Arias, 'JDFTx: software for joint density-functional theory', SoftwareX 6, 278 (2017)

   gga-PBE exchange-correlation functional:
      J.P. Perdew, K. Burke and M. Ernzerhof, Phys. Rev. Lett. 77, 3865 (1996)

   Pseudopotentials:
      KF Garrity, JW Bennett, KM Rabe and D Vanderbilt, Comput. Mater. Sci. 81, 446 (2014)

   Truncated Coulomb potentials:
      R. Sundararaman and T.A. Arias, Phys. Rev. B 87, 165122 (2013)

   Van der Waals correction pair-potentials:
      S. Grimme, J. Comput. Chem. 27, 1787 (2006)

   Charge-asymmetric nonlocally-determined local-electric (CANDLE) solvation model:
      R. Sundararaman and W.A. Goddard III, J. Chem. Phys. 142, 064107 (2015)

   Total energy minimization with Auxiliary Hamiltonian:
      C. Freysoldt, S. Boeck, and J. Neugebauer, Phys. Rev. B 79, 241103(R) (2009)

This list may not be complete. Please suggest additional citations or
report any other bugs at https://github.com/shankar1729/jdftx/issues

Initialization completed successfully at t[s]:    484.46

Fluid solver invoked on fresh (partially random / LCAO) wavefunctions
Running a vacuum solve first:

-------- Initial electronic minimization -----------
