
*************** JDFTx 1.5.0  ***************

Start date and time: Sun Sep 27 15:32:42 2020
Executable jdftx_gpu with command-line: -i Charged.in -o Charged.out
Running on hosts (process indices):  amax (0-6)
Divided in process groups (process indices):  0 (0)  1 (1)  2 (2)  3 (3)  4 (4)  5 (5)  6 (6)
gpuInit: Found compatible cuda device 0 'Tesla K80'
gpuInit: Found compatible cuda device 1 'Tesla K80'
gpuInit: Found compatible cuda device 2 'Tesla K80'
gpuInit: Found compatible cuda device 3 'Tesla K80'
gpuInit: Found compatible cuda device 4 'Tesla K80'
gpuInit: Found compatible cuda device 5 'Tesla K80'
gpuInit: Found compatible cuda device 6 'Tesla K80'
gpuInit: Selected device 0
Resource initialization completed at t[s]:      6.20
Run totals: 7 processes, 24 threads, 7 GPUs


Input parsed successfully to the following command list (including defaults):

basis kpoint-dependent
cache-projectors no
coords-type Lattice
core-overlap-check none
coulomb-interaction Slab 001
coulomb-truncation-embed 0 0 0.5
davidson-band-ratio 1.1
dump End State
dump-name NbTe2.$VAR
elec-cutoff 20 100
elec-eigen-algo Davidson
elec-ex-corr gga-PBE
elec-initial-magnetization 5.000000 no
elec-smearing Gauss 0.0073499
electronic-minimize  \
	dirUpdateScheme      FletcherReeves \
	linminMethod         DirUpdateRecommended \
	nIterations          500 \
	history              15 \
	knormThreshold       0 \
	energyDiffThreshold  1e-08 \
	nEnergyDiff          2 \
	alphaTstart          1 \
	alphaTmin            1e-10 \
	updateTestStepSize   yes \
	alphaTreduceFactor   0.1 \
	alphaTincreaseFactor 3 \
	nAlphaAdjustMax      3 \
	wolfeEnergy          0.0001 \
	wolfeGradient        0.9 \
	fdTest               no
exchange-regularization WignerSeitzTruncated
fluid LinearPCM 298.000000 1.013250
fluid-anion F- 1 MeanFieldLJ \
	epsBulk 1 \
	pMol 0 \
	epsInf 1 \
	Pvap 0 \
	sigmaBulk 0 \
	Rvdw 2.24877 \
	Res 0 \
	tauNuc 343133
fluid-cation Na+ 1 MeanFieldLJ \
	epsBulk 1 \
	pMol 0 \
	epsInf 1 \
	Pvap 0 \
	sigmaBulk 0 \
	Rvdw 2.19208 \
	Res 0 \
	tauNuc 343133
fluid-ex-corr lda-TF lda-PZ
fluid-gummel-loop 10 1.000000e-05
fluid-minimize  \
	dirUpdateScheme      PolakRibiere \
	linminMethod         DirUpdateRecommended \
	nIterations          400 \
	history              15 \
	knormThreshold       1e-11 \
	energyDiffThreshold  0 \
	nEnergyDiff          2 \
	alphaTstart          1 \
	alphaTmin            1e-10 \
	updateTestStepSize   yes \
	alphaTreduceFactor   0.1 \
	alphaTincreaseFactor 3 \
	nAlphaAdjustMax      6 \
	wolfeEnergy          0.0001 \
	wolfeGradient        0.9 \
	fdTest               no
fluid-solvent H2O 55.338 ScalarEOS \
	epsBulk 78.4 \
	pMol 0.92466 \
	epsInf 1.77 \
	Pvap 1.06736e-10 \
	sigmaBulk 4.62e-05 \
	Rvdw 2.61727 \
	Res 1.42 \
	tauNuc 343133 \
	poleEl 15 7 1
forces-output-coords Positions
initial-state NbTe2.$VAR
ion Zr   0.125000000000000   0.000000000000000   0.599807962489738 1
ion Zr   0.000000000000000   0.125000000000000   0.400192037510262 1
ion Zr   0.375000000000000   0.000000000000000   0.599807962489738 1
ion Zr   0.250000000000000   0.125000000000000   0.400192037510262 1
ion Zr   0.625000034000003  -0.000000000000000   0.599807962489738 1
ion Zr   0.500000000000000   0.125000000000000   0.400192037510262 1
ion Zr   0.874999965999997   0.000000000000000   0.599807962489738 1
ion Zr   0.750000000000000   0.125000000000000   0.400192037510262 1
ion Zr   0.125000000000000   0.250000000000000   0.599807962489738 1
ion Zr  -0.000000000000000   0.375000000000000   0.400192037510262 1
ion Zr   0.375000000000000   0.250000000000000   0.599807962489738 1
ion Zr   0.250000000000000   0.375000000000000   0.400192037510262 1
ion Zr   0.625000034000003   0.250000000000000   0.599807962489738 1
ion Zr   0.500000000000000   0.375000000000000   0.400192037510262 1
ion Zr   0.874999965999997   0.250000000000000   0.599807962489738 1
ion Zr   0.750000000000000   0.375000000000000   0.400192037510262 1
ion Zr   0.125000000000000   0.500000000000000   0.599807962489738 1
ion Zr  -0.000000000000000   0.625000034000003   0.400192037510262 1
ion Zr   0.375000000000000   0.500000000000000   0.599807962489738 1
ion Zr   0.250000000000000   0.625000034000003   0.400192037510262 1
ion Zr   0.625000034000003   0.500000000000000   0.599807962489738 1
ion Zr   0.500000000000000   0.625000034000003   0.400192037510262 1
ion Zr   0.874999965999997   0.500000000000000   0.599807962489738 1
ion Zr   0.750000000000000   0.625000034000003   0.400192037510262 1
ion Zr   0.125000000000000   0.750000000000000   0.599807962489738 1
ion Zr  -0.000000000000000   0.874999965999997   0.400192037510262 1
ion Zr   0.375000000000000   0.750000000000000   0.599807962489738 1
ion Zr   0.250000000000000   0.874999965999997   0.400192037510262 1
ion Zr   0.625000034000003   0.750000000000000   0.599807962489738 1
ion Zr   0.500000000000000   0.874999965999997   0.400192037510262 1
ion Zr   0.874999965999997   0.750000000000000   0.599807962489738 1
ion Zr   0.750000000000000   0.874999965999997   0.400192037510262 1
ion Si  -0.000000000000000  -0.000000000000000   0.500000000000000 1
ion Si   0.125000000000000   0.125000000000000   0.500000000000000 1
ion Si   0.250000000000000  -0.000000000000000   0.500000000000000 1
ion Si   0.375000000000000   0.125000000000000   0.500000000000000 1
ion Si   0.500000000000000  -0.000000000000000   0.500000000000000 1
ion Si   0.625000034000003   0.125000000000000   0.500000000000000 1
ion Si   0.750000000000000  -0.000000000000000   0.500000000000000 1
ion Si   0.874999965999997   0.125000000000000   0.500000000000000 1
ion Si  -0.000000000000000   0.250000000000000   0.500000000000000 1
ion Si   0.125000000000000   0.375000000000000   0.500000000000000 1
ion Si   0.250000000000000   0.250000000000000   0.500000000000000 1
ion Si   0.375000000000000   0.375000000000000   0.500000000000000 1
ion Si   0.500000000000000   0.250000000000000   0.500000000000000 1
ion Si   0.625000034000003   0.375000000000000   0.500000000000000 1
ion Si   0.750000000000000   0.250000000000000   0.500000000000000 1
ion Si   0.874999965999997   0.375000000000000   0.500000000000000 1
ion Si   0.000000000000000   0.500000000000000   0.500000000000000 1
ion Si   0.125000000000000   0.625000034000003   0.500000000000000 1
ion Si   0.250000000000000   0.500000000000000   0.500000000000000 1
ion Si   0.375000000000000   0.625000034000003   0.500000000000000 1
ion Si   0.500000000000000   0.500000000000000   0.500000000000000 1
ion Si   0.625000034000003   0.625000034000003   0.500000000000000 1
ion Si   0.750000000000000   0.500000000000000   0.500000000000000 1
ion Si   0.874999965999997   0.625000034000003   0.500000000000000 1
ion Si  -0.000000000000000   0.750000000000000   0.500000000000000 1
ion Si   0.125000000000000   0.874999965999997   0.500000000000000 1
ion Si   0.250000000000000   0.750000000000000   0.500000000000000 1
ion Si   0.375000000000000   0.874999965999997   0.500000000000000 1
ion Si   0.500000000000000   0.750000000000000   0.500000000000000 1
ion Si   0.625000034000003   0.874999965999997   0.500000000000000 1
ion Si   0.750000000000000   0.750000000000000   0.500000000000000 1
ion Si   0.874999965999997   0.874999965999997   0.500000000000000 1
ion Se   0.000000000000000   0.125000000000000   0.654238301685890 1
ion Se   0.125000000000000  -0.000000000000000   0.345761654314106 1
ion Se   0.250000000000000   0.125000000000000   0.654238301685890 1
ion Se   0.375000000000000  -0.000000000000000   0.345761654314106 1
ion Se   0.500000000000000   0.125000000000000   0.654238301685890 1
ion Se   0.625000034000003  -0.000000000000000   0.345761654314106 1
ion Se   0.750000000000000   0.125000000000000   0.654238301685890 1
ion Se   0.874999965999997  -0.000000000000000   0.345761654314106 1
ion Se   0.000000000000000   0.375000000000000   0.654238301685890 1
ion Se   0.125000000000000   0.250000000000000   0.345761654314106 1
ion Se   0.250000000000000   0.375000000000000   0.654238301685890 1
ion Se   0.375000000000000   0.250000000000000   0.345761654314106 1
ion Se   0.500000000000000   0.375000000000000   0.654238301685890 1
ion Se   0.625000034000003   0.250000000000000   0.345761654314106 1
ion Se   0.750000000000000   0.375000000000000   0.654238301685890 1
ion Se   0.874999965999997   0.250000000000000   0.345761654314106 1
ion Se  -0.000000000000000   0.625000034000003   0.654238301685890 1
ion Se   0.125000000000000   0.500000000000000   0.345761654314106 1
ion Se   0.250000000000000   0.625000034000003   0.654238301685890 1
ion Se   0.375000000000000   0.500000000000000   0.345761654314106 1
ion Se   0.500000000000000   0.625000034000003   0.654238301685890 1
ion Se   0.625000034000003   0.500000000000000   0.345761654314106 1
ion Se   0.750000000000000   0.625000034000003   0.654238301685890 1
ion Se   0.874999965999997   0.500000000000000   0.345761654314106 1
ion Se   0.000000000000000   0.874999965999997   0.654238301685890 1
ion Se   0.125000000000000   0.750000000000000   0.345761654314106 1
ion Se   0.250000000000000   0.874999965999997   0.654238301685890 1
ion Se   0.375000000000000   0.750000000000000   0.345761654314106 1
ion Se   0.500000000000000   0.874999965999997   0.654238301685890 1
ion Se   0.625000034000003   0.750000000000000   0.345761654314106 1
ion Se   0.750000000000000   0.874999965999997   0.654238301685890 1
ion Se   0.874999965999997   0.750000000000000   0.345761654314106 1
ion-species GBRV/$ID_pbe.uspp
ion-width Ecut
ionic-minimize  \
	dirUpdateScheme      L-BFGS \
	linminMethod         DirUpdateRecommended \
	nIterations          500 \
	history              15 \
	knormThreshold       0.0001 \
	energyDiffThreshold  1e-06 \
	nEnergyDiff          2 \
	alphaTstart          1 \
	alphaTmin            1e-10 \
	updateTestStepSize   yes \
	alphaTreduceFactor   0.1 \
	alphaTincreaseFactor 3 \
	nAlphaAdjustMax      3 \
	wolfeEnergy          0.0001 \
	wolfeGradient        0.9 \
	fdTest               no
kpoint   0.000000000000   0.000000000000   0.000000000000  1.00000000000000
kpoint-folding 2 2 1 
latt-move-scale 1 1 1
latt-scale 1 1 1 
lattice Triclinic 26.6087 26.6087 41.0178 90 90 90
lattice-minimize  \
	dirUpdateScheme      L-BFGS \
	linminMethod         DirUpdateRecommended \
	nIterations          0 \
	history              15 \
	knormThreshold       0 \
	energyDiffThreshold  1e-06 \
	nEnergyDiff          2 \
	alphaTstart          1 \
	alphaTmin            1e-10 \
	updateTestStepSize   yes \
	alphaTreduceFactor   0.1 \
	alphaTincreaseFactor 3 \
	nAlphaAdjustMax      3 \
	wolfeEnergy          0.0001 \
	wolfeGradient        0.9 \
	fdTest               no
lcao-params -1 1e-06 0.0073499
pcm-variant CANDLE
spintype z-spin
subspace-rotation-factor 1 yes
symmetries automatic
symmetry-threshold 0.0001
target-mu -0.216453 no




---------- Setting up symmetries ----------

Found 16 point-group symmetries of the bravais lattice
Found 256 space-group symmetries with basis
Applied RMS atom displacement 7.68241e-07 bohrs to make symmetries exact.

---------- Initializing the Grid ----------
R = 
[    26.6087          0          0  ]
[          0    26.6087          0  ]
[          0          0    41.0178  ]
unit cell volume = 29041.5
G =
[   0.236133          0          0  ]
[          0   0.236133          0  ]
[          0          0   0.153182  ]
Minimum fftbox size, Smin = [  120  120  188  ]
Chosen fftbox size, S = [  120  120  192  ]

---------- Initializing tighter grid for wavefunction operations ----------
R = 
[    26.6087          0          0  ]
[          0    26.6087          0  ]
[          0          0    41.0178  ]
unit cell volume = 29041.5
G =
[   0.236133          0          0  ]
[          0   0.236133          0  ]
[          0          0   0.153182  ]
Minimum fftbox size, Smin = [  108  108  168  ]
Chosen fftbox size, S = [  108  108  168  ]

---------- Exchange Correlation functional ----------
Initalized PBE GGA exchange.
Initalized PBE GGA correlation.

---------- Setting up pseudopotentials ----------
Width of ionic core gaussian charges (only for fluid interactions / plotting) set to 0.397384

Reading pseudopotential file '/home/guoxy/vasp/jdftx-1.5.0/build/pseudopotentials/GBRV/zr_pbe.uspp':
  Title: Zr.  Created by USPP 7.3.6 on 14-9-2013
  Reference state energy: -49.308156.  12 valence electrons in orbitals:
    |400>  occupation: 2  eigenvalue: -2.002953
    |410>  occupation: 6  eigenvalue: -1.192957
    |420>  occupation: 2  eigenvalue: -0.132269
    |500>  occupation: 2  eigenvalue: -0.163143
    |510>  occupation: 0  eigenvalue: -0.053997
  lMax: 2  lLocal: 3  QijEcut: 5
  6 projectors sampled on a log grid with 625 points:
    l: 0  eig: -2.002953  rCut: 1.8
    l: 0  eig: -0.132269  rCut: 1.8
    l: 1  eig: -1.192956  rCut: 2
    l: 1  eig: 0.150000  rCut: 2
    l: 2  eig: -0.163145  rCut: 2.2
    l: 2  eig: 0.150000  rCut: 2.2
  Partial core density with radius 1.2
  Transforming core density to a uniform radial grid of dG=0.02 with 1248 points.
  Transforming local potential to a uniform radial grid of dG=0.02 with 1248 points.
  Transforming nonlocal projectors to a uniform radial grid of dG=0.02 with 432 points.
  Transforming density augmentations to a uniform radial grid of dG=0.02 with 1248 points.
  Transforming atomic orbitals to a uniform radial grid of dG=0.02 with 432 points.
  Core radius for overlap checks: 2.20 bohrs.

Reading pseudopotential file '/home/guoxy/vasp/jdftx-1.5.0/build/pseudopotentials/GBRV/si_pbe.uspp':
  Title: Si.  Created by USPP 7.3.6 on 14-9-2013
  Reference state energy: -4.599342.  4 valence electrons in orbitals:
    |300>  occupation: 2  eigenvalue: -0.397366
    |310>  occupation: 2  eigenvalue: -0.149981
  lMax: 2  lLocal: 3  QijEcut: 5
  6 projectors sampled on a log grid with 627 points:
    l: 0  eig: -0.397364  rCut: 1.6
    l: 0  eig: 1.000000  rCut: 1.6
    l: 1  eig: -0.149982  rCut: 1.6
    l: 1  eig: 1.000000  rCut: 1.6
    l: 2  eig: -0.100000  rCut: 1.7
    l: 2  eig: 0.100000  rCut: 1.7
  Partial core density with radius 1.45
  Transforming core density to a uniform radial grid of dG=0.02 with 1248 points.
  Transforming local potential to a uniform radial grid of dG=0.02 with 1248 points.
  Transforming nonlocal projectors to a uniform radial grid of dG=0.02 with 432 points.
  Transforming density augmentations to a uniform radial grid of dG=0.02 with 1248 points.
  Transforming atomic orbitals to a uniform radial grid of dG=0.02 with 432 points.
  Core radius for overlap checks: 1.70 bohrs.

Reading pseudopotential file '/home/guoxy/vasp/jdftx-1.5.0/build/pseudopotentials/GBRV/se_pbe.uspp':
  Title: Se.  Created by USPP 7.3.6 on 14-9-2013
  Reference state energy: -21.672887.  6 valence electrons in orbitals:
    |400>  occupation: 2  eigenvalue: -0.635284
    |410>  occupation: 4  eigenvalue: -0.239295
  lMax: 2  lLocal: 3  QijEcut: 5
  6 projectors sampled on a log grid with 625 points:
    l: 0  eig: -0.635278  rCut: 1.5
    l: 0  eig: 0.500000  rCut: 1.5
    l: 1  eig: -0.239295  rCut: 1.5
    l: 1  eig: 0.500000  rCut: 1.5
    l: 2  eig: 0.000000  rCut: 1.8
    l: 2  eig: 1.000000  rCut: 1.8
  Partial core density with radius 1.2
  Transforming core density to a uniform radial grid of dG=0.02 with 1248 points.
  Transforming local potential to a uniform radial grid of dG=0.02 with 1248 points.
  Transforming nonlocal projectors to a uniform radial grid of dG=0.02 with 432 points.
  Transforming density augmentations to a uniform radial grid of dG=0.02 with 1248 points.
  Transforming atomic orbitals to a uniform radial grid of dG=0.02 with 432 points.
  Core radius for overlap checks: 1.80 bohrs.

Initialized 3 species with 96 total atoms.

Folded 1 k-points by 2x2x1 to 4 k-points.

---------- Setting up k-points, bands, fillings ----------
Reduced to 3 k-points under symmetry. 
Computing the number of bands and number of electrons
Calculating initial fillings.
nElectrons: 704.000000   nBands: 672   nStates: 6

----- Setting up reduced wavefunction bases (one per k-point) -----
average nbasis = 124104.750 , ideal nbasis = 124067.430

---------- Setting up coulomb interaction ----------
Fluid mode embedding: using embedded box, but periodic Coulomb kernel.
(Fluid response is responsible for (approximate) separation between periodic images.)
Setting up double-sized grid for truncated Coulomb potentials:
R = 
[    26.6087          0          0  ]
[          0    26.6087          0  ]
[          0          0    82.0357  ]
unit cell volume = 58083
G =
[   0.236133          0          0  ]
[          0   0.236133          0  ]
[          0          0  0.0765909  ]
Chosen fftbox size, S = [  120  120  384  ]
Integer grid location selected as the embedding center:
   Grid: [  0  0  96  ]
   Lattice: [  0  0  0.5  ]
   Cartesian: [  0  0  20.5089  ]
Constructing Wigner-Seitz cell: 6 faces (6 quadrilaterals, 0 hexagons)
Range-separation parameter for embedded mesh potentials due to point charges: 0.594061 bohrs.

Initializing van der Waals corrections
	NOTE: vdW corrections apply only for interactions with fluid.
	Zr:  C6:  427.91 Eh-a0^6  R0: 3.097 a0
	Si:  C6:  160.10 Eh-a0^6  R0: 3.243 a0
	Se:  C6:  219.24 Eh-a0^6  R0: 3.347 a0

---------- Setting up ewald sum ----------
Optimum gaussian width for ewald sums = 7.220176 bohr.
Real space sum over 405 unit cells with max indices [  4  4  2  ]
Reciprocal space sum over 8775 terms with max indices [  7  7  19  ]

---------- Allocating electronic variables ----------
Initializing wave functions:  linear combination of atomic orbitals
Zr pseudo-atom occupations:   s ( 2 2 )  p ( 6 0 )  d ( 2 )
Si pseudo-atom occupations:   s ( 2 )  p ( 2 )
Se pseudo-atom occupations:   s ( 2 )  p ( 4 )
	FillingsUpdate:  mu: -0.216453400  nElectrons: 704.000000  magneticMoment: [ Abs: 0.97999  Tot: +0.92524 ]
LCAOMinimize: Iter:   0  G: -1784.8073295712888466  |grad|_K:  6.384e-03  alpha:  1.000e+00

*************** JDFTx 1.5.0  ***************

Start date and time: Sun Sep 27 15:37:37 2020
Executable jdftx_gpu with command-line: -i Charged.in -o Charged.out
Running on hosts (process indices):  amax (0-6)
Divided in process groups (process indices):  0 (0)  1 (1)  2 (2)  3 (3)  4 (4)  5 (5)  6 (6)
gpuInit: Found compatible cuda device 0 'Tesla K80'
gpuInit: Found compatible cuda device 1 'Tesla K80'
gpuInit: Found compatible cuda device 2 'Tesla K80'
gpuInit: Found compatible cuda device 3 'Tesla K80'
gpuInit: Found compatible cuda device 4 'Tesla K80'
gpuInit: Found compatible cuda device 5 'Tesla K80'
gpuInit: Found compatible cuda device 6 'Tesla K80'
gpuInit: Selected device 0
Resource initialization completed at t[s]:      5.21
Run totals: 7 processes, 24 threads, 7 GPUs


Input parsed successfully to the following command list (including defaults):

basis kpoint-dependent
cache-projectors no
coords-type Lattice
core-overlap-check none
coulomb-interaction Slab 001
coulomb-truncation-embed 0 0 0.5
davidson-band-ratio 1.1
dump End State
dump-name NbTe2.$VAR
elec-cutoff 15
elec-eigen-algo Davidson
elec-ex-corr gga-PBE
elec-initial-magnetization 5.000000 no
elec-smearing Gauss 0.0073499
electronic-minimize  \
	dirUpdateScheme      FletcherReeves \
	linminMethod         DirUpdateRecommended \
	nIterations          500 \
	history              15 \
	knormThreshold       0 \
	energyDiffThreshold  1e-08 \
	nEnergyDiff          2 \
	alphaTstart          1 \
	alphaTmin            1e-10 \
	updateTestStepSize   yes \
	alphaTreduceFactor   0.1 \
	alphaTincreaseFactor 3 \
	nAlphaAdjustMax      3 \
	wolfeEnergy          0.0001 \
	wolfeGradient        0.9 \
	fdTest               no
exchange-regularization WignerSeitzTruncated
fluid LinearPCM 298.000000 1.013250
fluid-anion F- 1 MeanFieldLJ \
	epsBulk 1 \
	pMol 0 \
	epsInf 1 \
	Pvap 0 \
	sigmaBulk 0 \
	Rvdw 2.24877 \
	Res 0 \
	tauNuc 343133
fluid-cation Na+ 1 MeanFieldLJ \
	epsBulk 1 \
	pMol 0 \
	epsInf 1 \
	Pvap 0 \
	sigmaBulk 0 \
	Rvdw 2.19208 \
	Res 0 \
	tauNuc 343133
fluid-ex-corr lda-TF lda-PZ
fluid-gummel-loop 10 1.000000e-05
fluid-minimize  \
	dirUpdateScheme      PolakRibiere \
	linminMethod         DirUpdateRecommended \
	nIterations          400 \
	history              15 \
	knormThreshold       1e-11 \
	energyDiffThreshold  0 \
	nEnergyDiff          2 \
	alphaTstart          1 \
	alphaTmin            1e-10 \
	updateTestStepSize   yes \
	alphaTreduceFactor   0.1 \
	alphaTincreaseFactor 3 \
	nAlphaAdjustMax      6 \
	wolfeEnergy          0.0001 \
	wolfeGradient        0.9 \
	fdTest               no
fluid-solvent H2O 55.338 ScalarEOS \
	epsBulk 78.4 \
	pMol 0.92466 \
	epsInf 1.77 \
	Pvap 1.06736e-10 \
	sigmaBulk 4.62e-05 \
	Rvdw 2.61727 \
	Res 1.42 \
	tauNuc 343133 \
	poleEl 15 7 1
forces-output-coords Positions
initial-state NbTe2.$VAR
ion Zr   0.125000000000000   0.000000000000000   0.599807962489738 1
ion Zr   0.000000000000000   0.125000000000000   0.400192037510262 1
ion Zr   0.375000000000000   0.000000000000000   0.599807962489738 1
ion Zr   0.250000000000000   0.125000000000000   0.400192037510262 1
ion Zr   0.625000034000003  -0.000000000000000   0.599807962489738 1
ion Zr   0.500000000000000   0.125000000000000   0.400192037510262 1
ion Zr   0.874999965999997   0.000000000000000   0.599807962489738 1
ion Zr   0.750000000000000   0.125000000000000   0.400192037510262 1
ion Zr   0.125000000000000   0.250000000000000   0.599807962489738 1
ion Zr  -0.000000000000000   0.375000000000000   0.400192037510262 1
ion Zr   0.375000000000000   0.250000000000000   0.599807962489738 1
ion Zr   0.250000000000000   0.375000000000000   0.400192037510262 1
ion Zr   0.625000034000003   0.250000000000000   0.599807962489738 1
ion Zr   0.500000000000000   0.375000000000000   0.400192037510262 1
ion Zr   0.874999965999997   0.250000000000000   0.599807962489738 1
ion Zr   0.750000000000000   0.375000000000000   0.400192037510262 1
ion Zr   0.125000000000000   0.500000000000000   0.599807962489738 1
ion Zr  -0.000000000000000   0.625000034000003   0.400192037510262 1
ion Zr   0.375000000000000   0.500000000000000   0.599807962489738 1
ion Zr   0.250000000000000   0.625000034000003   0.400192037510262 1
ion Zr   0.625000034000003   0.500000000000000   0.599807962489738 1
ion Zr   0.500000000000000   0.625000034000003   0.400192037510262 1
ion Zr   0.874999965999997   0.500000000000000   0.599807962489738 1
ion Zr   0.750000000000000   0.625000034000003   0.400192037510262 1
ion Zr   0.125000000000000   0.750000000000000   0.599807962489738 1
ion Zr  -0.000000000000000   0.874999965999997   0.400192037510262 1
ion Zr   0.375000000000000   0.750000000000000   0.599807962489738 1
ion Zr   0.250000000000000   0.874999965999997   0.400192037510262 1
ion Zr   0.625000034000003   0.750000000000000   0.599807962489738 1
ion Zr   0.500000000000000   0.874999965999997   0.400192037510262 1
ion Zr   0.874999965999997   0.750000000000000   0.599807962489738 1
ion Zr   0.750000000000000   0.874999965999997   0.400192037510262 1
ion Si  -0.000000000000000  -0.000000000000000   0.500000000000000 1
ion Si   0.125000000000000   0.125000000000000   0.500000000000000 1
ion Si   0.250000000000000  -0.000000000000000   0.500000000000000 1
ion Si   0.375000000000000   0.125000000000000   0.500000000000000 1
ion Si   0.500000000000000  -0.000000000000000   0.500000000000000 1
ion Si   0.625000034000003   0.125000000000000   0.500000000000000 1
ion Si   0.750000000000000  -0.000000000000000   0.500000000000000 1
ion Si   0.874999965999997   0.125000000000000   0.500000000000000 1
ion Si  -0.000000000000000   0.250000000000000   0.500000000000000 1
ion Si   0.125000000000000   0.375000000000000   0.500000000000000 1
ion Si   0.250000000000000   0.250000000000000   0.500000000000000 1
ion Si   0.375000000000000   0.375000000000000   0.500000000000000 1
ion Si   0.500000000000000   0.250000000000000   0.500000000000000 1
ion Si   0.625000034000003   0.375000000000000   0.500000000000000 1
ion Si   0.750000000000000   0.250000000000000   0.500000000000000 1
ion Si   0.874999965999997   0.375000000000000   0.500000000000000 1
ion Si   0.000000000000000   0.500000000000000   0.500000000000000 1
ion Si   0.125000000000000   0.625000034000003   0.500000000000000 1
ion Si   0.250000000000000   0.500000000000000   0.500000000000000 1
ion Si   0.375000000000000   0.625000034000003   0.500000000000000 1
ion Si   0.500000000000000   0.500000000000000   0.500000000000000 1
ion Si   0.625000034000003   0.625000034000003   0.500000000000000 1
ion Si   0.750000000000000   0.500000000000000   0.500000000000000 1
ion Si   0.874999965999997   0.625000034000003   0.500000000000000 1
ion Si  -0.000000000000000   0.750000000000000   0.500000000000000 1
ion Si   0.125000000000000   0.874999965999997   0.500000000000000 1
ion Si   0.250000000000000   0.750000000000000   0.500000000000000 1
ion Si   0.375000000000000   0.874999965999997   0.500000000000000 1
ion Si   0.500000000000000   0.750000000000000   0.500000000000000 1
ion Si   0.625000034000003   0.874999965999997   0.500000000000000 1
ion Si   0.750000000000000   0.750000000000000   0.500000000000000 1
ion Si   0.874999965999997   0.874999965999997   0.500000000000000 1
ion Se   0.000000000000000   0.125000000000000   0.654238301685890 1
ion Se   0.125000000000000  -0.000000000000000   0.345761654314106 1
ion Se   0.250000000000000   0.125000000000000   0.654238301685890 1
ion Se   0.375000000000000  -0.000000000000000   0.345761654314106 1
ion Se   0.500000000000000   0.125000000000000   0.654238301685890 1
ion Se   0.625000034000003  -0.000000000000000   0.345761654314106 1
ion Se   0.750000000000000   0.125000000000000   0.654238301685890 1
ion Se   0.874999965999997  -0.000000000000000   0.345761654314106 1
ion Se   0.000000000000000   0.375000000000000   0.654238301685890 1
ion Se   0.125000000000000   0.250000000000000   0.345761654314106 1
ion Se   0.250000000000000   0.375000000000000   0.654238301685890 1
ion Se   0.375000000000000   0.250000000000000   0.345761654314106 1
ion Se   0.500000000000000   0.375000000000000   0.654238301685890 1
ion Se   0.625000034000003   0.250000000000000   0.345761654314106 1
ion Se   0.750000000000000   0.375000000000000   0.654238301685890 1
ion Se   0.874999965999997   0.250000000000000   0.345761654314106 1
ion Se  -0.000000000000000   0.625000034000003   0.654238301685890 1
ion Se   0.125000000000000   0.500000000000000   0.345761654314106 1
ion Se   0.250000000000000   0.625000034000003   0.654238301685890 1
ion Se   0.375000000000000   0.500000000000000   0.345761654314106 1
ion Se   0.500000000000000   0.625000034000003   0.654238301685890 1
ion Se   0.625000034000003   0.500000000000000   0.345761654314106 1
ion Se   0.750000000000000   0.625000034000003   0.654238301685890 1
ion Se   0.874999965999997   0.500000000000000   0.345761654314106 1
ion Se   0.000000000000000   0.874999965999997   0.654238301685890 1
ion Se   0.125000000000000   0.750000000000000   0.345761654314106 1
ion Se   0.250000000000000   0.874999965999997   0.654238301685890 1
ion Se   0.375000000000000   0.750000000000000   0.345761654314106 1
ion Se   0.500000000000000   0.874999965999997   0.654238301685890 1
ion Se   0.625000034000003   0.750000000000000   0.345761654314106 1
ion Se   0.750000000000000   0.874999965999997   0.654238301685890 1
ion Se   0.874999965999997   0.750000000000000   0.345761654314106 1
ion-species GBRV/$ID_pbe.uspp
ion-width Ecut
ionic-minimize  \
	dirUpdateScheme      L-BFGS \
	linminMethod         DirUpdateRecommended \
	nIterations          500 \
	history              15 \
	knormThreshold       0.0001 \
	energyDiffThreshold  1e-06 \
	nEnergyDiff          2 \
	alphaTstart          1 \
	alphaTmin            1e-10 \
	updateTestStepSize   yes \
	alphaTreduceFactor   0.1 \
	alphaTincreaseFactor 3 \
	nAlphaAdjustMax      3 \
	wolfeEnergy          0.0001 \
	wolfeGradient        0.9 \
	fdTest               no
kpoint   0.000000000000   0.000000000000   0.000000000000  1.00000000000000
kpoint-folding 2 2 1 
latt-move-scale 1 1 1
latt-scale 1 1 1 
lattice Triclinic 26.6087 26.6087 41.0178 90 90 90
lattice-minimize  \
	dirUpdateScheme      L-BFGS \
	linminMethod         DirUpdateRecommended \
	nIterations          0 \
	history              15 \
	knormThreshold       0 \
	energyDiffThreshold  1e-06 \
	nEnergyDiff          2 \
	alphaTstart          1 \
	alphaTmin            1e-10 \
	updateTestStepSize   yes \
	alphaTreduceFactor   0.1 \
	alphaTincreaseFactor 3 \
	nAlphaAdjustMax      3 \
	wolfeEnergy          0.0001 \
	wolfeGradient        0.9 \
	fdTest               no
lcao-params -1 1e-06 0.0073499
pcm-variant CANDLE
spintype z-spin
subspace-rotation-factor 1 yes
symmetries automatic
symmetry-threshold 0.0001
target-mu -0.216453 no




---------- Setting up symmetries ----------

Found 16 point-group symmetries of the bravais lattice
Found 256 space-group symmetries with basis
Applied RMS atom displacement 7.68241e-07 bohrs to make symmetries exact.

---------- Initializing the Grid ----------
R = 
[    26.6087          0          0  ]
[          0    26.6087          0  ]
[          0          0    41.0178  ]
unit cell volume = 29041.5
G =
[   0.236133          0          0  ]
[          0   0.236133          0  ]
[          0          0   0.153182  ]
Minimum fftbox size, Smin = [  96  96  144  ]
Chosen fftbox size, S = [  96  96  144  ]

---------- Exchange Correlation functional ----------
Initalized PBE GGA exchange.
Initalized PBE GGA correlation.

---------- Setting up pseudopotentials ----------
Width of ionic core gaussian charges (only for fluid interactions / plotting) set to 0.458859

Reading pseudopotential file '/home/guoxy/vasp/jdftx-1.5.0/build/pseudopotentials/GBRV/zr_pbe.uspp':
  Title: Zr.  Created by USPP 7.3.6 on 14-9-2013
  Reference state energy: -49.308156.  12 valence electrons in orbitals:
    |400>  occupation: 2  eigenvalue: -2.002953
    |410>  occupation: 6  eigenvalue: -1.192957
    |420>  occupation: 2  eigenvalue: -0.132269
    |500>  occupation: 2  eigenvalue: -0.163143
    |510>  occupation: 0  eigenvalue: -0.053997
  lMax: 2  lLocal: 3  QijEcut: 5
  6 projectors sampled on a log grid with 625 points:
    l: 0  eig: -2.002953  rCut: 1.8
    l: 0  eig: -0.132269  rCut: 1.8
    l: 1  eig: -1.192956  rCut: 2
    l: 1  eig: 0.150000  rCut: 2
    l: 2  eig: -0.163145  rCut: 2.2
    l: 2  eig: 0.150000  rCut: 2.2
  Partial core density with radius 1.2
  Transforming core density to a uniform radial grid of dG=0.02 with 978 points.
  Transforming local potential to a uniform radial grid of dG=0.02 with 978 points.
  Transforming nonlocal projectors to a uniform radial grid of dG=0.02 with 375 points.
  Transforming density augmentations to a uniform radial grid of dG=0.02 with 978 points.
  Transforming atomic orbitals to a uniform radial grid of dG=0.02 with 375 points.
  Core radius for overlap checks: 2.20 bohrs.

Reading pseudopotential file '/home/guoxy/vasp/jdftx-1.5.0/build/pseudopotentials/GBRV/si_pbe.uspp':
  Title: Si.  Created by USPP 7.3.6 on 14-9-2013
  Reference state energy: -4.599342.  4 valence electrons in orbitals:
    |300>  occupation: 2  eigenvalue: -0.397366
    |310>  occupation: 2  eigenvalue: -0.149981
  lMax: 2  lLocal: 3  QijEcut: 5
  6 projectors sampled on a log grid with 627 points:
    l: 0  eig: -0.397364  rCut: 1.6
    l: 0  eig: 1.000000  rCut: 1.6
    l: 1  eig: -0.149982  rCut: 1.6
    l: 1  eig: 1.000000  rCut: 1.6
    l: 2  eig: -0.100000  rCut: 1.7
    l: 2  eig: 0.100000  rCut: 1.7
  Partial core density with radius 1.45
  Transforming core density to a uniform radial grid of dG=0.02 with 978 points.
  Transforming local potential to a uniform radial grid of dG=0.02 with 978 points.
  Transforming nonlocal projectors to a uniform radial grid of dG=0.02 with 375 points.
  Transforming density augmentations to a uniform radial grid of dG=0.02 with 978 points.
  Transforming atomic orbitals to a uniform radial grid of dG=0.02 with 375 points.
  Core radius for overlap checks: 1.70 bohrs.

Reading pseudopotential file '/home/guoxy/vasp/jdftx-1.5.0/build/pseudopotentials/GBRV/se_pbe.uspp':
  Title: Se.  Created by USPP 7.3.6 on 14-9-2013
  Reference state energy: -21.672887.  6 valence electrons in orbitals:
    |400>  occupation: 2  eigenvalue: -0.635284
    |410>  occupation: 4  eigenvalue: -0.239295
  lMax: 2  lLocal: 3  QijEcut: 5
  6 projectors sampled on a log grid with 625 points:
    l: 0  eig: -0.635278  rCut: 1.5
    l: 0  eig: 0.500000  rCut: 1.5
    l: 1  eig: -0.239295  rCut: 1.5
    l: 1  eig: 0.500000  rCut: 1.5
    l: 2  eig: 0.000000  rCut: 1.8
    l: 2  eig: 1.000000  rCut: 1.8
  Partial core density with radius 1.2
  Transforming core density to a uniform radial grid of dG=0.02 with 978 points.
  Transforming local potential to a uniform radial grid of dG=0.02 with 978 points.
  Transforming nonlocal projectors to a uniform radial grid of dG=0.02 with 375 points.
  Transforming density augmentations to a uniform radial grid of dG=0.02 with 978 points.
  Transforming atomic orbitals to a uniform radial grid of dG=0.02 with 375 points.
  Core radius for overlap checks: 1.80 bohrs.

Initialized 3 species with 96 total atoms.

Folded 1 k-points by 2x2x1 to 4 k-points.

---------- Setting up k-points, bands, fillings ----------
Reduced to 3 k-points under symmetry. 
Computing the number of bands and number of electrons
Calculating initial fillings.
nElectrons: 704.000000   nBands: 672   nStates: 6

----- Setting up reduced wavefunction bases (one per k-point) -----
average nbasis = 80627.750 , ideal nbasis = 80584.159

---------- Setting up coulomb interaction ----------
Fluid mode embedding: using embedded box, but periodic Coulomb kernel.
(Fluid response is responsible for (approximate) separation between periodic images.)
Setting up double-sized grid for truncated Coulomb potentials:
R = 
[    26.6087          0          0  ]
[          0    26.6087          0  ]
[          0          0    82.0357  ]
unit cell volume = 58083
G =
[   0.236133          0          0  ]
[          0   0.236133          0  ]
[          0          0  0.0765909  ]
Chosen fftbox size, S = [  96  96  288  ]
Integer grid location selected as the embedding center:
   Grid: [  0  0  72  ]
   Lattice: [  0  0  0.5  ]
   Cartesian: [  0  0  20.5089  ]
Constructing Wigner-Seitz cell: 6 faces (6 quadrilaterals, 0 hexagons)
Range-separation parameter for embedded mesh potentials due to point charges: 0.67331 bohrs.

Initializing van der Waals corrections
	NOTE: vdW corrections apply only for interactions with fluid.
	Zr:  C6:  427.91 Eh-a0^6  R0: 3.097 a0
	Si:  C6:  160.10 Eh-a0^6  R0: 3.243 a0
	Se:  C6:  219.24 Eh-a0^6  R0: 3.347 a0

---------- Setting up ewald sum ----------
Optimum gaussian width for ewald sums = 7.220176 bohr.
Real space sum over 405 unit cells with max indices [  4  4  2  ]
Reciprocal space sum over 8775 terms with max indices [  7  7  19  ]

---------- Allocating electronic variables ----------
Initializing wave functions:  linear combination of atomic orbitals
Zr pseudo-atom occupations:   s ( 2 2 )  p ( 6 0 )  d ( 2 )
Si pseudo-atom occupations:   s ( 2 )  p ( 2 )
Se pseudo-atom occupations:   s ( 2 )  p ( 4 )
	FillingsUpdate:  mu: -0.216453400  nElectrons: 704.000000  magneticMoment: [ Abs: 0.98026  Tot: +0.92561 ]
LCAOMinimize: Iter:   0  G: -1784.7938004722868754  |grad|_K:  6.387e-03  alpha:  1.000e+00
	FillingsUpdate:  mu: -0.216453400  nElectrons: 704.000000  magneticMoment: [ Abs: 0.69294  Tot: +0.62131 ]
LCAOMinimize: Iter:   1  G: -1793.1765557586945761  |grad|_K:  1.116e-03  alpha:  1.371e-01  linmin: -3.324e-01  cgtest:  9.551e-01  t[s]:    205.51
LCAOMinimize: Encountered beta<0, resetting CG.
	FillingsUpdate:  mu: -0.216453400  nElectrons: 704.000000  magneticMoment: [ Abs: 0.54374  Tot: +0.45634 ]
LCAOMinimize: Iter:   2  G: -1793.5096228566826539  |grad|_K:  2.306e-04  alpha:  1.931e-01  linmin: -1.450e-01  cgtest:  3.643e-01  t[s]:    258.13
LCAOMinimize: Encountered beta<0, resetting CG.
	FillingsUpdate:  mu: -0.216453400  nElectrons: 704.000000  magneticMoment: [ Abs: 0.41346  Tot: +0.32867 ]
LCAOMinimize: Iter:   3  G: -1793.5287791862851918  |grad|_K:  1.379e-04  alpha:  3.297e-01  linmin:  3.497e-01  cgtest: -8.290e-01  t[s]:    309.79
LCAOMinimize: 	Bad step direction: g.d > 0.
LCAOMinimize: 	Undoing step.
LCAOMinimize: 	Step failed: resetting search direction.
	FillingsUpdate:  mu: -0.216453400  nElectrons: 704.000000  magneticMoment: [ Abs: 0.41346  Tot: +0.32867 ]
LCAOMinimize: Iter:   4  G: -1793.5287791862851918  |grad|_K:  1.379e-04  alpha:  0.000e+00
	FillingsUpdate:  mu: -0.216453400  nElectrons: 704.000000  magneticMoment: [ Abs: 0.37731  Tot: +0.29404 ]
LCAOMinimize: Iter:   5  G: -1793.5304542242097341  |grad|_K:  4.684e-05  alpha:  1.243e-01  linmin: -3.683e-01  cgtest:  9.235e-01  t[s]:    391.72
LCAOMinimize: Encountered beta<0, resetting CG.
LCAOMinimize: 	Step increased G by 3.963123e-05, reducing alpha to 4.715865e-03.
LCAOMinimize: 	Step increased G by 1.233190e-06, reducing alpha to 4.715865e-04.
LCAOMinimize: 	Step increased G by 9.597898e-08, reducing alpha to 4.715865e-05.
LCAOMinimize: 	Step failed to reduce G after 3 attempts. Quitting step.
LCAOMinimize: 	Undoing step.
LCAOMinimize: 	Step failed along negative gradient direction.
LCAOMinimize: Probably at roundoff error limit. (Stopping)
----- createFluidSolver() ----- (Fluid-side solver setup)
   Initializing fluid molecule 'H2O'
     Initializing site 'O'
       Electron density: proportional to exp(-r/0.36935)*erfc((r-0.51523)/0.36823) with norm 6.826
       Charge density: gaussian nuclear width 0.478731 with net site charge 0.826
       Polarizability: cuspless exponential with width 0.32 and norm 3.73
       Hard sphere radius: 2.57003 bohrs
       Positions in reference frame:
         [ +0.000000 +0.000000 +0.000000 ]
     Initializing site 'H'
       Electron density: proportional to exp(-r/0.34641)*erfc((r-0)/0.390882) with norm 0.587
       Charge density: gaussian nuclear width 0.377945 with net site charge -0.413
       Polarizability: cuspless exponential with width 0.39 and norm 3.3
       Positions in reference frame:
         [ +0.000000 -1.441945 +1.122523 ]
         [ +0.000000 +1.441945 +1.122523 ]
     Net charge: 0   dipole magnitude: 0.927204
     Initializing spherical shell mfKernel with radius 2.61727 Bohr
     deltaS corrections:
       site 'O': -7.54299
       site 'H': -6.83917
   Initializing fluid molecule 'Na+'
     Initializing site 'Na'
       Electron density: proportional to exp(-r/0.19682)*erfc((r-0.71491)/0.41314) with norm 8.1383
       Charge density: gaussian nuclear width 0.365347 with net site charge -1
       Hard sphere radius: 1.86327 bohrs
       Positions in reference frame:
         [ +0.000000 +0.000000 +0.000000 ]
     Net charge: -1   dipole magnitude: 0
     Initializing gaussian mfKernel with width: 1.55004 Bohr
     deltaS corrections:
       site 'Na': -22.3555
   Initializing fluid molecule 'F-'
     Initializing site 'F'
       Electron density: proportional to exp(-r/0.38886)*erfc((r-0)/0.438782) with norm 8
       Charge density: gaussian nuclear width 0.374796 with net site charge 1
       Hard sphere radius: 2.39995 bohrs
       Positions in reference frame:
         [ +0.000000 +0.000000 +0.000000 ]
     Net charge: 1   dipole magnitude: 0
     Initializing gaussian mfKernel with width: 1.59012 Bohr
     deltaS corrections:
       site 'F': -9.04335

Correction to mu due to finite nuclear width = -0.0160348
   Cavity determined by nc: 0.00142 and sigma: 0.707107
   Nonlocal vdW cavity from gaussian model electron density with norm = 8 and sigma = 0.993594 bohr
   Charge asymmetry in cavity with sensitivity pCavity = 36.5 e-bohr/Eh
   Electrostatic cavity expanded by eta = 1.46 bohrs
   Weighted density cavitation model constrained by Nbulk: 0.0049383 bohr^-3, Pvap: 3.14029 kPa, Rvdw: 2.61727 bohr and sigmaBulk: 4.62e-05 Eh/bohr^2 at T: 298 K.
   Weighted density dispersion model using vdW pair potentials with single solvent site with sqrtC6eff: 0.77 SI.


---- Citations for features of the code used in this run ----

   Software package:
      R. Sundararaman, K. Letchworth-Weaver, K.A. Schwarz, D. Gunceler, Y. Ozhabes and T.A. Arias, 'JDFTx: software for joint density-functional theory', SoftwareX 6, 278 (2017)

   gga-PBE exchange-correlation functional:
      J.P. Perdew, K. Burke and M. Ernzerhof, Phys. Rev. Lett. 77, 3865 (1996)

   Pseudopotentials:
      KF Garrity, JW Bennett, KM Rabe and D Vanderbilt, Comput. Mater. Sci. 81, 446 (2014)

   Truncated Coulomb potentials:
      R. Sundararaman and T.A. Arias, Phys. Rev. B 87, 165122 (2013)

   Van der Waals correction pair-potentials:
      S. Grimme, J. Comput. Chem. 27, 1787 (2006)

   Charge-asymmetric nonlocally-determined local-electric (CANDLE) solvation model:
      R. Sundararaman and W.A. Goddard III, J. Chem. Phys. 142, 064107 (2015)

   Total energy minimization with Auxiliary Hamiltonian:
      C. Freysoldt, S. Boeck, and J. Neugebauer, Phys. Rev. B 79, 241103(R) (2009)

   Grand-canonical (fixed-potential) DFT:
      R. Sundararaman, W. A. Goddard III and T. A. Arias, J. Chem. Phys. 146, 114104 (2017)

This list may not be complete. Please suggest additional citations or
report any other bugs at https://github.com/shankar1729/jdftx/issues

Initialization completed successfully at t[s]:    556.74

Fluid solver invoked on fresh (partially random / LCAO) wavefunctions
Running a vacuum solve first:

-------- Initial electronic minimization -----------
	FillingsUpdate:  mu: -0.079172516  nElectrons: 704.000000  magneticMoment: [ Abs: 0.37719  Tot: +0.29394 ]
ElecMinimize: Iter:   0  G: -1793.426105484660184  |grad|_K:  7.286e-05  alpha:  1.000e+00
	FillingsUpdate:  mu: -0.004731387  nElectrons: 704.000000  magneticMoment: [ Abs: 0.14103  Tot: +0.06007 ]
	SubspaceRotationAdjust: set factor to 0.758
ElecMinimize: Iter:   1  G: -1795.106313822177071  |grad|_K:  4.383e-05  alpha:  9.695e-01  linmin: -3.212e-05  t[s]:    664.93
	FillingsUpdate:  mu: -0.064321321  nElectrons: 704.000000  magneticMoment: [ Abs: 0.09793  Tot: +0.02717 ]
	SubspaceRotationAdjust: set factor to 0.446
ElecMinimize: Iter:   2  G: -1795.271126779590986  |grad|_K:  2.735e-05  alpha:  2.677e-01  linmin:  5.406e-05  t[s]:    734.40
	FillingsUpdate:  mu: -0.058453453  nElectrons: 704.000000  magneticMoment: [ Abs: 0.02822  Tot: -0.02003 ]
	SubspaceRotationAdjust: set factor to 0.628
ElecMinimize: Iter:   3  G: -1795.431294068640454  |grad|_K:  1.267e-05  alpha:  6.797e-01  linmin:  3.141e-04  t[s]:    804.86
	FillingsUpdate:  mu: -0.040692804  nElectrons: 704.000000  magneticMoment: [ Abs: 0.02686  Tot: -0.02538 ]
	SubspaceRotationAdjust: set factor to 0.599
ElecMinimize: Iter:   4  G: -1795.465741893912991  |grad|_K:  9.328e-06  alpha:  6.874e-01  linmin:  1.029e-04  t[s]:    877.46
	FillingsUpdate:  mu: -0.050260622  nElectrons: 704.000000  magneticMoment: [ Abs: 0.02249  Tot: -0.02187 ]
	SubspaceRotationAdjust: set factor to 0.407
ElecMinimize: Iter:   5  G: -1795.477403277776602  |grad|_K:  5.795e-06  alpha:  4.106e-01  linmin: -1.855e-05  t[s]:    951.42
	FillingsUpdate:  mu: -0.048618342  nElectrons: 704.000000  magneticMoment: [ Abs: 0.01412  Tot: -0.01189 ]
	SubspaceRotationAdjust: set factor to 0.527
ElecMinimize: Iter:   6  G: -1795.484689908834071  |grad|_K:  3.229e-06  alpha:  6.676e-01  linmin:  5.800e-05  t[s]:   1022.38
	FillingsUpdate:  mu: -0.046552662  nElectrons: 704.000000  magneticMoment: [ Abs: 0.01040  Tot: -0.00594 ]
	SubspaceRotationAdjust: set factor to 0.52
ElecMinimize: Iter:   7  G: -1795.486996809009725  |grad|_K:  2.184e-06  alpha:  6.913e-01  linmin:  1.819e-05  t[s]:   1084.65
	FillingsUpdate:  mu: -0.049389488  nElectrons: 704.000000  magneticMoment: [ Abs: 0.00773  Tot: -0.00262 ]
	SubspaceRotationAdjust: set factor to 0.406
ElecMinimize: Iter:   8  G: -1795.487809207731971  |grad|_K:  1.508e-06  alpha:  5.243e-01  linmin:  1.539e-06  t[s]:   1149.15
	FillingsUpdate:  mu: -0.048351854  nElectrons: 704.000000  magneticMoment: [ Abs: 0.00487  Tot: -0.00004 ]
	SubspaceRotationAdjust: set factor to 0.46
ElecMinimize: Iter:   9  G: -1795.488285719770374  |grad|_K:  8.703e-07  alpha:  6.431e-01  linmin:  6.639e-06  t[s]:   1212.96
	FillingsUpdate:  mu: -0.048134239  nElectrons: 704.000000  magneticMoment: [ Abs: 0.00276  Tot: +0.00093 ]
	SubspaceRotationAdjust: set factor to 0.498
ElecMinimize: Iter:  10  G: -1795.488477464598873  |grad|_K:  6.332e-07  alpha:  7.798e-01  linmin:  2.255e-06  t[s]:   1283.27
	FillingsUpdate:  mu: -0.048831554  nElectrons: 704.000000  magneticMoment: [ Abs: 0.00151  Tot: +0.00109 ]
	SubspaceRotationAdjust: set factor to 0.429
ElecMinimize: Iter:  11  G: -1795.488564498760525  |grad|_K:  4.832e-07  alpha:  6.659e-01  linmin:  1.010e-06  t[s]:   1350.07
	FillingsUpdate:  mu: -0.048264126  nElectrons: 704.000000  magneticMoment: [ Abs: 0.00093  Tot: +0.00086 ]
	SubspaceRotationAdjust: set factor to 0.386
ElecMinimize: Iter:  12  G: -1795.488614803267637  |grad|_K:  3.562e-07  alpha:  6.610e-01  linmin:  8.048e-07  t[s]:   1416.21
	FillingsUpdate:  mu: -0.048383926  nElectrons: 704.000000  magneticMoment: [ Abs: 0.00089  Tot: +0.00044 ]
	SubspaceRotationAdjust: set factor to 0.464
ElecMinimize: Iter:  13  G: -1795.488649804106899  |grad|_K:  2.698e-07  alpha:  8.482e-01  linmin:  2.506e-06  t[s]:   1478.81
	FillingsUpdate:  mu: -0.048627855  nElectrons: 704.000000  magneticMoment: [ Abs: 0.00108  Tot: +0.00012 ]
	SubspaceRotationAdjust: set factor to 0.463
ElecMinimize: Iter:  14  G: -1795.488667986485098  |grad|_K:  2.227e-07  alpha:  7.701e-01  linmin:  1.107e-06  t[s]:   1540.10
	FillingsUpdate:  mu: -0.048337293  nElectrons: 704.000000  magneticMoment: [ Abs: 0.00102  Tot: -0.00010 ]
	SubspaceRotationAdjust: set factor to 0.437
ElecMinimize: Iter:  15  G: -1795.488679482075668  |grad|_K:  1.687e-07  alpha:  7.118e-01  linmin:  3.919e-07  t[s]:   1602.53
	FillingsUpdate:  mu: -0.048420398  nElectrons: 704.000000  magneticMoment: [ Abs: 0.00075  Tot: -0.00018 ]
	SubspaceRotationAdjust: set factor to 0.51
ElecMinimize: Iter:  16  G: -1795.488686243449592  |grad|_K:  1.193e-07  alpha:  7.285e-01  linmin:  8.222e-07  t[s]:   1669.79
	FillingsUpdate:  mu: -0.048472412  nElectrons: 704.000000  magneticMoment: [ Abs: 0.00045  Tot: -0.00016 ]
	SubspaceRotationAdjust: set factor to 0.62
ElecMinimize: Iter:  17  G: -1795.488689668065035  |grad|_K:  8.586e-08  alpha:  7.395e-01  linmin:  8.194e-07  t[s]:   1742.10
	FillingsUpdate:  mu: -0.048392955  nElectrons: 704.000000  magneticMoment: [ Abs: 0.00024  Tot: -0.00010 ]
	SubspaceRotationAdjust: set factor to 0.608
ElecMinimize: Iter:  18  G: -1795.488691178048839  |grad|_K:  6.354e-08  alpha:  6.288e-01  linmin:  2.938e-07  t[s]:   1807.38
	FillingsUpdate:  mu: -0.048455790  nElectrons: 704.000000  magneticMoment: [ Abs: 0.00012  Tot: -0.00005 ]
	SubspaceRotationAdjust: set factor to 0.54
ElecMinimize: Iter:  19  G: -1795.488691823105000  |grad|_K:  4.220e-08  alpha:  4.901e-01  linmin:  8.808e-11  t[s]:   1875.97
	FillingsUpdate:  mu: -0.048429239  nElectrons: 704.000000  magneticMoment: [ Abs: 0.00005  Tot: -0.00000 ]
	SubspaceRotationAdjust: set factor to 0.608
ElecMinimize: Iter:  20  G: -1795.488692183160765  |grad|_K:  2.521e-08  alpha:  6.196e-01  linmin:  1.065e-07  t[s]:   1940.19
	FillingsUpdate:  mu: -0.048433485  nElectrons: 704.000000  magneticMoment: [ Abs: 0.00006  Tot: +0.00001 ]
	SubspaceRotationAdjust: set factor to 0.718
ElecMinimize: Iter:  21  G: -1795.488692332178516  |grad|_K:  1.720e-08  alpha:  7.191e-01  linmin:  6.485e-08  t[s]:   2004.39
	FillingsUpdate:  mu: -0.048443559  nElectrons: 704.000000  magneticMoment: [ Abs: 0.00006  Tot: +0.00002 ]
	SubspaceRotationAdjust: set factor to 0.801
ElecMinimize: Iter:  22  G: -1795.488692400340369  |grad|_K:  1.322e-08  alpha:  7.060e-01  linmin: -8.088e-09  t[s]:   2068.21
	FillingsUpdate:  mu: -0.048427665  nElectrons: 704.000000  magneticMoment: [ Abs: 0.00005  Tot: +0.00001 ]
	SubspaceRotationAdjust: set factor to 0.68
ElecMinimize: Iter:  23  G: -1795.488692429113598  |grad|_K:  1.123e-08  alpha:  5.040e-01  linmin:  4.485e-09  t[s]:   2135.62
	FillingsUpdate:  mu: -0.048439218  nElectrons: 704.000000  magneticMoment: [ Abs: 0.00003  Tot: +0.00000 ]
	SubspaceRotationAdjust: set factor to 0.552
ElecMinimize: Iter:  24  G: -1795.488692447145013  |grad|_K:  7.429e-09  alpha:  4.370e-01  linmin:  3.378e-08  t[s]:   2196.25
	FillingsUpdate:  mu: -0.048435567  nElectrons: 704.000000  magneticMoment: [ Abs: 0.00001  Tot: -0.00000 ]
	SubspaceRotationAdjust: set factor to 0.594
ElecMinimize: Iter:  25  G: -1795.488692459689446  |grad|_K:  5.377e-09  alpha:  6.960e-01  linmin: -2.673e-08  t[s]:   2262.60
	FillingsUpdate:  mu: -0.048434060  nElectrons: 704.000000  magneticMoment: [ Abs: 0.00001  Tot: -0.00001 ]
	SubspaceRotationAdjust: set factor to 0.698
ElecMinimize: Iter:  26  G: -1795.488692467534747  |grad|_K:  4.455e-09  alpha:  8.266e-01  linmin: -1.131e-08  t[s]:   2328.83
	FillingsUpdate:  mu: -0.048437371  nElectrons: 704.000000  magneticMoment: [ Abs: 0.00002  Tot: -0.00001 ]
	SubspaceRotationAdjust: set factor to 0.757
ElecMinimize: Iter:  27  G: -1795.488692472475122  |grad|_K:  3.840e-09  alpha:  7.603e-01  linmin: -8.961e-08  t[s]:   2390.24
ElecMinimize: Converged (|Delta G|<1.000000e-08 for 2 iters).
Setting wave functions to eigenvectors of Hamiltonian
Vacuum energy after initial minimize, F = -1795.488692472475122

Shifting auxilliary hamiltonian by -0.168016 to set nElectrons=704.000000
	Linear fluid (dielectric constant: 78.4, screening length: 5.74355 Bohr) occupying 0.711994 of unit cell:	Completed after 19 iterations at t[s]:   2405.71

-------- Electronic minimization -----------
	Linear fluid (dielectric constant: 78.4, screening length: 5.74355 Bohr) occupying 0.711994 of unit cell:	Completed after 0 iterations at t[s]:   2422.28
	FillingsUpdate:  mu: -0.216453400  nElectrons: 704.000000  magneticMoment: [ Abs: 0.00001  Tot: -0.00000 ]
ElecMinimize: Iter:   0  G: -1795.478335586954699  |grad|_K:  4.149e-05  alpha:  1.000e+00
	Linear fluid (dielectric constant: 78.4, screening length: 5.74355 Bohr) occupying 0.713196 of unit cell:	Completed after 18 iterations at t[s]:   2476.70
	Linear fluid (dielectric constant: 78.4, screening length: 5.74355 Bohr) occupying 0.712074 of unit cell:	Completed after 17 iterations at t[s]:   2502.80
	FillingsUpdate:  mu: -0.216453400  nElectrons: 702.855644  magneticMoment: [ Abs: 0.00001  Tot: -0.00000 ]
	SubspaceRotationAdjust: set factor to 0.415
ElecMinimize: Iter:   1  G: -1795.507180268693901  |grad|_K:  1.551e-05  alpha:  5.317e-02  linmin:  2.495e-04  t[s]:   2529.38
	Linear fluid (dielectric constant: 78.4, screening length: 5.74355 Bohr) occupying 0.712274 of unit cell:	Completed after 11 iterations at t[s]:   2551.26
ElecMinimize: 	Predicted alpha/alphaT>3.000000, increasing alphaT to 1.595112e-01.
	Linear fluid (dielectric constant: 78.4, screening length: 5.74355 Bohr) occupying 0.712667 of unit cell:	Completed after 13 iterations at t[s]:   2575.62
	Linear fluid (dielectric constant: 78.4, screening length: 5.74355 Bohr) occupying 0.713559 of unit cell:	Completed after 11 iterations at t[s]:   2598.08
	FillingsUpdate:  mu: -0.216453400  nElectrons: 701.789411  magneticMoment: [ Abs: 0.00023  Tot: +0.00001 ]
	SubspaceRotationAdjust: set factor to 0.249
ElecMinimize: Iter:   2  G: -1795.538906679326374  |grad|_K:  8.546e-06  alpha:  4.109e-01  linmin:  2.417e-04  t[s]:   2624.48
	Linear fluid (dielectric constant: 78.4, screening length: 5.74355 Bohr) occupying 0.714502 of unit cell:	Completed after 14 iterations at t[s]:   2650.34
	Linear fluid (dielectric constant: 78.4, screening length: 5.74355 Bohr) occupying 0.714167 of unit cell:	Completed after 13 iterations at t[s]:   2674.96
	FillingsUpdate:  mu: -0.216453400  nElectrons: 701.135453  magneticMoment: [ Abs: 0.00024  Tot: +0.00001 ]
	SubspaceRotationAdjust: set factor to 0.173
ElecMinimize: Iter:   3  G: -1795.544976134236094  |grad|_K:  7.795e-06  alpha:  2.620e-01  linmin: -3.594e-06  t[s]:   2699.95
	Linear fluid (dielectric constant: 78.4, screening length: 5.74355 Bohr) occupying 0.714931 of unit cell:	Completed after 13 iterations at t[s]:   2722.95
	Linear fluid (dielectric constant: 78.4, screening length: 5.74355 Bohr) occupying 0.715821 of unit cell:	Completed after 13 iterations at t[s]:   2747.24
	FillingsUpdate:  mu: -0.216453400  nElectrons: 700.861557  magneticMoment: [ Abs: 0.00025  Tot: +0.00002 ]
	SubspaceRotationAdjust: set factor to 0.304
ElecMinimize: Iter:   4  G: -1795.556669251871654  |grad|_K:  2.968e-06  alpha:  5.809e-01  linmin: -2.587e-04  t[s]:   2771.99
	Linear fluid (dielectric constant: 78.4, screening length: 5.74355 Bohr) occupying 0.716327 of unit cell:	Completed after 13 iterations at t[s]:   2794.80
	Linear fluid (dielectric constant: 78.4, screening length: 5.74355 Bohr) occupying 0.716436 of unit cell:	Completed after 11 iterations at t[s]:   2819.08
	FillingsUpdate:  mu: -0.216453400  nElectrons: 700.932483  magneticMoment: [ Abs: 0.00027  Tot: +0.00002 ]
	SubspaceRotationAdjust: set factor to 0.182
ElecMinimize: Iter:   5  G: -1795.558763088543856  |grad|_K:  3.446e-06  alpha:  7.083e-01  linmin: -4.138e-05  t[s]:   2845.11
	Linear fluid (dielectric constant: 78.4, screening length: 5.74355 Bohr) occupying 0.717385 of unit cell:	Completed after 14 iterations at t[s]:   2868.53
	Linear fluid (dielectric constant: 78.4, screening length: 5.74355 Bohr) occupying 0.716737 of unit cell:	Completed after 13 iterations at t[s]:   2892.50
	FillingsUpdate:  mu: -0.216453400  nElectrons: 700.784208  magneticMoment: [ Abs: 0.00029  Tot: +0.00002 ]
	SubspaceRotationAdjust: set factor to 0.127
ElecMinimize: Iter:   6  G: -1795.559612524436034  |grad|_K:  1.629e-06  alpha:  2.194e-01  linmin:  2.274e-05  t[s]:   2919.39
	Linear fluid (dielectric constant: 78.4, screening length: 5.74355 Bohr) occupying 0.716828 of unit cell:	Completed after 2 iterations at t[s]:   2938.28
ElecMinimize: 	Predicted alpha/alphaT>3.000000, increasing alphaT to 6.583259e-01.
	Linear fluid (dielectric constant: 78.4, screening length: 5.74355 Bohr) occupying 0.717007 of unit cell:	Completed after 5 iterations at t[s]:   2961.63
	Linear fluid (dielectric constant: 78.4, screening length: 5.74355 Bohr) occupying 0.717048 of unit cell:	Completed after 3 iterations at t[s]:   2982.25
	FillingsUpdate:  mu: -0.216453400  nElectrons: 700.762621  magneticMoment: [ Abs: 0.00029  Tot: +0.00001 ]
	SubspaceRotationAdjust: set factor to 0.17
ElecMinimize: Iter:   7  G: -1795.560270129371020  |grad|_K:  1.144e-06  alpha:  7.615e-01  linmin: -1.487e-05  t[s]:   3008.17
	Linear fluid (dielectric constant: 78.4, screening length: 5.74355 Bohr) occupying 0.717171 of unit cell:	Completed after 11 iterations at t[s]:   3031.26
	Linear fluid (dielectric constant: 78.4, screening length: 5.74355 Bohr) occupying 0.717139 of unit cell:	Completed after 10 iterations at t[s]:   3054.83
	FillingsUpdate:  mu: -0.216453400  nElectrons: 700.818676  magneticMoment: [ Abs: 0.00027  Tot: +0.00001 ]
	SubspaceRotationAdjust: set factor to 0.129
ElecMinimize: Iter:   8  G: -1795.560510990273542  |grad|_K:  9.269e-07  alpha:  5.618e-01  linmin:  1.497e-05  t[s]:   3079.74
	Linear fluid (dielectric constant: 78.4, screening length: 5.74355 Bohr) occupying 0.717173 of unit cell:	Completed after 11 iterations at t[s]:   3102.48
	Linear fluid (dielectric constant: 78.4, screening length: 5.74355 Bohr) occupying 0.717172 of unit cell:	Completed after 0 iterations at t[s]:   3123.39
	FillingsUpdate:  mu: -0.216453400  nElectrons: 700.781503  magneticMoment: [ Abs: 0.00023  Tot: +0.00001 ]
	SubspaceRotationAdjust: set factor to 0.111
ElecMinimize: Iter:   9  G: -1795.560666579830468  |grad|_K:  5.124e-07  alpha:  5.557e-01  linmin:  2.843e-05  t[s]:   3148.60
	Linear fluid (dielectric constant: 78.4, screening length: 5.74355 Bohr) occupying 0.717172 of unit cell:	Completed after 3 iterations at t[s]:   3168.65
	Linear fluid (dielectric constant: 78.4, screening length: 5.74355 Bohr) occupying 0.717172 of unit cell:	Completed after 2 iterations at t[s]:   3189.79
	FillingsUpdate:  mu: -0.216453400  nElectrons: 700.785307  magneticMoment: [ Abs: 0.00018  Tot: +0.00001 ]
	SubspaceRotationAdjust: set factor to 0.148
ElecMinimize: Iter:  10  G: -1795.560743965154643  |grad|_K:  3.283e-07  alpha:  9.066e-01  linmin: -1.776e-06  t[s]:   3216.15
	Linear fluid (dielectric constant: 78.4, screening length: 5.74355 Bohr) occupying 0.717183 of unit cell:	Completed after 9 iterations at t[s]:   3238.13
	Linear fluid (dielectric constant: 78.4, screening length: 5.74355 Bohr) occupying 0.717181 of unit cell:	Completed after 3 iterations at t[s]:   3263.02
	FillingsUpdate:  mu: -0.216453400  nElectrons: 700.797563  magneticMoment: [ Abs: 0.00014  Tot: +0.00000 ]
	SubspaceRotationAdjust: set factor to 0.115
ElecMinimize: Iter:  11  G: -1795.560770114056595  |grad|_K:  2.785e-07  alpha:  7.510e-01  linmin: -5.074e-05  t[s]:   3289.90
	Linear fluid (dielectric constant: 78.4, screening length: 5.74355 Bohr) occupying 0.717197 of unit cell:	Completed after 10 iterations at t[s]:   3313.03
	Linear fluid (dielectric constant: 78.4, screening length: 5.74355 Bohr) occupying 0.717191 of unit cell:	Completed after 8 iterations at t[s]:   3336.55
	FillingsUpdate:  mu: -0.216453400  nElectrons: 700.783540  magneticMoment: [ Abs: 0.00011  Tot: +0.00000 ]
	SubspaceRotationAdjust: set factor to 0.0833
	SubspaceRotationAdjust: resetting CG because factor has changed by 0.110029
	Linear fluid (dielectric constant: 78.4, screening length: 5.74355 Bohr) occupying 0.717191 of unit cell:	Completed after 0 iterations at t[s]:   3372.74
ElecMinimize: 	State modified externally: resetting search direction.
ElecMinimize: Iter:  12  G: -1795.560781083226857  |grad|_K:  1.650e-07  alpha:  4.442e-01
	Linear fluid (dielectric constant: 78.4, screening length: 5.74355 Bohr) occupying 0.717196 of unit cell:	Completed after 3 iterations at t[s]:   3417.03
	Linear fluid (dielectric constant: 78.4, screening length: 5.74355 Bohr) occupying 0.717198 of unit cell:	Completed after 4 iterations at t[s]:   3439.01
	FillingsUpdate:  mu: -0.216453400  nElectrons: 700.788567  magneticMoment: [ Abs: 0.00010  Tot: +0.00000 ]
	SubspaceRotationAdjust: set factor to 0.105
ElecMinimize: Iter:  13  G: -1795.560786535748775  |grad|_K:  9.672e-08  alpha:  6.465e-01  linmin:  3.598e-04  t[s]:   3463.55
	Linear fluid (dielectric constant: 78.4, screening length: 5.74355 Bohr) occupying 0.717206 of unit cell:	Completed after 2 iterations at t[s]:   3484.68
	Linear fluid (dielectric constant: 78.4, screening length: 5.74355 Bohr) occupying 0.717211 of unit cell:	Completed after 0 iterations at t[s]:   3504.75
	FillingsUpdate:  mu: -0.216453400  nElectrons: 700.785071  magneticMoment: [ Abs: 0.00008  Tot: +0.00000 ]
	SubspaceRotationAdjust: set factor to 0.119
ElecMinimize: Iter:  14  G: -1795.560789869235577  |grad|_K:  8.335e-08  alpha:  1.095e+00  linmin: -1.837e-04  t[s]:   3529.56
	Linear fluid (dielectric constant: 78.4, screening length: 5.74355 Bohr) occupying 0.717223 of unit cell:	Completed after 6 iterations at t[s]:   3551.54
	Linear fluid (dielectric constant: 78.4, screening length: 5.74355 Bohr) occupying 0.717220 of unit cell:	Completed after 1 iterations at t[s]:   3574.26
	FillingsUpdate:  mu: -0.216453400  nElectrons: 700.779043  magneticMoment: [ Abs: 0.00007  Tot: +0.00000 ]
	SubspaceRotationAdjust: set factor to 0.0847
ElecMinimize: Iter:  15  G: -1795.560791787821927  |grad|_K:  1.158e-07  alpha:  8.256e-01  linmin:  5.852e-06  t[s]:   3602.60
	Linear fluid (dielectric constant: 78.4, screening length: 5.74355 Bohr) occupying 0.717239 of unit cell:	Completed after 2 iterations at t[s]:   3623.78
	Linear fluid (dielectric constant: 78.4, screening length: 5.74355 Bohr) occupying 0.717234 of unit cell:	Completed after 2 iterations at t[s]:   3643.91
	FillingsUpdate:  mu: -0.216453400  nElectrons: 700.778633  magneticMoment: [ Abs: 0.00004  Tot: +0.00000 ]
	SubspaceRotationAdjust: set factor to 0.103
ElecMinimize: Iter:  16  G: -1795.560794290252034  |grad|_K:  1.014e-07  alpha:  6.115e-01  linmin: -2.860e-06  t[s]:   3668.46
	Linear fluid (dielectric constant: 78.4, screening length: 5.74355 Bohr) occupying 0.717244 of unit cell:	Completed after 6 iterations at t[s]:   3691.32
	Linear fluid (dielectric constant: 78.4, screening length: 5.74355 Bohr) occupying 0.717243 of unit cell:	Completed after 0 iterations at t[s]:   3711.81
	FillingsUpdate:  mu: -0.216453400  nElectrons: 700.778864  magneticMoment: [ Abs: 0.00003  Tot: +0.00000 ]
	SubspaceRotationAdjust: set factor to 0.0973
ElecMinimize: Iter:  17  G: -1795.560796010452350  |grad|_K:  9.290e-08  alpha:  5.126e-01  linmin:  1.008e-05  t[s]:   3737.38
	Linear fluid (dielectric constant: 78.4, screening length: 5.74355 Bohr) occupying 0.717250 of unit cell:	Completed after 3 iterations at t[s]:   3758.27
	Linear fluid (dielectric constant: 78.4, screening length: 5.74355 Bohr) occupying 0.717249 of unit cell:	Completed after 0 iterations at t[s]:   3777.95
	FillingsUpdate:  mu: -0.216453400  nElectrons: 700.774254  magneticMoment: [ Abs: 0.00002  Tot: +0.00000 ]
	SubspaceRotationAdjust: set factor to 0.137
ElecMinimize: Iter:  18  G: -1795.560797236155395  |grad|_K:  7.094e-08  alpha:  4.497e-01  linmin: -1.723e-05  t[s]:   3804.94
	Linear fluid (dielectric constant: 78.4, screening length: 5.74355 Bohr) occupying 0.717253 of unit cell:	Completed after 5 iterations at t[s]:   3826.12
	Linear fluid (dielectric constant: 78.4, screening length: 5.74355 Bohr) occupying 0.717252 of unit cell:	Completed after 0 iterations at t[s]:   3847.21
	FillingsUpdate:  mu: -0.216453400  nElectrons: 700.770827  magneticMoment: [ Abs: 0.00002  Tot: -0.00000 ]
	SubspaceRotationAdjust: set factor to 0.112
ElecMinimize: Iter:  19  G: -1795.560797797922078  |grad|_K:  6.284e-08  alpha:  3.391e-01  linmin:  2.523e-05  t[s]:   3872.50
	Linear fluid (dielectric constant: 78.4, screening length: 5.74355 Bohr) occupying 0.717255 of unit cell:	Completed after 3 iterations at t[s]:   3892.80
	Linear fluid (dielectric constant: 78.4, screening length: 5.74355 Bohr) occupying 0.717255 of unit cell:	Completed after 0 iterations at t[s]:   3913.61
	FillingsUpdate:  mu: -0.216453400  nElectrons: 700.770788  magneticMoment: [ Abs: 0.00001  Tot: -0.00000 ]
	SubspaceRotationAdjust: set factor to 0.184
ElecMinimize: Iter:  20  G: -1795.560798131059755  |grad|_K:  3.911e-08  alpha:  2.898e-01  linmin: -7.908e-05  t[s]:   3938.96
	Linear fluid (dielectric constant: 78.4, screening length: 5.74355 Bohr) occupying 0.717257 of unit cell:	Completed after 0 iterations at t[s]:   3959.25
ElecMinimize: 	Predicted alpha/alphaT>3.000000, increasing alphaT to 8.694773e-01.
	Linear fluid (dielectric constant: 78.4, screening length: 5.74355 Bohr) occupying 0.717260 of unit cell:	Completed after 2 iterations at t[s]:   3981.34
	Linear fluid (dielectric constant: 78.4, screening length: 5.74355 Bohr) occupying 0.717258 of unit cell:	Completed after 1 iterations at t[s]:   4001.72
	FillingsUpdate:  mu: -0.216453400  nElectrons: 700.772297  magneticMoment: [ Abs: 0.00001  Tot: -0.00000 ]
	SubspaceRotationAdjust: set factor to 0.141
ElecMinimize: Iter:  21  G: -1795.560798410393090  |grad|_K:  4.469e-08  alpha:  4.973e-01  linmin:  9.187e-05  t[s]:   4030.82
	Linear fluid (dielectric constant: 78.4, screening length: 5.74355 Bohr) occupying 0.717263 of unit cell:	Completed after 1 iterations at t[s]:   4051.27
	Linear fluid (dielectric constant: 78.4, screening length: 5.74355 Bohr) occupying 0.717262 of unit cell:	Completed after 0 iterations at t[s]:   4073.24
	FillingsUpdate:  mu: -0.216453400  nElectrons: 700.771553  magneticMoment: [ Abs: 0.00001  Tot: -0.00000 ]
	SubspaceRotationAdjust: set factor to 0.143
ElecMinimize: Iter:  22  G: -1795.560798569445751  |grad|_K:  3.593e-08  alpha:  3.443e-01  linmin: -1.522e-05  t[s]:   4098.48
	Linear fluid (dielectric constant: 78.4, screening length: 5.74355 Bohr) occupying 0.717265 of unit cell:	Completed after 3 iterations at t[s]:   4117.93
	Linear fluid (dielectric constant: 78.4, screening length: 5.74355 Bohr) occupying 0.717263 of unit cell:	Completed after 0 iterations at t[s]:   4138.23
	FillingsUpdate:  mu: -0.216453400  nElectrons: 700.770592  magneticMoment: [ Abs: 0.00001  Tot: -0.00000 ]
	SubspaceRotationAdjust: set factor to 0.101
ElecMinimize: Iter:  23  G: -1795.560798630362797  |grad|_K:  2.473e-08  alpha:  1.827e-01  linmin:  5.294e-05  t[s]:   4162.98
	Linear fluid (dielectric constant: 78.4, screening length: 5.74355 Bohr) occupying 0.717264 of unit cell:	Completed after 0 iterations at t[s]:   4182.43
	Linear fluid (dielectric constant: 78.4, screening length: 5.74355 Bohr) occupying 0.717265 of unit cell:	Completed after 0 iterations at t[s]:   4202.74
	FillingsUpdate:  mu: -0.216453400  nElectrons: 700.770595  magneticMoment: [ Abs: 0.00001  Tot: -0.00000 ]
	SubspaceRotationAdjust: set factor to 0.0985
ElecMinimize: Iter:  24  G: -1795.560798693079505  |grad|_K:  1.673e-08  alpha:  3.998e-01  linmin: -5.628e-07  t[s]:   4229.70
	Linear fluid (dielectric constant: 78.4, screening length: 5.74355 Bohr) occupying 0.717266 of unit cell:	Completed after 0 iterations at t[s]:   4248.22
	Linear fluid (dielectric constant: 78.4, screening length: 5.74355 Bohr) occupying 0.717266 of unit cell:	Completed after 0 iterations at t[s]:   4268.30
	FillingsUpdate:  mu: -0.216453400  nElectrons: 700.772117  magneticMoment: [ Abs: 0.00001  Tot: -0.00000 ]
	SubspaceRotationAdjust: set factor to 0.134
ElecMinimize: Iter:  25  G: -1795.560798771933605  |grad|_K:  2.010e-08  alpha:  8.606e-01  linmin: -6.290e-08  t[s]:   4293.74
	Linear fluid (dielectric constant: 78.4, screening length: 5.74355 Bohr) occupying 0.717269 of unit cell:	Completed after 6 iterations at t[s]:   4314.85
	Linear fluid (dielectric constant: 78.4, screening length: 5.74355 Bohr) occupying 0.717267 of unit cell:	Completed after 3 iterations at t[s]:   4336.12
ElecMinimize: 	Step increased G by 1.139622e-07, reducing alpha to 7.563368e-03.
	Linear fluid (dielectric constant: 78.4, screening length: 5.74355 Bohr) occupying 0.717267 of unit cell:	Completed after 0 iterations at t[s]:   4380.01
ElecMinimize: 	Step increased G by 6.194455e-08, reducing alpha to 7.563368e-04.
	Linear fluid (dielectric constant: 78.4, screening length: 5.74355 Bohr) occupying 0.717266 of unit cell:	Completed after 0 iterations at t[s]:   4421.54
ElecMinimize: 	Step increased G by 5.680067e-08, reducing alpha to 7.563368e-05.
ElecMinimize: 	Step failed to reduce G after 3 attempts. Quitting step.
ElecMinimize: 	Undoing step.
	Linear fluid (dielectric constant: 78.4, screening length: 5.74355 Bohr) occupying 0.717266 of unit cell:	Completed after 0 iterations at t[s]:   4464.79
ElecMinimize: 	Step failed: resetting search direction.
	FillingsUpdate:  mu: -0.216453400  nElectrons: 700.772119  magneticMoment: [ Abs: 0.00001  Tot: -0.00000 ]
	SubspaceRotationAdjust: set factor to 0.0825
ElecMinimize: Iter:  26  G: -1795.560798715184546  |grad|_K:  5.380e-08  alpha:  7.563e-05
	Linear fluid (dielectric constant: 78.4, screening length: 5.74355 Bohr) occupying 0.717265 of unit cell:	Completed after 8 iterations at t[s]:   4511.82
	Linear fluid (dielectric constant: 78.4, screening length: 5.74355 Bohr) occupying 0.717266 of unit cell:	Completed after 7 iterations at t[s]:   4540.44
	FillingsUpdate:  mu: -0.216453400  nElectrons: 700.770089  magneticMoment: [ Abs: 0.00001  Tot: -0.00000 ]
	SubspaceRotationAdjust: set factor to 0.0324
ElecMinimize: Iter:  27  G: -1795.560798721814990  |grad|_K:  1.735e-08  alpha:  2.163e-01  linmin:  1.054e-03  t[s]:   4565.91
	Linear fluid (dielectric constant: 78.4, screening length: 5.74355 Bohr) occupying 0.717266 of unit cell:	Completed after 0 iterations at t[s]:   4586.28
ElecMinimize: 	Predicted alpha/alphaT>3.000000, increasing alphaT to 6.489457e-01.
	Linear fluid (dielectric constant: 78.4, screening length: 5.74355 Bohr) occupying 0.717266 of unit cell:	Completed after 0 iterations at t[s]:   4607.74
	Linear fluid (dielectric constant: 78.4, screening length: 5.74355 Bohr) occupying 0.717266 of unit cell:	Completed after 0 iterations at t[s]:   4629.04
	FillingsUpdate:  mu: -0.216453400  nElectrons: 700.771173  magneticMoment: [ Abs: 0.00001  Tot: -0.00000 ]
	SubspaceRotationAdjust: set factor to 0.0581
ElecMinimize: Iter:  28  G: -1795.560798796728704  |grad|_K:  1.581e-08  alpha:  1.001e+00  linmin: -3.609e-07  t[s]:   4652.25
	Linear fluid (dielectric constant: 78.4, screening length: 5.74355 Bohr) occupying 0.717266 of unit cell:	Completed after 3 iterations at t[s]:   4673.72
	Linear fluid (dielectric constant: 78.4, screening length: 5.74355 Bohr) occupying 0.717266 of unit cell:	Completed after 0 iterations at t[s]:   4693.81
ElecMinimize: 	Step increased G by 2.919160e-08, reducing alpha to 2.799715e-02.
	Linear fluid (dielectric constant: 78.4, screening length: 5.74355 Bohr) occupying 0.717266 of unit cell:	Completed after 0 iterations at t[s]:   4735.42
ElecMinimize: 	Step increased G by 7.634526e-09, reducing alpha to 2.799715e-03.
	Linear fluid (dielectric constant: 78.4, screening length: 5.74355 Bohr) occupying 0.717266 of unit cell:	Completed after 0 iterations at t[s]:   4777.65
ElecMinimize: 	Step increased G by 5.883294e-09, reducing alpha to 2.799715e-04.
ElecMinimize: 	Step failed to reduce G after 3 attempts. Quitting step.
ElecMinimize: 	Undoing step.
	Linear fluid (dielectric constant: 78.4, screening length: 5.74355 Bohr) occupying 0.717266 of unit cell:	Completed after 0 iterations at t[s]:   4818.73
ElecMinimize: 	Step failed: resetting search direction.
	FillingsUpdate:  mu: -0.216453400  nElectrons: 700.771177  magneticMoment: [ Abs: 0.00001  Tot: -0.00000 ]
	SubspaceRotationAdjust: set factor to 0.0511
ElecMinimize: Iter:  29  G: -1795.560798790886565  |grad|_K:  2.243e-08  alpha:  2.800e-04
	Linear fluid (dielectric constant: 78.4, screening length: 5.74355 Bohr) occupying 0.717266 of unit cell:	Completed after 2 iterations at t[s]:   4862.81
	Linear fluid (dielectric constant: 78.4, screening length: 5.74355 Bohr) occupying 0.717266 of unit cell:	Completed after 0 iterations at t[s]:   4884.57
ElecMinimize: 	Step increased G by 4.750063e-09, reducing alpha to 3.358378e-02.
	Linear fluid (dielectric constant: 78.4, screening length: 5.74355 Bohr) occupying 0.717266 of unit cell:	Completed after 0 iterations at t[s]:   4926.71
	FillingsUpdate:  mu: -0.216453400  nElectrons: 700.771129  magneticMoment: [ Abs: 0.00001  Tot: -0.00000 ]
	SubspaceRotationAdjust: set factor to 0.0363
ElecMinimize: Iter:  30  G: -1795.560798798654787  |grad|_K:  1.433e-08  alpha:  3.358e-02  linmin: -8.857e-05  t[s]:   4955.87
	Linear fluid (dielectric constant: 78.4, screening length: 5.74355 Bohr) occupying 0.717266 of unit cell:	Completed after 0 iterations at t[s]:   4976.95
ElecMinimize: 	Predicted alpha/alphaT>3.000000, increasing alphaT to 1.007513e-01.
	Linear fluid (dielectric constant: 78.4, screening length: 5.74355 Bohr) occupying 0.717266 of unit cell:	Completed after 0 iterations at t[s]:   4999.32
ElecMinimize: 	Predicted alpha/alphaT>3.000000, increasing alphaT to 3.022540e-01.
	Linear fluid (dielectric constant: 78.4, screening length: 5.74355 Bohr) occupying 0.717266 of unit cell:	Completed after 0 iterations at t[s]:   5017.27
	Linear fluid (dielectric constant: 78.4, screening length: 5.74355 Bohr) occupying 0.717266 of unit cell:	Completed after 0 iterations at t[s]:   5036.21
	FillingsUpdate:  mu: -0.216453400  nElectrons: 700.771170  magneticMoment: [ Abs: 0.00001  Tot: -0.00000 ]
	SubspaceRotationAdjust: set factor to 0.0374
ElecMinimize: Iter:  31  G: -1795.560798819945603  |grad|_K:  8.377e-09  alpha:  3.004e-01  linmin:  1.144e-06  t[s]:   5063.56
	Linear fluid (dielectric constant: 78.4, screening length: 5.74355 Bohr) occupying 0.717266 of unit cell:	Completed after 1 iterations at t[s]:   5082.49
	Linear fluid (dielectric constant: 78.4, screening length: 5.74355 Bohr) occupying 0.717266 of unit cell:	Completed after 0 iterations at t[s]:   5103.24
ElecMinimize: 	Step increased G by 5.792208e-08, reducing alpha to 2.950897e-03.
	Linear fluid (dielectric constant: 78.4, screening length: 5.74355 Bohr) occupying 0.717266 of unit cell:	Completed after 0 iterations at t[s]:   5144.04
ElecMinimize: 	Step increased G by 5.827519e-08, reducing alpha to 2.950897e-04.
	Linear fluid (dielectric constant: 78.4, screening length: 5.74355 Bohr) occupying 0.717266 of unit cell:	Completed after 0 iterations at t[s]:   5185.97
ElecMinimize: 	Step increased G by 5.832635e-08, reducing alpha to 2.950897e-05.
ElecMinimize: 	Step failed to reduce G after 3 attempts. Quitting step.
ElecMinimize: 	Undoing step.
	Linear fluid (dielectric constant: 78.4, screening length: 5.74355 Bohr) occupying 0.717266 of unit cell:	Completed after 0 iterations at t[s]:   5224.17
ElecMinimize: 	Step failed: resetting search direction.
	FillingsUpdate:  mu: -0.216453400  nElectrons: 700.771170  magneticMoment: [ Abs: 0.00001  Tot: -0.00000 ]
	SubspaceRotationAdjust: set factor to 0.0536
ElecMinimize: Iter:  32  G: -1795.560798761655860  |grad|_K:  5.076e-09  alpha:  2.951e-05
	Linear fluid (dielectric constant: 78.4, screening length: 5.74355 Bohr) occupying 0.717266 of unit cell:	Completed after 0 iterations at t[s]:   5268.89
	Linear fluid (dielectric constant: 78.4, screening length: 5.74355 Bohr) occupying 0.717266 of unit cell:	Completed after 0 iterations at t[s]:   5293.06
	FillingsUpdate:  mu: -0.216453400  nElectrons: 700.771223  magneticMoment: [ Abs: 0.00001  Tot: -0.00000 ]
	SubspaceRotationAdjust: set factor to 0.0693
ElecMinimize: Iter:  33  G: -1795.560798767488677  |grad|_K:  4.587e-09  alpha:  6.698e-01  linmin: -2.148e-05  t[s]:   5320.11
	Linear fluid (dielectric constant: 78.4, screening length: 5.74355 Bohr) occupying 0.717265 of unit cell:	Completed after 0 iterations at t[s]:   5339.40
	Linear fluid (dielectric constant: 78.4, screening length: 5.74355 Bohr) occupying 0.717265 of unit cell:	Completed after 0 iterations at t[s]:   5361.24
	FillingsUpdate:  mu: -0.216453400  nElectrons: 700.771492  magneticMoment: [ Abs: 0.00001  Tot: -0.00000 ]
	SubspaceRotationAdjust: set factor to 0.088
ElecMinimize: Iter:  34  G: -1795.560798778350090  |grad|_K:  5.310e-09  alpha:  1.514e+00  linmin:  1.928e-08  t[s]:   5385.96
	Linear fluid (dielectric constant: 78.4, screening length: 5.74355 Bohr) occupying 0.717264 of unit cell:	Completed after 0 iterations at t[s]:   5406.32
	Linear fluid (dielectric constant: 78.4, screening length: 5.74355 Bohr) occupying 0.717264 of unit cell:	Completed after 0 iterations at t[s]:   5426.96
	FillingsUpdate:  mu: -0.216453400  nElectrons: 700.772001  magneticMoment: [ Abs: 0.00001  Tot: -0.00000 ]
	SubspaceRotationAdjust: set factor to 0.108
ElecMinimize: Iter:  35  G: -1795.560798790982744  |grad|_K:  5.446e-09  alpha:  1.372e+00  linmin:  1.548e-07  t[s]:   5452.50
	Linear fluid (dielectric constant: 78.4, screening length: 5.74355 Bohr) occupying 0.717264 of unit cell:	Completed after 3 iterations at t[s]:   5473.58
	Linear fluid (dielectric constant: 78.4, screening length: 5.74355 Bohr) occupying 0.717264 of unit cell:	Completed after 0 iterations at t[s]:   5494.01
ElecMinimize: 	Step increased G by 7.346557e-08, reducing alpha to 8.047609e-03.
	Linear fluid (dielectric constant: 78.4, screening length: 5.74355 Bohr) occupying 0.717264 of unit cell:	Completed after 0 iterations at t[s]:   5535.03
ElecMinimize: 	Step increased G by 6.730602e-08, reducing alpha to 8.047609e-04.
	Linear fluid (dielectric constant: 78.4, screening length: 5.74355 Bohr) occupying 0.717264 of unit cell:	Completed after 0 iterations at t[s]:   5575.99
ElecMinimize: 	Step increased G by 6.671803e-08, reducing alpha to 8.047609e-05.
ElecMinimize: 	Step failed to reduce G after 3 attempts. Quitting step.
ElecMinimize: 	Undoing step.
	Linear fluid (dielectric constant: 78.4, screening length: 5.74355 Bohr) occupying 0.717264 of unit cell:	Completed after 0 iterations at t[s]:   5617.22
ElecMinimize: 	Step failed: resetting search direction.
	FillingsUpdate:  mu: -0.216453400  nElectrons: 700.772001  magneticMoment: [ Abs: 0.00001  Tot: -0.00000 ]
	SubspaceRotationAdjust: set factor to 0.0745
ElecMinimize: Iter:  36  G: -1795.560798724230608  |grad|_K:  3.373e-08  alpha:  8.048e-05
	Linear fluid (dielectric constant: 78.4, screening length: 5.74355 Bohr) occupying 0.717265 of unit cell:	Completed after 2 iterations at t[s]:   5662.68
	Linear fluid (dielectric constant: 78.4, screening length: 5.74355 Bohr) occupying 0.717264 of unit cell:	Completed after 2 iterations at t[s]:   5682.85
	FillingsUpdate:  mu: -0.216453400  nElectrons: 700.770447  magneticMoment: [ Abs: 0.00000  Tot: -0.00000 ]
	SubspaceRotationAdjust: set factor to 0.0315
ElecMinimize: Iter:  37  G: -1795.560798796185281  |grad|_K:  1.771e-08  alpha:  3.527e-01  linmin:  1.425e-03  t[s]:   5708.33
	Linear fluid (dielectric constant: 78.4, screening length: 5.74355 Bohr) occupying 0.717265 of unit cell:	Completed after 0 iterations at t[s]:   5728.07
ElecMinimize: 	Predicted alpha/alphaT>3.000000, increasing alphaT to 1.057970e+00.
	Linear fluid (dielectric constant: 78.4, screening length: 5.74355 Bohr) occupying 0.717265 of unit cell:	Completed after 0 iterations at t[s]:   5748.90
ElecMinimize: 	Predicted alpha/alphaT>3.000000, increasing alphaT to 3.173910e+00.
	Linear fluid (dielectric constant: 78.4, screening length: 5.74355 Bohr) occupying 0.717267 of unit cell:	Completed after 3 iterations at t[s]:   5770.80
	Linear fluid (dielectric constant: 78.4, screening length: 5.74355 Bohr) occupying 0.717265 of unit cell:	Completed after 1 iterations at t[s]:   5794.57
	FillingsUpdate:  mu: -0.216453400  nElectrons: 700.771326  magneticMoment: [ Abs: 0.00000  Tot: -0.00000 ]
	SubspaceRotationAdjust: set factor to 0.0142
ElecMinimize: Iter:  38  G: -1795.560798808922755  |grad|_K:  1.343e-08  alpha:  8.776e-01  linmin:  2.637e-04  t[s]:   5821.12
	Linear fluid (dielectric constant: 78.4, screening length: 5.74355 Bohr) occupying 0.717266 of unit cell:	Completed after 1 iterations at t[s]:   5840.86
	Linear fluid (dielectric constant: 78.4, screening length: 5.74355 Bohr) occupying 0.717266 of unit cell:	Completed after 0 iterations at t[s]:   5861.55
ElecMinimize: 	Step increased G by 8.962161e-09, reducing alpha to 4.681292e-02.
	Linear fluid (dielectric constant: 78.4, screening length: 5.74355 Bohr) occupying 0.717265 of unit cell:	Completed after 0 iterations at t[s]:   5901.18
ElecMinimize: 	Step increased G by 2.735896e-08, reducing alpha to 4.681292e-03.
	Linear fluid (dielectric constant: 78.4, screening length: 5.74355 Bohr) occupying 0.717265 of unit cell:	Completed after 0 iterations at t[s]:   5940.48
ElecMinimize: 	Step increased G by 2.949332e-08, reducing alpha to 4.681292e-04.
ElecMinimize: 	Step failed to reduce G after 3 attempts. Quitting step.
ElecMinimize: 	Undoing step.
	Linear fluid (dielectric constant: 78.4, screening length: 5.74355 Bohr) occupying 0.717265 of unit cell:	Completed after 0 iterations at t[s]:   5980.80
ElecMinimize: 	Step failed: resetting search direction.
	FillingsUpdate:  mu: -0.216453400  nElectrons: 700.771324  magneticMoment: [ Abs: 0.00000  Tot: -0.00000 ]
	SubspaceRotationAdjust: set factor to 0.0197
ElecMinimize: Iter:  39  G: -1795.560798779355309  |grad|_K:  8.443e-09  alpha:  4.681e-04
[...]
	SubspaceRotationAdjust: set factor to 0.0292
ElecMinimize: Iter:  23  G: -1795.567058755078051  |grad|_K:  1.247e-08  alpha:  1.477e-04
	Linear fluid (dielectric constant: 78.4, screening length: 5.74355 Bohr) occupying 0.717429 of unit cell:	Completed after 0 iterations at t[s]:  27512.51
	Linear fluid (dielectric constant: 78.4, screening length: 5.74355 Bohr) occupying 0.717429 of unit cell:	Completed after 0 iterations at t[s]:  27531.25
	FillingsUpdate:  mu: -0.216453400  nElectrons: 700.593118  magneticMoment: [ Abs: 0.00000  Tot: -0.00000 ]
	SubspaceRotationAdjust: set factor to 0.0386
ElecMinimize: Iter:  24  G: -1795.567058822597801  |grad|_K:  1.332e-08  alpha:  1.331e+00  linmin: -1.060e-06  t[s]:  27553.70
	Linear fluid (dielectric constant: 78.4, screening length: 5.74355 Bohr) occupying 0.717429 of unit cell:	Completed after 3 iterations at t[s]:  27572.22
	Linear fluid (dielectric constant: 78.4, screening length: 5.74355 Bohr) occupying 0.717429 of unit cell:	Completed after 0 iterations at t[s]:  27588.99
ElecMinimize: 	Step increased G by 1.556396e-08, reducing alpha to 2.043052e-02.
	Linear fluid (dielectric constant: 78.4, screening length: 5.74355 Bohr) occupying 0.717429 of unit cell:	Completed after 0 iterations at t[s]:  27624.59
	FillingsUpdate:  mu: -0.216453400  nElectrons: 700.593100  magneticMoment: [ Abs: 0.00000  Tot: -0.00000 ]
	SubspaceRotationAdjust: set factor to 0.0359
ElecMinimize: Iter:  25  G: -1795.567058848685974  |grad|_K:  3.315e-08  alpha:  2.043e-02  linmin:  5.762e-03  t[s]:  27646.08
ElecMinimize: 	Bad step direction: g.d > 0.
ElecMinimize: 	Undoing step.
	Linear fluid (dielectric constant: 78.4, screening length: 5.74355 Bohr) occupying 0.717429 of unit cell:	Completed after 0 iterations at t[s]:  27664.49
ElecMinimize: 	Step failed: resetting search direction.
	FillingsUpdate:  mu: -0.216453400  nElectrons: 700.593100  magneticMoment: [ Abs: 0.00000  Tot: -0.00000 ]
	SubspaceRotationAdjust: set factor to 0.0453
ElecMinimize: Iter:  26  G: -1795.567058848662100  |grad|_K:  3.288e-08  alpha:  0.000e+00
	Linear fluid (dielectric constant: 78.4, screening length: 5.74355 Bohr) occupying 0.717429 of unit cell:	Completed after 0 iterations at t[s]:  27702.98
ElecMinimize: 	Predicted alpha/alphaT>3.000000, increasing alphaT to 6.129157e-02.
	Linear fluid (dielectric constant: 78.4, screening length: 5.74355 Bohr) occupying 0.717429 of unit cell:	Completed after 0 iterations at t[s]:  27721.67
ElecMinimize: 	Predicted alpha/alphaT>3.000000, increasing alphaT to 1.838747e-01.
	Linear fluid (dielectric constant: 78.4, screening length: 5.74355 Bohr) occupying 0.717429 of unit cell:	Completed after 1 iterations at t[s]:  27739.22
	Linear fluid (dielectric constant: 78.4, screening length: 5.74355 Bohr) occupying 0.717429 of unit cell:	Completed after 0 iterations at t[s]:  27757.24
ElecMinimize: 	Step increased G by 7.092035e-08, reducing alpha to 7.166694e-03.
	Linear fluid (dielectric constant: 78.4, screening length: 5.74355 Bohr) occupying 0.717429 of unit cell:	Completed after 0 iterations at t[s]:  27794.67
ElecMinimize: 	Step increased G by 9.433961e-08, reducing alpha to 7.166694e-04.
	Linear fluid (dielectric constant: 78.4, screening length: 5.74355 Bohr) occupying 0.717429 of unit cell:	Completed after 0 iterations at t[s]:  27832.50
ElecMinimize: 	Step increased G by 9.681253e-08, reducing alpha to 7.166694e-05.
ElecMinimize: 	Step failed to reduce G after 3 attempts. Quitting step.
ElecMinimize: 	Undoing step.
	Linear fluid (dielectric constant: 78.4, screening length: 5.74355 Bohr) occupying 0.717429 of unit cell:	Completed after 0 iterations at t[s]:  27870.22
ElecMinimize: 	Step failed along negative gradient direction.
ElecMinimize: Probably at roundoff error limit. (Stopping)
Setting wave functions to eigenvectors of Hamiltonian

# Ionic positions in lattice coordinates:
ion Zr   0.125000000000000   0.000000000000000   0.600901835173613 1
ion Zr  -0.000000000000000   0.125000000000000   0.399098150159720 1
ion Zr   0.375000000000000  -0.000000000000000   0.600901835173613 1
ion Zr   0.250000000000000   0.125000000000000   0.399098150159720 1
ion Zr   0.625000000000000   0.000000000000000   0.600901835173613 1
ion Zr   0.500000000000000   0.125000000000000   0.399098150159720 1
ion Zr   0.875000000000000  -0.000000000000000   0.600901835173613 1
ion Zr   0.750000000000000   0.125000000000000   0.399098150159720 1
ion Zr   0.125000000000000   0.250000000000000   0.600901835173613 1
ion Zr  -0.000000000000000   0.375000000000000   0.399098150159720 1
ion Zr   0.375000000000000   0.250000000000000   0.600901835173613 1
ion Zr   0.250000000000000   0.375000000000000   0.399098150159720 1
ion Zr   0.625000000000000   0.250000000000000   0.600901835173613 1
ion Zr   0.500000000000000   0.375000000000000   0.399098150159720 1
ion Zr   0.875000000000000   0.250000000000000   0.600901835173613 1
ion Zr   0.750000000000000   0.375000000000000   0.399098150159720 1
ion Zr   0.125000000000000   0.500000000000000   0.600901835173613 1
ion Zr  -0.000000000000000   0.625000000000000   0.399098150159720 1
ion Zr   0.375000000000000   0.500000000000000   0.600901835173613 1
ion Zr   0.250000000000000   0.625000000000000   0.399098150159720 1
ion Zr   0.625000000000000   0.500000000000000   0.600901835173613 1
ion Zr   0.500000000000000   0.625000000000000   0.399098150159720 1
ion Zr   0.875000000000000   0.500000000000000   0.600901835173613 1
ion Zr   0.750000000000000   0.625000000000000   0.399098150159720 1
ion Zr   0.125000000000000   0.750000000000000   0.600901835173613 1
ion Zr  -0.000000000000000   0.875000000000000   0.399098150159720 1
ion Zr   0.375000000000000   0.750000000000000   0.600901835173613 1
ion Zr   0.250000000000000   0.875000000000000   0.399098150159720 1
ion Zr   0.625000000000000   0.750000000000000   0.600901835173613 1
ion Zr   0.500000000000000   0.875000000000000   0.399098150159720 1
ion Zr   0.875000000000000   0.750000000000000   0.600901835173613 1
ion Zr   0.750000000000000   0.875000000000000   0.399098150159720 1
ion Si   0.000000000000000   0.000000000000000   0.499999992666666 1
ion Si   0.125000000000000   0.125000000000000   0.499999992666666 1
ion Si   0.250000000000000   0.000000000000000   0.499999992666666 1
ion Si   0.375000000000000   0.125000000000000   0.499999992666666 1
ion Si   0.500000000000000   0.000000000000000   0.499999992666666 1
ion Si   0.625000000000000   0.125000000000000   0.499999992666666 1
ion Si   0.750000000000000   0.000000000000000   0.499999992666666 1
ion Si   0.875000000000000   0.125000000000000   0.499999992666666 1
ion Si  -0.000000000000000   0.250000000000000   0.499999992666666 1
ion Si   0.125000000000000   0.375000000000000   0.499999992666666 1
ion Si   0.250000000000000   0.250000000000000   0.499999992666666 1
ion Si   0.375000000000000   0.375000000000000   0.499999992666666 1
ion Si   0.500000000000000   0.250000000000000   0.499999992666666 1
ion Si   0.625000000000000   0.375000000000000   0.499999992666666 1
ion Si   0.750000000000000   0.250000000000000   0.499999992666666 1
ion Si   0.875000000000000   0.375000000000000   0.499999992666666 1
ion Si  -0.000000000000000   0.500000000000000   0.499999992666666 1
ion Si   0.125000000000000   0.625000000000000   0.499999992666666 1
ion Si   0.250000000000000   0.500000000000000   0.499999992666666 1
ion Si   0.375000000000000   0.625000000000000   0.499999992666666 1
ion Si   0.500000000000000   0.500000000000000   0.499999992666666 1
ion Si   0.625000000000000   0.625000000000000   0.499999992666666 1
ion Si   0.750000000000000   0.500000000000000   0.499999992666666 1
ion Si   0.875000000000000   0.625000000000000   0.499999992666666 1
ion Si   0.000000000000000   0.750000000000000   0.499999992666666 1
ion Si   0.125000000000000   0.875000000000000   0.499999992666666 1
ion Si   0.250000000000000   0.750000000000000   0.499999992666666 1
ion Si   0.375000000000000   0.875000000000000   0.499999992666666 1
ion Si   0.500000000000000   0.750000000000000   0.499999992666666 1
ion Si   0.625000000000000   0.875000000000000   0.499999992666666 1
ion Si   0.750000000000000   0.750000000000000   0.499999992666666 1
ion Si   0.875000000000000   0.875000000000000   0.499999992666666 1
ion Se   0.000000000000000   0.125000000000000   0.654142479841952 1
ion Se   0.125000000000000   0.000000000000000   0.345857505491380 1
ion Se   0.250000000000000   0.125000000000000   0.654142479841952 1
ion Se   0.375000000000000   0.000000000000000   0.345857505491380 1
ion Se   0.500000000000000   0.125000000000000   0.654142479841952 1
ion Se   0.625000000000000   0.000000000000000   0.345857505491380 1
ion Se   0.750000000000000   0.125000000000000   0.654142479841952 1
ion Se   0.875000000000000   0.000000000000000   0.345857505491380 1
ion Se  -0.000000000000000   0.375000000000000   0.654142479841952 1
ion Se   0.125000000000000   0.250000000000000   0.345857505491380 1
ion Se   0.250000000000000   0.375000000000000   0.654142479841952 1
ion Se   0.375000000000000   0.250000000000000   0.345857505491380 1
ion Se   0.500000000000000   0.375000000000000   0.654142479841952 1
ion Se   0.625000000000000   0.250000000000000   0.345857505491380 1
ion Se   0.750000000000000   0.375000000000000   0.654142479841952 1
ion Se   0.875000000000000   0.250000000000000   0.345857505491380 1
ion Se  -0.000000000000000   0.625000000000000   0.654142479841952 1
ion Se   0.125000000000000   0.500000000000000   0.345857505491380 1
ion Se   0.250000000000000   0.625000000000000   0.654142479841952 1
ion Se   0.375000000000000   0.500000000000000   0.345857505491380 1
ion Se   0.500000000000000   0.625000000000000   0.654142479841952 1
ion Se   0.625000000000000   0.500000000000000   0.345857505491380 1
ion Se   0.750000000000000   0.625000000000000   0.654142479841952 1
ion Se   0.875000000000000   0.500000000000000   0.345857505491380 1
ion Se   0.000000000000000   0.875000000000000   0.654142479841952 1
ion Se   0.125000000000000   0.750000000000000   0.345857505491380 1
ion Se   0.250000000000000   0.875000000000000   0.654142479841952 1
ion Se   0.375000000000000   0.750000000000000   0.345857505491380 1
ion Se   0.500000000000000   0.875000000000000   0.654142479841952 1
ion Se   0.625000000000000   0.750000000000000   0.345857505491380 1
ion Se   0.750000000000000   0.875000000000000   0.654142479841952 1
ion Se   0.875000000000000   0.750000000000000   0.345857505491380 1


# Forces in Lattice coordinates:
force Zr   0.000000000000000   0.000000000000000   0.010004089641275 1
force Zr   0.000000000000000  -0.000000000000000  -0.010004089641048 1
force Zr  -0.000000000000000   0.000000000000000   0.010004089641502 1
force Zr   0.000000000000000  -0.000000000000000  -0.010004089641048 1
force Zr  -0.000000000000000  -0.000000000000000   0.010004089641275 1
force Zr  -0.000000000000000  -0.000000000000000  -0.010004089641048 1
force Zr   0.000000000000000   0.000000000000000   0.010004089641275 1
force Zr   0.000000000000000  -0.000000000000000  -0.010004089641048 1
force Zr   0.000000000000000  -0.000000000000000   0.010004089641275 1
force Zr   0.000000000000000   0.000000000000000  -0.010004089640821 1
force Zr  -0.000000000000000  -0.000000000000000   0.010004089640593 1
force Zr  -0.000000000000000  -0.000000000000000  -0.010004089640821 1
force Zr   0.000000000000000   0.000000000000000   0.010004089640821 1
force Zr  -0.000000000000000  -0.000000000000000  -0.010004089641276 1
force Zr   0.000000000000000  -0.000000000000000   0.010004089640821 1
force Zr   0.000000000000000  -0.000000000000000  -0.010004089640594 1
force Zr   0.000000000000000  -0.000000000000000   0.010004089640821 1
force Zr  -0.000000000000000   0.000000000000000  -0.010004089640593 1
force Zr   0.000000000000000   0.000000000000000   0.010004089641275 1
force Zr  -0.000000000000000   0.000000000000000  -0.010004089641503 1
force Zr  -0.000000000000000  -0.000000000000000   0.010004089640820 1
force Zr  -0.000000000000000   0.000000000000000  -0.010004089641503 1
force Zr  -0.000000000000000  -0.000000000000000   0.010004089640820 1
force Zr   0.000000000000000   0.000000000000000  -0.010004089641048 1
force Zr   0.000000000000000  -0.000000000000000   0.010004089641275 1
force Zr  -0.000000000000000   0.000000000000000  -0.010004089641048 1
force Zr  -0.000000000000000   0.000000000000000   0.010004089641048 1
force Zr  -0.000000000000000  -0.000000000000000  -0.010004089641275 1
force Zr  -0.000000000000000  -0.000000000000000   0.010004089640365 1
force Zr  -0.000000000000000  -0.000000000000000  -0.010004089641048 1
force Zr   0.000000000000000   0.000000000000000   0.010004089640820 1
force Zr   0.000000000000000  -0.000000000000000  -0.010004089640821 1
force Si   0.000000000000000  -0.000000000000000  -0.000000000000000 1
force Si   0.000000000000000  -0.000000000000000   0.000000000000000 1
force Si  -0.000000000000000   0.000000000000000   0.000000000000000 1
force Si   0.000000000000000  -0.000000000000000  -0.000000000000000 1
force Si  -0.000000000000000   0.000000000000000   0.000000000000000 1
force Si   0.000000000000000  -0.000000000000000  -0.000000000000000 1
force Si   0.000000000000000   0.000000000000000   0.000000000000000 1
force Si  -0.000000000000000  -0.000000000000000   0.000000000000000 1
force Si  -0.000000000000000   0.000000000000000  -0.000000000000000 1
force Si   0.000000000000000  -0.000000000000000   0.000000000000000 1
force Si  -0.000000000000000  -0.000000000000000  -0.000000000000000 1
force Si  -0.000000000000000   0.000000000000000  -0.000000000000000 1
force Si  -0.000000000000000   0.000000000000000  -0.000000000000000 1
force Si  -0.000000000000000  -0.000000000000000  -0.000000000000000 1
force Si  -0.000000000000000  -0.000000000000000  -0.000000000000000 1
force Si  -0.000000000000000   0.000000000000000   0.000000000000000 1
force Si   0.000000000000000   0.000000000000000  -0.000000000000000 1
force Si   0.000000000000000   0.000000000000000   0.000000000000000 1
force Si  -0.000000000000000   0.000000000000000  -0.000000000000000 1
force Si  -0.000000000000000  -0.000000000000000  -0.000000000000000 1
force Si   0.000000000000000  -0.000000000000000  -0.000000000000000 1
force Si  -0.000000000000000   0.000000000000000  -0.000000000000000 1
force Si  -0.000000000000000  -0.000000000000000  -0.000000000000000 1
force Si   0.000000000000000  -0.000000000000000   0.000000000000000 1
force Si  -0.000000000000000   0.000000000000000   0.000000000000000 1
force Si   0.000000000000000   0.000000000000000   0.000000000000000 1
force Si  -0.000000000000000  -0.000000000000000  -0.000000000000000 1
force Si  -0.000000000000000  -0.000000000000000   0.000000000000000 1
force Si   0.000000000000000  -0.000000000000000   0.000000000000000 1
force Si   0.000000000000000   0.000000000000000   0.000000000000000 1
force Si  -0.000000000000000  -0.000000000000000   0.000000000000000 1
force Si   0.000000000000000  -0.000000000000000  -0.000000000000000 1
force Se  -0.000000000000000   0.000000000000000   0.004254587352166 1
force Se  -0.000000000000000  -0.000000000000000  -0.004254587352167 1
force Se   0.000000000000000   0.000000000000000   0.004254587352053 1
force Se   0.000000000000000  -0.000000000000000  -0.004254587352167 1
force Se  -0.000000000000000   0.000000000000000   0.004254587352053 1
force Se  -0.000000000000000  -0.000000000000000  -0.004254587352055 1
force Se   0.000000000000000   0.000000000000000   0.004254587351940 1
force Se   0.000000000000000  -0.000000000000000  -0.004254587352055 1
force Se  -0.000000000000000  -0.000000000000000   0.004254587352166 1
force Se  -0.000000000000000   0.000000000000000  -0.004254587352167 1
force Se   0.000000000000000  -0.000000000000000   0.004254587352053 1
force Se   0.000000000000000   0.000000000000000  -0.004254587352054 1
force Se  -0.000000000000000  -0.000000000000000   0.004254587352053 1
force Se   0.000000000000000   0.000000000000000  -0.004254587352054 1
force Se   0.000000000000000  -0.000000000000000   0.004254587351939 1
force Se   0.000000000000000   0.000000000000000  -0.004254587352167 1
force Se  -0.000000000000000   0.000000000000000   0.004254587352166 1
force Se  -0.000000000000000  -0.000000000000000  -0.004254587352167 1
force Se   0.000000000000000   0.000000000000000   0.004254587352166 1
force Se   0.000000000000000   0.000000000000000  -0.004254587352166 1
force Se  -0.000000000000000  -0.000000000000000   0.004254587352166 1
force Se   0.000000000000000  -0.000000000000000  -0.004254587351940 1
force Se   0.000000000000000   0.000000000000000   0.004254587351940 1
force Se  -0.000000000000000   0.000000000000000  -0.004254587352054 1
force Se  -0.000000000000000  -0.000000000000000   0.004254587352053 1
force Se   0.000000000000000   0.000000000000000  -0.004254587352054 1
force Se   0.000000000000000  -0.000000000000000   0.004254587352166 1
force Se   0.000000000000000   0.000000000000000  -0.004254587352167 1
force Se  -0.000000000000000  -0.000000000000000   0.004254587352053 1
force Se   0.000000000000000   0.000000000000000  -0.004254587351940 1
force Se  -0.000000000000000  -0.000000000000000   0.004254587352054 1
force Se   0.000000000000000  -0.000000000000000  -0.004254587352168 1

# Energy components:
   A_diel =        0.0702955527268956
   Eewald =    18060.9248250839045795
       EH =    19524.7514458852274402
     Eloc =   -40078.3822525640207459
      Enl =      286.6536497273903024
      Exc =     -830.5615382364464949
 Exc_core =      493.5816293139592403
       KE =      595.7473563998786403
  MuShift =        0.0546287802165715
-------------------------------------
     Etot =    -1947.1599600571605606
       TS =        0.0528573510507509
-------------------------------------
        F =    -1947.2128174082113219
      muN =     -151.6457586564243059
-------------------------------------
        G =    -1795.5670587517870445

IonicMinimize: Iter:   7  G: -1795.567058751787044  |grad|_K:  8.835e-05  alpha:  1.000e+00  linmin:  3.120e-02  t[s]:  27912.96
IonicMinimize: Converged (|grad|_K<1.000000e-04).

#--- Lowdin population analysis ---
# oxidation-state Zr -0.411 -0.411 -0.411 -0.411 -0.411 -0.411 -0.411 -0.411 -0.411 -0.411 -0.411 -0.411 -0.411 -0.411 -0.411 -0.411 -0.411 -0.411 -0.411 -0.411 -0.411 -0.411 -0.411 -0.411 -0.411 -0.411 -0.411 -0.411 -0.411 -0.411 -0.411 -0.411
# magnetic-moments Zr -0.000 -0.000 -0.000 -0.000 -0.000 -0.000 -0.000 -0.000 -0.000 -0.000 -0.000 -0.000 -0.000 -0.000 -0.000 -0.000 -0.000 -0.000 -0.000 -0.000 -0.000 -0.000 -0.000 -0.000 -0.000 -0.000 -0.000 -0.000 -0.000 -0.000 -0.000 -0.000
# oxidation-state Si +0.314 +0.314 +0.314 +0.314 +0.314 +0.314 +0.314 +0.314 +0.314 +0.314 +0.314 +0.314 +0.314 +0.314 +0.314 +0.314 +0.314 +0.314 +0.314 +0.314 +0.314 +0.314 +0.314 +0.314 +0.314 +0.314 +0.314 +0.314 +0.314 +0.314 +0.314 +0.314
# magnetic-moments Si +0.000 +0.000 +0.000 +0.000 +0.000 +0.000 +0.000 +0.000 +0.000 +0.000 +0.000 +0.000 +0.000 +0.000 +0.000 +0.000 +0.000 +0.000 +0.000 +0.000 +0.000 +0.000 +0.000 +0.000 +0.000 +0.000 +0.000 +0.000 +0.000 +0.000 +0.000 +0.000
# oxidation-state Se +0.288 +0.288 +0.288 +0.288 +0.288 +0.288 +0.288 +0.288 +0.288 +0.288 +0.288 +0.288 +0.288 +0.288 +0.288 +0.288 +0.288 +0.288 +0.288 +0.288 +0.288 +0.288 +0.288 +0.288 +0.288 +0.288 +0.288 +0.288 +0.288 +0.288 +0.288 +0.288
# magnetic-moments Se -0.000 -0.000 -0.000 -0.000 -0.000 -0.000 -0.000 -0.000 -0.000 -0.000 -0.000 -0.000 -0.000 -0.000 -0.000 -0.000 -0.000 -0.000 -0.000 -0.000 -0.000 -0.000 -0.000 -0.000 -0.000 -0.000 -0.000 -0.000 -0.000 -0.000 -0.000 -0.000


Dumping 'NbTe2.fillings' ... done
Dumping 'NbTe2.wfns' ... done
Dumping 'NbTe2.fluidState' ... done
Dumping 'NbTe2.ionpos' ... done
Dumping 'NbTe2.eigenvals' ... done
End date and time: Sun Sep 27 23:23:02 2020  (Duration: 0-7:45:25.21)
Done!
