
*************** JDFTx 1.5.0  ***************

Start date and time: Fri Jul  3 22:40:54 2020
Executable jdftx_gpu with command-line: -i Charged.in -o Charged.out
Running on hosts (process indices):  amax (0)
Divided in process groups (process indices):  0 (0)
gpuInit: Found compatible cuda device 0 'Tesla K80'
gpuInit: Selected device 0
Resource initialization completed at t[s]:     14.87
Run totals: 1 processes, 24 threads, 1 GPUs


Input parsed successfully to the following command list (including defaults):

basis kpoint-dependent
cache-projectors no
coords-type Lattice
core-overlap-check none
coulomb-interaction Slab 001
coulomb-truncation-embed 0 0 0.5
davidson-band-ratio 1.1
dump End State
dump-name NbTe2.$VAR
elec-cutoff 20 100
elec-eigen-algo Davidson
elec-ex-corr gga-PBE
elec-smearing Gauss 0.0073499
electronic-minimize  \
	dirUpdateScheme      FletcherReeves \
	linminMethod         DirUpdateRecommended \
	nIterations          500 \
	history              15 \
	knormThreshold       0 \
	energyDiffThreshold  1e-08 \
	nEnergyDiff          2 \
	alphaTstart          1 \
	alphaTmin            1e-10 \
	updateTestStepSize   yes \
	alphaTreduceFactor   0.1 \
	alphaTincreaseFactor 3 \
	nAlphaAdjustMax      3 \
	wolfeEnergy          0.0001 \
	wolfeGradient        0.9 \
	fdTest               no
exchange-regularization WignerSeitzTruncated
fluid LinearPCM 298.000000 1.013250
fluid-anion F- 1 MeanFieldLJ \
	epsBulk 1 \
	pMol 0 \
	epsInf 1 \
	Pvap 0 \
	sigmaBulk 0 \
	Rvdw 2.24877 \
	Res 0 \
	tauNuc 343133
fluid-cation Na+ 1 MeanFieldLJ \
	epsBulk 1 \
	pMol 0 \
	epsInf 1 \
	Pvap 0 \
	sigmaBulk 0 \
	Rvdw 2.19208 \
	Res 0 \
	tauNuc 343133
fluid-ex-corr lda-TF lda-PZ
fluid-gummel-loop 10 1.000000e-05
fluid-minimize  \
	dirUpdateScheme      PolakRibiere \
	linminMethod         DirUpdateRecommended \
	nIterations          400 \
	history              15 \
	knormThreshold       1e-11 \
	energyDiffThreshold  0 \
	nEnergyDiff          2 \
	alphaTstart          1 \
	alphaTmin            1e-10 \
	updateTestStepSize   yes \
	alphaTreduceFactor   0.1 \
	alphaTincreaseFactor 3 \
	nAlphaAdjustMax      6 \
	wolfeEnergy          0.0001 \
	wolfeGradient        0.9 \
	fdTest               no
fluid-solvent H2O 55.338 ScalarEOS \
	epsBulk 78.4 \
	pMol 0.92466 \
	epsInf 1.77 \
	Pvap 1.06736e-10 \
	sigmaBulk 4.62e-05 \
	Rvdw 2.61727 \
	Res 1.42 \
	tauNuc 343133 \
	poleEl 15 7 1
forces-output-coords Positions
initial-state NbTe2.$VAR
ion Ta   0.169793441774572   0.082053608072406   0.499913576382333 0
ion Ta   0.412270134297835   0.082053608072406   0.499913576382333 0
ion Ta   0.667961237771396   0.083975608885695   0.500074524485748 0
ion Ta   0.916024429114300   0.083975608885695   0.500074524485748 0
ion Ta   0.166965688837115   0.333477848418556   0.498766600988603 0
ion Ta   0.403373665990029   0.306737344980053   0.496330623156383 0
ion Ta   0.666522164581442   0.333477848418556   0.498766600988603 0
ion Ta   0.916024385114304   0.332038783228602   0.500074524485748 0
ion Ta   0.169793469774574   0.587729849702163   0.499913576382333 0
ion Ta   0.403373665990029   0.596626310009976   0.496330623156383 0
ion Ta   0.693262578019945   0.596626310009976   0.496330623156383 0
ion Ta   0.917946402927591   0.587729849702163   0.499913576382333 0
ion Ta   0.166669992999999   0.833329962999997   0.500047138345009 0
ion Ta   0.412270125297838   0.830206487225426   0.499913576382333 0
ion Ta   0.666522163581445   0.833034268162885   0.498766600988603 0
ion Ta   0.917946420927592   0.830206487225426   0.499913576382333 0
ion S   0.000250147879952  -0.000250147879952   0.584934305931463 0
ion S   0.000245115289614  -0.000245115289614   0.415156925573465 0
ion S   0.249221860052408  -0.001556279895184   0.587526726124045 0
ion S   0.248784483564777  -0.002431032870446   0.412396199281674 0
ion S   0.499499704240096  -0.000250147879952   0.584934305931463 0
ion S   0.499509769420772  -0.000245115289614   0.415156925573465 0
ion S   0.749213971245869  -0.001572021508260   0.586160391247868 0
ion S   0.749881215528286  -0.000237532943426   0.413368097886788 0
ion S   0.001572022508257   0.250786012754130   0.586160391247868 0
ion S   0.000237533943422   0.250118768471713   0.413368097886788 0
ion S   0.250374657963958   0.252051044996824   0.586524799934160 0
ion S   0.245375792522769   0.246559090801373   0.410001866947740 0
ion S   0.501676378032862   0.252051044996824   0.586524799934160 0
ion S   0.501183289278600   0.246559090801373   0.410001866947740 0
ion S   0.749213999245871   0.250786012754130   0.586160391247868 0
ion S   0.749881243528288   0.250118768471713   0.413368097886788 0
ion S   0.000250149879952   0.500500298759900   0.584934305931463 0
ion S   0.000245117289614   0.500490233579224   0.415156925573465 0
ion S   0.250374658963962   0.498323616967134   0.586524799934160 0
ion S   0.245375793522773   0.498816705721397   0.410001866947740 0
ion S   0.500000002000000   0.500000002999997   0.450847827041556 0
ion S   0.747948851003174   0.498323616967134   0.586524799934160 0
ion S   0.753440805198625   0.498816705721397   0.410001866947740 0
ion S   0.001556301895185   0.750778165947594   0.587526726124045 0
ion S   0.002431054870448   0.751215542435225   0.412396199281674 0
ion S   0.249221918052406   0.750778165947594   0.587526726124045 0
ion S   0.248784541564775   0.751215542435225   0.412396199281674 0
ion S   0.501676408032864   0.749625369036040   0.586524799934160 0
ion S   0.501183319278602   0.754624234477230   0.410001866947740 0
ion S   0.747948961003176   0.749625369036040   0.586524799934160 0
ion S   0.753440915198627   0.754624234477230   0.410001866947740 0
ion-species GBRV/$ID_pbe.uspp
ion-width Ecut
ionic-minimize  \
	dirUpdateScheme      L-BFGS \
	linminMethod         DirUpdateRecommended \
	nIterations          0 \
	history              15 \
	knormThreshold       0.0001 \
	energyDiffThreshold  1e-06 \
	nEnergyDiff          2 \
	alphaTstart          1 \
	alphaTmin            1e-10 \
	updateTestStepSize   yes \
	alphaTreduceFactor   0.1 \
	alphaTincreaseFactor 3 \
	nAlphaAdjustMax      3 \
	wolfeEnergy          0.0001 \
	wolfeGradient        0.9 \
	fdTest               no
kpoint   0.000000000000   0.000000000000   0.000000000000  1.00000000000000
kpoint-folding 3 3 1 
latt-move-scale 1 1 1
latt-scale 1 1 1 
lattice Triclinic 25.1736 25.1736 34.2617 90 90 120
lattice-minimize  \
	dirUpdateScheme      L-BFGS \
	linminMethod         DirUpdateRecommended \
	nIterations          0 \
	history              15 \
	knormThreshold       0 \
	energyDiffThreshold  1e-06 \
	nEnergyDiff          2 \
	alphaTstart          1 \
	alphaTmin            1e-10 \
	updateTestStepSize   yes \
	alphaTreduceFactor   0.1 \
	alphaTincreaseFactor 3 \
	nAlphaAdjustMax      3 \
	wolfeEnergy          0.0001 \
	wolfeGradient        0.9 \
	fdTest               no
lcao-params -1 1e-06 0.0073499
pcm-variant CANDLE
spintype no-spin
subspace-rotation-factor 1 yes
symmetries automatic
symmetry-threshold 0.0001
target-mu -0.171252 no




---------- Setting up symmetries ----------

Found 24 point-group symmetries of the bravais lattice
Found 6 space-group symmetries with basis
Applied RMS atom displacement 6.90795e-05 bohrs to make symmetries exact.

---------- Initializing the Grid ----------
R = 
[    25.1736   -12.5868          0  ]
[          0     21.801          0  ]
[          0          0    34.2617  ]
unit cell volume = 18803.1
G =
[   0.249594   0.144103         -0  ]
[          0   0.288207          0  ]
[          0         -0   0.183388  ]
Minimum fftbox size, Smin = [  116  116  156  ]
Chosen fftbox size, S = [  120  120  160  ]

---------- Initializing tighter grid for wavefunction operations ----------
R = 
[    25.1736   -12.5868          0  ]
[          0     21.801          0  ]
[          0          0    34.2617  ]
unit cell volume = 18803.1
G =
[   0.249594   0.144103         -0  ]
[          0   0.288207          0  ]
[          0         -0   0.183388  ]
Minimum fftbox size, Smin = [  104  104  140  ]
Chosen fftbox size, S = [  108  108  140  ]

---------- Exchange Correlation functional ----------
Initalized PBE GGA exchange.
Initalized PBE GGA correlation.

---------- Setting up pseudopotentials ----------
Width of ionic core gaussian charges (only for fluid interactions / plotting) set to 0.397384

Reading pseudopotential file '/home/guoxy/vasp/jdftx-1.5.0/build/pseudopotentials/GBRV/ta_pbe.uspp':
  Title: Ta.  Created by USPP 7.3.6 on 14-9-2013
  Reference state energy: -70.583193.  13 valence electrons in orbitals:
    |500>  occupation: 2  eigenvalue: -2.682396
    |510>  occupation: 6  eigenvalue: -1.447928
    |520>  occupation: 3  eigenvalue: -0.131987
    |600>  occupation: 2  eigenvalue: -0.199982
    |610>  occupation: 0  eigenvalue: -0.051129
  lMax: 3  lLocal: 3  QijEcut: 5
  7 projectors sampled on a log grid with 667 points:
    l: 0  eig: -2.682397  rCut: 1.4
    l: 0  eig: -0.199983  rCut: 1.4
    l: 1  eig: -1.447928  rCut: 1.5
    l: 1  eig: -0.051130  rCut: 1.5
    l: 2  eig: -0.131987  rCut: 1.7
    l: 2  eig: 0.150000  rCut: 1.7
    l: 3  eig: 0.250000  rCut: 2.3
  Partial core density with radius 1.2
  Transforming core density to a uniform radial grid of dG=0.02 with 1673 points.
  Transforming local potential to a uniform radial grid of dG=0.02 with 1673 points.
  Transforming nonlocal projectors to a uniform radial grid of dG=0.02 with 432 points.
  Transforming density augmentations to a uniform radial grid of dG=0.02 with 1673 points.
  Transforming atomic orbitals to a uniform radial grid of dG=0.02 with 432 points.
  Core radius for overlap checks: 2.30 bohrs.

Reading pseudopotential file '/home/guoxy/vasp/jdftx-1.5.0/build/pseudopotentials/GBRV/s_pbe.uspp':
  Title: S.  Created by USPP 7.3.6 on 1-4-15
  Reference state energy: -11.898476.  6 valence electrons in orbitals:
    |300>  occupation: 2  eigenvalue: -0.634167
    |310>  occupation: 4  eigenvalue: -0.257568
  lMax: 2  lLocal: 3  QijEcut: 6
  6 projectors sampled on a log grid with 635 points:
    l: 0  eig: -0.634161  rCut: 1.5
    l: 0  eig: 1.500000  rCut: 1.5
    l: 1  eig: -0.257567  rCut: 1.5
    l: 1  eig: 1.500000  rCut: 1.5
    l: 2  eig: -1.000000  rCut: 1.5
    l: 2  eig: 1.500000  rCut: 1.5
  Partial core density with radius 1.15
  Transforming core density to a uniform radial grid of dG=0.02 with 1673 points.
  Transforming local potential to a uniform radial grid of dG=0.02 with 1673 points.
  Transforming nonlocal projectors to a uniform radial grid of dG=0.02 with 432 points.
  Transforming density augmentations to a uniform radial grid of dG=0.02 with 1673 points.
  Transforming atomic orbitals to a uniform radial grid of dG=0.02 with 432 points.
  Core radius for overlap checks: 1.50 bohrs.

Initialized 2 species with 47 total atoms.

Folded 1 k-points by 3x3x1 to 9 k-points.

---------- Setting up k-points, bands, fillings ----------
Adding inversion symmetry to k-mesh for non-inversion-symmetric unit cell.
Reduced to 3 k-points under symmetry. 
Computing the number of bands and number of electrons
Reading initial fillings from file NbTe2.fillings.
nElectrons: 396.170588   nBands: 332   nStates: 3

----- Setting up reduced wavefunction bases (one per k-point) -----
average nbasis = 80341.667 , ideal nbasis = 80328.402

---------- Setting up coulomb interaction ----------
Fluid mode embedding: using embedded box, but periodic Coulomb kernel.
(Fluid response is responsible for (approximate) separation between periodic images.)
Setting up double-sized grid for truncated Coulomb potentials:
R = 
[    25.1736   -12.5868          0  ]
[          0     21.801          0  ]
[          0          0    68.5234  ]
unit cell volume = 37606.3
G =
[   0.249594   0.144103         -0  ]
[          0   0.288207          0  ]
[          0         -0  0.0916941  ]
Chosen fftbox size, S = [  120  120  320  ]
Integer grid location selected as the embedding center:
   Grid: [  0  0  80  ]
   Lattice: [  0  0  0.5  ]
   Cartesian: [  0  0  17.1308  ]
Constructing Wigner-Seitz cell: 8 faces (6 quadrilaterals, 2 hexagons)
Range-separation parameter for embedded mesh potentials due to point charges: 0.583787 bohrs.

Initializing van der Waals corrections
	NOTE: vdW corrections apply only for interactions with fluid.
	Ta:  C6:  815.23 Eh-a0^6  R0: 3.326 a0 (WARNING: beyond Grimme's data set)
	 S:  C6:   96.61 Eh-a0^6  R0: 3.180 a0

---------- Setting up ewald sum ----------
Optimum gaussian width for ewald sums = 7.035805 bohr.
Real space sum over 605 unit cells with max indices [  5  5  2  ]
Reciprocal space sum over 7425 terms with max indices [  7  7  16  ]

---------- Allocating electronic variables ----------
Initializing wave functions:  reading from 'NbTe2.wfns'
----- createFluidSolver() ----- (Fluid-side solver setup)
   Initializing fluid molecule 'H2O'
     Initializing site 'O'
       Electron density: proportional to exp(-r/0.36935)*erfc((r-0.51523)/0.36823) with norm 6.826
       Charge density: gaussian nuclear width 0.478731 with net site charge 0.826
       Polarizability: cuspless exponential with width 0.32 and norm 3.73
       Hard sphere radius: 2.57003 bohrs
       Positions in reference frame:
         [ +0.000000 +0.000000 +0.000000 ]
     Initializing site 'H'
       Electron density: proportional to exp(-r/0.34641)*erfc((r-0)/0.390882) with norm 0.587
       Charge density: gaussian nuclear width 0.377945 with net site charge -0.413
       Polarizability: cuspless exponential with width 0.39 and norm 3.3
       Positions in reference frame:
         [ +0.000000 -1.441945 +1.122523 ]
         [ +0.000000 +1.441945 +1.122523 ]
     Net charge: 0   dipole magnitude: 0.927204
     Initializing spherical shell mfKernel with radius 2.61727 Bohr
     deltaS corrections:
       site 'O': -7.54299
       site 'H': -6.83917
   Initializing fluid molecule 'Na+'
     Initializing site 'Na'
       Electron density: proportional to exp(-r/0.19682)*erfc((r-0.71491)/0.41314) with norm 8.1383
       Charge density: gaussian nuclear width 0.365347 with net site charge -1
       Hard sphere radius: 1.86327 bohrs
       Positions in reference frame:
         [ +0.000000 +0.000000 +0.000000 ]
     Net charge: -1   dipole magnitude: 0
     Initializing gaussian mfKernel with width: 1.55004 Bohr
     deltaS corrections:
       site 'Na': -22.3555
   Initializing fluid molecule 'F-'
     Initializing site 'F'
       Electron density: proportional to exp(-r/0.38886)*erfc((r-0)/0.438782) with norm 8
       Charge density: gaussian nuclear width 0.374796 with net site charge 1
       Hard sphere radius: 2.39995 bohrs
       Positions in reference frame:
         [ +0.000000 +0.000000 +0.000000 ]
     Net charge: 1   dipole magnitude: 0
     Initializing gaussian mfKernel with width: 1.59012 Bohr
     deltaS corrections:
       site 'F': -9.04335

Correction to mu due to finite nuclear width = -0.0103953
   Cavity determined by nc: 0.00142 and sigma: 0.707107
   Nonlocal vdW cavity from gaussian model electron density with norm = 8 and sigma = 0.993594 bohr
   Charge asymmetry in cavity with sensitivity pCavity = 36.5 e-bohr/Eh
   Electrostatic cavity expanded by eta = 1.46 bohrs
   Weighted density cavitation model constrained by Nbulk: 0.0049383 bohr^-3, Pvap: 3.14029 kPa, Rvdw: 2.61727 bohr and sigmaBulk: 4.62e-05 Eh/bohr^2 at T: 298 K.
   Weighted density dispersion model using vdW pair potentials with single solvent site with sqrtC6eff: 0.77 SI.
Reading fluid state from 'NbTe2.fluidState'


---- Citations for features of the code used in this run ----

   Software package:
      R. Sundararaman, K. Letchworth-Weaver, K.A. Schwarz, D. Gunceler, Y. Ozhabes and T.A. Arias, 'JDFTx: software for joint density-functional theory', SoftwareX 6, 278 (2017)

   gga-PBE exchange-correlation functional:
      J.P. Perdew, K. Burke and M. Ernzerhof, Phys. Rev. Lett. 77, 3865 (1996)

   Pseudopotentials:
      KF Garrity, JW Bennett, KM Rabe and D Vanderbilt, Comput. Mater. Sci. 81, 446 (2014)

   Truncated Coulomb potentials:
      R. Sundararaman and T.A. Arias, Phys. Rev. B 87, 165122 (2013)

   Van der Waals correction pair-potentials:
      S. Grimme, J. Comput. Chem. 27, 1787 (2006)

   Charge-asymmetric nonlocally-determined local-electric (CANDLE) solvation model:
      R. Sundararaman and W.A. Goddard III, J. Chem. Phys. 142, 064107 (2015)

   Total energy minimization with Auxiliary Hamiltonian:
      C. Freysoldt, S. Boeck, and J. Neugebauer, Phys. Rev. B 79, 241103(R) (2009)

   Grand-canonical (fixed-potential) DFT:
      R. Sundararaman, W. A. Goddard III and T. A. Arias, J. Chem. Phys. 146, 114104 (2017)

This list may not be complete. Please suggest additional citations or
report any other bugs at https://github.com/shankar1729/jdftx/issues

Initialization completed successfully at t[s]:     28.16

Shifting auxilliary hamiltonian by 0.000007 to set nElectrons=396.170588
	Linear fluid (dielectric constant: 78.4, screening length: 5.74355 Bohr) occupying 0.771399 of unit cell:	Completed after 3 iterations at t[s]:     35.50

-------- Electronic minimization -----------
	Linear fluid (dielectric constant: 78.4, screening length: 5.74355 Bohr) occupying 0.771399 of unit cell:	Completed after 0 iterations at t[s]:     43.28
	FillingsUpdate:  mu: -0.171251800  nElectrons: 396.170588
ElecMinimize: Iter:   0  G: -1192.117913644653754  |grad|_K:  2.064e-07  alpha:  1.000e+00
	Linear fluid (dielectric constant: 78.4, screening length: 5.74355 Bohr) occupying 0.771737 of unit cell:	Completed after 11 iterations at t[s]:     74.02
	Linear fluid (dielectric constant: 78.4, screening length: 5.74355 Bohr) occupying 0.771422 of unit cell:	Completed after 11 iterations at t[s]:     86.54
	FillingsUpdate:  mu: -0.171251800  nElectrons: 396.172310
	SubspaceRotationAdjust: set factor to 0.511
ElecMinimize: Iter:   1  G: -1192.117913962508283  |grad|_K:  9.808e-08  alpha:  6.728e-02  linmin: -2.767e-03  t[s]:    100.83
	Linear fluid (dielectric constant: 78.4, screening length: 5.74355 Bohr) occupying 0.771405 of unit cell:	Completed after 0 iterations at t[s]:    113.55
ElecMinimize: 	Wrong curvature in test step, increasing alphaT to 2.018413e-01.
	Linear fluid (dielectric constant: 78.4, screening length: 5.74355 Bohr) occupying 0.771405 of unit cell:	Completed after 0 iterations at t[s]:    120.88
	FillingsUpdate:  mu: -0.171251800  nElectrons: 396.171001
	SubspaceRotationAdjust: set factor to 0.263
ElecMinimize: Iter:   2  G: -1192.117914073995280  |grad|_K:  8.048e-08  alpha: -8.093e-01  linmin: -3.848e-02  t[s]:    135.21
	Linear fluid (dielectric constant: 78.4, screening length: 5.74355 Bohr) occupying 0.771036 of unit cell:	Completed after 12 iterations at t[s]:    149.33
	Linear fluid (dielectric constant: 78.4, screening length: 5.74355 Bohr) occupying 0.771390 of unit cell:	Completed after 11 iterations at t[s]:    161.57
ElecMinimize: 	Step increased G by 2.209702e-07, reducing alpha to 4.153586e-03.
	Linear fluid (dielectric constant: 78.4, screening length: 5.74355 Bohr) occupying 0.771404 of unit cell:	Completed after 0 iterations at t[s]:    186.00
ElecMinimize: 	Step increased G by 1.077676e-07, reducing alpha to 4.153586e-04.
	Linear fluid (dielectric constant: 78.4, screening length: 5.74355 Bohr) occupying 0.771405 of unit cell:	Completed after 0 iterations at t[s]:    211.02
ElecMinimize: 	Step increased G by 9.436508e-08, reducing alpha to 4.153586e-05.
ElecMinimize: 	Step failed to reduce G after 3 attempts. Quitting step.
ElecMinimize: 	Undoing step.
	Linear fluid (dielectric constant: 78.4, screening length: 5.74355 Bohr) occupying 0.771405 of unit cell:	Completed after 0 iterations at t[s]:    235.36
ElecMinimize: 	Step failed: resetting search direction.
	FillingsUpdate:  mu: -0.171251800  nElectrons: 396.170990
	SubspaceRotationAdjust: set factor to 0.133
	SubspaceRotationAdjust: resetting CG because factor has changed by 0.132791
	Linear fluid (dielectric constant: 78.4, screening length: 5.74355 Bohr) occupying 0.771405 of unit cell:	Completed after 0 iterations at t[s]:    256.37
ElecMinimize: 	State modified externally: resetting search direction.
ElecMinimize: Iter:   3  G: -1192.117913979778677  |grad|_K:  7.944e-08  alpha:  4.154e-05
	Linear fluid (dielectric constant: 78.4, screening length: 5.74355 Bohr) occupying 0.771508 of unit cell:	Completed after 7 iterations at t[s]:    284.07
	Linear fluid (dielectric constant: 78.4, screening length: 5.74355 Bohr) occupying 0.771427 of unit cell:	Completed after 3 iterations at t[s]:    295.69
	FillingsUpdate:  mu: -0.171251800  nElectrons: 396.172693
	SubspaceRotationAdjust: set factor to 0.0781
ElecMinimize: Iter:   4  G: -1192.117913990520492  |grad|_K:  6.320e-08  alpha:  2.130e-01  linmin:  4.033e-02  t[s]:    310.31
	Linear fluid (dielectric constant: 78.4, screening length: 5.74355 Bohr) occupying 0.771423 of unit cell:	Completed after 0 iterations at t[s]:    322.94
ElecMinimize: 	Predicted alpha/alphaT>3.000000, increasing alphaT to 6.391467e-01.
	Linear fluid (dielectric constant: 78.4, screening length: 5.74355 Bohr) occupying 0.771416 of unit cell:	Completed after 0 iterations at t[s]:    333.88
ElecMinimize: 	Predicted alpha/alphaT>3.000000, increasing alphaT to 1.917440e+00.
	Linear fluid (dielectric constant: 78.4, screening length: 5.74355 Bohr) occupying 0.771395 of unit cell:	Completed after 2 iterations at t[s]:    344.99
	Linear fluid (dielectric constant: 78.4, screening length: 5.74355 Bohr) occupying 0.771418 of unit cell:	Completed after 2 iterations at t[s]:    356.16
ElecMinimize: 	Step increased G by 4.819913e-08, reducing alpha to 5.377384e-02.
	Linear fluid (dielectric constant: 78.4, screening length: 5.74355 Bohr) occupying 0.771426 of unit cell:	Completed after 0 iterations at t[s]:    380.29
ElecMinimize: 	Step increased G by 2.724528e-08, reducing alpha to 5.377384e-03.
	Linear fluid (dielectric constant: 78.4, screening length: 5.74355 Bohr) occupying 0.771427 of unit cell:	Completed after 0 iterations at t[s]:    405.32
ElecMinimize: 	Step increased G by 4.684125e-08, reducing alpha to 5.377384e-04.
ElecMinimize: 	Step failed to reduce G after 3 attempts. Quitting step.
ElecMinimize: 	Undoing step.
	Linear fluid (dielectric constant: 78.4, screening length: 5.74355 Bohr) occupying 0.771427 of unit cell:	Completed after 0 iterations at t[s]:    429.89
ElecMinimize: 	Step failed: resetting search direction.
	FillingsUpdate:  mu: -0.171251800  nElectrons: 396.172687
	SubspaceRotationAdjust: set factor to 0.0674
ElecMinimize: Iter:   5  G: -1192.117913943689928  |grad|_K:  2.259e-08  alpha:  5.377e-04
	Linear fluid (dielectric constant: 78.4, screening length: 5.74355 Bohr) occupying 0.771424 of unit cell:	Completed after 0 iterations at t[s]:    457.49
ElecMinimize: 	Predicted alpha/alphaT>3.000000, increasing alphaT to 6.391467e-01.
	Linear fluid (dielectric constant: 78.4, screening length: 5.74355 Bohr) occupying 0.771419 of unit cell:	Completed after 0 iterations at t[s]:    468.83
ElecMinimize: 	Predicted alpha/alphaT>3.000000, increasing alphaT to 1.917440e+00.
	Linear fluid (dielectric constant: 78.4, screening length: 5.74355 Bohr) occupying 0.771405 of unit cell:	Completed after 2 iterations at t[s]:    480.26
	Linear fluid (dielectric constant: 78.4, screening length: 5.74355 Bohr) occupying 0.771422 of unit cell:	Completed after 1 iterations at t[s]:    491.50
ElecMinimize: 	Step increased G by 1.175931e-08, reducing alpha to 4.006003e-02.
	Linear fluid (dielectric constant: 78.4, screening length: 5.74355 Bohr) occupying 0.771426 of unit cell:	Completed after 0 iterations at t[s]:    516.13
	FillingsUpdate:  mu: -0.171251800  nElectrons: 396.172651
	SubspaceRotationAdjust: set factor to 0.0514
ElecMinimize: Iter:   6  G: -1192.117913968245603  |grad|_K:  3.446e-08  alpha:  4.006e-02  linmin:  2.818e-02  t[s]:    530.53
ElecMinimize: 	Bad step direction: g.d > 0.
ElecMinimize: 	Undoing step.
	Linear fluid (dielectric constant: 78.4, screening length: 5.74355 Bohr) occupying 0.771426 of unit cell:	Completed after 0 iterations at t[s]:    543.68
ElecMinimize: 	Step failed: resetting search direction.
	FillingsUpdate:  mu: -0.171251800  nElectrons: 396.172651
	SubspaceRotationAdjust: set factor to 0.056
ElecMinimize: Iter:   7  G: -1192.117913968227185  |grad|_K:  3.224e-08  alpha:  0.000e+00
	Linear fluid (dielectric constant: 78.4, screening length: 5.74355 Bohr) occupying 0.771426 of unit cell:	Completed after 0 iterations at t[s]:    571.28
ElecMinimize: 	Predicted alpha/alphaT>3.000000, increasing alphaT to 1.201801e-01.
	Linear fluid (dielectric constant: 78.4, screening length: 5.74355 Bohr) occupying 0.771426 of unit cell:	Completed after 0 iterations at t[s]:    582.46
ElecMinimize: 	Predicted alpha/alphaT>3.000000, increasing alphaT to 3.605403e-01.
	Linear fluid (dielectric constant: 78.4, screening length: 5.74355 Bohr) occupying 0.771426 of unit cell:	Completed after 1 iterations at t[s]:    593.62
	Linear fluid (dielectric constant: 78.4, screening length: 5.74355 Bohr) occupying 0.771426 of unit cell:	Completed after 0 iterations at t[s]:    605.12
ElecMinimize: 	Step increased G by 4.584467e-08, reducing alpha to 1.183461e-02.
	Linear fluid (dielectric constant: 78.4, screening length: 5.74355 Bohr) occupying 0.771426 of unit cell:	Completed after 0 iterations at t[s]:    629.55
ElecMinimize: 	Step increased G by 5.350535e-08, reducing alpha to 1.183461e-03.
	Linear fluid (dielectric constant: 78.4, screening length: 5.74355 Bohr) occupying 0.771426 of unit cell:	Completed after 0 iterations at t[s]:    654.31
ElecMinimize: 	Step increased G by 5.431070e-08, reducing alpha to 1.183461e-04.
ElecMinimize: 	Step failed to reduce G after 3 attempts. Quitting step.
ElecMinimize: 	Undoing step.
	Linear fluid (dielectric constant: 78.4, screening length: 5.74355 Bohr) occupying 0.771426 of unit cell:	Completed after 0 iterations at t[s]:    678.59
ElecMinimize: 	Step failed along negative gradient direction.
ElecMinimize: Probably at roundoff error limit. (Stopping)
Setting wave functions to eigenvectors of Hamiltonian

# Ionic positions in lattice coordinates:
ion Ta   0.169791276607906   0.082055807604323   0.499913576382333 0
ion Ta   0.412267932464502   0.082055807604323   0.499913576382333 0
ion Ta   0.667959011771396   0.083977804917612   0.500074524485748 0
ion Ta   0.916022194614302   0.083977804917612   0.500074524485748 0
ion Ta   0.166963501837115   0.333480049950472   0.498766600988603 0
ion Ta   0.403371487490027   0.306739573511968   0.496330623156383 0
ion Ta   0.666519949581442   0.333480049950472   0.498766600988603 0
ion Ta   0.916022194614302   0.332040987760518   0.500074524485748 0
ion Ta   0.169791276607906   0.587732067067412   0.499913576382333 0
ion Ta   0.403371487490027   0.596628512041887   0.496330623156383 0
ion Ta   0.693260426019946   0.596628512041887   0.496330623156383 0
ion Ta   0.917944191927591   0.587732067067412   0.499913576382333 0
ion Ta   0.166667800333333   0.833332199198581   0.500047138345009 0
ion Ta   0.412267932464502   0.830208722924008   0.499913576382333 0
ion Ta   0.666519949581442   0.833036497694799   0.498766600988603 0
ion Ta   0.917944191927591   0.830208722924008   0.499913576382333 0
ion S   0.000251282046618  -0.000251282514703   0.584934305931463 0
ion S   0.000246249456280  -0.000246249924365   0.415156925573465 0
ion S   0.249222995385740  -0.001557410696605   0.587526726124045 0
ion S   0.248785618898109  -0.002432163671867   0.412396199281674 0
ion S   0.499500836906764  -0.000251282514703   0.584934305931463 0
ion S   0.499510902087440  -0.000246249924365   0.415156925573465 0
ion S   0.749215124079204  -0.001573153309678   0.586160391247868 0
ion S   0.749882368361621  -0.000238664744843   0.413368097886788 0
ion S   0.001573152841592   0.250784875452710   0.586160391247868 0
ion S   0.000238664276757   0.250117631170293   0.413368097886788 0
ion S   0.250375802297293   0.252049925695406   0.586524799934160 0
ion S   0.245376936856104   0.246557971499955   0.410001866947740 0
ion S   0.501677524866198   0.252049925695406   0.586524799934160 0
ion S   0.501184436111936   0.246557971499955   0.410001866947740 0
ion S   0.749215124079204   0.250784875452710   0.586160391247868 0
ion S   0.749882368361621   0.250117631170293   0.413368097886788 0
ion S   0.000251282046618   0.500499162625150   0.584934305931463 0
ion S   0.000246249456280   0.500489097444474   0.415156925573465 0
ion S   0.250375802297293   0.498322474665716   0.586524799934160 0
ion S   0.245376936856104   0.498815563419978   0.410001866947740 0
ion S   0.500001133666667   0.499998865865248   0.450847827041556 0
ion S   0.747950073836508   0.498322474665716   0.586524799934160 0
ion S   0.753442028031959   0.498815563419978   0.410001866947740 0
ion S   0.001557410228519   0.750777004146174   0.587526726124045 0
ion S   0.002432163203781   0.751214380633805   0.412396199281674 0
ion S   0.249222995385740   0.750777004146174   0.587526726124045 0
ion S   0.248785618898109   0.751214380633805   0.412396199281674 0
ion S   0.501677524866198   0.749624197234621   0.586524799934160 0
ion S   0.501184436111936   0.754623062675810   0.410001866947740 0
ion S   0.747950073836508   0.749624197234621   0.586524799934160 0
ion S   0.753442028031959   0.754623062675810   0.410001866947740 0


# Forces in Lattice coordinates:
force Ta  -0.141277220515057   0.079599798483260  -0.011453408308955 0
force Ta   0.141277220515057  -0.061677422031797  -0.011453408308951 0
force Ta  -0.057616614456067  -0.000000000000000  -0.012136853865781 0
force Ta   0.057616614456067  -0.057616614456069  -0.012136853865781 0
force Ta   0.032481822044085   0.000000000000000  -0.000112163098380 0
force Ta   0.000000000000000   0.131600699034293   0.019810020194281 0
force Ta  -0.032481822044092   0.032481822044092  -0.000112163098383 0
force Ta   0.000000000000000   0.057616614456067  -0.012136853865781 0
force Ta  -0.061677422031797  -0.079599798483260  -0.011453408308955 0
force Ta   0.131600699034308  -0.131600699034293   0.019810020194282 0
force Ta  -0.131600699034307   0.000000000000000   0.019810020194282 0
force Ta   0.061677422031797  -0.141277220515053  -0.011453408308955 0
force Ta   0.000000000000000   0.000000000000000   0.007260687602477 0
force Ta   0.079599798483260   0.061677422031797  -0.011453408308958 0
force Ta   0.000000000000000  -0.032481822044085  -0.000112163098380 0
force Ta  -0.079599798483260   0.141277220515057  -0.011453408308955 0
force S   0.020805872039475  -0.020805872039475   0.046064489759454 0
force S   0.023738156841443  -0.023738156841444  -0.032847724223308 0
force S   0.000000000000000   0.000858142542383   0.005508097477202 0
force S   0.000000000000000   0.002307382781418  -0.002851915607739 0
force S  -0.020805872039475  -0.000000000000000   0.046064489759453 0
force S  -0.023738156841444  -0.000000000000000  -0.032847724223309 0
force S   0.000000000000000   0.014232390231300  -0.007764215594641 0
force S   0.000000000000000   0.023224540604006   0.001510751665239 0
force S  -0.014232390231300  -0.000000000000000  -0.007764215594642 0
force S  -0.023224540604006  -0.000000000000000   0.001510751665239 0
force S  -0.002859993838534  -0.019612755001262   0.035687258188120 0
force S  -0.003336480262116  -0.016545921995842  -0.028782995529471 0
force S   0.002859993838535  -0.022472748839795   0.035687258188121 0
force S   0.003336480262115  -0.019882402257956  -0.028782995529699 0
force S   0.014232390231299  -0.014232390231299  -0.007764215594755 0
force S   0.023224540604006  -0.023224540604006   0.001510751665125 0
force S   0.000000000000000   0.020805872039475   0.046064489759453 0
force S   0.000000000000000   0.023738156841443  -0.032847724223309 0
force S  -0.022472748839795   0.019612755001262   0.035687258188121 0
force S  -0.019882402257961   0.016545921995839  -0.028782995529585 0
force S   0.000000000000000  -0.000000000000000  -0.039276628069056 0
force S   0.022472748839795  -0.002859993838534   0.035687258188120 0
force S   0.019882402257958  -0.003336480262116  -0.028782995529585 0
force S  -0.000858142542384   0.000000000000000   0.005508097477316 0
force S  -0.002307382781418   0.000000000000000  -0.002851915607852 0
force S   0.000858142542384  -0.000858142542384   0.005508097477202 0
force S   0.002307382781418  -0.002307382781418  -0.002851915607852 0
force S  -0.019612755001259   0.022472748839792   0.035687258188120 0
force S  -0.016545921995842   0.019882402257956  -0.028782995529812 0
force S   0.019612755001259   0.002859993838534   0.035687258188120 0
force S   0.016545921995839   0.003336480262115  -0.028782995529812 0

# Energy components:
   A_diel =       -0.3213585378318297
   Eewald =     7066.9738310152897611
       EH =     8140.2579345453050337
     Eloc =   -16467.2846315130518633
      Enl =     -224.8264813738233556
      Exc =     -469.7676557999406555
 Exc_core =      250.8147355274028882
       KE =      444.2787966324644913
  MuShift =       -0.0225852884429202
-------------------------------------
     Etot =    -1259.8974147926292062
       TS =        0.0657787039245169
-------------------------------------
        F =    -1259.9631934965536857
      muN =      -67.8452795826362234
-------------------------------------
        G =    -1192.1179139139173913

IonicMinimize: Iter:   0  G: -1192.117913913917391  |grad|_K:  0.000e+00  t[s]:    703.09
IonicMinimize: Converged (|grad|_K<1.000000e-04).

#--- Lowdin population analysis ---
# oxidation-state Ta -0.431 -0.431 -0.429 -0.429 -0.442 -0.352 -0.442 -0.429 -0.431 -0.352 -0.352 -0.431 -0.455 -0.431 -0.442 -0.431
# oxidation-state S +0.172 +0.178 +0.211 +0.214 +0.172 +0.178 +0.191 +0.194 +0.191 +0.194 +0.201 +0.212 +0.201 +0.212 +0.191 +0.194 +0.172 +0.178 +0.201 +0.212 +0.318 +0.201 +0.212 +0.211 +0.214 +0.211 +0.214 +0.201 +0.212 +0.201 +0.212


Dumping 'NbTe2.fillings' ... done
Dumping 'NbTe2.wfns' ... done
Dumping 'NbTe2.fluidState' ... done
Dumping 'NbTe2.eigenvals' ... done
End date and time: Fri Jul  3 22:52:42 2020  (Duration: 0-0:11:48.27)
Done!

*************** JDFTx 1.5.0  ***************

Start date and time: Sun Jul  5 04:05:31 2020
Executable jdftx_gpu with command-line: -i Charged.in -o Charged.out
Running on hosts (process indices):  amax (0)
Divided in process groups (process indices):  0 (0)
gpuInit: Found compatible cuda device 0 'Tesla K80'
gpuInit: Selected device 0
Resource initialization completed at t[s]:     13.47
Run totals: 1 processes, 24 threads, 1 GPUs


Input parsed successfully to the following command list (including defaults):

basis kpoint-dependent
cache-projectors no
coords-type Lattice
core-overlap-check none
coulomb-interaction Slab 001
coulomb-truncation-embed 0 0 0.5
davidson-band-ratio 1.1
dump End State
dump-name NbTe2.$VAR
elec-cutoff 20 100
elec-eigen-algo Davidson
elec-ex-corr gga-PBE
elec-smearing Gauss 0.0073499
electronic-minimize  \
	dirUpdateScheme      L-BFGS \
	linminMethod         DirUpdateRecommended \
	nIterations          500 \
	history              15 \
	knormThreshold       0 \
	energyDiffThreshold  1e-08 \
	nEnergyDiff          2 \
	alphaTstart          1 \
	alphaTmin            1e-10 \
	updateTestStepSize   yes \
	alphaTreduceFactor   0.1 \
	alphaTincreaseFactor 3 \
	nAlphaAdjustMax      3 \
	wolfeEnergy          0.0001 \
	wolfeGradient        0.9 \
	fdTest               no
exchange-regularization WignerSeitzTruncated
fluid LinearPCM 298.000000 1.013250
fluid-anion F- 1 MeanFieldLJ \
	epsBulk 1 \
	pMol 0 \
	epsInf 1 \
	Pvap 0 \
	sigmaBulk 0 \
	Rvdw 2.24877 \
	Res 0 \
	tauNuc 343133
fluid-cation Na+ 1 MeanFieldLJ \
	epsBulk 1 \
	pMol 0 \
	epsInf 1 \
	Pvap 0 \
	sigmaBulk 0 \
	Rvdw 2.19208 \
	Res 0 \
	tauNuc 343133
fluid-ex-corr lda-TF lda-PZ
fluid-gummel-loop 10 1.000000e-05
fluid-minimize  \
	dirUpdateScheme      PolakRibiere \
	linminMethod         DirUpdateRecommended \
	nIterations          400 \
	history              15 \
	knormThreshold       1e-11 \
	energyDiffThreshold  0 \
	nEnergyDiff          2 \
	alphaTstart          1 \
	alphaTmin            1e-10 \
	updateTestStepSize   yes \
	alphaTreduceFactor   0.1 \
	alphaTincreaseFactor 3 \
	nAlphaAdjustMax      6 \
	wolfeEnergy          0.0001 \
	wolfeGradient        0.9 \
	fdTest               no
fluid-solvent H2O 55.338 ScalarEOS \
	epsBulk 78.4 \
	pMol 0.92466 \
	epsInf 1.77 \
	Pvap 1.06736e-10 \
	sigmaBulk 4.62e-05 \
	Rvdw 2.61727 \
	Res 1.42 \
	tauNuc 343133 \
	poleEl 15 7 1
forces-output-coords Positions
initial-state NbTe2.$VAR
ion Ta   0.169793441774572   0.082053608072406   0.499913576382333 0
ion Ta   0.412270134297835   0.082053608072406   0.499913576382333 0
ion Ta   0.667961237771396   0.083975608885695   0.500074524485748 0
ion Ta   0.916024429114300   0.083975608885695   0.500074524485748 0
ion Ta   0.166965688837115   0.333477848418556   0.498766600988603 0
ion Ta   0.403373665990029   0.306737344980053   0.496330623156383 0
ion Ta   0.666522164581442   0.333477848418556   0.498766600988603 0
ion Ta   0.916024385114304   0.332038783228602   0.500074524485748 0
ion Ta   0.169793469774574   0.587729849702163   0.499913576382333 0
ion Ta   0.403373665990029   0.596626310009976   0.496330623156383 0
ion Ta   0.693262578019945   0.596626310009976   0.496330623156383 0
ion Ta   0.917946402927591   0.587729849702163   0.499913576382333 0
ion Ta   0.166669992999999   0.833329962999997   0.500047138345009 0
ion Ta   0.412270125297838   0.830206487225426   0.499913576382333 0
ion Ta   0.666522163581445   0.833034268162885   0.498766600988603 0
ion Ta   0.917946420927592   0.830206487225426   0.499913576382333 0
ion S   0.000250147879952  -0.000250147879952   0.584934305931463 0
ion S   0.000245115289614  -0.000245115289614   0.415156925573465 0
ion S   0.249221860052408  -0.001556279895184   0.587526726124045 0
ion S   0.248784483564777  -0.002431032870446   0.412396199281674 0
ion S   0.499499704240096  -0.000250147879952   0.584934305931463 0
ion S   0.499509769420772  -0.000245115289614   0.415156925573465 0
ion S   0.749213971245869  -0.001572021508260   0.586160391247868 0
ion S   0.749881215528286  -0.000237532943426   0.413368097886788 0
ion S   0.001572022508257   0.250786012754130   0.586160391247868 0
ion S   0.000237533943422   0.250118768471713   0.413368097886788 0
ion S   0.250374657963958   0.252051044996824   0.586524799934160 0
ion S   0.245375792522769   0.246559090801373   0.410001866947740 0
ion S   0.501676378032862   0.252051044996824   0.586524799934160 0
ion S   0.501183289278600   0.246559090801373   0.410001866947740 0
ion S   0.749213999245871   0.250786012754130   0.586160391247868 0
ion S   0.749881243528288   0.250118768471713   0.413368097886788 0
ion S   0.000250149879952   0.500500298759900   0.584934305931463 0
ion S   0.000245117289614   0.500490233579224   0.415156925573465 0
ion S   0.250374658963962   0.498323616967134   0.586524799934160 0
ion S   0.245375793522773   0.498816705721397   0.410001866947740 0
ion S   0.500000002000000   0.500000002999997   0.450847827041556 0
ion S   0.747948851003174   0.498323616967134   0.586524799934160 0
ion S   0.753440805198625   0.498816705721397   0.410001866947740 0
ion S   0.001556301895185   0.750778165947594   0.587526726124045 0
ion S   0.002431054870448   0.751215542435225   0.412396199281674 0
ion S   0.249221918052406   0.750778165947594   0.587526726124045 0
ion S   0.248784541564775   0.751215542435225   0.412396199281674 0
ion S   0.501676408032864   0.749625369036040   0.586524799934160 0
ion S   0.501183319278602   0.754624234477230   0.410001866947740 0
ion S   0.747948961003176   0.749625369036040   0.586524799934160 0
ion S   0.753440915198627   0.754624234477230   0.410001866947740 0
ion-species GBRV/$ID_pbe.uspp
ion-width Ecut
ionic-minimize  \
	dirUpdateScheme      L-BFGS \
	linminMethod         DirUpdateRecommended \
	nIterations          0 \
	history              15 \
	knormThreshold       0.0001 \
	energyDiffThreshold  1e-06 \
	nEnergyDiff          2 \
	alphaTstart          1 \
	alphaTmin            1e-10 \
	updateTestStepSize   yes \
	alphaTreduceFactor   0.1 \
	alphaTincreaseFactor 3 \
	nAlphaAdjustMax      3 \
	wolfeEnergy          0.0001 \
	wolfeGradient        0.9 \
	fdTest               no
kpoint   0.000000000000   0.000000000000   0.000000000000  1.00000000000000
kpoint-folding 3 3 1 
latt-move-scale 1 1 1
latt-scale 1 1 1 
lattice Triclinic 25.1736 25.1736 34.2617 90 90 120
lattice-minimize  \
	dirUpdateScheme      L-BFGS \
	linminMethod         DirUpdateRecommended \
	nIterations          0 \
	history              15 \
	knormThreshold       0 \
	energyDiffThreshold  1e-06 \
	nEnergyDiff          2 \
	alphaTstart          1 \
	alphaTmin            1e-10 \
	updateTestStepSize   yes \
	alphaTreduceFactor   0.1 \
	alphaTincreaseFactor 3 \
	nAlphaAdjustMax      3 \
	wolfeEnergy          0.0001 \
	wolfeGradient        0.9 \
	fdTest               no
lcao-params -1 1e-06 0.0073499
pcm-variant CANDLE
spintype no-spin
subspace-rotation-factor 1 yes
symmetries automatic
symmetry-threshold 0.0001
target-mu -0.171252 no




---------- Setting up symmetries ----------

Found 24 point-group symmetries of the bravais lattice
Found 6 space-group symmetries with basis
Applied RMS atom displacement 6.90795e-05 bohrs to make symmetries exact.

---------- Initializing the Grid ----------
R = 
[    25.1736   -12.5868          0  ]
[          0     21.801          0  ]
[          0          0    34.2617  ]
unit cell volume = 18803.1
G =
[   0.249594   0.144103         -0  ]
[          0   0.288207          0  ]
[          0         -0   0.183388  ]
Minimum fftbox size, Smin = [  116  116  156  ]
Chosen fftbox size, S = [  120  120  160  ]

---------- Initializing tighter grid for wavefunction operations ----------
R = 
[    25.1736   -12.5868          0  ]
[          0     21.801          0  ]
[          0          0    34.2617  ]
unit cell volume = 18803.1
G =
[   0.249594   0.144103         -0  ]
[          0   0.288207          0  ]
[          0         -0   0.183388  ]
Minimum fftbox size, Smin = [  104  104  140  ]
Chosen fftbox size, S = [  108  108  140  ]

---------- Exchange Correlation functional ----------
Initalized PBE GGA exchange.
Initalized PBE GGA correlation.

---------- Setting up pseudopotentials ----------
Width of ionic core gaussian charges (only for fluid interactions / plotting) set to 0.397384

Reading pseudopotential file '/home/guoxy/vasp/jdftx-1.5.0/build/pseudopotentials/GBRV/ta_pbe.uspp':
  Title: Ta.  Created by USPP 7.3.6 on 14-9-2013
  Reference state energy: -70.583193.  13 valence electrons in orbitals:
    |500>  occupation: 2  eigenvalue: -2.682396
    |510>  occupation: 6  eigenvalue: -1.447928
    |520>  occupation: 3  eigenvalue: -0.131987
    |600>  occupation: 2  eigenvalue: -0.199982
    |610>  occupation: 0  eigenvalue: -0.051129
  lMax: 3  lLocal: 3  QijEcut: 5
  7 projectors sampled on a log grid with 667 points:
    l: 0  eig: -2.682397  rCut: 1.4
    l: 0  eig: -0.199983  rCut: 1.4
    l: 1  eig: -1.447928  rCut: 1.5
    l: 1  eig: -0.051130  rCut: 1.5
    l: 2  eig: -0.131987  rCut: 1.7
    l: 2  eig: 0.150000  rCut: 1.7
    l: 3  eig: 0.250000  rCut: 2.3
  Partial core density with radius 1.2
  Transforming core density to a uniform radial grid of dG=0.02 with 1673 points.
  Transforming local potential to a uniform radial grid of dG=0.02 with 1673 points.
  Transforming nonlocal projectors to a uniform radial grid of dG=0.02 with 432 points.
  Transforming density augmentations to a uniform radial grid of dG=0.02 with 1673 points.
  Transforming atomic orbitals to a uniform radial grid of dG=0.02 with 432 points.
  Core radius for overlap checks: 2.30 bohrs.

Reading pseudopotential file '/home/guoxy/vasp/jdftx-1.5.0/build/pseudopotentials/GBRV/s_pbe.uspp':
  Title: S.  Created by USPP 7.3.6 on 1-4-15
  Reference state energy: -11.898476.  6 valence electrons in orbitals:
    |300>  occupation: 2  eigenvalue: -0.634167
    |310>  occupation: 4  eigenvalue: -0.257568
  lMax: 2  lLocal: 3  QijEcut: 6
  6 projectors sampled on a log grid with 635 points:
    l: 0  eig: -0.634161  rCut: 1.5
    l: 0  eig: 1.500000  rCut: 1.5
    l: 1  eig: -0.257567  rCut: 1.5
    l: 1  eig: 1.500000  rCut: 1.5
    l: 2  eig: -1.000000  rCut: 1.5
    l: 2  eig: 1.500000  rCut: 1.5
  Partial core density with radius 1.15
  Transforming core density to a uniform radial grid of dG=0.02 with 1673 points.
  Transforming local potential to a uniform radial grid of dG=0.02 with 1673 points.
  Transforming nonlocal projectors to a uniform radial grid of dG=0.02 with 432 points.
  Transforming density augmentations to a uniform radial grid of dG=0.02 with 1673 points.
  Transforming atomic orbitals to a uniform radial grid of dG=0.02 with 432 points.
  Core radius for overlap checks: 1.50 bohrs.

Initialized 2 species with 47 total atoms.

Folded 1 k-points by 3x3x1 to 9 k-points.

---------- Setting up k-points, bands, fillings ----------
Adding inversion symmetry to k-mesh for non-inversion-symmetric unit cell.
Reduced to 3 k-points under symmetry. 
Computing the number of bands and number of electrons
Reading initial fillings from file NbTe2.fillings.
nElectrons: 396.172651   nBands: 332   nStates: 3

----- Setting up reduced wavefunction bases (one per k-point) -----
average nbasis = 80341.667 , ideal nbasis = 80328.402

---------- Setting up coulomb interaction ----------
Fluid mode embedding: using embedded box, but periodic Coulomb kernel.
(Fluid response is responsible for (approximate) separation between periodic images.)
Setting up double-sized grid for truncated Coulomb potentials:
R = 
[    25.1736   -12.5868          0  ]
[          0     21.801          0  ]
[          0          0    68.5234  ]
unit cell volume = 37606.3
G =
[   0.249594   0.144103         -0  ]
[          0   0.288207          0  ]
[          0         -0  0.0916941  ]
Chosen fftbox size, S = [  120  120  320  ]
Integer grid location selected as the embedding center:
   Grid: [  0  0  80  ]
   Lattice: [  0  0  0.5  ]
   Cartesian: [  0  0  17.1308  ]
Constructing Wigner-Seitz cell: 8 faces (6 quadrilaterals, 2 hexagons)
Range-separation parameter for embedded mesh potentials due to point charges: 0.583787 bohrs.

Initializing van der Waals corrections
	NOTE: vdW corrections apply only for interactions with fluid.
	Ta:  C6:  815.23 Eh-a0^6  R0: 3.326 a0 (WARNING: beyond Grimme's data set)
	 S:  C6:   96.61 Eh-a0^6  R0: 3.180 a0

---------- Setting up ewald sum ----------
Optimum gaussian width for ewald sums = 7.035805 bohr.
Real space sum over 605 unit cells with max indices [  5  5  2  ]
Reciprocal space sum over 7425 terms with max indices [  7  7  16  ]

---------- Allocating electronic variables ----------
Initializing wave functions:  reading from 'NbTe2.wfns'
----- createFluidSolver() ----- (Fluid-side solver setup)
   Initializing fluid molecule 'H2O'
     Initializing site 'O'
       Electron density: proportional to exp(-r/0.36935)*erfc((r-0.51523)/0.36823) with norm 6.826
       Charge density: gaussian nuclear width 0.478731 with net site charge 0.826
       Polarizability: cuspless exponential with width 0.32 and norm 3.73
       Hard sphere radius: 2.57003 bohrs
       Positions in reference frame:
         [ +0.000000 +0.000000 +0.000000 ]
     Initializing site 'H'
       Electron density: proportional to exp(-r/0.34641)*erfc((r-0)/0.390882) with norm 0.587
       Charge density: gaussian nuclear width 0.377945 with net site charge -0.413
       Polarizability: cuspless exponential with width 0.39 and norm 3.3
       Positions in reference frame:
         [ +0.000000 -1.441945 +1.122523 ]
         [ +0.000000 +1.441945 +1.122523 ]
     Net charge: 0   dipole magnitude: 0.927204
     Initializing spherical shell mfKernel with radius 2.61727 Bohr
     deltaS corrections:
       site 'O': -7.54299
       site 'H': -6.83917
   Initializing fluid molecule 'Na+'
     Initializing site 'Na'
       Electron density: proportional to exp(-r/0.19682)*erfc((r-0.71491)/0.41314) with norm 8.1383
       Charge density: gaussian nuclear width 0.365347 with net site charge -1
       Hard sphere radius: 1.86327 bohrs
       Positions in reference frame:
         [ +0.000000 +0.000000 +0.000000 ]
     Net charge: -1   dipole magnitude: 0
     Initializing gaussian mfKernel with width: 1.55004 Bohr
     deltaS corrections:
       site 'Na': -22.3555
   Initializing fluid molecule 'F-'
     Initializing site 'F'
       Electron density: proportional to exp(-r/0.38886)*erfc((r-0)/0.438782) with norm 8
       Charge density: gaussian nuclear width 0.374796 with net site charge 1
       Hard sphere radius: 2.39995 bohrs
       Positions in reference frame:
         [ +0.000000 +0.000000 +0.000000 ]
     Net charge: 1   dipole magnitude: 0
     Initializing gaussian mfKernel with width: 1.59012 Bohr
     deltaS corrections:
       site 'F': -9.04335

Correction to mu due to finite nuclear width = -0.0103953
   Cavity determined by nc: 0.00142 and sigma: 0.707107
   Nonlocal vdW cavity from gaussian model electron density with norm = 8 and sigma = 0.993594 bohr
   Charge asymmetry in cavity with sensitivity pCavity = 36.5 e-bohr/Eh
   Electrostatic cavity expanded by eta = 1.46 bohrs
   Weighted density cavitation model constrained by Nbulk: 0.0049383 bohr^-3, Pvap: 3.14029 kPa, Rvdw: 2.61727 bohr and sigmaBulk: 4.62e-05 Eh/bohr^2 at T: 298 K.
   Weighted density dispersion model using vdW pair potentials with single solvent site with sqrtC6eff: 0.77 SI.
Reading fluid state from 'NbTe2.fluidState'


---- Citations for features of the code used in this run ----

   Software package:
      R. Sundararaman, K. Letchworth-Weaver, K.A. Schwarz, D. Gunceler, Y. Ozhabes and T.A. Arias, 'JDFTx: software for joint density-functional theory', SoftwareX 6, 278 (2017)

   gga-PBE exchange-correlation functional:
      J.P. Perdew, K. Burke and M. Ernzerhof, Phys. Rev. Lett. 77, 3865 (1996)

   Pseudopotentials:
      KF Garrity, JW Bennett, KM Rabe and D Vanderbilt, Comput. Mater. Sci. 81, 446 (2014)

   Truncated Coulomb potentials:
      R. Sundararaman and T.A. Arias, Phys. Rev. B 87, 165122 (2013)

   Van der Waals correction pair-potentials:
      S. Grimme, J. Comput. Chem. 27, 1787 (2006)

   Charge-asymmetric nonlocally-determined local-electric (CANDLE) solvation model:
      R. Sundararaman and W.A. Goddard III, J. Chem. Phys. 142, 064107 (2015)

   Total energy minimization with Auxiliary Hamiltonian:
      C. Freysoldt, S. Boeck, and J. Neugebauer, Phys. Rev. B 79, 241103(R) (2009)

   Grand-canonical (fixed-potential) DFT:
      R. Sundararaman, W. A. Goddard III and T. A. Arias, J. Chem. Phys. 146, 114104 (2017)

This list may not be complete. Please suggest additional citations or
report any other bugs at https://github.com/shankar1729/jdftx/issues

Initialization completed successfully at t[s]:     24.69

Shifting auxilliary hamiltonian by -0.000014 to set nElectrons=396.172651
	Linear fluid (dielectric constant: 78.4, screening length: 5.74355 Bohr) occupying 0.771422 of unit cell:	Completed after 4 iterations at t[s]:     31.62

-------- Electronic minimization -----------
	Linear fluid (dielectric constant: 78.4, screening length: 5.74355 Bohr) occupying 0.771422 of unit cell:	Completed after 0 iterations at t[s]:     38.58
	FillingsUpdate:  mu: -0.171251800  nElectrons: 396.172651
ElecMinimize: Iter:   0  G: -1192.117911991662595  |grad|_K:  5.421e-07  t[s]:     52.08
	Linear fluid (dielectric constant: 78.4, screening length: 5.74355 Bohr) occupying 0.771590 of unit cell:	Completed after 11 iterations at t[s]:     66.23
ElecMinimize: 	Wolfe criterion not satisfied: alpha: 1  (E-E0)/|gdotd0|: 5.3501  gdotd/gdotd0: -11.7124 (taking cubic step)
	Linear fluid (dielectric constant: 78.4, screening length: 5.74355 Bohr) occupying 0.771435 of unit cell:	Completed after 11 iterations at t[s]:     92.53
	FillingsUpdate:  mu: -0.171251800  nElectrons: 396.173527
	SubspaceRotationAdjust: set factor to 0.511
ElecMinimize: Iter:   1  G: -1192.117913932011561  |grad|_K:  1.442e-07  alpha:  7.887e-02  linmin: -2.101e-03  t[s]:    107.24

Stack trace:
	 0: /home/guoxy/vasp/jdftx-1.5.0/build/libjdftx_gpu.so(_Z10printStackb+0x34) [0x2b3ebc781ed4]
	 1: /home/guoxy/vasp/jdftx-1.5.0/build/libjdftx_gpu.so(_Z14stackTraceExiti+0xd) [0x2b3ebc7823cd]
	 2: /home/guoxy/vasp/jdftx-1.5.0/build/libjdftx_gpu.so(_Z7Vnl_gpuILi0ELi0EEviii7vector3IdEPKS0_IiE7matrix3IdEPKS1_RK15RadialFunctionGP7complexS8_+0x1e4) [0x2b3ebca1dd44]
	 3: /home/guoxy/vasp/jdftx-1.5.0/build/libjdftx_gpu.so(_ZNK11SpeciesInfo4getVERK12ColumnBundlePK7vector3IdE+0x355) [0x2b3ebc8a9175]
	 4: /home/guoxy/vasp/jdftx-1.5.0/build/libjdftx_gpu.so(_ZNK11SpeciesInfo14augmentOverlapERK12ColumnBundleRS0_P6matrix+0x127) [0x2b3ebc89d4e7]
	 5: /home/guoxy/vasp/jdftx-1.5.0/build/libjdftx_gpu.so(_ZNK7IonInfo14augmentOverlapERK12ColumnBundleRS0_PSt6vectorI6matrixSaIS5_EE+0xb1) [0x2b3ebc85f471]
	 6: /home/guoxy/vasp/jdftx-1.5.0/build/libjdftx_gpu.so(_Z1ORK12ColumnBundlePSt6vectorI6matrixSaIS3_EE+0xae) [0x2b3ebc7a01be]
	 7: /home/guoxy/vasp/jdftx-1.5.0/build/libjdftx_gpu.so(_ZN8ElecVars14orthonormalizeEiP6matrix+0xed) [0x2b3ebc805ebd]
	 8: /home/guoxy/vasp/jdftx-1.5.0/build/libjdftx_gpu.so(_ZN13ElecMinimizer4stepERK12ElecGradientd+0x369) [0x2b3ebc7fb4a9]
	 9: /home/guoxy/vasp/jdftx-1.5.0/build/libjdftx_gpu.so(_ZN14MinimizeLinmin16linminCubicWolfeI12ElecGradientEEbR11MinimizableIT_ERK14MinimizeParamsRKS3_dRdSB_RS3_SC_+0xc3) [0x2b3ebc7ee133]
	10: /home/guoxy/vasp/jdftx-1.5.0/build/libjdftx_gpu.so(_ZN11MinimizableI12ElecGradientE5lBFGSERK14MinimizeParams+0xbcc) [0x2b3ebc7f1e0c]
	11: /home/guoxy/vasp/jdftx-1.5.0/build/libjdftx_gpu.so(_ZN11MinimizableI12ElecGradientE8minimizeERK14MinimizeParams+0x965) [0x2b3ebc8045a5]
	12: /home/guoxy/vasp/jdftx-1.5.0/build/libjdftx_gpu.so(_Z12elecMinimizeR10Everything+0xb0) [0x2b3ebc7ff8e0]
	13: /home/guoxy/vasp/jdftx-1.5.0/build/libjdftx_gpu.so(_Z17elecFluidMinimizeR10Everything+0xe6) [0x2b3ebc800016]
	14: /home/guoxy/vasp/jdftx-1.5.0/build/libjdftx_gpu.so(+0x3b2009) [0x2b3ebc865009]
	15: /home/guoxy/vasp/jdftx-1.5.0/build/libjdftx_gpu.so(_ZN11MinimizableI13IonicGradientE5lBFGSERK14MinimizeParams+0x9b) [0x2b3ebc8672ab]
	16: /home/guoxy/vasp/jdftx-1.5.0/build/libjdftx_gpu.so(_ZN11MinimizableI13IonicGradientE8minimizeERK14MinimizeParams+0x8d5) [0x2b3ebc868b85]
	17: /home/guoxy/vasp/jdftx-1.5.0/build/libjdftx_gpu.so(_ZN14IonicMinimizer8minimizeERK14MinimizeParams+0xd) [0x2b3ebc86540d]
	18: jdftx_gpu(main+0xe39) [0x405cb9]
	19: /lib/x86_64-linux-gnu/libc.so.6(__libc_start_main+0xf0) [0x2b3ebd59a830]
	20: jdftx_gpu(_start+0x29) [0x406d59]
Writing 'jdftx-stacktrace' (for use with script printStackTrace): done.

*************** JDFTx 1.5.0  ***************

Start date and time: Sun Jul  5 13:27:01 2020
Executable jdftx_gpu with command-line: -i Charged.in -o Charged.out
Running on hosts (process indices):  amax (0)
Divided in process groups (process indices):  0 (0)
gpuInit: Found compatible cuda device 0 'Tesla K80'
gpuInit: Selected device 0
Resource initialization completed at t[s]:     14.46
Run totals: 1 processes, 24 threads, 1 GPUs


Input parsed successfully to the following command list (including defaults):

basis kpoint-dependent
cache-projectors no
coords-type Lattice
core-overlap-check none
coulomb-interaction Slab 001
coulomb-truncation-embed 0 0 0.5
davidson-band-ratio 1.1
dump End State
dump-name NbTe2.$VAR
elec-cutoff 20 100
elec-eigen-algo Davidson
elec-ex-corr gga-PBE
elec-smearing Gauss 0.0073499
electronic-minimize  \
	dirUpdateScheme      FletcherReeves \
	linminMethod         DirUpdateRecommended \
	nIterations          100 \
	history              15 \
	knormThreshold       0 \
	energyDiffThreshold  1e-08 \
	nEnergyDiff          2 \
	alphaTstart          1 \
	alphaTmin            1e-10 \
	updateTestStepSize   yes \
	alphaTreduceFactor   0.1 \
	alphaTincreaseFactor 3 \
	nAlphaAdjustMax      3 \
	wolfeEnergy          0.0001 \
	wolfeGradient        0.9 \
	fdTest               no
electronic-scf  \
	nIterations	200 \
	energyDiffThreshold	1e-08 \
	residualThreshold	1e-07 \
	mixFraction	0.5 \
	qMetric	0.8 \
	history	10 \
	nEigSteps	2 \
	eigDiffThreshold	1e-08 \
	mixedVariable	Density \
	qKerker	0.8 \
	qKappa	-1 \
	verbose	no \
	mixFractionMag	1.5
exchange-regularization WignerSeitzTruncated
fluid LinearPCM 298.000000 1.013250
fluid-anion F- 1 MeanFieldLJ \
	epsBulk 1 \
	pMol 0 \
	epsInf 1 \
	Pvap 0 \
	sigmaBulk 0 \
	Rvdw 2.24877 \
	Res 0 \
	tauNuc 343133
fluid-cation Na+ 1 MeanFieldLJ \
	epsBulk 1 \
	pMol 0 \
	epsInf 1 \
	Pvap 0 \
	sigmaBulk 0 \
	Rvdw 2.19208 \
	Res 0 \
	tauNuc 343133
fluid-ex-corr lda-TF lda-PZ
fluid-gummel-loop 10 1.000000e-05
fluid-minimize  \
	dirUpdateScheme      PolakRibiere \
	linminMethod         DirUpdateRecommended \
	nIterations          400 \
	history              15 \
	knormThreshold       1e-11 \
	energyDiffThreshold  0 \
	nEnergyDiff          2 \
	alphaTstart          1 \
	alphaTmin            1e-10 \
	updateTestStepSize   yes \
	alphaTreduceFactor   0.1 \
	alphaTincreaseFactor 3 \
	nAlphaAdjustMax      6 \
	wolfeEnergy          0.0001 \
	wolfeGradient        0.9 \
	fdTest               no
fluid-solvent H2O 55.338 ScalarEOS \
	epsBulk 78.4 \
	pMol 0.92466 \
	epsInf 1.77 \
	Pvap 1.06736e-10 \
	sigmaBulk 4.62e-05 \
	Rvdw 2.61727 \
	Res 1.42 \
	tauNuc 343133 \
	poleEl 15 7 1
forces-output-coords Positions
initial-state NbTe2.$VAR
ion Ta   0.169793441774572   0.082053608072406   0.499913576382333 0
ion Ta   0.412270134297835   0.082053608072406   0.499913576382333 0
ion Ta   0.667961237771396   0.083975608885695   0.500074524485748 0
ion Ta   0.916024429114300   0.083975608885695   0.500074524485748 0
ion Ta   0.166965688837115   0.333477848418556   0.498766600988603 0
ion Ta   0.403373665990029   0.306737344980053   0.496330623156383 0
ion Ta   0.666522164581442   0.333477848418556   0.498766600988603 0
ion Ta   0.916024385114304   0.332038783228602   0.500074524485748 0
ion Ta   0.169793469774574   0.587729849702163   0.499913576382333 0
ion Ta   0.403373665990029   0.596626310009976   0.496330623156383 0
ion Ta   0.693262578019945   0.596626310009976   0.496330623156383 0
ion Ta   0.917946402927591   0.587729849702163   0.499913576382333 0
ion Ta   0.166669992999999   0.833329962999997   0.500047138345009 0
ion Ta   0.412270125297838   0.830206487225426   0.499913576382333 0
ion Ta   0.666522163581445   0.833034268162885   0.498766600988603 0
ion Ta   0.917946420927592   0.830206487225426   0.499913576382333 0
ion S   0.000250147879952  -0.000250147879952   0.584934305931463 0
ion S   0.000245115289614  -0.000245115289614   0.415156925573465 0
ion S   0.249221860052408  -0.001556279895184   0.587526726124045 0
ion S   0.248784483564777  -0.002431032870446   0.412396199281674 0
ion S   0.499499704240096  -0.000250147879952   0.584934305931463 0
ion S   0.499509769420772  -0.000245115289614   0.415156925573465 0
ion S   0.749213971245869  -0.001572021508260   0.586160391247868 0
ion S   0.749881215528286  -0.000237532943426   0.413368097886788 0
ion S   0.001572022508257   0.250786012754130   0.586160391247868 0
ion S   0.000237533943422   0.250118768471713   0.413368097886788 0
ion S   0.250374657963958   0.252051044996824   0.586524799934160 0
ion S   0.245375792522769   0.246559090801373   0.410001866947740 0
ion S   0.501676378032862   0.252051044996824   0.586524799934160 0
ion S   0.501183289278600   0.246559090801373   0.410001866947740 0
ion S   0.749213999245871   0.250786012754130   0.586160391247868 0
ion S   0.749881243528288   0.250118768471713   0.413368097886788 0
ion S   0.000250149879952   0.500500298759900   0.584934305931463 0
ion S   0.000245117289614   0.500490233579224   0.415156925573465 0
ion S   0.250374658963962   0.498323616967134   0.586524799934160 0
ion S   0.245375793522773   0.498816705721397   0.410001866947740 0
ion S   0.500000002000000   0.500000002999997   0.450847827041556 0
ion S   0.747948851003174   0.498323616967134   0.586524799934160 0
ion S   0.753440805198625   0.498816705721397   0.410001866947740 0
ion S   0.001556301895185   0.750778165947594   0.587526726124045 0
ion S   0.002431054870448   0.751215542435225   0.412396199281674 0
ion S   0.249221918052406   0.750778165947594   0.587526726124045 0
ion S   0.248784541564775   0.751215542435225   0.412396199281674 0
ion S   0.501676408032864   0.749625369036040   0.586524799934160 0
ion S   0.501183319278602   0.754624234477230   0.410001866947740 0
ion S   0.747948961003176   0.749625369036040   0.586524799934160 0
ion S   0.753440915198627   0.754624234477230   0.410001866947740 0
ion-species GBRV/$ID_pbe.uspp
ion-width Ecut
ionic-minimize  \
	dirUpdateScheme      L-BFGS \
	linminMethod         DirUpdateRecommended \
	nIterations          0 \
	history              15 \
	knormThreshold       0.0001 \
	energyDiffThreshold  1e-06 \
	nEnergyDiff          2 \
	alphaTstart          1 \
	alphaTmin            1e-10 \
	updateTestStepSize   yes \
	alphaTreduceFactor   0.1 \
	alphaTincreaseFactor 3 \
	nAlphaAdjustMax      3 \
	wolfeEnergy          0.0001 \
	wolfeGradient        0.9 \
	fdTest               no
kpoint   0.000000000000   0.000000000000   0.000000000000  1.00000000000000
kpoint-folding 3 3 1 
latt-move-scale 1 1 1
latt-scale 1 1 1 
lattice Triclinic 25.1736 25.1736 34.2617 90 90 120
lattice-minimize  \
	dirUpdateScheme      L-BFGS \
	linminMethod         DirUpdateRecommended \
	nIterations          0 \
	history              15 \
	knormThreshold       0 \
	energyDiffThreshold  1e-06 \
	nEnergyDiff          2 \
	alphaTstart          1 \
	alphaTmin            1e-10 \
	updateTestStepSize   yes \
	alphaTreduceFactor   0.1 \
	alphaTincreaseFactor 3 \
	nAlphaAdjustMax      3 \
	wolfeEnergy          0.0001 \
	wolfeGradient        0.9 \
	fdTest               no
lcao-params -1 1e-06 0.0073499
pcm-variant CANDLE
spintype no-spin
subspace-rotation-factor 1 yes
symmetries automatic
symmetry-threshold 0.0001
target-mu -0.171252 no




---------- Setting up symmetries ----------

Found 24 point-group symmetries of the bravais lattice
Found 6 space-group symmetries with basis
Applied RMS atom displacement 6.90795e-05 bohrs to make symmetries exact.

---------- Initializing the Grid ----------
R = 
[    25.1736   -12.5868          0  ]
[          0     21.801          0  ]
[          0          0    34.2617  ]
unit cell volume = 18803.1
G =
[   0.249594   0.144103         -0  ]
[          0   0.288207          0  ]
[          0         -0   0.183388  ]
Minimum fftbox size, Smin = [  116  116  156  ]
Chosen fftbox size, S = [  120  120  160  ]

---------- Initializing tighter grid for wavefunction operations ----------
R = 
[    25.1736   -12.5868          0  ]
[          0     21.801          0  ]
[          0          0    34.2617  ]
unit cell volume = 18803.1
G =
[   0.249594   0.144103         -0  ]
[          0   0.288207          0  ]
[          0         -0   0.183388  ]
Minimum fftbox size, Smin = [  104  104  140  ]
Chosen fftbox size, S = [  108  108  140  ]

---------- Exchange Correlation functional ----------
Initalized PBE GGA exchange.
Initalized PBE GGA correlation.

---------- Setting up pseudopotentials ----------
Width of ionic core gaussian charges (only for fluid interactions / plotting) set to 0.397384

Reading pseudopotential file '/home/guoxy/vasp/jdftx-1.5.0/build/pseudopotentials/GBRV/ta_pbe.uspp':
  Title: Ta.  Created by USPP 7.3.6 on 14-9-2013
  Reference state energy: -70.583193.  13 valence electrons in orbitals:
    |500>  occupation: 2  eigenvalue: -2.682396
    |510>  occupation: 6  eigenvalue: -1.447928
    |520>  occupation: 3  eigenvalue: -0.131987
    |600>  occupation: 2  eigenvalue: -0.199982
    |610>  occupation: 0  eigenvalue: -0.051129
  lMax: 3  lLocal: 3  QijEcut: 5
  7 projectors sampled on a log grid with 667 points:
    l: 0  eig: -2.682397  rCut: 1.4
    l: 0  eig: -0.199983  rCut: 1.4
    l: 1  eig: -1.447928  rCut: 1.5
    l: 1  eig: -0.051130  rCut: 1.5
    l: 2  eig: -0.131987  rCut: 1.7
    l: 2  eig: 0.150000  rCut: 1.7
    l: 3  eig: 0.250000  rCut: 2.3
  Partial core density with radius 1.2
  Transforming core density to a uniform radial grid of dG=0.02 with 1673 points.
  Transforming local potential to a uniform radial grid of dG=0.02 with 1673 points.
  Transforming nonlocal projectors to a uniform radial grid of dG=0.02 with 432 points.
  Transforming density augmentations to a uniform radial grid of dG=0.02 with 1673 points.
  Transforming atomic orbitals to a uniform radial grid of dG=0.02 with 432 points.
  Core radius for overlap checks: 2.30 bohrs.

Reading pseudopotential file '/home/guoxy/vasp/jdftx-1.5.0/build/pseudopotentials/GBRV/s_pbe.uspp':
  Title: S.  Created by USPP 7.3.6 on 1-4-15
  Reference state energy: -11.898476.  6 valence electrons in orbitals:
    |300>  occupation: 2  eigenvalue: -0.634167
    |310>  occupation: 4  eigenvalue: -0.257568
  lMax: 2  lLocal: 3  QijEcut: 6
  6 projectors sampled on a log grid with 635 points:
    l: 0  eig: -0.634161  rCut: 1.5
    l: 0  eig: 1.500000  rCut: 1.5
    l: 1  eig: -0.257567  rCut: 1.5
    l: 1  eig: 1.500000  rCut: 1.5
    l: 2  eig: -1.000000  rCut: 1.5
    l: 2  eig: 1.500000  rCut: 1.5
  Partial core density with radius 1.15
  Transforming core density to a uniform radial grid of dG=0.02 with 1673 points.
  Transforming local potential to a uniform radial grid of dG=0.02 with 1673 points.
  Transforming nonlocal projectors to a uniform radial grid of dG=0.02 with 432 points.
  Transforming density augmentations to a uniform radial grid of dG=0.02 with 1673 points.
  Transforming atomic orbitals to a uniform radial grid of dG=0.02 with 432 points.
  Core radius for overlap checks: 1.50 bohrs.

Initialized 2 species with 47 total atoms.

Folded 1 k-points by 3x3x1 to 9 k-points.

---------- Setting up k-points, bands, fillings ----------
Adding inversion symmetry to k-mesh for non-inversion-symmetric unit cell.
Reduced to 3 k-points under symmetry. 
Computing the number of bands and number of electrons
Reading initial fillings from file NbTe2.fillings.
nElectrons: 396.172651   nBands: 332   nStates: 3

----- Setting up reduced wavefunction bases (one per k-point) -----
average nbasis = 80341.667 , ideal nbasis = 80328.402

---------- Setting up coulomb interaction ----------
Fluid mode embedding: using embedded box, but periodic Coulomb kernel.
(Fluid response is responsible for (approximate) separation between periodic images.)
Setting up double-sized grid for truncated Coulomb potentials:
R = 
[    25.1736   -12.5868          0  ]
[          0     21.801          0  ]
[          0          0    68.5234  ]
unit cell volume = 37606.3
G =
[   0.249594   0.144103         -0  ]
[          0   0.288207          0  ]
[          0         -0  0.0916941  ]
Chosen fftbox size, S = [  120  120  320  ]
Integer grid location selected as the embedding center:
   Grid: [  0  0  80  ]
   Lattice: [  0  0  0.5  ]
   Cartesian: [  0  0  17.1308  ]
Constructing Wigner-Seitz cell: 8 faces (6 quadrilaterals, 2 hexagons)
Range-separation parameter for embedded mesh potentials due to point charges: 0.583787 bohrs.

Initializing van der Waals corrections
	NOTE: vdW corrections apply only for interactions with fluid.
	Ta:  C6:  815.23 Eh-a0^6  R0: 3.326 a0 (WARNING: beyond Grimme's data set)
	 S:  C6:   96.61 Eh-a0^6  R0: 3.180 a0

---------- Setting up ewald sum ----------
Optimum gaussian width for ewald sums = 7.035805 bohr.
Real space sum over 605 unit cells with max indices [  5  5  2  ]
Reciprocal space sum over 7425 terms with max indices [  7  7  16  ]

---------- Allocating electronic variables ----------
Initializing wave functions:  reading from 'NbTe2.wfns'
----- createFluidSolver() ----- (Fluid-side solver setup)
   Initializing fluid molecule 'H2O'
     Initializing site 'O'
       Electron density: proportional to exp(-r/0.36935)*erfc((r-0.51523)/0.36823) with norm 6.826
       Charge density: gaussian nuclear width 0.478731 with net site charge 0.826
       Polarizability: cuspless exponential with width 0.32 and norm 3.73
       Hard sphere radius: 2.57003 bohrs
       Positions in reference frame:
         [ +0.000000 +0.000000 +0.000000 ]
     Initializing site 'H'
       Electron density: proportional to exp(-r/0.34641)*erfc((r-0)/0.390882) with norm 0.587
       Charge density: gaussian nuclear width 0.377945 with net site charge -0.413
       Polarizability: cuspless exponential with width 0.39 and norm 3.3
       Positions in reference frame:
         [ +0.000000 -1.441945 +1.122523 ]
         [ +0.000000 +1.441945 +1.122523 ]
     Net charge: 0   dipole magnitude: 0.927204
     Initializing spherical shell mfKernel with radius 2.61727 Bohr
     deltaS corrections:
       site 'O': -7.54299
       site 'H': -6.83917
   Initializing fluid molecule 'Na+'
     Initializing site 'Na'
       Electron density: proportional to exp(-r/0.19682)*erfc((r-0.71491)/0.41314) with norm 8.1383
       Charge density: gaussian nuclear width 0.365347 with net site charge -1
       Hard sphere radius: 1.86327 bohrs
       Positions in reference frame:
         [ +0.000000 +0.000000 +0.000000 ]
     Net charge: -1   dipole magnitude: 0
     Initializing gaussian mfKernel with width: 1.55004 Bohr
     deltaS corrections:
       site 'Na': -22.3555
   Initializing fluid molecule 'F-'
     Initializing site 'F'
       Electron density: proportional to exp(-r/0.38886)*erfc((r-0)/0.438782) with norm 8
       Charge density: gaussian nuclear width 0.374796 with net site charge 1
       Hard sphere radius: 2.39995 bohrs
       Positions in reference frame:
         [ +0.000000 +0.000000 +0.000000 ]
     Net charge: 1   dipole magnitude: 0
     Initializing gaussian mfKernel with width: 1.59012 Bohr
     deltaS corrections:
       site 'F': -9.04335

Correction to mu due to finite nuclear width = -0.0103953
   Cavity determined by nc: 0.00142 and sigma: 0.707107
   Nonlocal vdW cavity from gaussian model electron density with norm = 8 and sigma = 0.993594 bohr
   Charge asymmetry in cavity with sensitivity pCavity = 36.5 e-bohr/Eh
   Electrostatic cavity expanded by eta = 1.46 bohrs
   Weighted density cavitation model constrained by Nbulk: 0.0049383 bohr^-3, Pvap: 3.14029 kPa, Rvdw: 2.61727 bohr and sigmaBulk: 4.62e-05 Eh/bohr^2 at T: 298 K.
   Weighted density dispersion model using vdW pair potentials with single solvent site with sqrtC6eff: 0.77 SI.
Reading fluid state from 'NbTe2.fluidState'


---- Citations for features of the code used in this run ----

   Software package:
      R. Sundararaman, K. Letchworth-Weaver, K.A. Schwarz, D. Gunceler, Y. Ozhabes and T.A. Arias, 'JDFTx: software for joint density-functional theory', SoftwareX 6, 278 (2017)

   gga-PBE exchange-correlation functional:
      J.P. Perdew, K. Burke and M. Ernzerhof, Phys. Rev. Lett. 77, 3865 (1996)

   Pseudopotentials:
      KF Garrity, JW Bennett, KM Rabe and D Vanderbilt, Comput. Mater. Sci. 81, 446 (2014)

   Truncated Coulomb potentials:
      R. Sundararaman and T.A. Arias, Phys. Rev. B 87, 165122 (2013)

   Van der Waals correction pair-potentials:
      S. Grimme, J. Comput. Chem. 27, 1787 (2006)

   Charge-asymmetric nonlocally-determined local-electric (CANDLE) solvation model:
      R. Sundararaman and W.A. Goddard III, J. Chem. Phys. 142, 064107 (2015)

   Grand-canonical (fixed-potential) DFT:
      R. Sundararaman, W. A. Goddard III and T. A. Arias, J. Chem. Phys. 146, 114104 (2017)

This list may not be complete. Please suggest additional citations or
report any other bugs at https://github.com/shankar1729/jdftx/issues

Initialization completed successfully at t[s]:     28.99

Shifting auxilliary hamiltonian by -0.000014 to set nElectrons=396.172651
	Linear fluid (dielectric constant: 78.4, screening length: 5.74355 Bohr) occupying 0.771422 of unit cell:	Completed after 4 iterations at t[s]:     37.27

-------- Electronic minimization -----------
Will mix electronic density at each iteration.
	FillingsUpdate:  mu: -0.171251800  nElectrons: 396.172651
	Linear fluid (dielectric constant: 78.4, screening length: 5.74355 Bohr) occupying 0.771422 of unit cell:	Completed after 0 iterations at t[s]:     45.19
	FillingsUpdate:  mu: -0.171251800  nElectrons: 396.183662
	Linear fluid (dielectric constant: 78.4, screening length: 5.74355 Bohr) occupying 0.771590 of unit cell:	Completed after 11 iterations at t[s]:    117.74
SCF: Cycle:  0   G: -1192.117648830431790   dG: +2.632e-04   |Residual|: 3.944e-03   |deigs|: 3.404e-08  t[s]:    119.14
	Linear fluid (dielectric constant: 78.4, screening length: 5.74355 Bohr) occupying 0.771423 of unit cell:	Completed after 11 iterations at t[s]:    121.11
	FillingsUpdate:  mu: -0.171251800  nElectrons: 396.121626
	Linear fluid (dielectric constant: 78.4, screening length: 5.74355 Bohr) occupying 0.770749 of unit cell:	Completed after 15 iterations at t[s]:    185.49
SCF: Cycle:  1   G: -1192.117687106892845   dG: -3.828e-05   |Residual|: 4.256e-03   |deigs|: 2.984e-04  t[s]:    187.08
	Linear fluid (dielectric constant: 78.4, screening length: 5.74355 Bohr) occupying 0.771413 of unit cell:	Completed after 15 iterations at t[s]:    189.66
	FillingsUpdate:  mu: -0.171251800  nElectrons: 396.205645
	Linear fluid (dielectric constant: 78.4, screening length: 5.74355 Bohr) occupying 0.771852 of unit cell:	Completed after 11 iterations at t[s]:    246.77
SCF: Cycle:  2   G: -1192.117886249002140   dG: -1.991e-04   |Residual|: 1.052e-03   |deigs|: 1.837e-04  t[s]:    248.55
	Linear fluid (dielectric constant: 78.4, screening length: 5.74355 Bohr) occupying 0.771417 of unit cell:	Completed after 12 iterations at t[s]:    250.74
	FillingsUpdate:  mu: -0.171251800  nElectrons: 396.171508
	Linear fluid (dielectric constant: 78.4, screening length: 5.74355 Bohr) occupying 0.771412 of unit cell:	Completed after 3 iterations at t[s]:    291.83
SCF: Cycle:  3   G: -1192.117913168952327   dG: -2.692e-05   |Residual|: 1.908e-04   |deigs|: 5.353e-05  t[s]:    293.45
	Linear fluid (dielectric constant: 78.4, screening length: 5.74355 Bohr) occupying 0.771416 of unit cell:	Completed after 4 iterations at t[s]:    294.84
	FillingsUpdate:  mu: -0.171251800  nElectrons: 396.171944
	Linear fluid (dielectric constant: 78.4, screening length: 5.74355 Bohr) occupying 0.771414 of unit cell:	Completed after 2 iterations at t[s]:    336.80
SCF: Cycle:  4   G: -1192.117913551283891   dG: -3.823e-07   |Residual|: 2.135e-04   |deigs|: 1.032e-05  t[s]:    337.96
	Linear fluid (dielectric constant: 78.4, screening length: 5.74355 Bohr) occupying 0.771417 of unit cell:	Completed after 2 iterations at t[s]:    338.91
	FillingsUpdate:  mu: -0.171251800  nElectrons: 396.174098
	Linear fluid (dielectric constant: 78.4, screening length: 5.74355 Bohr) occupying 0.771446 of unit cell:	Completed after 5 iterations at t[s]:    402.31
SCF: Cycle:  5   G: -1192.117909827872609   dG: +3.723e-06   |Residual|: 4.343e-04   |deigs|: 2.182e-05  t[s]:    403.94
	Linear fluid (dielectric constant: 78.4, screening length: 5.74355 Bohr) occupying 0.771417 of unit cell:	Completed after 4 iterations at t[s]:    405.25
	FillingsUpdate:  mu: -0.171251800  nElectrons: 396.170323
	Linear fluid (dielectric constant: 78.4, screening length: 5.74355 Bohr) occupying 0.771393 of unit cell:	Completed after 3 iterations at t[s]:    454.13
SCF: Cycle:  6   G: -1192.117913327403585   dG: -3.500e-06   |Residual|: 1.644e-04   |deigs|: 2.126e-05  t[s]:    455.53
	Linear fluid (dielectric constant: 78.4, screening length: 5.74355 Bohr) occupying 0.771417 of unit cell:	Completed after 2 iterations at t[s]:    456.60
	FillingsUpdate:  mu: -0.171251800  nElectrons: 396.172642
	Linear fluid (dielectric constant: 78.4, screening length: 5.74355 Bohr) occupying 0.771426 of unit cell:	Completed after 3 iterations at t[s]:    504.88
SCF: Cycle:  7   G: -1192.117913006562503   dG: +3.208e-07   |Residual|: 1.912e-04   |deigs|: 1.175e-05  t[s]:    506.20
	Linear fluid (dielectric constant: 78.4, screening length: 5.74355 Bohr) occupying 0.771417 of unit cell:	Completed after 3 iterations at t[s]:    507.24
	FillingsUpdate:  mu: -0.171251800  nElectrons: 396.170018
	Linear fluid (dielectric constant: 78.4, screening length: 5.74355 Bohr) occupying 0.771390 of unit cell:	Completed after 3 iterations at t[s]:    567.78
SCF: Cycle:  8   G: -1192.117913276868876   dG: -2.703e-07   |Residual|: 1.810e-04   |deigs|: 1.240e-05  t[s]:    569.10
	Linear fluid (dielectric constant: 78.4, screening length: 5.74355 Bohr) occupying 0.771417 of unit cell:	Completed after 3 iterations at t[s]:    570.26
	FillingsUpdate:  mu: -0.171251800  nElectrons: 396.172971
	Linear fluid (dielectric constant: 78.4, screening length: 5.74355 Bohr) occupying 0.771430 of unit cell:	Completed after 4 iterations at t[s]:    631.72
SCF: Cycle:  9   G: -1192.117913100039914   dG: +1.768e-07   |Residual|: 1.793e-04   |deigs|: 1.202e-05  t[s]:    633.09
	Linear fluid (dielectric constant: 78.4, screening length: 5.74355 Bohr) occupying 0.771417 of unit cell:	Completed after 3 iterations at t[s]:    634.17
	FillingsUpdate:  mu: -0.171251800  nElectrons: 396.172012
	Linear fluid (dielectric constant: 78.4, screening length: 5.74355 Bohr) occupying 0.771417 of unit cell:	Completed after 3 iterations at t[s]:    698.91
SCF: Cycle: 10   G: -1192.117913581841094   dG: -4.818e-07   |Residual|: 1.312e-04   |deigs|: 8.251e-06  t[s]:    700.46
	Linear fluid (dielectric constant: 78.4, screening length: 5.74355 Bohr) occupying 0.771418 of unit cell:	Completed after 2 iterations at t[s]:    701.60
	FillingsUpdate:  mu: -0.171251800  nElectrons: 396.169184
	Linear fluid (dielectric constant: 78.4, screening length: 5.74355 Bohr) occupying 0.771380 of unit cell:	Completed after 3 iterations at t[s]:    763.73
SCF: Cycle: 11   G: -1192.117913403412786   dG: +1.784e-07   |Residual|: 1.466e-04   |deigs|: 9.355e-06  t[s]:    765.09
	Linear fluid (dielectric constant: 78.4, screening length: 5.74355 Bohr) occupying 0.771419 of unit cell:	Completed after 3 iterations at t[s]:    766.18
	FillingsUpdate:  mu: -0.171251800  nElectrons: 396.177142
	Linear fluid (dielectric constant: 78.4, screening length: 5.74355 Bohr) occupying 0.771484 of unit cell:	Completed after 4 iterations at t[s]:    828.64
SCF: Cycle: 12   G: -1192.117911282133946   dG: +2.121e-06   |Residual|: 3.549e-04   |deigs|: 1.833e-05  t[s]:    830.02
	Linear fluid (dielectric constant: 78.4, screening length: 5.74355 Bohr) occupying 0.771419 of unit cell:	Completed after 3 iterations at t[s]:    831.09
	FillingsUpdate:  mu: -0.171251800  nElectrons: 396.165951
	Linear fluid (dielectric constant: 78.4, screening length: 5.74355 Bohr) occupying 0.771339 of unit cell:	Completed after 4 iterations at t[s]:    880.28
SCF: Cycle: 13   G: -1192.117912604249796   dG: -1.322e-06   |Residual|: 2.182e-04   |deigs|: 1.986e-05  t[s]:    881.51
	Linear fluid (dielectric constant: 78.4, screening length: 5.74355 Bohr) occupying 0.771419 of unit cell:	Completed after 4 iterations at t[s]:    882.70
	FillingsUpdate:  mu: -0.171251800  nElectrons: 396.181112
	Linear fluid (dielectric constant: 78.4, screening length: 5.74355 Bohr) occupying 0.771535 of unit cell:	Completed after 6 iterations at t[s]:    932.23
SCF: Cycle: 14   G: -1192.117910885578567   dG: +1.719e-06   |Residual|: 3.363e-04   |deigs|: 2.406e-05  t[s]:    933.80
	Linear fluid (dielectric constant: 78.4, screening length: 5.74355 Bohr) occupying 0.771419 of unit cell:	Completed after 3 iterations at t[s]:    934.93
	FillingsUpdate:  mu: -0.171251800  nElectrons: 396.141191
[...]
SCF: Cycle: 81   G: -1192.117910799155652   dG: -2.483e-05   |Residual|: 3.756e-04   |deigs|: 5.420e-05  t[s]:   4229.48
	Linear fluid (dielectric constant: 78.4, screening length: 5.74355 Bohr) occupying 0.771421 of unit cell:	Completed after 3 iterations at t[s]:   4230.59
	FillingsUpdate:  mu: -0.171251800  nElectrons: 396.171158
	Linear fluid (dielectric constant: 78.4, screening length: 5.74355 Bohr) occupying 0.771405 of unit cell:	Completed after 2 iterations at t[s]:   4272.98
SCF: Cycle: 82   G: -1192.117913873026737   dG: -3.074e-06   |Residual|: 7.184e-05   |deigs|: 1.210e-05  t[s]:   4274.43
	Linear fluid (dielectric constant: 78.4, screening length: 5.74355 Bohr) occupying 0.771421 of unit cell:	Completed after 1 iterations at t[s]:   4275.34
	FillingsUpdate:  mu: -0.171251800  nElectrons: 396.186568
	Linear fluid (dielectric constant: 78.4, screening length: 5.74355 Bohr) occupying 0.771604 of unit cell:	Completed after 9 iterations at t[s]:   4318.80
SCF: Cycle: 83   G: -1192.117908941118230   dG: +4.932e-06   |Residual|: 3.798e-04   |deigs|: 2.376e-05  t[s]:   4320.57
	Linear fluid (dielectric constant: 78.4, screening length: 5.74355 Bohr) occupying 0.771421 of unit cell:	Completed after 9 iterations at t[s]:   4322.43
	FillingsUpdate:  mu: -0.171251800  nElectrons: 396.153996
	Linear fluid (dielectric constant: 78.4, screening length: 5.74355 Bohr) occupying 0.771184 of unit cell:	Completed after 9 iterations at t[s]:   4364.91
SCF: Cycle: 84   G: -1192.117908106584764   dG: +8.345e-07   |Residual|: 4.041e-04   |deigs|: 4.956e-05  t[s]:   4366.63
	Linear fluid (dielectric constant: 78.4, screening length: 5.74355 Bohr) occupying 0.771421 of unit cell:	Completed after 10 iterations at t[s]:   4368.73
	FillingsUpdate:  mu: -0.171251800  nElectrons: 396.174426
	Linear fluid (dielectric constant: 78.4, screening length: 5.74355 Bohr) occupying 0.771451 of unit cell:	Completed after 6 iterations at t[s]:   4419.32
SCF: Cycle: 85   G: -1192.117910820845054   dG: -2.714e-06   |Residual|: 3.850e-04   |deigs|: 3.444e-05  t[s]:   4420.83
	Linear fluid (dielectric constant: 78.4, screening length: 5.74355 Bohr) occupying 0.771421 of unit cell:	Completed after 4 iterations at t[s]:   4422.10
	FillingsUpdate:  mu: -0.171251800  nElectrons: 396.170181
	Linear fluid (dielectric constant: 78.4, screening length: 5.74355 Bohr) occupying 0.771393 of unit cell:	Completed after 2 iterations at t[s]:   4465.42
SCF: Cycle: 86   G: -1192.117913765168396   dG: -2.944e-06   |Residual|: 1.025e-04   |deigs|: 1.384e-05  t[s]:   4466.73
	Linear fluid (dielectric constant: 78.4, screening length: 5.74355 Bohr) occupying 0.771421 of unit cell:	Completed after 2 iterations at t[s]:   4467.69
	FillingsUpdate:  mu: -0.171251800  nElectrons: 396.180821
	Linear fluid (dielectric constant: 78.4, screening length: 5.74355 Bohr) occupying 0.771531 of unit cell:	Completed after 7 iterations at t[s]:   4510.92
SCF: Cycle: 87   G: -1192.117911919407334   dG: +1.846e-06   |Residual|: 2.474e-04   |deigs|: 1.638e-05  t[s]:   4512.31
	Linear fluid (dielectric constant: 78.4, screening length: 5.74355 Bohr) occupying 0.771421 of unit cell:	Completed after 6 iterations at t[s]:   4513.84
	FillingsUpdate:  mu: -0.171251800  nElectrons: 396.146327
	Linear fluid (dielectric constant: 78.4, screening length: 5.74355 Bohr) occupying 0.771086 of unit cell:	Completed after 11 iterations at t[s]:   4556.73
SCF: Cycle: 88   G: -1192.117900350184982   dG: +1.157e-05   |Residual|: 6.145e-04   |deigs|: 5.212e-05  t[s]:   4558.27
	Linear fluid (dielectric constant: 78.4, screening length: 5.74355 Bohr) occupying 0.771421 of unit cell:	Completed after 11 iterations at t[s]:   4560.25
	FillingsUpdate:  mu: -0.171251800  nElectrons: 396.174633
	Linear fluid (dielectric constant: 78.4, screening length: 5.74355 Bohr) occupying 0.771454 of unit cell:	Completed after 6 iterations at t[s]:   4601.51
SCF: Cycle: 89   G: -1192.117910267767911   dG: -9.918e-06   |Residual|: 4.121e-04   |deigs|: 4.389e-05  t[s]:   4603.01
	Linear fluid (dielectric constant: 78.4, screening length: 5.74355 Bohr) occupying 0.771421 of unit cell:	Completed after 4 iterations at t[s]:   4604.30
	FillingsUpdate:  mu: -0.171251800  nElectrons: 396.169197
	Linear fluid (dielectric constant: 78.4, screening length: 5.74355 Bohr) occupying 0.771380 of unit cell:	Completed after 2 iterations at t[s]:   4647.10
SCF: Cycle: 90   G: -1192.117913691835838   dG: -3.424e-06   |Residual|: 1.134e-04   |deigs|: 1.559e-05  t[s]:   4648.61
	Linear fluid (dielectric constant: 78.4, screening length: 5.74355 Bohr) occupying 0.771421 of unit cell:	Completed after 2 iterations at t[s]:   4649.76
	FillingsUpdate:  mu: -0.171251800  nElectrons: 396.182766
	Linear fluid (dielectric constant: 78.4, screening length: 5.74355 Bohr) occupying 0.771557 of unit cell:	Completed after 8 iterations at t[s]:   4691.44
SCF: Cycle: 91   G: -1192.117910846940504   dG: +2.845e-06   |Residual|: 3.030e-04   |deigs|: 2.002e-05  t[s]:   4692.78
	Linear fluid (dielectric constant: 78.4, screening length: 5.74355 Bohr) occupying 0.771421 of unit cell:	Completed after 6 iterations at t[s]:   4694.23
	FillingsUpdate:  mu: -0.171251800  nElectrons: 396.142613
	Linear fluid (dielectric constant: 78.4, screening length: 5.74355 Bohr) occupying 0.771038 of unit cell:	Completed after 12 iterations at t[s]:   4744.79
SCF: Cycle: 92   G: -1192.117896246427563   dG: +1.460e-05   |Residual|: 7.046e-04   |deigs|: 6.049e-05  t[s]:   4746.39
	Linear fluid (dielectric constant: 78.4, screening length: 5.74355 Bohr) occupying 0.771421 of unit cell:	Completed after 12 iterations at t[s]:   4748.62
	FillingsUpdate:  mu: -0.171251800  nElectrons: 396.171673
	Linear fluid (dielectric constant: 78.4, screening length: 5.74355 Bohr) occupying 0.771415 of unit cell:	Completed after 6 iterations at t[s]:   4792.19
SCF: Cycle: 93   G: -1192.117911029486550   dG: -1.478e-05   |Residual|: 3.643e-04   |deigs|: 4.454e-05  t[s]:   4793.86
	Linear fluid (dielectric constant: 78.4, screening length: 5.74355 Bohr) occupying 0.771421 of unit cell:	Completed after 4 iterations at t[s]:   4795.28
	FillingsUpdate:  mu: -0.171251800  nElectrons: 396.171535
	Linear fluid (dielectric constant: 78.4, screening length: 5.74355 Bohr) occupying 0.771411 of unit cell:	Completed after 2 iterations at t[s]:   4839.81
SCF: Cycle: 94   G: -1192.117913818985926   dG: -2.789e-06   |Residual|: 9.107e-05   |deigs|: 1.008e-05  t[s]:   4841.61
	Linear fluid (dielectric constant: 78.4, screening length: 5.74355 Bohr) occupying 0.771421 of unit cell:	Completed after 0 iterations at t[s]:   4842.53
	FillingsUpdate:  mu: -0.171251800  nElectrons: 396.193944
	Linear fluid (dielectric constant: 78.4, screening length: 5.74355 Bohr) occupying 0.771696 of unit cell:	Completed after 11 iterations at t[s]:   4892.93
SCF: Cycle: 95   G: -1192.117893682793920   dG: +2.014e-05   |Residual|: 8.833e-04   |deigs|: 4.668e-05  t[s]:   4894.39
	Linear fluid (dielectric constant: 78.4, screening length: 5.74355 Bohr) occupying 0.771421 of unit cell:	Completed after 11 iterations at t[s]:   4896.47
	FillingsUpdate:  mu: -0.171251800  nElectrons: 396.146310
	Linear fluid (dielectric constant: 78.4, screening length: 5.74355 Bohr) occupying 0.771084 of unit cell:	Completed after 11 iterations at t[s]:   4938.72
SCF: Cycle: 96   G: -1192.117900757682492   dG: -7.075e-06   |Residual|: 5.934e-04   |deigs|: 7.696e-05  t[s]:   4940.09
	Linear fluid (dielectric constant: 78.4, screening length: 5.74355 Bohr) occupying 0.771421 of unit cell:	Completed after 11 iterations at t[s]:   4942.03
	FillingsUpdate:  mu: -0.171251800  nElectrons: 396.169348
	Linear fluid (dielectric constant: 78.4, screening length: 5.74355 Bohr) occupying 0.771384 of unit cell:	Completed after 5 iterations at t[s]:   4984.23
SCF: Cycle: 97   G: -1192.117912371641978   dG: -1.161e-05   |Residual|: 2.716e-04   |deigs|: 3.601e-05  t[s]:   4985.58
	Linear fluid (dielectric constant: 78.4, screening length: 5.74355 Bohr) occupying 0.771421 of unit cell:	Completed after 3 iterations at t[s]:   4986.71
	FillingsUpdate:  mu: -0.171251800  nElectrons: 396.176320
	Linear fluid (dielectric constant: 78.4, screening length: 5.74355 Bohr) occupying 0.771473 of unit cell:	Completed after 3 iterations at t[s]:   5028.62
SCF: Cycle: 98   G: -1192.117913697079075   dG: -1.325e-06   |Residual|: 8.990e-05   |deigs|: 1.258e-05  t[s]:   5030.03
	Linear fluid (dielectric constant: 78.4, screening length: 5.74355 Bohr) occupying 0.771421 of unit cell:	Completed after 1 iterations at t[s]:   5031.02
	FillingsUpdate:  mu: -0.171251800  nElectrons: 396.152574
	Linear fluid (dielectric constant: 78.4, screening length: 5.74355 Bohr) occupying 0.771166 of unit cell:	Completed after 10 iterations at t[s]:   5073.02
SCF: Cycle: 99   G: -1192.117905141579286   dG: +8.555e-06   |Residual|: 5.008e-04   |deigs|: 3.445e-05  t[s]:   5074.94
	Linear fluid (dielectric constant: 78.4, screening length: 5.74355 Bohr) occupying 0.771421 of unit cell:	Completed after 10 iterations at t[s]:   5077.03
	FillingsUpdate:  mu: -0.171251800  nElectrons: 396.173720
	Linear fluid (dielectric constant: 78.4, screening length: 5.74355 Bohr) occupying 0.771441 of unit cell:	Completed after 4 iterations at t[s]:   5118.72
SCF: Cycle: 100   G: -1192.117912199070815   dG: -7.057e-06   |Residual|: 3.014e-04   |deigs|: 3.229e-05  t[s]:   5120.65
	Linear fluid (dielectric constant: 78.4, screening length: 5.74355 Bohr) occupying 0.771421 of unit cell:	Completed after 4 iterations at t[s]:   5122.07
	FillingsUpdate:  mu: -0.171251800  nElectrons: 396.171841
	Linear fluid (dielectric constant: 78.4, screening length: 5.74355 Bohr) occupying 0.771415 of unit cell:	Completed after 0 iterations at t[s]:   5164.13
SCF: Cycle: 101   G: -1192.117913949816511   dG: -1.751e-06   |Residual|: 6.650e-05   |deigs|: 1.007e-05  t[s]:   5165.74
	Linear fluid (dielectric constant: 78.4, screening length: 5.74355 Bohr) occupying 0.771421 of unit cell:	Completed after 0 iterations at t[s]:   5166.46
	FillingsUpdate:  mu: -0.171251800  nElectrons: 396.171844
	Linear fluid (dielectric constant: 78.4, screening length: 5.74355 Bohr) occupying 0.771415 of unit cell:	Completed after 0 iterations at t[s]:   5207.34
SCF: Cycle: 102   G: -1192.117913950698266   dG: -8.818e-10   |Residual|: 6.491e-05   |deigs|: 3.116e-07  t[s]:   5208.68
	Linear fluid (dielectric constant: 78.4, screening length: 5.74355 Bohr) occupying 0.771421 of unit cell:	Completed after 0 iterations at t[s]:   5209.35
	FillingsUpdate:  mu: -0.171251800  nElectrons: 396.171844
	Linear fluid (dielectric constant: 78.4, screening length: 5.74355 Bohr) occupying 0.771415 of unit cell:	Completed after 0 iterations at t[s]:   5270.64
SCF: Cycle: 103   G: -1192.117913950554794   dG: +1.435e-10   |Residual|: 6.352e-05   |deigs|: 1.602e-07  t[s]:   5271.98
	Linear fluid (dielectric constant: 78.4, screening length: 5.74355 Bohr) occupying 0.771421 of unit cell:	Completed after 0 iterations at t[s]:   5272.62
	FillingsUpdate:  mu: -0.171251800  nElectrons: 396.171845
	Linear fluid (dielectric constant: 78.4, screening length: 5.74355 Bohr) occupying 0.771415 of unit cell:	Completed after 0 iterations at t[s]:   5326.54
SCF: Cycle: 104   G: -1192.117913951142782   dG: -5.880e-10   |Residual|: 6.308e-05   |deigs|: 5.373e-07  t[s]:   5327.88
	Linear fluid (dielectric constant: 78.4, screening length: 5.74355 Bohr) occupying 0.771421 of unit cell:	Completed after 0 iterations at t[s]:   5328.52
	FillingsUpdate:  mu: -0.171251800  nElectrons: 396.171841
	Linear fluid (dielectric constant: 78.4, screening length: 5.74355 Bohr) occupying 0.771415 of unit cell:	Completed after 0 iterations at t[s]:   5379.35
SCF: Cycle: 105   G: -1192.117913952386743   dG: -1.244e-09   |Residual|: 6.248e-05   |deigs|: 1.280e-06  t[s]:   5380.98
SCF: Converged (|Delta E|<1.000000e-08 for 2 iters).


# Ionic positions in lattice coordinates:
ion Ta   0.169791276607906   0.082055807604323   0.499913576382333 0
ion Ta   0.412267932464502   0.082055807604323   0.499913576382333 0
ion Ta   0.667959011771396   0.083977804917612   0.500074524485748 0
ion Ta   0.916022194614302   0.083977804917612   0.500074524485748 0
ion Ta   0.166963501837115   0.333480049950472   0.498766600988603 0
ion Ta   0.403371487490027   0.306739573511968   0.496330623156383 0
ion Ta   0.666519949581442   0.333480049950472   0.498766600988603 0
ion Ta   0.916022194614302   0.332040987760518   0.500074524485748 0
ion Ta   0.169791276607906   0.587732067067412   0.499913576382333 0
ion Ta   0.403371487490027   0.596628512041887   0.496330623156383 0
ion Ta   0.693260426019946   0.596628512041887   0.496330623156383 0
ion Ta   0.917944191927591   0.587732067067412   0.499913576382333 0
ion Ta   0.166667800333333   0.833332199198581   0.500047138345009 0
ion Ta   0.412267932464502   0.830208722924008   0.499913576382333 0
ion Ta   0.666519949581442   0.833036497694799   0.498766600988603 0
ion Ta   0.917944191927591   0.830208722924008   0.499913576382333 0
ion S   0.000251282046618  -0.000251282514703   0.584934305931463 0
ion S   0.000246249456280  -0.000246249924365   0.415156925573465 0
ion S   0.249222995385740  -0.001557410696605   0.587526726124045 0
ion S   0.248785618898109  -0.002432163671867   0.412396199281674 0
ion S   0.499500836906764  -0.000251282514703   0.584934305931463 0
ion S   0.499510902087440  -0.000246249924365   0.415156925573465 0
ion S   0.749215124079204  -0.001573153309678   0.586160391247868 0
ion S   0.749882368361621  -0.000238664744843   0.413368097886788 0
ion S   0.001573152841592   0.250784875452710   0.586160391247868 0
ion S   0.000238664276757   0.250117631170293   0.413368097886788 0
ion S   0.250375802297293   0.252049925695406   0.586524799934160 0
ion S   0.245376936856104   0.246557971499955   0.410001866947740 0
ion S   0.501677524866198   0.252049925695406   0.586524799934160 0
ion S   0.501184436111936   0.246557971499955   0.410001866947740 0
ion S   0.749215124079204   0.250784875452710   0.586160391247868 0
ion S   0.749882368361621   0.250117631170293   0.413368097886788 0
ion S   0.000251282046618   0.500499162625150   0.584934305931463 0
ion S   0.000246249456280   0.500489097444474   0.415156925573465 0
ion S   0.250375802297293   0.498322474665716   0.586524799934160 0
ion S   0.245376936856104   0.498815563419978   0.410001866947740 0
ion S   0.500001133666667   0.499998865865248   0.450847827041556 0
ion S   0.747950073836508   0.498322474665716   0.586524799934160 0
ion S   0.753442028031959   0.498815563419978   0.410001866947740 0
ion S   0.001557410228519   0.750777004146174   0.587526726124045 0
ion S   0.002432163203781   0.751214380633805   0.412396199281674 0
ion S   0.249222995385740   0.750777004146174   0.587526726124045 0
ion S   0.248785618898109   0.751214380633805   0.412396199281674 0
ion S   0.501677524866198   0.749624197234621   0.586524799934160 0
ion S   0.501184436111936   0.754623062675810   0.410001866947740 0
ion S   0.747950073836508   0.749624197234621   0.586524799934160 0
ion S   0.753442028031959   0.754623062675810   0.410001866947740 0


# Forces in Lattice coordinates:
force Ta  -0.141040188783421   0.081527395140856  -0.011679289579057 0
force Ta   0.141040188783417  -0.059512793642559  -0.011679289579057 0
force Ta  -0.057917173757757  -0.000000000000000  -0.012212275497599 0
force Ta   0.057917173757757  -0.057917173757758  -0.012212275497602 0
force Ta   0.034818799423650   0.000000000000000  -0.000431831786512 0
force Ta   0.000000000000000   0.133814834045474   0.019271206675170 0
force Ta  -0.034818799423650   0.034818799423650  -0.000431831786511 0
force Ta   0.000000000000000   0.057917173757758  -0.012212275497602 0
force Ta  -0.059512793642559  -0.081527395140863  -0.011679289579057 0
force Ta   0.133814834045474  -0.133814834045473   0.019271206675170 0
force Ta  -0.133814834045473   0.000000000000000   0.019271206675170 0
force Ta   0.059512793642559  -0.141040188783417  -0.011679289579061 0
force Ta   0.000000000000000   0.000000000000000   0.007153659768757 0
force Ta   0.081527395140860   0.059512793642559  -0.011679289579057 0
force Ta   0.000000000000000  -0.034818799423650  -0.000431831786512 0
force Ta  -0.081527395140853   0.141040188783417  -0.011679289579057 0
force S   0.020607580815316  -0.020607580815316   0.047190201402404 0
force S   0.023528663044654  -0.023528663044654  -0.033973818959671 0
force S   0.000000000000000   0.001166852481513   0.007154597715041 0
force S   0.000000000000000   0.002672604471554  -0.004489256049821 0
force S  -0.020607580815316  -0.000000000000000   0.047190201402517 0
force S  -0.023528663044655  -0.000000000000000  -0.033973818959671 0
force S   0.000000000000000   0.014099438928564  -0.007028230876003 0
force S   0.000000000000000   0.022976417555226   0.000921246159813 0
force S  -0.014099438928564  -0.000000000000000  -0.007028230876003 0
force S  -0.022976417555226   0.000000000000000   0.000921246159812 0
force S  -0.002429532950395  -0.019364804415037   0.036262930146740 0
force S  -0.003154757706052  -0.016221150898457  -0.029641216091126 0
force S   0.002429532950395  -0.021794337365433   0.036262930146740 0
force S   0.003154757706053  -0.019375908604514  -0.029641216091240 0
force S   0.014099438928564  -0.014099438928564  -0.007028230876116 0
force S   0.022976417555226  -0.022976417555226   0.000921246159699 0
force S   0.000000000000000   0.020607580815316   0.047190201402517 0
force S   0.000000000000000   0.023528663044654  -0.033973818959557 0
force S  -0.021794337365429   0.019364804415033   0.036262930146740 0
force S  -0.019375908604512   0.016221150898461  -0.029641216091240 0
force S   0.000000000000000  -0.000000000000000  -0.039842009358994 0
force S   0.021794337365429  -0.002429532950395   0.036262930146740 0
force S   0.019375908604512  -0.003154757706052  -0.029641216091126 0
force S  -0.001166852481514  -0.000000000000000   0.007154597715040 0
force S  -0.002672604471554   0.000000000000000  -0.004489256049707 0
force S   0.001166852481514  -0.001166852481513   0.007154597715040 0
force S   0.002672604471554  -0.002672604471554  -0.004489256049708 0
force S  -0.019364804415030   0.021794337365426   0.036262930146740 0
force S  -0.016221150898461   0.019375908604512  -0.029641216091354 0
force S   0.019364804415030   0.002429532950395   0.036262930146740 0
force S   0.016221150898461   0.003154757706052  -0.029641216091354 0

# Energy components:
   A_diel =       -0.3211805178318849
   Eewald =     7066.9738310152897611
       EH =     8140.2098741285781216
     Eloc =   -16467.2360595611971803
      Enl =     -224.8253492233599786
      Exc =     -469.7668476088063017
 Exc_core =      250.8147355274028882
       KE =      444.2762998797295495
  MuShift =       -0.0225768735070932
-------------------------------------
     Etot =    -1259.8972732337019806
       TS =        0.0657816735411188
-------------------------------------
        F =    -1259.9630549072430767
      muN =      -67.8451409548564328
-------------------------------------
        G =    -1192.1179139523867434

IonicMinimize: Iter:   0  G: -1192.117913952386743  |grad|_K:  0.000e+00  t[s]:   5392.95
IonicMinimize: Converged (|grad|_K<1.000000e-04).

#--- Lowdin population analysis ---
# oxidation-state Ta -0.431 -0.431 -0.429 -0.429 -0.441 -0.351 -0.441 -0.429 -0.431 -0.351 -0.351 -0.431 -0.456 -0.431 -0.441 -0.431
# oxidation-state S +0.172 +0.178 +0.211 +0.214 +0.172 +0.178 +0.191 +0.194 +0.191 +0.194 +0.201 +0.212 +0.201 +0.212 +0.191 +0.194 +0.172 +0.178 +0.201 +0.212 +0.319 +0.201 +0.212 +0.211 +0.214 +0.211 +0.214 +0.201 +0.212 +0.201 +0.212


Dumping 'NbTe2.fillings' ... done
Dumping 'NbTe2.wfns' ... done
Dumping 'NbTe2.fluidState' ... done
Dumping 'NbTe2.eigenvals' ... done
End date and time: Sun Jul  5 14:57:05 2020  (Duration: 0-1:30:03.93)
Done!
