
*************** JDFTx 1.5.0  ***************

Start date and time: Thu Jul 16 11:16:52 2020
Executable jdftx_gpu with command-line: -i Charged.in -o Charged.out
Running on hosts (process indices):  amax (0-5)
Divided in process groups (process indices):  0 (0)  1 (1)  2 (2)  3 (3)  4 (4)  5 (5)
gpuInit: Found compatible cuda device 0 'Tesla K80'
gpuInit: Found compatible cuda device 1 'Tesla K80'
gpuInit: Found compatible cuda device 2 'Tesla K80'
gpuInit: Found compatible cuda device 3 'Tesla K80'
gpuInit: Found compatible cuda device 4 'Tesla K80'
gpuInit: Found compatible cuda device 5 'Tesla K80'
gpuInit: Selected device 0
Resource initialization completed at t[s]:     19.44
Run totals: 6 processes, 24 threads, 6 GPUs


Input parsed successfully to the following command list (including defaults):

basis kpoint-dependent
cache-projectors no
coords-type Lattice
core-overlap-check none
coulomb-interaction Slab 001
coulomb-truncation-embed 0 0 0.5
davidson-band-ratio 1.1
dump End State
dump-name NbTe2.$VAR
elec-cutoff 20 100
elec-eigen-algo Davidson
elec-ex-corr gga-PBE
elec-initial-magnetization 25.000000 no
elec-smearing Gauss 0.0073499
electronic-minimize  \
	dirUpdateScheme      HestenesStiefel \
	linminMethod         DirUpdateRecommended \
	nIterations          500 \
	history              15 \
	knormThreshold       0 \
	energyDiffThreshold  1e-08 \
	nEnergyDiff          2 \
	alphaTstart          1 \
	alphaTmin            1e-10 \
	updateTestStepSize   yes \
	alphaTreduceFactor   0.1 \
	alphaTincreaseFactor 3 \
	nAlphaAdjustMax      3 \
	wolfeEnergy          0.0001 \
	wolfeGradient        0.9 \
	fdTest               no
exchange-regularization WignerSeitzTruncated
fluid LinearPCM 298.000000 1.013250
fluid-anion F- 1 MeanFieldLJ \
	epsBulk 1 \
	pMol 0 \
	epsInf 1 \
	Pvap 0 \
	sigmaBulk 0 \
	Rvdw 2.24877 \
	Res 0 \
	tauNuc 343133
fluid-cation Na+ 1 MeanFieldLJ \
	epsBulk 1 \
	pMol 0 \
	epsInf 1 \
	Pvap 0 \
	sigmaBulk 0 \
	Rvdw 2.19208 \
	Res 0 \
	tauNuc 343133
fluid-ex-corr lda-TF lda-PZ
fluid-gummel-loop 10 1.000000e-05
fluid-minimize  \
	dirUpdateScheme      PolakRibiere \
	linminMethod         DirUpdateRecommended \
	nIterations          400 \
	history              15 \
	knormThreshold       1e-11 \
	energyDiffThreshold  0 \
	nEnergyDiff          2 \
	alphaTstart          1 \
	alphaTmin            1e-10 \
	updateTestStepSize   yes \
	alphaTreduceFactor   0.1 \
	alphaTincreaseFactor 3 \
	nAlphaAdjustMax      6 \
	wolfeEnergy          0.0001 \
	wolfeGradient        0.9 \
	fdTest               no
fluid-solvent H2O 55.338 ScalarEOS \
	epsBulk 78.4 \
	pMol 0.92466 \
	epsInf 1.77 \
	Pvap 1.06736e-10 \
	sigmaBulk 4.62e-05 \
	Rvdw 2.61727 \
	Res 1.42 \
	tauNuc 343133 \
	poleEl 15 7 1
forces-output-coords Positions
initial-state NbTe2.$VAR
ion Mn   0.332661098318016   0.332660915318011   0.327704653604837 0
ion Mn   0.834679241363974   0.332660915318011   0.327704653604837 0
ion Mn   0.332661114318017   0.834679137363973   0.327704653604837 0
ion Mn   0.833333848000002   0.833333670000002   0.327754041096113 0
ion In   0.000318826934383   0.000318826934383   0.487476036508009 0
ion In   0.499362230131231   0.000318826934383   0.487476036508009 0
ion In   0.000318839934381   0.499362199131232   0.487476036508009 0
ion In   0.499999926000001   0.499999852999998   0.487684006050737 0
ion In   0.166666249999999   0.166666354999997   0.656308120993751 0
ion In   0.638180730367907   0.223637394264181   0.656130824787578 0
ion In   0.223637313264185   0.638180839367905   0.656130824787578 0
ion In   0.638180754367909   0.638180839367905   0.656130824787578 0
ion Se  -0.000189401670192  -0.000189401670192   0.297025826627145 0
ion Se   0.500379268340383  -0.000189401670192   0.297025826627145 0
ion Se  -0.000189404670188   0.500379327340384   0.297025826627145 0
ion Se   0.500000462000003   0.500000524000001   0.298753830562901 0
ion Se  -0.004544190784037  -0.004544190784037   0.694292336790332 0
ion Se   0.509088090568075  -0.004544190784037   0.694292336790332 0
ion Se  -0.004544197784034   0.509088100568076   0.694292336790332 0
ion Se   0.332667637141020   0.332667656141018   0.429556840502060 0
ion Se   0.834664508717959   0.332667656141018   0.429556840502060 0
ion Se   0.332667646141017   0.834664447717958   0.429556840502060 0
ion Se   0.833333269999997   0.833333199999998   0.429622387155963 0
ion Se   0.166666606000000   0.166666573000001   0.549393649316765 0
ion Se   0.666494390274186   0.167011004451629   0.548220787121290 0
ion Se   0.167011070451627   0.666494344274189   0.548220787121290 0
ion Se   0.666494423274185   0.666494344274189   0.548220787121290 0
ion-species GBRV/$ID_pbe.uspp
ion-width Ecut
ionic-minimize  \
	dirUpdateScheme      L-BFGS \
	linminMethod         DirUpdateRecommended \
	nIterations          0 \
	history              15 \
	knormThreshold       0.0001 \
	energyDiffThreshold  1e-06 \
	nEnergyDiff          2 \
	alphaTstart          1 \
	alphaTmin            1e-10 \
	updateTestStepSize   yes \
	alphaTreduceFactor   0.1 \
	alphaTincreaseFactor 3 \
	nAlphaAdjustMax      3 \
	wolfeEnergy          0.0001 \
	wolfeGradient        0.9 \
	fdTest               no
kpoint   0.000000000000   0.000000000000   0.000000000000  1.00000000000000
kpoint-folding 5 5 1 
latt-move-scale 1 1 1
latt-scale 1 1 1 
lattice Triclinic 15.5003 15.5004 46.8823 90 90 60
lattice-minimize  \
	dirUpdateScheme      L-BFGS \
	linminMethod         DirUpdateRecommended \
	nIterations          0 \
	history              15 \
	knormThreshold       0 \
	energyDiffThreshold  1e-06 \
	nEnergyDiff          2 \
	alphaTstart          1 \
	alphaTmin            1e-10 \
	updateTestStepSize   yes \
	alphaTreduceFactor   0.1 \
	alphaTincreaseFactor 3 \
	nAlphaAdjustMax      3 \
	wolfeEnergy          0.0001 \
	wolfeGradient        0.9 \
	fdTest               no
lcao-params -1 1e-06 0.0073499
pcm-variant CANDLE
spintype z-spin
subspace-rotation-factor 1 yes
symmetries automatic
symmetry-threshold 0.0001
target-mu -0.171252 no




---------- Setting up symmetries ----------

Found 24 point-group symmetries of the bravais lattice
Found 6 space-group symmetries with basis
Applied RMS atom displacement 6.56277e-06 bohrs to make symmetries exact.

---------- Initializing the Grid ----------
R = 
[    15.5003    7.75018          0  ]
[          0    13.4237          0  ]
[          0          0    46.8823  ]
unit cell volume = 9754.9
G =
[   0.405358  -0.234033          0  ]
[          0   0.468066          0  ]
[          0          0    0.13402  ]
Minimum fftbox size, Smin = [  72  72  212  ]
Chosen fftbox size, S = [  72  72  216  ]

---------- Initializing tighter grid for wavefunction operations ----------
R = 
[    15.5003    7.75018          0  ]
[          0    13.4237          0  ]
[          0          0    46.8823  ]
unit cell volume = 9754.9
G =
[   0.405358  -0.234033          0  ]
[          0   0.468066          0  ]
[          0          0    0.13402  ]
Minimum fftbox size, Smin = [  64  64  192  ]
Chosen fftbox size, S = [  64  64  192  ]

---------- Exchange Correlation functional ----------
Initalized PBE GGA exchange.
Initalized PBE GGA correlation.

---------- Setting up pseudopotentials ----------
Width of ionic core gaussian charges (only for fluid interactions / plotting) set to 0.397384

Reading pseudopotential file '/home/guoxy/vasp/jdftx-1.5.0/build/pseudopotentials/GBRV/mn_pbe.uspp':
  Title: Mn.  Created by USPP 7.3.6 on 16-6-15
  Reference state energy: -105.136484.  15 valence electrons in orbitals:
    |300>  occupation: 2  eigenvalue: -3.300080
    |310>  occupation: 6  eigenvalue: -2.150696
    |400>  occupation: 1.5  eigenvalue: -0.307943
    |320>  occupation: 5  eigenvalue: -0.391818
    |410>  occupation: 0  eigenvalue: -0.152105
  lMax: 2  lLocal: 3  QijEcut: 6
  6 projectors sampled on a log grid with 585 points:
    l: 0  eig: -3.300083  rCut: 1.45
    l: 0  eig: -0.307946  rCut: 1.45
    l: 1  eig: -2.150696  rCut: 1.45
    l: 1  eig: -0.152108  rCut: 1.45
    l: 2  eig: -0.391817  rCut: 1.7
    l: 2  eig: 0.500000  rCut: 1.7
  Partial core density with radius 0.65
  Transforming core density to a uniform radial grid of dG=0.02 with 1634 points.
  Transforming local potential to a uniform radial grid of dG=0.02 with 1634 points.
  Transforming nonlocal projectors to a uniform radial grid of dG=0.02 with 432 points.
  Transforming density augmentations to a uniform radial grid of dG=0.02 with 1634 points.
  Transforming atomic orbitals to a uniform radial grid of dG=0.02 with 432 points.
  Core radius for overlap checks: 1.70 bohrs.

Reading pseudopotential file '/home/guoxy/vasp/jdftx-1.5.0/build/pseudopotentials/GBRV/in_pbe.uspp':
  Title: In.  Created by USPP 7.3.6 on 31-3-15
  Reference state energy: -66.141337.  13 valence electrons in orbitals:
    |420>  occupation: 10  eigenvalue: -1.145775
    |500>  occupation: 1.5  eigenvalue: -0.705913
    |510>  occupation: 0  eigenvalue: -0.449223
  lMax: 2  lLocal: 3  QijEcut: 5.5
  6 projectors sampled on a log grid with 719 points:
    l: 0  eig: -0.705911  rCut: 1.8
    l: 0  eig: 1.000000  rCut: 1.8
    l: 1  eig: -0.705911  rCut: 2
    l: 1  eig: 1.000000  rCut: 2
    l: 2  eig: -1.145775  rCut: 1.65
    l: 2  eig: 0.750000  rCut: 1.65
  Partial core density with radius 1.4
  Transforming core density to a uniform radial grid of dG=0.02 with 1634 points.
  Transforming local potential to a uniform radial grid of dG=0.02 with 1634 points.
  Transforming nonlocal projectors to a uniform radial grid of dG=0.02 with 432 points.
  Transforming density augmentations to a uniform radial grid of dG=0.02 with 1634 points.
  Transforming atomic orbitals to a uniform radial grid of dG=0.02 with 432 points.
  Core radius for overlap checks: 2.40 bohrs.

Reading pseudopotential file '/home/guoxy/vasp/jdftx-1.5.0/build/pseudopotentials/GBRV/se_pbe.uspp':
  Title: Se.  Created by USPP 7.3.6 on 14-9-2013
  Reference state energy: -21.672887.  6 valence electrons in orbitals:
    |400>  occupation: 2  eigenvalue: -0.635284
    |410>  occupation: 4  eigenvalue: -0.239295
  lMax: 2  lLocal: 3  QijEcut: 5
  6 projectors sampled on a log grid with 625 points:
    l: 0  eig: -0.635278  rCut: 1.5
    l: 0  eig: 0.500000  rCut: 1.5
    l: 1  eig: -0.239295  rCut: 1.5
    l: 1  eig: 0.500000  rCut: 1.5
    l: 2  eig: 0.000000  rCut: 1.8
    l: 2  eig: 1.000000  rCut: 1.8
  Partial core density with radius 1.2
  Transforming core density to a uniform radial grid of dG=0.02 with 1634 points.
  Transforming local potential to a uniform radial grid of dG=0.02 with 1634 points.
  Transforming nonlocal projectors to a uniform radial grid of dG=0.02 with 432 points.
  Transforming density augmentations to a uniform radial grid of dG=0.02 with 1634 points.
  Transforming atomic orbitals to a uniform radial grid of dG=0.02 with 432 points.
  Core radius for overlap checks: 1.80 bohrs.

Initialized 3 species with 27 total atoms.

Folded 1 k-points by 5x5x1 to 25 k-points.

---------- Setting up k-points, bands, fillings ----------
Adding inversion symmetry to k-mesh for non-inversion-symmetric unit cell.
Reduced to 5 k-points under symmetry. 
Computing the number of bands and number of electrons
Reading initial fillings from file NbTe2.fillings.
nElectrons: 254.000000   nBands: 184   nStates: 10

----- Setting up reduced wavefunction bases (one per k-point) -----
average nbasis = 41669.240 , ideal nbasis = 41673.697

---------- Setting up coulomb interaction ----------
Fluid mode embedding: using embedded box, but periodic Coulomb kernel.
(Fluid response is responsible for (approximate) separation between periodic images.)
Setting up double-sized grid for truncated Coulomb potentials:
R = 
[    15.5003    7.75018          0  ]
[          0    13.4237          0  ]
[          0          0    93.7647  ]
unit cell volume = 19509.8
G =
[   0.405358  -0.234033          0  ]
[          0   0.468066          0  ]
[          0          0  0.0670102  ]
Chosen fftbox size, S = [  72  72  432  ]
Integer grid location selected as the embedding center:
   Grid: [  0  0  108  ]
   Lattice: [  0  0  0.5  ]
   Cartesian: [  0  0  23.4412  ]
Constructing Wigner-Seitz cell: 8 faces (6 quadrilaterals, 2 hexagons)
Range-separation parameter for embedded mesh potentials due to point charges: 0.587743 bohrs.

Initializing van der Waals corrections
	NOTE: vdW corrections apply only for interactions with fluid.
	Mn:  C6:  187.33 Eh-a0^6  R0: 2.952 a0
	In:  C6:  647.33 Eh-a0^6  R0: 3.160 a0
	Se:  C6:  219.24 Eh-a0^6  R0: 3.347 a0

---------- Setting up ewald sum ----------
Optimum gaussian width for ewald sums = 6.200601 bohr.
Real space sum over 845 unit cells with max indices [  6  6  2  ]
Reciprocal space sum over 5929 terms with max indices [  5  5  24  ]

---------- Allocating electronic variables ----------
Initializing wave functions:  reading from 'NbTe2.wfns'
----- createFluidSolver() ----- (Fluid-side solver setup)
   Initializing fluid molecule 'H2O'
     Initializing site 'O'
       Electron density: proportional to exp(-r/0.36935)*erfc((r-0.51523)/0.36823) with norm 6.826
       Charge density: gaussian nuclear width 0.478731 with net site charge 0.826
       Polarizability: cuspless exponential with width 0.32 and norm 3.73
       Hard sphere radius: 2.57003 bohrs
       Positions in reference frame:
         [ +0.000000 +0.000000 +0.000000 ]
     Initializing site 'H'
       Electron density: proportional to exp(-r/0.34641)*erfc((r-0)/0.390882) with norm 0.587
       Charge density: gaussian nuclear width 0.377945 with net site charge -0.413
       Polarizability: cuspless exponential with width 0.39 and norm 3.3
       Positions in reference frame:
         [ +0.000000 -1.441945 +1.122523 ]
         [ +0.000000 +1.441945 +1.122523 ]
     Net charge: 0   dipole magnitude: 0.927204
     Initializing spherical shell mfKernel with radius 2.61727 Bohr
     deltaS corrections:
       site 'O': -7.54299
       site 'H': -6.83917
   Initializing fluid molecule 'Na+'
     Initializing site 'Na'
       Electron density: proportional to exp(-r/0.19682)*erfc((r-0.71491)/0.41314) with norm 8.1383
       Charge density: gaussian nuclear width 0.365347 with net site charge -1
       Hard sphere radius: 1.86327 bohrs
       Positions in reference frame:
         [ +0.000000 +0.000000 +0.000000 ]
     Net charge: -1   dipole magnitude: 0
     Initializing gaussian mfKernel with width: 1.55004 Bohr
     deltaS corrections:
       site 'Na': -22.3555
   Initializing fluid molecule 'F-'
     Initializing site 'F'
       Electron density: proportional to exp(-r/0.38886)*erfc((r-0)/0.438782) with norm 8
       Charge density: gaussian nuclear width 0.374796 with net site charge 1
       Hard sphere radius: 2.39995 bohrs
       Positions in reference frame:
         [ +0.000000 +0.000000 +0.000000 ]
     Net charge: 1   dipole magnitude: 0
     Initializing gaussian mfKernel with width: 1.59012 Bohr
     deltaS corrections:
       site 'F': -9.04335

Correction to mu due to finite nuclear width = -0.0129176
   Cavity determined by nc: 0.00142 and sigma: 0.707107
   Nonlocal vdW cavity from gaussian model electron density with norm = 8 and sigma = 0.993594 bohr
   Charge asymmetry in cavity with sensitivity pCavity = 36.5 e-bohr/Eh
   Electrostatic cavity expanded by eta = 1.46 bohrs
   Weighted density cavitation model constrained by Nbulk: 0.0049383 bohr^-3, Pvap: 3.14029 kPa, Rvdw: 2.61727 bohr and sigmaBulk: 4.62e-05 Eh/bohr^2 at T: 298 K.
   Weighted density dispersion model using vdW pair potentials with single solvent site with sqrtC6eff: 0.77 SI.
Reading fluid state from 'NbTe2.fluidState'


---- Citations for features of the code used in this run ----

   Software package:
      R. Sundararaman, K. Letchworth-Weaver, K.A. Schwarz, D. Gunceler, Y. Ozhabes and T.A. Arias, 'JDFTx: software for joint density-functional theory', SoftwareX 6, 278 (2017)

   gga-PBE exchange-correlation functional:
      J.P. Perdew, K. Burke and M. Ernzerhof, Phys. Rev. Lett. 77, 3865 (1996)

   Pseudopotentials:
      KF Garrity, JW Bennett, KM Rabe and D Vanderbilt, Comput. Mater. Sci. 81, 446 (2014)

   Truncated Coulomb potentials:
      R. Sundararaman and T.A. Arias, Phys. Rev. B 87, 165122 (2013)

   Van der Waals correction pair-potentials:
      S. Grimme, J. Comput. Chem. 27, 1787 (2006)

   Charge-asymmetric nonlocally-determined local-electric (CANDLE) solvation model:
      R. Sundararaman and W.A. Goddard III, J. Chem. Phys. 142, 064107 (2015)

   Total energy minimization with Auxiliary Hamiltonian:
      C. Freysoldt, S. Boeck, and J. Neugebauer, Phys. Rev. B 79, 241103(R) (2009)

   Grand-canonical (fixed-potential) DFT:
      R. Sundararaman, W. A. Goddard III and T. A. Arias, J. Chem. Phys. 146, 114104 (2017)

This list may not be complete. Please suggest additional citations or
report any other bugs at https://github.com/shankar1729/jdftx/issues

Initialization completed successfully at t[s]:     26.28

Shifting auxilliary hamiltonian by 0.008194 to set nElectrons=254.000000
	Linear fluid (dielectric constant: 78.4, screening length: 5.74355 Bohr) occupying 0.689311 of unit cell:	Completed after 4 iterations at t[s]:     30.88

-------- Electronic minimization -----------
	Linear fluid (dielectric constant: 78.4, screening length: 5.74355 Bohr) occupying 0.689311 of unit cell:	Completed after 0 iterations at t[s]:     36.06
	FillingsUpdate:  mu: -0.171251800  nElectrons: 254.000000  magneticMoment: [ Abs: 18.62257  Tot: +18.33528 ]
ElecMinimize: Iter:   0  G: -985.992449895524715  |grad|_K:  8.932e-06  alpha:  1.000e+00
	Linear fluid (dielectric constant: 78.4, screening length: 5.74355 Bohr) occupying 0.711901 of unit cell:	Completed after 30 iterations at t[s]:     50.13
	Linear fluid (dielectric constant: 78.4, screening length: 5.74355 Bohr) occupying 0.689466 of unit cell:	Completed after 21 iterations at t[s]:     58.55
	FillingsUpdate:  mu: -0.171251800  nElectrons: 254.087812  magneticMoment: [ Abs: 18.65599  Tot: +18.38492 ]
	SubspaceRotationAdjust: set factor to 0.502
ElecMinimize: Iter:   1  G: -985.992690711237742  |grad|_K:  5.155e-06  alpha:  5.922e-02  linmin:  8.476e-03  cgtest: -5.569e-01  t[s]:     63.96
	Linear fluid (dielectric constant: 78.4, screening length: 5.74355 Bohr) occupying 0.689455 of unit cell:	Completed after 11 iterations at t[s]:     69.94
ElecMinimize: 	Predicted alpha/alphaT>3.000000, increasing alphaT to 1.776480e-01.
	Linear fluid (dielectric constant: 78.4, screening length: 5.74355 Bohr) occupying 0.689449 of unit cell:	Completed after 14 iterations at t[s]:     77.49
	Linear fluid (dielectric constant: 78.4, screening length: 5.74355 Bohr) occupying 0.689450 of unit cell:	Completed after 8 iterations at t[s]:     83.83
	FillingsUpdate:  mu: -0.171251800  nElectrons: 254.138860  magneticMoment: [ Abs: 18.66950  Tot: +18.40074 ]
	SubspaceRotationAdjust: set factor to 0.34
ElecMinimize: Iter:   2  G: -985.992898755955594  |grad|_K:  2.857e-06  alpha:  1.932e-01  linmin:  2.659e-05  cgtest:  4.363e-01  t[s]:     89.52
	Linear fluid (dielectric constant: 78.4, screening length: 5.74355 Bohr) occupying 0.689242 of unit cell:	Completed after 14 iterations at t[s]:     96.22
	Linear fluid (dielectric constant: 78.4, screening length: 5.74355 Bohr) occupying 0.689304 of unit cell:	Completed after 13 iterations at t[s]:    104.70
	FillingsUpdate:  mu: -0.171251800  nElectrons: 254.114099  magneticMoment: [ Abs: 18.66361  Tot: +18.39154 ]
	SubspaceRotationAdjust: set factor to 0.223
ElecMinimize: Iter:   3  G: -985.992981564418074  |grad|_K:  1.625e-06  alpha:  1.313e-01  linmin:  8.575e-05  cgtest:  7.836e-02  t[s]:    111.22
	Linear fluid (dielectric constant: 78.4, screening length: 5.74355 Bohr) occupying 0.689293 of unit cell:	Completed after 11 iterations at t[s]:    117.27
	Linear fluid (dielectric constant: 78.4, screening length: 5.74355 Bohr) occupying 0.689280 of unit cell:	Completed after 11 iterations at t[s]:    124.54
	FillingsUpdate:  mu: -0.171251800  nElectrons: 254.127613  magneticMoment: [ Abs: 18.67514  Tot: +18.40800 ]
	SubspaceRotationAdjust: set factor to 0.217
ElecMinimize: Iter:   4  G: -985.993045586439621  |grad|_K:  1.317e-06  alpha:  3.164e-01  linmin: -4.419e-06  cgtest:  1.957e-02  t[s]:    130.36
	Linear fluid (dielectric constant: 78.4, screening length: 5.74355 Bohr) occupying 0.689236 of unit cell:	Completed after 12 iterations at t[s]:    136.66
	Linear fluid (dielectric constant: 78.4, screening length: 5.74355 Bohr) occupying 0.689216 of unit cell:	Completed after 8 iterations at t[s]:    144.10
	FillingsUpdate:  mu: -0.171251800  nElectrons: 254.146508  magneticMoment: [ Abs: 18.68451  Tot: +18.41989 ]
	SubspaceRotationAdjust: set factor to 0.264
ElecMinimize: Iter:   5  G: -985.993108716033134  |grad|_K:  1.077e-06  alpha:  4.723e-01  linmin: -5.080e-05  cgtest: -8.404e-04  t[s]:    150.57
	Linear fluid (dielectric constant: 78.4, screening length: 5.74355 Bohr) occupying 0.689111 of unit cell:	Completed after 11 iterations at t[s]:    156.50
	Linear fluid (dielectric constant: 78.4, screening length: 5.74355 Bohr) occupying 0.689094 of unit cell:	Completed after 6 iterations at t[s]:    163.01
	FillingsUpdate:  mu: -0.171251800  nElectrons: 254.161329  magneticMoment: [ Abs: 18.68736  Tot: +18.42156 ]
	SubspaceRotationAdjust: set factor to 0.295
ElecMinimize: Iter:   6  G: -985.993158189079622  |grad|_K:  7.259e-07  alpha:  5.528e-01  linmin:  2.192e-05  cgtest:  7.889e-03  t[s]:    168.55
	Linear fluid (dielectric constant: 78.4, screening length: 5.74355 Bohr) occupying 0.689083 of unit cell:	Completed after 13 iterations at t[s]:    174.84
	Linear fluid (dielectric constant: 78.4, screening length: 5.74355 Bohr) occupying 0.689082 of unit cell:	Completed after 1 iterations at t[s]:    180.66
	FillingsUpdate:  mu: -0.171251800  nElectrons: 254.183891  magneticMoment: [ Abs: 18.69582  Tot: +18.43261 ]
	SubspaceRotationAdjust: set factor to 0.294
ElecMinimize: Iter:   7  G: -985.993181777921336  |grad|_K:  6.190e-07  alpha:  5.828e-01  linmin: -1.821e-04  cgtest:  2.292e-02  t[s]:    187.36
	Linear fluid (dielectric constant: 78.4, screening length: 5.74355 Bohr) occupying 0.688962 of unit cell:	Completed after 12 iterations at t[s]:    194.39
	Linear fluid (dielectric constant: 78.4, screening length: 5.74355 Bohr) occupying 0.689036 of unit cell:	Completed after 12 iterations at t[s]:    201.78
	FillingsUpdate:  mu: -0.171251800  nElectrons: 254.184465  magneticMoment: [ Abs: 18.69656  Tot: +18.43315 ]
	SubspaceRotationAdjust: set factor to 0.335
ElecMinimize: Iter:   8  G: -985.993188634844273  |grad|_K:  3.181e-07  alpha:  2.250e-01  linmin: -4.059e-05  cgtest: -8.534e-03  t[s]:    207.49
	Linear fluid (dielectric constant: 78.4, screening length: 5.74355 Bohr) occupying 0.689018 of unit cell:	Completed after 3 iterations at t[s]:    212.38
	Linear fluid (dielectric constant: 78.4, screening length: 5.74355 Bohr) occupying 0.688995 of unit cell:	Completed after 6 iterations at t[s]:    218.83
	FillingsUpdate:  mu: -0.171251800  nElectrons: 254.185505  magneticMoment: [ Abs: 18.69817  Tot: +18.43490 ]
	SubspaceRotationAdjust: set factor to 0.356
ElecMinimize: Iter:   9  G: -985.993192614138025  |grad|_K:  2.944e-07  alpha:  5.238e-01  linmin:  2.212e-04  cgtest: -2.330e-02  t[s]:    225.10
	Linear fluid (dielectric constant: 78.4, screening length: 5.74355 Bohr) occupying 0.688954 of unit cell:	Completed after 7 iterations at t[s]:    231.20
	Linear fluid (dielectric constant: 78.4, screening length: 5.74355 Bohr) occupying 0.688964 of unit cell:	Completed after 3 iterations at t[s]:    238.55
	FillingsUpdate:  mu: -0.171251800  nElectrons: 254.187186  magneticMoment: [ Abs: 18.69892  Tot: +18.43526 ]
	SubspaceRotationAdjust: set factor to 0.445
ElecMinimize: Iter:  10  G: -985.993195126597470  |grad|_K:  1.905e-07  alpha:  3.877e-01  linmin:  4.995e-05  cgtest:  3.097e-02  t[s]:    245.42
	Linear fluid (dielectric constant: 78.4, screening length: 5.74355 Bohr) occupying 0.688942 of unit cell:	Completed after 3 iterations at t[s]:    250.32
	Linear fluid (dielectric constant: 78.4, screening length: 5.74355 Bohr) occupying 0.688942 of unit cell:	Completed after 0 iterations at t[s]:    255.30
	FillingsUpdate:  mu: -0.171251800  nElectrons: 254.186916  magneticMoment: [ Abs: 18.69867  Tot: +18.43453 ]
	SubspaceRotationAdjust: set factor to 0.469
ElecMinimize: Iter:  11  G: -985.993196192327105  |grad|_K:  1.389e-07  alpha:  3.845e-01  linmin:  4.267e-05  cgtest: -1.088e-02  t[s]:    261.47
	Linear fluid (dielectric constant: 78.4, screening length: 5.74355 Bohr) occupying 0.688932 of unit cell:	Completed after 2 iterations at t[s]:    266.47
	Linear fluid (dielectric constant: 78.4, screening length: 5.74355 Bohr) occupying 0.688934 of unit cell:	Completed after 0 iterations at t[s]:    272.16
	FillingsUpdate:  mu: -0.171251800  nElectrons: 254.187165  magneticMoment: [ Abs: 18.69892  Tot: +18.43475 ]
	SubspaceRotationAdjust: set factor to 0.494
ElecMinimize: Iter:  12  G: -985.993196654001395  |grad|_K:  1.115e-07  alpha:  3.124e-01  linmin:  1.402e-04  cgtest: -2.721e-02  t[s]:    278.76
	Linear fluid (dielectric constant: 78.4, screening length: 5.74355 Bohr) occupying 0.688927 of unit cell:	Completed after 3 iterations at t[s]:    284.43
	Linear fluid (dielectric constant: 78.4, screening length: 5.74355 Bohr) occupying 0.688927 of unit cell:	Completed after 0 iterations at t[s]:    290.94
	FillingsUpdate:  mu: -0.171251800  nElectrons: 254.187068  magneticMoment: [ Abs: 18.69912  Tot: +18.43492 ]
	SubspaceRotationAdjust: set factor to 0.522
ElecMinimize: Iter:  13  G: -985.993196924405083  |grad|_K:  6.110e-08  alpha:  2.954e-01  linmin: -2.491e-04  cgtest:  7.618e-02  t[s]:    297.41
	Linear fluid (dielectric constant: 78.4, screening length: 5.74355 Bohr) occupying 0.688931 of unit cell:	Completed after 2 iterations at t[s]:    302.33
	Linear fluid (dielectric constant: 78.4, screening length: 5.74355 Bohr) occupying 0.688930 of unit cell:	Completed after 0 iterations at t[s]:    307.95
	FillingsUpdate:  mu: -0.171251800  nElectrons: 254.187699  magneticMoment: [ Abs: 18.69956  Tot: +18.43553 ]
	SubspaceRotationAdjust: set factor to 0.424
ElecMinimize: Iter:  14  G: -985.993197000193959  |grad|_K:  5.294e-08  alpha:  2.527e-01  linmin:  1.708e-04  cgtest: -1.002e-01  t[s]:    313.99
	Linear fluid (dielectric constant: 78.4, screening length: 5.74355 Bohr) occupying 0.688930 of unit cell:	Completed after 0 iterations at t[s]:    317.82
	Linear fluid (dielectric constant: 78.4, screening length: 5.74355 Bohr) occupying 0.688930 of unit cell:	Completed after 2 iterations at t[s]:    323.91
	FillingsUpdate:  mu: -0.171251800  nElectrons: 254.187996  magneticMoment: [ Abs: 18.69980  Tot: +18.43574 ]
	SubspaceRotationAdjust: set factor to 0.409
ElecMinimize: Iter:  15  G: -985.993197059460499  |grad|_K:  3.870e-08  alpha:  4.686e-01  linmin:  5.118e-04  cgtest: -2.339e-01  t[s]:    330.40
	Linear fluid (dielectric constant: 78.4, screening length: 5.74355 Bohr) occupying 0.688930 of unit cell:	Completed after 0 iterations at t[s]:    335.07
	Linear fluid (dielectric constant: 78.4, screening length: 5.74355 Bohr) occupying 0.688930 of unit cell:	Completed after 0 iterations at t[s]:    340.85
	FillingsUpdate:  mu: -0.171251800  nElectrons: 254.188066  magneticMoment: [ Abs: 18.69986  Tot: +18.43580 ]
	SubspaceRotationAdjust: set factor to 0.438
ElecMinimize: Iter:  16  G: -985.993197083794371  |grad|_K:  2.637e-08  alpha:  3.053e-01  linmin:  2.351e-07  cgtest:  5.067e-01  t[s]:    346.75
	Linear fluid (dielectric constant: 78.4, screening length: 5.74355 Bohr) occupying 0.688930 of unit cell:	Completed after 0 iterations at t[s]:    350.96
	Linear fluid (dielectric constant: 78.4, screening length: 5.74355 Bohr) occupying 0.688930 of unit cell:	Completed after 0 iterations at t[s]:    356.17
	FillingsUpdate:  mu: -0.171251800  nElectrons: 254.188049  magneticMoment: [ Abs: 18.69985  Tot: +18.43580 ]
	SubspaceRotationAdjust: set factor to 0.498
ElecMinimize: Iter:  17  G: -985.993197110101505  |grad|_K:  1.916e-08  alpha:  4.919e-01  linmin: -6.320e-07  cgtest:  7.198e-03  t[s]:    361.96
	Linear fluid (dielectric constant: 78.4, screening length: 5.74355 Bohr) occupying 0.688931 of unit cell:	Completed after 1 iterations at t[s]:    366.51
	Linear fluid (dielectric constant: 78.4, screening length: 5.74355 Bohr) occupying 0.688930 of unit cell:	Completed after 0 iterations at t[s]:    372.29
ElecMinimize: 	Step increased G by 2.298248e-08, reducing alpha to 9.185762e-03.
	Linear fluid (dielectric constant: 78.4, screening length: 5.74355 Bohr) occupying 0.688930 of unit cell:	Completed after 0 iterations at t[s]:    383.14
ElecMinimize: 	Step increased G by 2.191314e-08, reducing alpha to 9.185762e-04.
	Linear fluid (dielectric constant: 78.4, screening length: 5.74355 Bohr) occupying 0.688930 of unit cell:	Completed after 0 iterations at t[s]:    393.27
ElecMinimize: 	Step increased G by 2.186937e-08, reducing alpha to 9.185762e-05.
ElecMinimize: 	Step failed to reduce G after 3 attempts. Quitting step.
ElecMinimize: 	Undoing step.
	Linear fluid (dielectric constant: 78.4, screening length: 5.74355 Bohr) occupying 0.688930 of unit cell:	Completed after 0 iterations at t[s]:    402.79
ElecMinimize: 	Step failed: resetting search direction.
	FillingsUpdate:  mu: -0.171251800  nElectrons: 254.188049  magneticMoment: [ Abs: 18.69985  Tot: +18.43580 ]
	SubspaceRotationAdjust: set factor to 0.488
ElecMinimize: Iter:  18  G: -985.993197088229294  |grad|_K:  4.695e-08  alpha:  9.186e-05
	Linear fluid (dielectric constant: 78.4, screening length: 5.74355 Bohr) occupying 0.688928 of unit cell:	Completed after 3 iterations at t[s]:    413.69
	Linear fluid (dielectric constant: 78.4, screening length: 5.74355 Bohr) occupying 0.688930 of unit cell:	Completed after 2 iterations at t[s]:    419.54
	FillingsUpdate:  mu: -0.171251800  nElectrons: 254.187924  magneticMoment: [ Abs: 18.69978  Tot: +18.43568 ]
	SubspaceRotationAdjust: set factor to 0.313
ElecMinimize: Iter:  19  G: -985.993197100709267  |grad|_K:  2.321e-08  alpha:  1.329e-01  linmin:  2.162e-03  cgtest: -2.981e-01  t[s]:    425.83
	Linear fluid (dielectric constant: 78.4, screening length: 5.74355 Bohr) occupying 0.688931 of unit cell:	Completed after 0 iterations at t[s]:    430.57
ElecMinimize: 	Predicted alpha/alphaT>3.000000, increasing alphaT to 3.986507e-01.
	Linear fluid (dielectric constant: 78.4, screening length: 5.74355 Bohr) occupying 0.688933 of unit cell:	Completed after 0 iterations at t[s]:    436.67
	Linear fluid (dielectric constant: 78.4, screening length: 5.74355 Bohr) occupying 0.688934 of unit cell:	Completed after 3 iterations at t[s]:    442.52
ElecMinimize: 	Step increased G by 3.563207e-08, reducing alpha to 6.178691e-02.
	Linear fluid (dielectric constant: 78.4, screening length: 5.74355 Bohr) occupying 0.688930 of unit cell:	Completed after 1 iterations at t[s]:    452.31
	FillingsUpdate:  mu: -0.171251800  nElectrons: 254.187980  magneticMoment: [ Abs: 18.69981  Tot: +18.43573 ]
	SubspaceRotationAdjust: set factor to 0.173
ElecMinimize: Iter:  20  G: -985.993197108668824  |grad|_K:  1.566e-08  alpha:  6.179e-02  linmin:  6.888e-04  cgtest: -1.026e-01  t[s]:    457.99
	Linear fluid (dielectric constant: 78.4, screening length: 5.74355 Bohr) occupying 0.688930 of unit cell:	Completed after 0 iterations at t[s]:    462.53
ElecMinimize: 	Predicted alpha/alphaT>3.000000, increasing alphaT to 1.853607e-01.
	Linear fluid (dielectric constant: 78.4, screening length: 5.74355 Bohr) occupying 0.688930 of unit cell:	Completed after 0 iterations at t[s]:    467.96
ElecMinimize: 	Predicted alpha/alphaT>3.000000, increasing alphaT to 5.560822e-01.
	Linear fluid (dielectric constant: 78.4, screening length: 5.74355 Bohr) occupying 0.688929 of unit cell:	Completed after 0 iterations at t[s]:    473.80
	Linear fluid (dielectric constant: 78.4, screening length: 5.74355 Bohr) occupying 0.688929 of unit cell:	Completed after 0 iterations at t[s]:    479.70
	FillingsUpdate:  mu: -0.171251800  nElectrons: 254.187682  magneticMoment: [ Abs: 18.69971  Tot: +18.43561 ]
	SubspaceRotationAdjust: set factor to 0.25
ElecMinimize: Iter:  21  G: -985.993197117390991  |grad|_K:  1.722e-08  alpha:  5.886e-01  linmin:  2.369e-07  cgtest:  3.644e-01  t[s]:    486.20
ElecMinimize: Converged (|Delta G|<1.000000e-08 for 2 iters).
Setting wave functions to eigenvectors of Hamiltonian

# Ionic positions in lattice coordinates:
ion Mn   0.332660618818013   0.332660597114309   0.327704653604837 0
ion Mn   0.834678801363973   0.332660597114309   0.327704653604837 0
ion Mn   0.332660618818013   0.834678779660269   0.327704653604837 0
ion Mn   0.833333346333333   0.833333324629629   0.327754041096113 0
ion In   0.000318883767718   0.000318862064013   0.487476036508009 0
ion In   0.499362271464565   0.000318862064013   0.487476036508009 0
ion In   0.000318883767718   0.499362249760861   0.487476036508009 0
ion In   0.500000013000000   0.499999991296296   0.487684006050737 0
ion In   0.166666679666667   0.166666657962962   0.656308120993751 0
ion In   0.638181160701242   0.223637695893813   0.656130824787578 0
ion In   0.223637717597517   0.638181138997537   0.656130824787578 0
ion In   0.638181160701242   0.638181138997537   0.656130824787578 0
ion Se  -0.000189553503525  -0.000189575207229   0.297025826627145 0
ion Se   0.500379146007050  -0.000189575207229   0.297025826627145 0
ion Se  -0.000189553503525   0.500379124303346   0.297025826627145 0
ion Se   0.500000013000000   0.499999991296296   0.298753830562901 0
ion Se  -0.004544082450704  -0.004544104154409   0.694292336790332 0
ion Se   0.509088203901409  -0.004544104154409   0.694292336790332 0
ion Se  -0.004544082450704   0.509088182197704   0.694292336790332 0
ion Se   0.332667735807687   0.332667714103983   0.429556840502060 0
ion Se   0.834664567384626   0.332667714103983   0.429556840502060 0
ion Se   0.332667735807687   0.834664545680922   0.429556840502060 0
ion Se   0.833333346333333   0.833333324629629   0.429622387155963 0
ion Se   0.166666679666667   0.166666657962962   0.549393649316765 0
ion Se   0.666494461774186   0.167011093747923   0.548220787121290 0
ion Se   0.167011115451628   0.666494440070482   0.548220787121290 0
ion Se   0.666494461774186   0.666494440070482   0.548220787121290 0


# Forces in Lattice coordinates:
force Mn   0.010947502289179   0.010947502289179   0.039331302904633 0
force Mn  -0.010947502289179   0.000000000000000   0.039331302904633 0
force Mn   0.000000000000000  -0.010947502289179   0.039331302904633 0
force Mn   0.000000000000000   0.000000000000000   0.036025256513736 0
force In  -0.003877643119267  -0.003877643119267   0.077435741937812 0
force In   0.003877643119266   0.000000000000000   0.077435741937727 0
force In   0.000000000000000   0.003877643119267   0.077435741937727 0
force In   0.000000000000000   0.000000000000000   0.107190173351267 0
force In   0.000000000000000   0.000000000000000   0.090771845941862 0
force In   0.000000000000000   0.016338048905170   0.116473992168922 0
force In   0.016338048905170   0.000000000000000   0.116473992168922 0
force In  -0.016338048905170  -0.016338048905170   0.116473992169376 0
force Se   0.000062940405930   0.000062940405930  -0.079833087162818 0
force Se  -0.000062940405930   0.000000000000000  -0.079833087163273 0
force Se   0.000000000000000  -0.000062940405930  -0.079833087162818 0
force Se   0.000000000000000   0.000000000000000  -0.095513795582647 0
force Se   0.003859711642432   0.003859711642432   0.039747924120013 0
force Se  -0.003859711642432   0.000000000000000   0.039747924120240 0
force Se   0.000000000000000  -0.003859711642434   0.039747924120240 0
force Se  -0.000136092070117  -0.000136092070117  -0.032199859089080 0
force Se   0.000136092070117   0.000000000000000  -0.032199859089136 0
force Se   0.000000000000000   0.000136092070117  -0.032199859089079 0
force Se   0.000000000000000   0.000000000000000  -0.024639721050719 0
force Se   0.000000000000000   0.000000000000000  -0.090643500582027 0
force Se   0.000000000000000  -0.005480148740242  -0.125148577785703 0
force Se  -0.005480148740242   0.000000000000000  -0.125148577785703 0
force Se   0.005480148740243   0.005480148740243  -0.125148577785817 0

# Energy components:
   A_diel =       -0.0298848136497849
   Eewald =     8198.9351728166620887
       EH =     9112.7680692850444757
     Eloc =   -18605.4618344683840405
      Enl =      159.2211069817005864
      Exc =     -427.2300085514312968
 Exc_core =      254.2705201572487681
       KE =      278.0250560265196782
  MuShift =       -0.0024243975985830
-------------------------------------
     Etot =    -1029.5042269638902326
       TS =        0.0190683038387118
-------------------------------------
        F =    -1029.5232952677290541
      muN =      -43.5300981503380342
-------------------------------------
        G =     -985.9931971173909915

IonicMinimize: Iter:   0  G: -985.993197117390991  |grad|_K:  0.000e+00  t[s]:    490.58
IonicMinimize: Converged (|grad|_K<1.000000e-04).

#--- Lowdin population analysis ---
# oxidation-state Mn -0.177 -0.177 -0.177 -0.178
# magnetic-moments Mn +4.500 +4.500 +4.500 +4.496
# oxidation-state In +0.456 +0.456 +0.456 +0.457 +0.430 +0.288 +0.288 +0.288
# magnetic-moments In +0.038 +0.038 +0.038 +0.035 +0.010 +0.001 +0.001 +0.001
# oxidation-state Se +0.052 +0.052 +0.052 +0.053 -0.248 -0.248 -0.248 -0.114 -0.114 -0.114 -0.111 -0.286 -0.268 -0.268 -0.268
# magnetic-moments Se +0.019 +0.019 +0.019 +0.018 +0.005 +0.005 +0.005 +0.015 +0.015 +0.015 +0.008 +0.018 +0.020 +0.020 +0.020


Dumping 'NbTe2.fillings' ... done
Dumping 'NbTe2.wfns' ... done
Dumping 'NbTe2.fluidState' ... done
Dumping 'NbTe2.eigenvals' ... done
End date and time: Thu Jul 16 11:25:05 2020  (Duration: 0-0:08:12.74)
Done!
