
*************** JDFTx 1.5.0  ***************

Start date and time: Thu Apr 22 10:22:42 2021
Executable jdftx_gpu with command-line: -i Charged.in -o Charged.out
Running on hosts (process indices):  amax (0-6)
Divided in process groups (process indices):  0 (0)  1 (1)  2 (2)  3 (3)  4 (4)  5 (5)  6 (6)
gpuInit: Found compatible cuda device 0 'Tesla K80'
gpuInit: Found compatible cuda device 1 'Tesla K80'
gpuInit: Found compatible cuda device 2 'Tesla K80'
gpuInit: Found compatible cuda device 3 'Tesla K80'
gpuInit: Found compatible cuda device 4 'Tesla K80'
gpuInit: Found compatible cuda device 5 'Tesla K80'
gpuInit: Found compatible cuda device 6 'Tesla K80'
gpuInit: Selected device 0
Resource initialization completed at t[s]:      3.65
Run totals: 7 processes, 24 threads, 7 GPUs


Input parsed successfully to the following command list (including defaults):

basis kpoint-dependent
cache-projectors no
coords-type Lattice
core-overlap-check none
coulomb-interaction Slab 001
coulomb-truncation-embed 0.5 0.5 0.5
davidson-band-ratio 1.1
dump End State
dump-name NbTe2.$VAR
elec-cutoff 20
elec-eigen-algo Davidson
elec-ex-corr gga-PBE
elec-initial-charge 1.000000
elec-smearing Gauss 0.0073499
electronic-minimize  \
	dirUpdateScheme      FletcherReeves \
	linminMethod         DirUpdateRecommended \
	nIterations          200 \
	history              15 \
	knormThreshold       0 \
	energyDiffThreshold  1e-08 \
	nEnergyDiff          2 \
	alphaTstart          1 \
	alphaTmin            1e-10 \
	updateTestStepSize   yes \
	alphaTreduceFactor   0.1 \
	alphaTincreaseFactor 3 \
	nAlphaAdjustMax      3 \
	wolfeEnergy          0.0001 \
	wolfeGradient        0.9 \
	fdTest               no
exchange-regularization WignerSeitzTruncated
fluid LinearPCM 298.000000 1.013250
fluid-anion F- 1 MeanFieldLJ \
	epsBulk 1 \
	pMol 0 \
	epsInf 1 \
	Pvap 0 \
	sigmaBulk 0 \
	Rvdw 2.24877 \
	Res 0 \
	tauNuc 343133
fluid-cation Na+ 1 MeanFieldLJ \
	epsBulk 1 \
	pMol 0 \
	epsInf 1 \
	Pvap 0 \
	sigmaBulk 0 \
	Rvdw 2.19208 \
	Res 0 \
	tauNuc 343133
fluid-ex-corr lda-TF lda-PZ
fluid-gummel-loop 10 1.000000e-05
fluid-minimize  \
	dirUpdateScheme      PolakRibiere \
	linminMethod         DirUpdateRecommended \
	nIterations          400 \
	history              15 \
	knormThreshold       1e-11 \
	energyDiffThreshold  0 \
	nEnergyDiff          2 \
	alphaTstart          1 \
	alphaTmin            1e-10 \
	updateTestStepSize   yes \
	alphaTreduceFactor   0.1 \
	alphaTincreaseFactor 3 \
	nAlphaAdjustMax      6 \
	wolfeEnergy          0.0001 \
	wolfeGradient        0.9 \
	fdTest               no
fluid-solvent H2O 55.338 ScalarEOS \
	epsBulk 78.4 \
	pMol 0.92466 \
	epsInf 1.77 \
	Pvap 1.06736e-10 \
	sigmaBulk 4.62e-05 \
	Rvdw 2.61727 \
	Res 1.42 \
	tauNuc 343133 \
	poleEl 15 7 1
forces-output-coords Positions
initial-state NbTe2.$VAR
ion Cr  -0.000000000000000   0.125924682713965   0.566921689361069 1
ion Cr   0.125000000000000   0.125924005446850   0.433539991994632 1
ion Cr   0.250000000000000   0.125924682713965   0.566921689361069 1
ion Cr   0.375000000000000   0.125924005446850   0.433539991994632 1
ion Cr   0.500000000000000   0.125924682713965   0.566921689361069 1
ion Cr   0.625000000000000   0.125924005446850   0.433539991994632 1
ion Cr   0.750000000000000   0.125924682713965   0.566921689361069 1
ion Cr   0.875000000000000   0.125924005446850   0.433539991994632 1
ion Cr   0.000000000000000   0.375924682713965   0.566921689361069 1
ion Cr   0.125000000000000   0.375924005446850   0.433539991994632 1
ion Cr   0.250000000000000   0.375924682713965   0.566921689361069 1
ion Cr   0.375000000000000   0.375924005446850   0.433539991994632 1
ion Cr   0.500000000000000   0.375924682713965   0.566921689361069 1
ion Cr   0.625000000000000   0.375924005446850   0.433539991994632 1
ion Cr   0.750000000000000   0.375924682713965   0.566921689361069 1
ion Cr   0.875000000000000   0.375924005446850   0.433539991994632 1
ion Cr  -0.000000000000000   0.625924682713966   0.566921689361069 1
ion Cr   0.125000000000000   0.625924005446850   0.433539991994632 1
ion Cr   0.250000000000000   0.625924682713966   0.566921689361069 1
ion Cr   0.375000000000000   0.625924005446850   0.433539991994632 1
ion Cr   0.500000000000000   0.625924682713966   0.566921689361069 1
ion Cr   0.625000000000000   0.625924005446850   0.433539991994632 1
ion Cr   0.750000000000000   0.625924682713966   0.566921689361069 1
ion Cr   0.875000000000000   0.625924005446850   0.433539991994632 1
ion Cr   0.000000000000000   0.875924682713966   0.566921689361069 1
ion Cr   0.125000000000000   0.875924005446850   0.433539991994632 1
ion Cr   0.250000000000000   0.875924682713966   0.566921689361069 1
ion Cr   0.375000000000000   0.875924005446850   0.433539991994632 1
ion Cr   0.500000000000000   0.875924682713966   0.566921689361069 1
ion Cr   0.625000000000000   0.875924005446850   0.433539991994632 1
ion Cr   0.750000000000000   0.875924682713966   0.566921689361069 1
ion Cr   0.875000000000000   0.875924005446850   0.433539991994632 1
ion B  -0.000000000000000   0.000925669764899   0.478904511995150 1
ion B   0.125000000000000   0.000923495549978   0.521638227202347 1
ion B   0.250000000000000   0.000925669764899   0.478904511995150 1
ion B   0.375000000000000   0.000923495549978   0.521638227202347 1
ion B   0.500000000000000   0.000925669764899   0.478904511995150 1
ion B   0.625000000000000   0.000923495549978   0.521638227202347 1
ion B   0.750000000000000   0.000925669764899   0.478904511995150 1
ion B   0.875000000000000   0.000923495549978   0.521638227202347 1
ion B  -0.000000000000000   0.250925669764899   0.478904511995150 1
ion B   0.125000000000000   0.250923495549978   0.521638227202347 1
ion B   0.250000000000000   0.250925669764899   0.478904511995150 1
ion B   0.375000000000000   0.250923495549978   0.521638227202347 1
ion B   0.500000000000000   0.250925669764899   0.478904511995150 1
ion B   0.625000000000000   0.250923495549978   0.521638227202347 1
ion B   0.750000000000000   0.250925669764899   0.478904511995150 1
ion B   0.875000000000000   0.250923495549978   0.521638227202347 1
ion B   0.000000000000000   0.500925669764899   0.478904511995150 1
ion B   0.125000000000000   0.500923495549978   0.521638227202347 1
ion B   0.250000000000000   0.500925669764899   0.478904511995150 1
ion B   0.375000000000000   0.500923495549978   0.521638227202347 1
ion B   0.500000000000000   0.500925669764899   0.478904511995150 1
ion B   0.625000000000000   0.500923495549978   0.521638227202347 1
ion B   0.750000000000000   0.500925669764899   0.478904511995150 1
ion B   0.875000000000000   0.500923495549978   0.521638227202347 1
ion B   0.000000000000000   0.750925669764899   0.478904511995150 1
ion B   0.125000000000000   0.750923495549978   0.521638227202347 1
ion B   0.250000000000000   0.750925669764899   0.478904511995150 1
ion B   0.375000000000000   0.750923495549978   0.521638227202347 1
ion B   0.500000000000000   0.750925669764899   0.478904511995150 1
ion B   0.625000000000000   0.750923495549978   0.521638227202347 1
ion B   0.750000000000000   0.750925669764899   0.478904511995150 1
ion B   0.875000000000000   0.750923495549978   0.521638227202347 1
ion O   0.125000000000000   0.125920066654541   0.626931865232538 1
ion O   0.000000000000000   0.125922084869767   0.373573749214265 1
ion O   0.375000000000000   0.125920066654541   0.626931865232538 1
ion O   0.250000000000000   0.125922084869767   0.373573749214265 1
ion O   0.625000000000000   0.125920066654541   0.626931865232538 1
ion O   0.500000000000000   0.125922084869767   0.373573749214265 1
ion O   0.875000000000000   0.125920066654541   0.626931865232538 1
ion O   0.750000000000000   0.125922084869767   0.373573749214265 1
ion O   0.125000000000000   0.375920066654541   0.626931865232538 1
ion O   0.000000000000000   0.375922084869767   0.373573749214265 1
ion O   0.375000000000000   0.375920066654541   0.626931865232538 1
ion O   0.250000000000000   0.375922084869767   0.373573749214265 1
ion O   0.625000000000000   0.375920066654541   0.626931865232538 1
ion O   0.500000000000000   0.375922084869767   0.373573749214265 1
ion O   0.875000000000000   0.375920066654541   0.626931865232538 1
ion O   0.750000000000000   0.375922084869767   0.373573749214265 1
ion O   0.125000000000000   0.625920066654541   0.626931865232538 1
ion O  -0.000000000000000   0.625922084869767   0.373573749214265 1
ion O   0.375000000000000   0.625920066654541   0.626931865232538 1
ion O   0.250000000000000   0.625922084869767   0.373573749214265 1
ion O   0.625000000000000   0.625920066654541   0.626931865232538 1
ion O   0.500000000000000   0.625922084869767   0.373573749214265 1
ion O   0.875000000000000   0.625920066654541   0.626931865232538 1
ion O   0.750000000000000   0.625922084869767   0.373573749214265 1
ion O   0.125000000000000   0.875920066654541   0.626931865232538 1
ion O  -0.000000000000000   0.875922084869767   0.373573749214265 1
ion O   0.375000000000000   0.875920066654541   0.626931865232538 1
ion O   0.250000000000000   0.875922084869767   0.373573749214265 1
ion O   0.625000000000000   0.875920066654541   0.626931865232538 1
ion O   0.500000000000000   0.875922084869767   0.373573749214265 1
ion O   0.875000000000000   0.875920066654541   0.626931865232538 1
ion O   0.750000000000000   0.875922084869767   0.373573749214265 1
ion-species GBRV/$ID_pbe.uspp
ion-width Ecut
ionic-minimize  \
	dirUpdateScheme      L-BFGS \
	linminMethod         DirUpdateRecommended \
	nIterations          500 \
	history              15 \
	knormThreshold       0.0001 \
	energyDiffThreshold  1e-06 \
	nEnergyDiff          2 \
	alphaTstart          1 \
	alphaTmin            1e-10 \
	updateTestStepSize   yes \
	alphaTreduceFactor   0.1 \
	alphaTincreaseFactor 3 \
	nAlphaAdjustMax      3 \
	wolfeEnergy          0.0001 \
	wolfeGradient        0.9 \
	fdTest               no
kpoint   0.000000000000   0.000000000000   0.000000000000  1.00000000000000
kpoint-folding 3 3 1 
latt-move-scale 1 1 1
latt-scale 1.88973 1.88973 1.88973 
lattice Triclinic 10.9748 11.5423 19.8366 90 90 90
lattice-minimize  \
	dirUpdateScheme      L-BFGS \
	linminMethod         DirUpdateRecommended \
	nIterations          0 \
	history              15 \
	knormThreshold       0 \
	energyDiffThreshold  1e-06 \
	nEnergyDiff          2 \
	alphaTstart          1 \
	alphaTmin            1e-10 \
	updateTestStepSize   yes \
	alphaTreduceFactor   0.1 \
	alphaTincreaseFactor 3 \
	nAlphaAdjustMax      3 \
	wolfeEnergy          0.0001 \
	wolfeGradient        0.9 \
	fdTest               no
lcao-params -1 1e-06 0.0073499
pcm-variant CANDLE
spintype no-spin
subspace-rotation-factor 1 yes
symmetries automatic
symmetry-threshold 0.0001



---------- Setting up symmetries ----------

Found 8 point-group symmetries of the bravais lattice
Found 64 space-group symmetries with basis
Applied RMS atom displacement 3.98104e-05 bohrs to make symmetries exact.

---------- Initializing the Grid ----------
R = 
[    20.7394          0          0  ]
[          0    21.8118          0  ]
[          0          0    37.4857  ]
unit cell volume = 16957.1
G =
[   0.302959          0          0  ]
[          0   0.288064          0  ]
[          0          0   0.167615  ]
Minimum fftbox size, Smin = [  84  88  152  ]
Chosen fftbox size, S = [  84  90  160  ]

---------- Exchange Correlation functional ----------
Initalized PBE GGA exchange.
Initalized PBE GGA correlation.

---------- Setting up pseudopotentials ----------
Width of ionic core gaussian charges (only for fluid interactions / plotting) set to 0.397384

Reading pseudopotential file '/home/guoxy/vasp/jdftx-1.5.0/build/pseudopotentials/GBRV/cr_pbe.uspp':
  Title: Cr.  Created by USPP 7.3.6 on 15-6-15
  Reference state energy: -87.029289.  14 valence electrons in orbitals:
    |300>  occupation: 2  eigenvalue: -3.285614
    |310>  occupation: 6  eigenvalue: -2.226709
    |400>  occupation: 1.6  eigenvalue: -0.454946
    |320>  occupation: 3.4  eigenvalue: -0.614185
  lMax: 2  lLocal: 3  QijEcut: 6
  6 projectors sampled on a log grid with 595 points:
    l: 0  eig: -3.285615  rCut: 1.55
    l: 0  eig: -0.454949  rCut: 1.55
    l: 1  eig: -2.226708  rCut: 1.55
    l: 1  eig: 0.500000  rCut: 1.55
    l: 2  eig: -0.614184  rCut: 1.7
    l: 2  eig: 0.500000  rCut: 1.7
  Partial core density with radius 0.75
  Transforming core density to a uniform radial grid of dG=0.02 with 1134 points.
  Transforming local potential to a uniform radial grid of dG=0.02 with 1134 points.
  Transforming nonlocal projectors to a uniform radial grid of dG=0.02 with 432 points.
  Transforming density augmentations to a uniform radial grid of dG=0.02 with 1134 points.
  Transforming atomic orbitals to a uniform radial grid of dG=0.02 with 432 points.
  Core radius for overlap checks: 1.70 bohrs.

Reading pseudopotential file '/home/guoxy/vasp/jdftx-1.5.0/build/pseudopotentials/GBRV/b_pbe.uspp':
  Title: B.  Created by USPP 7.3.6 on 8-4-15
  Reference state energy: -2.950027.  3 valence electrons in orbitals:
    |200>  occupation: 2  eigenvalue: -0.346865
    |210>  occupation: 1  eigenvalue: -0.132618
  lMax: 1  lLocal: 2  QijEcut: 6
  4 projectors sampled on a log grid with 559 points:
    l: 0  eig: -0.346865  rCut: 1.25
    l: 0  eig: -0.500000  rCut: 1.25
    l: 1  eig: -0.346865  rCut: 1.25
    l: 1  eig: -1.000000  rCut: 1.25
  Partial core density with radius 0.9
  Transforming core density to a uniform radial grid of dG=0.02 with 1134 points.
  Transforming local potential to a uniform radial grid of dG=0.02 with 1134 points.
  Transforming nonlocal projectors to a uniform radial grid of dG=0.02 with 432 points.
  Transforming density augmentations to a uniform radial grid of dG=0.02 with 1134 points.
  Transforming atomic orbitals to a uniform radial grid of dG=0.02 with 432 points.
  Core radius for overlap checks: 1.25 bohrs.

Reading pseudopotential file '/home/guoxy/vasp/jdftx-1.5.0/build/pseudopotentials/GBRV/o_pbe.uspp':
  Title: O.  Created by USPP 7.3.6 on 3-2-2014
  Reference state energy: -15.894388.  6 valence electrons in orbitals:
    |200>  occupation: 2  eigenvalue: -0.878823
    |210>  occupation: 4  eigenvalue: -0.332131
  lMax: 2  lLocal: 2  QijEcut: 6
  5 projectors sampled on a log grid with 511 points:
    l: 0  eig: -0.878823  rCut: 1.25
    l: 0  eig: 0.000000  rCut: 1.25
    l: 1  eig: -0.332132  rCut: 1.25
    l: 1  eig: 0.000000  rCut: 1.25
    l: 2  eig: 1.000000  rCut: 1.25
  Partial core density with radius 0.7
  Transforming core density to a uniform radial grid of dG=0.02 with 1134 points.
  Transforming local potential to a uniform radial grid of dG=0.02 with 1134 points.
  Transforming nonlocal projectors to a uniform radial grid of dG=0.02 with 432 points.
  Transforming density augmentations to a uniform radial grid of dG=0.02 with 1134 points.
  Transforming atomic orbitals to a uniform radial grid of dG=0.02 with 432 points.
  Core radius for overlap checks: 1.25 bohrs.

Initialized 3 species with 96 total atoms.

Folded 1 k-points by 3x3x1 to 9 k-points.

---------- Setting up k-points, bands, fillings ----------
Reduced to 4 k-points under symmetry. 
Computing the number of bands and number of electrons
Calculating initial fillings.
nElectrons: 737.000000   nBands: 576   nStates: 4

----- Setting up reduced wavefunction bases (one per k-point) -----
average nbasis = 72434.778 , ideal nbasis = 72442.214

---------- Setting up coulomb interaction ----------
Fluid mode embedding: using embedded box, but periodic Coulomb kernel.
(Fluid response is responsible for (approximate) separation between periodic images.)
Setting up double-sized grid for truncated Coulomb potentials:
R = 
[    20.7394          0          0  ]
[          0    21.8118          0  ]
[          0          0    74.9715  ]
unit cell volume = 33914.3
G =
[   0.302959          0          0  ]
[          0   0.288064          0  ]
[          0          0  0.0838077  ]
Chosen fftbox size, S = [  84  90  320  ]
Integer grid location selected as the embedding center:
   Grid: [  42  45  80  ]
   Lattice: [  0.5  0.5  0.5  ]
   Cartesian: [  10.3697  10.9059  18.7429  ]
Constructing Wigner-Seitz cell: 6 faces (6 quadrilaterals, 0 hexagons)
Range-separation parameter for embedded mesh potentials due to point charges: 0.626857 bohrs.

Initializing van der Waals corrections
	NOTE: vdW corrections apply only for interactions with fluid.
	Cr:  C6:  187.33 Eh-a0^6  R0: 2.952 a0
	 B:  C6:   54.29 Eh-a0^6  R0: 2.806 a0
	 O:  C6:   12.14 Eh-a0^6  R0: 2.536 a0

---------- Setting up ewald sum ----------
Optimum gaussian width for ewald sums = 6.034747 bohr.
Real space sum over 405 unit cells with max indices [  4  4  2  ]
Reciprocal space sum over 9225 terms with max indices [  7  7  20  ]

---------- Allocating electronic variables ----------
Initializing wave functions:  linear combination of atomic orbitals
Cr pseudo-atom occupations:   s ( 2 0 )  p ( 6 )  d ( 6 )
B pseudo-atom occupations:   s ( 2 )  p ( 1 )
O pseudo-atom occupations:   s ( 2 )  p ( 4 )
	FillingsUpdate:  mu: +3.306102696  nElectrons: 737.000000
LCAOMinimize: Iter:   0  F: -2920.0936314695936744  |grad|_K:  2.174e-02  alpha:  1.000e+00
	FillingsUpdate:  mu: -0.934259651  nElectrons: 737.000000
LCAOMinimize: Iter:   1  F: -3298.5675937719061039  |grad|_K:  2.441e-02  alpha:  3.933e-01  linmin: -6.103e-02  cgtest: -9.068e-01  t[s]:    152.00
LCAOMinimize: 	Step increased F by 7.388604e+01, reducing alpha to 1.187679e-02.
	FillingsUpdate:  mu: -1.425613295  nElectrons: 737.000000
LCAOMinimize: Iter:   2  F: -3319.4889995797184383  |grad|_K:  1.270e-02  alpha:  1.188e-02  linmin: -6.528e-02  cgtest:  8.401e-01  t[s]:    226.97
LCAOMinimize: Encountered beta<0, resetting CG.
LCAOMinimize: 	Predicted alpha/alphaT>3.000000, increasing alphaT to 3.563036e-02.
LCAOMinimize: 	Predicted alpha/alphaT>3.000000, increasing alphaT to 1.068911e-01.
	FillingsUpdate:  mu: -0.609037758  nElectrons: 737.000000
LCAOMinimize: Iter:   3  F: -3347.9081857151804797  |grad|_K:  2.882e-02  alpha:  2.234e-01  linmin: -6.852e-03  cgtest: -1.010e-01  t[s]:    295.25
	FillingsUpdate:  mu: +0.326864940  nElectrons: 737.000000
LCAOMinimize: Iter:   4  F: -3377.3068687635018250  |grad|_K:  1.972e-02  alpha:  2.332e-02  linmin:  1.108e-01  cgtest:  7.707e-01  t[s]:    338.46
LCAOMinimize: Encountered beta<0, resetting CG.
	FillingsUpdate:  mu: +0.198725319  nElectrons: 737.000000
LCAOMinimize: Iter:   5  F: -3383.2812139333409505  |grad|_K:  6.481e-03  alpha:  2.307e-02  linmin:  8.374e-03  cgtest: -8.828e-03  t[s]:    382.15
	FillingsUpdate:  mu: -0.004069075  nElectrons: 737.000000
LCAOMinimize: Iter:   6  F: -3385.0844835814509679  |grad|_K:  1.839e-03  alpha:  5.974e-02  linmin: -2.728e-01  cgtest:  5.576e-01  t[s]:    426.14
LCAOMinimize: Encountered beta<0, resetting CG.
LCAOMinimize: 	Predicted alpha/alphaT>3.000000, increasing alphaT to 1.792199e-01.
	FillingsUpdate:  mu: -0.036850326  nElectrons: 737.000000
LCAOMinimize: Iter:   7  F: -3385.4855496953982765  |grad|_K:  2.623e-03  alpha:  1.780e-01  linmin:  3.175e-03  cgtest: -1.127e-02  t[s]:    482.29
	FillingsUpdate:  mu: -0.027614698  nElectrons: 737.000000
LCAOMinimize: Iter:   8  F: -3385.5920389750463073  |grad|_K:  6.599e-04  alpha:  2.021e-02  linmin: -7.787e-02  cgtest:  7.838e-01  t[s]:    525.93
LCAOMinimize: Encountered beta<0, resetting CG.
	FillingsUpdate:  mu: -0.022384565  nElectrons: 737.000000
LCAOMinimize: Iter:   9  F: -3385.6020242023496394  |grad|_K:  5.676e-04  alpha:  3.455e-02  linmin:  2.025e-03  cgtest: -1.166e-02  t[s]:    569.35
LCAOMinimize: 	Predicted alpha/alphaT>3.000000, increasing alphaT to 1.036557e-01.
	FillingsUpdate:  mu: +0.003308117  nElectrons: 737.000000
LCAOMinimize: Iter:  10  F: -3385.6263816426317135  |grad|_K:  4.757e-04  alpha:  1.150e-01  linmin:  7.716e-03  cgtest:  8.292e-02  t[s]:    625.34
	FillingsUpdate:  mu: -0.008700464  nElectrons: 737.000000
LCAOMinimize: Iter:  11  F: -3385.6574759279210411  |grad|_K:  6.837e-04  alpha:  2.138e-01  linmin:  5.789e-04  cgtest:  6.391e-02  t[s]:    669.27
	FillingsUpdate:  mu: -0.008326496  nElectrons: 737.000000
LCAOMinimize: Iter:  12  F: -3385.6640748644049381  |grad|_K:  1.059e-04  alpha:  1.987e-02  linmin: -4.710e-02  cgtest:  4.485e-01  t[s]:    713.38
LCAOMinimize: Encountered beta<0, resetting CG.
LCAOMinimize: 	Predicted alpha/alphaT>3.000000, increasing alphaT to 5.961008e-02.
	FillingsUpdate:  mu: -0.006937260  nElectrons: 737.000000
LCAOMinimize: Iter:  13  F: -3385.6647253286505475  |grad|_K:  1.614e-04  alpha:  8.709e-02  linmin:  1.577e-04  cgtest: -1.102e-03  t[s]:    769.30
	FillingsUpdate:  mu: -0.005102968  nElectrons: 737.000000
LCAOMinimize: Iter:  14  F: -3385.6654961686813294  |grad|_K:  6.426e-05  alpha:  4.439e-02  linmin: -5.210e-04  cgtest:  1.856e-02  t[s]:    812.59
LCAOMinimize: 	Predicted alpha/alphaT>3.000000, increasing alphaT to 1.331721e-01.
	FillingsUpdate:  mu: -0.007667538  nElectrons: 737.000000
LCAOMinimize: Iter:  15  F: -3385.6658887576400048  |grad|_K:  3.931e-05  alpha:  1.426e-01  linmin: -4.179e-04  cgtest: -1.593e-03  t[s]:    868.07
	FillingsUpdate:  mu: -0.006623331  nElectrons: 737.000000
LCAOMinimize: Iter:  16  F: -3385.6661892772303872  |grad|_K:  7.928e-05  alpha:  2.921e-01  linmin:  1.327e-04  cgtest: -2.251e-03  t[s]:    911.48
	FillingsUpdate:  mu: -0.006216134  nElectrons: 737.000000
LCAOMinimize: Iter:  17  F: -3385.6662886734752647  |grad|_K:  1.249e-05  alpha:  2.375e-02  linmin: -9.341e-04  cgtest:  3.819e-02  t[s]:    954.99
LCAOMinimize: 	Predicted alpha/alphaT>3.000000, increasing alphaT to 7.126377e-02.
	FillingsUpdate:  mu: -0.006520708  nElectrons: 737.000000
LCAOMinimize: Iter:  18  F: -3385.6663012253648048  |grad|_K:  7.548e-06  alpha:  1.207e-01  linmin: -1.465e-04  cgtest: -2.237e-03  t[s]:   1010.93
	FillingsUpdate:  mu: -0.006405390  nElectrons: 737.000000
LCAOMinimize: Iter:  19  F: -3385.6663094249893220  |grad|_K:  1.799e-05  alpha:  2.162e-01  linmin:  6.726e-05  cgtest:  5.718e-05  t[s]:   1054.67
	FillingsUpdate:  mu: -0.006281760  nElectrons: 737.000000
LCAOMinimize: Iter:  20  F: -3385.6663168737150045  |grad|_K:  1.577e-06  alpha:  3.441e-02  linmin: -5.046e-03  cgtest:  8.733e-02  t[s]:   1098.23
LCAOMinimize: 	Predicted alpha/alphaT>3.000000, increasing alphaT to 1.032368e-01.
	FillingsUpdate:  mu: -0.006349353  nElectrons: 737.000000
LCAOMinimize: Iter:  21  F: -3385.6663170544416062  |grad|_K:  1.132e-06  alpha:  1.091e-01  linmin: -1.940e-04  cgtest:  5.851e-04  t[s]:   1154.45
	FillingsUpdate:  mu: -0.006353927  nElectrons: 737.000000
LCAOMinimize: Iter:  22  F: -3385.6663171006007360  |grad|_K:  1.504e-06  alpha:  5.406e-02  linmin:  1.158e-05  cgtest: -5.195e-04  t[s]:   1198.27
LCAOMinimize: Converged (|Delta F|<1.000000e-06 for 2 iters).
----- createFluidSolver() ----- (Fluid-side solver setup)
   Initializing fluid molecule 'H2O'
     Initializing site 'O'
       Electron density: proportional to exp(-r/0.36935)*erfc((r-0.51523)/0.36823) with norm 6.826
       Charge density: gaussian nuclear width 0.478731 with net site charge 0.826
       Polarizability: cuspless exponential with width 0.32 and norm 3.73
       Hard sphere radius: 2.57003 bohrs
       Positions in reference frame:
         [ +0.000000 +0.000000 +0.000000 ]
     Initializing site 'H'
       Electron density: proportional to exp(-r/0.34641)*erfc((r-0)/0.390882) with norm 0.587
       Charge density: gaussian nuclear width 0.377945 with net site charge -0.413
       Polarizability: cuspless exponential with width 0.39 and norm 3.3
       Positions in reference frame:
         [ +0.000000 -1.441945 +1.122523 ]
         [ +0.000000 +1.441945 +1.122523 ]
     Net charge: 0   dipole magnitude: 0.927204
     Initializing spherical shell mfKernel with radius 2.61727 Bohr
     deltaS corrections:
       site 'O': -7.54299
       site 'H': -6.83917
   Initializing fluid molecule 'Na+'
     Initializing site 'Na'
       Electron density: proportional to exp(-r/0.19682)*erfc((r-0.71491)/0.41314) with norm 8.1383
       Charge density: gaussian nuclear width 0.365347 with net site charge -1
       Hard sphere radius: 1.86327 bohrs
       Positions in reference frame:
         [ +0.000000 +0.000000 +0.000000 ]
     Net charge: -1   dipole magnitude: 0
     Initializing gaussian mfKernel with width: 1.55004 Bohr
     deltaS corrections:
       site 'Na': -22.3555
   Initializing fluid molecule 'F-'
     Initializing site 'F'
       Electron density: proportional to exp(-r/0.38886)*erfc((r-0)/0.438782) with norm 8
       Charge density: gaussian nuclear width 0.374796 with net site charge 1
       Hard sphere radius: 2.39995 bohrs
       Positions in reference frame:
         [ +0.000000 +0.000000 +0.000000 ]
     Net charge: 1   dipole magnitude: 0
     Initializing gaussian mfKernel with width: 1.59012 Bohr
     deltaS corrections:
       site 'F': -9.04335

Correction to mu due to finite nuclear width = -0.0215325
   Cavity determined by nc: 0.00142 and sigma: 0.707107
   Nonlocal vdW cavity from gaussian model electron density with norm = 8 and sigma = 0.993594 bohr
   Charge asymmetry in cavity with sensitivity pCavity = 36.5 e-bohr/Eh
   Electrostatic cavity expanded by eta = 1.46 bohrs
   Weighted density cavitation model constrained by Nbulk: 0.0049383 bohr^-3, Pvap: 3.14029 kPa, Rvdw: 2.61727 bohr and sigmaBulk: 4.62e-05 Eh/bohr^2 at T: 298 K.
   Weighted density dispersion model using vdW pair potentials with single solvent site with sqrtC6eff: 0.77 SI.


---- Citations for features of the code used in this run ----

   Software package:
      R. Sundararaman, K. Letchworth-Weaver, K.A. Schwarz, D. Gunceler, Y. Ozhabes and T.A. Arias, 'JDFTx: software for joint density-functional theory', SoftwareX 6, 278 (2017)

   gga-PBE exchange-correlation functional:
      J.P. Perdew, K. Burke and M. Ernzerhof, Phys. Rev. Lett. 77, 3865 (1996)

   Pseudopotentials:
      KF Garrity, JW Bennett, KM Rabe and D Vanderbilt, Comput. Mater. Sci. 81, 446 (2014)

   Truncated Coulomb potentials:
      R. Sundararaman and T.A. Arias, Phys. Rev. B 87, 165122 (2013)

   Van der Waals correction pair-potentials:
      S. Grimme, J. Comput. Chem. 27, 1787 (2006)

   Charge-asymmetric nonlocally-determined local-electric (CANDLE) solvation model:
      R. Sundararaman and W.A. Goddard III, J. Chem. Phys. 142, 064107 (2015)

   Total energy minimization with Auxiliary Hamiltonian:
      C. Freysoldt, S. Boeck, and J. Neugebauer, Phys. Rev. B 79, 241103(R) (2009)

This list may not be complete. Please suggest additional citations or
report any other bugs at https://github.com/shankar1729/jdftx/issues

Initialization completed successfully at t[s]:   1208.52

Fluid solver invoked on fresh (partially random / LCAO) wavefunctions
Running a vacuum solve first:

-------- Initial electronic minimization -----------
	FillingsUpdate:  mu: -0.006353927  nElectrons: 737.000000
ElecMinimize: Iter:   0  F: -3385.666317100572087  |grad|_K:  2.017e-04  alpha:  1.000e+00
	FillingsUpdate:  mu: -0.046981901  nElectrons: 737.000000
	SubspaceRotationAdjust: set factor to 1
ElecMinimize: Iter:   1  F: -3387.881020372151852  |grad|_K:  1.478e-04  alpha:  3.278e-01  linmin:  1.187e-05  t[s]:   1317.82
	FillingsUpdate:  mu: +0.031476445  nElectrons: 737.000000
	SubspaceRotationAdjust: set factor to 0.658
ElecMinimize: Iter:   2  F: -3388.816305535769061  |grad|_K:  1.216e-04  alpha:  2.569e-01  linmin:  3.099e-06  t[s]:   1385.87
	FillingsUpdate:  mu: -0.051035683  nElectrons: 737.000000
	SubspaceRotationAdjust: set factor to 0.402
ElecMinimize: Iter:   3  F: -3389.101216884779205  |grad|_K:  1.103e-04  alpha:  1.235e-01  linmin:  4.728e-05  t[s]:   1453.59
	FillingsUpdate:  mu: -0.056347644  nElectrons: 737.000000
	SubspaceRotationAdjust: set factor to 0.264
ElecMinimize: Iter:   4  F: -3389.182367473070371  |grad|_K:  5.793e-05  alpha:  4.156e-02  linmin:  7.241e-06  t[s]:   1521.58
ElecMinimize: 	Predicted alpha/alphaT>3.000000, increasing alphaT to 1.246872e-01.
ElecMinimize: 	Predicted alpha/alphaT>3.000000, increasing alphaT to 3.740616e-01.
	FillingsUpdate:  mu: -0.047051037  nElectrons: 737.000000
	SubspaceRotationAdjust: set factor to 0.173
ElecMinimize: Iter:   5  F: -3389.390558999962650  |grad|_K:  5.286e-05  alpha:  3.722e-01  linmin:  1.346e-05  t[s]:   1626.55
	FillingsUpdate:  mu: -0.035480800  nElectrons: 737.000000
	SubspaceRotationAdjust: set factor to 0.131
	SubspaceRotationAdjust: resetting CG because factor has changed by 0.131064
ElecMinimize: 	State modified externally: resetting search direction.
ElecMinimize: Iter:   6  F: -3389.429180661315058  |grad|_K:  2.631e-05  alpha:  8.296e-02
ElecMinimize: 	Predicted alpha/alphaT>3.000000, increasing alphaT to 2.488902e-01.
	FillingsUpdate:  mu: -0.035908388  nElectrons: 737.000000
	SubspaceRotationAdjust: set factor to 0.14
ElecMinimize: Iter:   7  F: -3389.468208477867847  |grad|_K:  2.156e-05  alpha:  3.365e-01  linmin:  1.736e-05  t[s]:   1817.03
	FillingsUpdate:  mu: -0.032987566  nElectrons: 737.000000
	SubspaceRotationAdjust: set factor to 0.104
ElecMinimize: Iter:   8  F: -3389.488273059897892  |grad|_K:  1.379e-05  alpha:  2.576e-01  linmin:  6.016e-06  t[s]:   1885.14
	FillingsUpdate:  mu: -0.030091024  nElectrons: 737.000000
	SubspaceRotationAdjust: set factor to 0.0979
ElecMinimize: Iter:   9  F: -3389.500808209515526  |grad|_K:  1.059e-05  alpha:  3.936e-01  linmin:  1.365e-05  t[s]:   1953.08
	FillingsUpdate:  mu: -0.028655773  nElectrons: 737.000000
	SubspaceRotationAdjust: set factor to 0.116
ElecMinimize: Iter:  10  F: -3389.507910844971775  |grad|_K:  8.828e-06  alpha:  3.787e-01  linmin:  5.711e-06  t[s]:   2021.07
	FillingsUpdate:  mu: -0.027218833  nElectrons: 737.000000
	SubspaceRotationAdjust: set factor to 0.135
ElecMinimize: Iter:  11  F: -3389.514657793193237  |grad|_K:  8.202e-06  alpha:  5.186e-01  linmin:  2.510e-05  t[s]:   2088.94
	FillingsUpdate:  mu: -0.026584228  nElectrons: 737.000000
	SubspaceRotationAdjust: set factor to 0.138
ElecMinimize: Iter:  12  F: -3389.518713163282882  |grad|_K:  7.648e-06  alpha:  3.614e-01  linmin:  2.155e-06  t[s]:   2156.51
	FillingsUpdate:  mu: -0.027968274  nElectrons: 737.000000
	SubspaceRotationAdjust: set factor to 0.136
ElecMinimize: Iter:  13  F: -3389.523138754590946  |grad|_K:  7.785e-06  alpha:  4.526e-01  linmin:  9.107e-06  t[s]:   2224.37
	FillingsUpdate:  mu: -0.030002539  nElectrons: 737.000000
	SubspaceRotationAdjust: set factor to 0.128
ElecMinimize: Iter:  14  F: -3389.526955355295286  |grad|_K:  7.498e-06  alpha:  3.774e-01  linmin:  2.235e-06  t[s]:   2292.50
	FillingsUpdate:  mu: -0.030982138  nElectrons: 737.000000
	SubspaceRotationAdjust: set factor to 0.12
ElecMinimize: Iter:  15  F: -3389.530697105982654  |grad|_K:  5.887e-06  alpha:  3.981e-01  linmin:  6.529e-06  t[s]:   2360.17
	FillingsUpdate:  mu: -0.030382485  nElectrons: 737.000000
	SubspaceRotationAdjust: set factor to 0.122
ElecMinimize: Iter:  16  F: -3389.532974570919123  |grad|_K:  3.904e-06  alpha:  3.940e-01  linmin:  5.034e-06  t[s]:   2428.12
	FillingsUpdate:  mu: -0.029844685  nElectrons: 737.000000
	SubspaceRotationAdjust: set factor to 0.123
ElecMinimize: Iter:  17  F: -3389.533811939220413  |grad|_K:  2.798e-06  alpha:  3.288e-01  linmin:  1.078e-07  t[s]:   2495.49
	FillingsUpdate:  mu: -0.029521772  nElectrons: 737.000000
	SubspaceRotationAdjust: set factor to 0.105
ElecMinimize: Iter:  18  F: -3389.534220539775106  |grad|_K:  2.048e-06  alpha:  3.115e-01  linmin:  1.958e-07  t[s]:   2562.98
	FillingsUpdate:  mu: -0.029512781  nElectrons: 737.000000
	SubspaceRotationAdjust: set factor to 0.0968
ElecMinimize: Iter:  19  F: -3389.534454555431239  |grad|_K:  1.372e-06  alpha:  3.331e-01  linmin:  3.111e-07  t[s]:   2630.69
	FillingsUpdate:  mu: -0.029683862  nElectrons: 737.000000
	SubspaceRotationAdjust: set factor to 0.113
ElecMinimize: Iter:  20  F: -3389.534568569032217  |grad|_K:  1.139e-06  alpha:  3.618e-01  linmin:  1.952e-07  t[s]:   2698.72
	FillingsUpdate:  mu: -0.029800297  nElectrons: 737.000000
	SubspaceRotationAdjust: set factor to 0.143
ElecMinimize: Iter:  21  F: -3389.534644217861114  |grad|_K:  8.741e-07  alpha:  3.481e-01  linmin:  3.325e-07  t[s]:   2766.82
	FillingsUpdate:  mu: -0.029814167  nElectrons: 737.000000
	SubspaceRotationAdjust: set factor to 0.176
ElecMinimize: Iter:  22  F: -3389.534700883015830  |grad|_K:  8.596e-07  alpha:  4.429e-01  linmin:  7.090e-07  t[s]:   2834.34
	FillingsUpdate:  mu: -0.029767729  nElectrons: 737.000000
	SubspaceRotationAdjust: set factor to 0.194
ElecMinimize: Iter:  23  F: -3389.534749562642446  |grad|_K:  9.635e-07  alpha:  3.935e-01  linmin:  4.214e-07  t[s]:   2902.06
	FillingsUpdate:  mu: -0.029678137  nElectrons: 737.000000
	SubspaceRotationAdjust: set factor to 0.183
ElecMinimize: Iter:  24  F: -3389.534797538354724  |grad|_K:  9.529e-07  alpha:  3.084e-01  linmin:  4.026e-07  t[s]:   2969.91
	FillingsUpdate:  mu: -0.029584898  nElectrons: 737.000000
	SubspaceRotationAdjust: set factor to 0.16
ElecMinimize: Iter:  25  F: -3389.534844554757001  |grad|_K:  8.978e-07  alpha:  3.094e-01  linmin:  8.575e-07  t[s]:   3037.98
	FillingsUpdate:  mu: -0.029561561  nElectrons: 737.000000
	SubspaceRotationAdjust: set factor to 0.15
ElecMinimize: Iter:  26  F: -3389.534887444786818  |grad|_K:  7.599e-07  alpha:  3.188e-01  linmin:  9.611e-07  t[s]:   3105.91
	FillingsUpdate:  mu: -0.029592791  nElectrons: 737.000000
	SubspaceRotationAdjust: set factor to 0.145
ElecMinimize: Iter:  27  F: -3389.534916302298825  |grad|_K:  5.736e-07  alpha:  2.995e-01  linmin:  5.195e-07  t[s]:   3173.80
	FillingsUpdate:  mu: -0.029584190  nElectrons: 737.000000
	SubspaceRotationAdjust: set factor to 0.142
ElecMinimize: Iter:  28  F: -3389.534934932692977  |grad|_K:  5.106e-07  alpha:  3.386e-01  linmin:  2.641e-07  t[s]:   3242.18
	FillingsUpdate:  mu: -0.029532194  nElectrons: 737.000000
	SubspaceRotationAdjust: set factor to 0.155
ElecMinimize: Iter:  29  F: -3389.534948943132804  |grad|_K:  3.424e-07  alpha:  3.210e-01  linmin:  1.323e-07  t[s]:   3310.23
	FillingsUpdate:  mu: -0.029495567  nElectrons: 737.000000
	SubspaceRotationAdjust: set factor to 0.186
ElecMinimize: Iter:  30  F: -3389.534956710983806  |grad|_K:  3.222e-07  alpha:  3.955e-01  linmin:  4.918e-08  t[s]:   3378.33
	FillingsUpdate:  mu: -0.029494341  nElectrons: 737.000000
	SubspaceRotationAdjust: set factor to 0.222
ElecMinimize: Iter:  31  F: -3389.534962180744515  |grad|_K:  2.520e-07  alpha:  3.145e-01  linmin:  1.843e-08  t[s]:   3446.26
	FillingsUpdate:  mu: -0.029522370  nElectrons: 737.000000
	SubspaceRotationAdjust: set factor to 0.209
ElecMinimize: Iter:  32  F: -3389.534965964977800  |grad|_K:  2.683e-07  alpha:  3.557e-01  linmin:  7.556e-08  t[s]:   3514.27
	FillingsUpdate:  mu: -0.029546486  nElectrons: 737.000000
	SubspaceRotationAdjust: set factor to 0.203
ElecMinimize: Iter:  33  F: -3389.534968534643212  |grad|_K:  2.489e-07  alpha:  2.131e-01  linmin: -1.501e-08  t[s]:   3582.08
	FillingsUpdate:  mu: -0.029568800  nElectrons: 737.000000
	SubspaceRotationAdjust: set factor to 0.225
ElecMinimize: Iter:  34  F: -3389.534971272513758  |grad|_K:  2.195e-07  alpha:  2.638e-01  linmin:  1.074e-07  t[s]:   3649.48
	FillingsUpdate:  mu: -0.029586784  nElectrons: 737.000000
	SubspaceRotationAdjust: set factor to 0.271
ElecMinimize: Iter:  35  F: -3389.534974053348378  |grad|_K:  1.938e-07  alpha:  3.448e-01  linmin:  1.322e-07  t[s]:   3716.97
	FillingsUpdate:  mu: -0.029591152  nElectrons: 737.000000
	SubspaceRotationAdjust: set factor to 0.315
ElecMinimize: Iter:  36  F: -3389.534976394902969  |grad|_K:  1.846e-07  alpha:  3.724e-01  linmin:  3.938e-08  t[s]:   3784.75
	FillingsUpdate:  mu: -0.029579038  nElectrons: 737.000000
	SubspaceRotationAdjust: set factor to 0.309
ElecMinimize: Iter:  37  F: -3389.534978134524863  |grad|_K:  2.011e-07  alpha:  3.047e-01  linmin: -2.241e-09  t[s]:   3852.50
	FillingsUpdate:  mu: -0.029575784  nElectrons: 737.000000
	SubspaceRotationAdjust: set factor to 0.231
ElecMinimize: Iter:  38  F: -3389.534978945774128  |grad|_K:  1.714e-07  alpha:  1.197e-01  linmin:  3.387e-09  t[s]:   3920.38
	FillingsUpdate:  mu: -0.029582423  nElectrons: 737.000000
	SubspaceRotationAdjust: set factor to 0.245
ElecMinimize: Iter:  39  F: -3389.534980049842488  |grad|_K:  1.314e-07  alpha:  2.243e-01  linmin: -2.746e-09  t[s]:   3988.16
	FillingsUpdate:  mu: -0.029598546  nElectrons: 737.000000
	SubspaceRotationAdjust: set factor to 0.303
ElecMinimize: Iter:  40  F: -3389.534981012197477  |grad|_K:  1.042e-07  alpha:  3.329e-01  linmin:  3.268e-08  t[s]:   4056.21
	FillingsUpdate:  mu: -0.029599684  nElectrons: 737.000000
	SubspaceRotationAdjust: set factor to 0.249
ElecMinimize: Iter:  41  F: -3389.534981512108970  |grad|_K:  1.233e-07  alpha:  2.748e-01  linmin:  1.321e-08  t[s]:   4124.17
	FillingsUpdate:  mu: -0.029595351  nElectrons: 737.000000
	SubspaceRotationAdjust: set factor to 0.21
ElecMinimize: Iter:  42  F: -3389.534981848909865  |grad|_K:  9.781e-08  alpha:  1.321e-01  linmin: -1.776e-08  t[s]:   4191.78
	FillingsUpdate:  mu: -0.029587078  nElectrons: 737.000000
	SubspaceRotationAdjust: set factor to 0.319
ElecMinimize: Iter:  43  F: -3389.534982235689768  |grad|_K:  7.003e-08  alpha:  2.413e-01  linmin:  4.483e-08  t[s]:   4259.35
	FillingsUpdate:  mu: -0.029586533  nElectrons: 737.000000
	SubspaceRotationAdjust: set factor to 0.222
ElecMinimize: Iter:  44  F: -3389.534982499551461  |grad|_K:  9.207e-08  alpha:  3.212e-01  linmin:  8.494e-09  t[s]:   4327.19
	FillingsUpdate:  mu: -0.029588264  nElectrons: 737.000000
	SubspaceRotationAdjust: set factor to 0.204
ElecMinimize: Iter:  45  F: -3389.534982651322025  |grad|_K:  6.357e-08  alpha:  1.069e-01  linmin: -8.612e-10  t[s]:   4394.54
	FillingsUpdate:  mu: -0.029592616  nElectrons: 737.000000
	SubspaceRotationAdjust: set factor to 0.292
ElecMinimize: Iter:  46  F: -3389.534982857431260  |grad|_K:  5.959e-08  alpha:  3.045e-01  linmin:  6.148e-08  t[s]:   4462.13
	FillingsUpdate:  mu: -0.029593526  nElectrons: 737.000000
	SubspaceRotationAdjust: set factor to 0.251
ElecMinimize: Iter:  47  F: -3389.534982978631433  |grad|_K:  6.767e-08  alpha:  2.039e-01  linmin:  1.891e-09  t[s]:   4530.04
	FillingsUpdate:  mu: -0.029591196  nElectrons: 737.000000
	SubspaceRotationAdjust: set factor to 0.251
ElecMinimize: Iter:  48  F: -3389.534983098932571  |grad|_K:  4.884e-08  alpha:  1.567e-01  linmin:  6.602e-09  t[s]:   4597.73
	FillingsUpdate:  mu: -0.029582302  nElectrons: 737.000000
	SubspaceRotationAdjust: set factor to 0.31
ElecMinimize: Iter:  49  F: -3389.534983247897344  |grad|_K:  4.493e-08  alpha:  3.725e-01  linmin: -2.805e-08  t[s]:   4665.38
	FillingsUpdate:  mu: -0.029578423  nElectrons: 737.000000
	SubspaceRotationAdjust: set factor to 0.254
ElecMinimize: Iter:  50  F: -3389.534983332239790  |grad|_K:  4.970e-08  alpha:  2.492e-01  linmin: -1.291e-08  t[s]:   4733.08
	FillingsUpdate:  mu: -0.029578232  nElectrons: 737.000000
	SubspaceRotationAdjust: set factor to 0.202
ElecMinimize: Iter:  51  F: -3389.534983381523034  |grad|_K:  3.846e-08  alpha:  1.192e-01  linmin: -1.246e-08  t[s]:   4801.27
	FillingsUpdate:  mu: -0.029581636  nElectrons: 737.000000
	SubspaceRotationAdjust: set factor to 0.281
ElecMinimize: Iter:  52  F: -3389.534983456501777  |grad|_K:  3.155e-08  alpha:  3.027e-01  linmin:  9.977e-08  t[s]:   4869.41
	FillingsUpdate:  mu: -0.029582612  nElectrons: 737.000000
	SubspaceRotationAdjust: set factor to 0.232
ElecMinimize: Iter:  53  F: -3389.534983495357665  |grad|_K:  3.217e-08  alpha:  2.336e-01  linmin: -3.760e-08  t[s]:   4936.96
	FillingsUpdate:  mu: -0.029582069  nElectrons: 737.000000
	SubspaceRotationAdjust: set factor to 0.211
ElecMinimize: Iter:  54  F: -3389.534983518952231  |grad|_K:  2.548e-08  alpha:  1.361e-01  linmin:  6.592e-09  t[s]:   5004.87
	FillingsUpdate:  mu: -0.029579421  nElectrons: 737.000000
	SubspaceRotationAdjust: set factor to 0.301
ElecMinimize: Iter:  55  F: -3389.534983552518497  |grad|_K:  2.007e-08  alpha:  3.067e-01  linmin: -2.475e-07  t[s]:   5072.43
	FillingsUpdate:  mu: -0.029578500  nElectrons: 737.000000
	SubspaceRotationAdjust: set factor to 0.241
ElecMinimize: Iter:  56  F: -3389.534983569931228  |grad|_K:  2.385e-08  alpha:  2.566e-01  linmin:  5.461e-08  t[s]:   5140.30
	FillingsUpdate:  mu: -0.029578572  nElectrons: 737.000000
	SubspaceRotationAdjust: set factor to 0.218
ElecMinimize: Iter:  57  F: -3389.534983582468612  |grad|_K:  1.894e-08  alpha:  1.321e-01  linmin: -1.992e-08  t[s]:   5208.13
	FillingsUpdate:  mu: -0.029579636  nElectrons: 737.000000
	SubspaceRotationAdjust: set factor to 0.323
ElecMinimize: Iter:  58  F: -3389.534983598558483  |grad|_K:  1.530e-08  alpha:  2.684e-01  linmin:  9.629e-08  t[s]:   5275.71
	FillingsUpdate:  mu: -0.029580327  nElectrons: 737.000000
	SubspaceRotationAdjust: set factor to 0.229
ElecMinimize: Iter:  59  F: -3389.534983608204129  |grad|_K:  2.068e-08  alpha:  2.476e-01  linmin:  1.622e-08  t[s]:   5342.91
	FillingsUpdate:  mu: -0.029580857  nElectrons: 737.000000
	SubspaceRotationAdjust: set factor to 0.222
ElecMinimize: Iter:  60  F: -3389.534983617127637  |grad|_K:  1.316e-08  alpha:  1.236e-01  linmin:  4.437e-08  t[s]:   5411.02
ElecMinimize: Converged (|Delta F|<1.000000e-08 for 2 iters).
Setting wave functions to eigenvectors of Hamiltonian
Vacuum energy after initial minimize, F = -3389.534983617127637

	Linear fluid (dielectric constant: 78.4, screening length: 5.74355 Bohr) occupying 0.752983 of unit cell:	Completed after 20 iterations at t[s]:   5427.36

-------- Electronic minimization -----------
	Linear fluid (dielectric constant: 78.4, screening length: 5.74355 Bohr) occupying 0.752983 of unit cell:	Completed after 0 iterations at t[s]:   5443.51
	FillingsUpdate:  mu: -0.229813123  nElectrons: 737.000000
ElecMinimize: Iter:   0  F: -3389.689013184277883  |grad|_K:  2.056e-06  alpha:  1.000e+00
	Linear fluid (dielectric constant: 78.4, screening length: 5.74355 Bohr) occupying 0.753079 of unit cell:	Completed after 14 iterations at t[s]:   5500.45
	Linear fluid (dielectric constant: 78.4, screening length: 5.74355 Bohr) occupying 0.753018 of unit cell:	Completed after 12 iterations at t[s]:   5525.66
	FillingsUpdate:  mu: -0.233100166  nElectrons: 737.000000
	SubspaceRotationAdjust: set factor to 0.189
ElecMinimize: Iter:   1  F: -3389.689270970852249  |grad|_K:  1.028e-06  alpha:  3.646e-01  linmin:  3.999e-07  t[s]:   5555.84
	Linear fluid (dielectric constant: 78.4, screening length: 5.74355 Bohr) occupying 0.753060 of unit cell:	Completed after 8 iterations at t[s]:   5579.74
	Linear fluid (dielectric constant: 78.4, screening length: 5.74355 Bohr) occupying 0.753053 of unit cell:	Completed after 3 iterations at t[s]:   5602.38
	FillingsUpdate:  mu: -0.233278910  nElectrons: 737.000000
	SubspaceRotationAdjust: set factor to 0.174
ElecMinimize: Iter:   2  F: -3389.689324227782890  |grad|_K:  7.767e-07  alpha:  3.004e-01  linmin:  5.644e-07  t[s]:   5631.60
	Linear fluid (dielectric constant: 78.4, screening length: 5.74355 Bohr) occupying 0.753092 of unit cell:	Completed after 8 iterations at t[s]:   5655.76
	Linear fluid (dielectric constant: 78.4, screening length: 5.74355 Bohr) occupying 0.753093 of unit cell:	Completed after 0 iterations at t[s]:   5677.71
	FillingsUpdate:  mu: -0.233282116  nElectrons: 737.000000
	SubspaceRotationAdjust: set factor to 0.148
ElecMinimize: Iter:   3  F: -3389.689354992443441  |grad|_K:  5.672e-07  alpha:  3.063e-01  linmin: -8.667e-07  t[s]:   5706.64
	Linear fluid (dielectric constant: 78.4, screening length: 5.74355 Bohr) occupying 0.753126 of unit cell:	Completed after 3 iterations at t[s]:   5730.35
	Linear fluid (dielectric constant: 78.4, screening length: 5.74355 Bohr) occupying 0.753131 of unit cell:	Completed after 3 iterations at t[s]:   5752.34
	FillingsUpdate:  mu: -0.233350132  nElectrons: 737.000000
	SubspaceRotationAdjust: set factor to 0.17
ElecMinimize: Iter:   4  F: -3389.689374193980711  |grad|_K:  4.491e-07  alpha:  3.511e-01  linmin:  3.265e-07  t[s]:   5781.41
	Linear fluid (dielectric constant: 78.4, screening length: 5.74355 Bohr) occupying 0.753161 of unit cell:	Completed after 2 iterations at t[s]:   5804.72
	Linear fluid (dielectric constant: 78.4, screening length: 5.74355 Bohr) occupying 0.753167 of unit cell:	Completed after 3 iterations at t[s]:   5826.58
	FillingsUpdate:  mu: -0.233109754  nElectrons: 737.000000
	SubspaceRotationAdjust: set factor to 0.208
ElecMinimize: Iter:   5  F: -3389.689388223865990  |grad|_K:  3.457e-07  alpha:  4.214e-01  linmin:  1.359e-08  t[s]:   5855.77
	Linear fluid (dielectric constant: 78.4, screening length: 5.74355 Bohr) occupying 0.753191 of unit cell:	Completed after 7 iterations at t[s]:   5879.75
	Linear fluid (dielectric constant: 78.4, screening length: 5.74355 Bohr) occupying 0.753190 of unit cell:	Completed after 0 iterations at t[s]:   5902.10
	FillingsUpdate:  mu: -0.233028709  nElectrons: 737.000000
	SubspaceRotationAdjust: set factor to 0.196
ElecMinimize: Iter:   6  F: -3389.689396387019315  |grad|_K:  3.666e-07  alpha:  4.078e-01  linmin:  1.436e-07  t[s]:   5930.83
	Linear fluid (dielectric constant: 78.4, screening length: 5.74355 Bohr) occupying 0.753218 of unit cell:	Completed after 7 iterations at t[s]:   5954.75
	Linear fluid (dielectric constant: 78.4, screening length: 5.74355 Bohr) occupying 0.753207 of unit cell:	Completed after 3 iterations at t[s]:   5977.30
	FillingsUpdate:  mu: -0.232993787  nElectrons: 737.000000
	SubspaceRotationAdjust: set factor to 0.164
ElecMinimize: Iter:   7  F: -3389.689401791864839  |grad|_K:  2.361e-07  alpha:  2.454e-01  linmin:  1.468e-07  t[s]:   6006.67
	Linear fluid (dielectric constant: 78.4, screening length: 5.74355 Bohr) occupying 0.753214 of unit cell:	Completed after 3 iterations at t[s]:   6029.90
	Linear fluid (dielectric constant: 78.4, screening length: 5.74355 Bohr) occupying 0.753221 of unit cell:	Completed after 3 iterations at t[s]:   6051.91
	FillingsUpdate:  mu: -0.232949253  nElectrons: 737.000000
	SubspaceRotationAdjust: set factor to 0.164
ElecMinimize: Iter:   8  F: -3389.689406734351451  |grad|_K:  2.054e-07  alpha:  5.177e-01  linmin: -6.232e-07  t[s]:   6081.17
	Linear fluid (dielectric constant: 78.4, screening length: 5.74355 Bohr) occupying 0.753229 of unit cell:	Completed after 2 iterations at t[s]:   6104.31
	Linear fluid (dielectric constant: 78.4, screening length: 5.74355 Bohr) occupying 0.753227 of unit cell:	Completed after 0 iterations at t[s]:   6126.18
	FillingsUpdate:  mu: -0.232945519  nElectrons: 737.000000
	SubspaceRotationAdjust: set factor to 0.183
ElecMinimize: Iter:   9  F: -3389.689409463789616  |grad|_K:  1.641e-07  alpha:  3.682e-01  linmin:  2.522e-07  t[s]:   6154.79
	Linear fluid (dielectric constant: 78.4, screening length: 5.74355 Bohr) occupying 0.753229 of unit cell:	Completed after 3 iterations at t[s]:   6178.28
	Linear fluid (dielectric constant: 78.4, screening length: 5.74355 Bohr) occupying 0.753229 of unit cell:	Completed after 0 iterations at t[s]:   6199.46
	FillingsUpdate:  mu: -0.232938392  nElectrons: 737.000000
	SubspaceRotationAdjust: set factor to 0.186
ElecMinimize: Iter:  10  F: -3389.689410962733291  |grad|_K:  1.147e-07  alpha:  3.388e-01  linmin: -1.562e-08  t[s]:   6228.22
	Linear fluid (dielectric constant: 78.4, screening length: 5.74355 Bohr) occupying 0.753229 of unit cell:	Completed after 1 iterations at t[s]:   6251.23
	Linear fluid (dielectric constant: 78.4, screening length: 5.74355 Bohr) occupying 0.753230 of unit cell:	Completed after 0 iterations at t[s]:   6272.51
	FillingsUpdate:  mu: -0.232937305  nElectrons: 737.000000
	SubspaceRotationAdjust: set factor to 0.176
ElecMinimize: Iter:  11  F: -3389.689411824677791  |grad|_K:  7.418e-08  alpha:  3.883e-01  linmin: -8.623e-07  t[s]:   6300.89
	Linear fluid (dielectric constant: 78.4, screening length: 5.74355 Bohr) occupying 0.753230 of unit cell:	Completed after 1 iterations at t[s]:   6324.18
	Linear fluid (dielectric constant: 78.4, screening length: 5.74355 Bohr) occupying 0.753230 of unit cell:	Completed after 0 iterations at t[s]:   6345.79
	FillingsUpdate:  mu: -0.232936276  nElectrons: 737.000000
	SubspaceRotationAdjust: set factor to 0.201
ElecMinimize: Iter:  12  F: -3389.689412155744321  |grad|_K:  4.976e-08  alpha:  3.478e-01  linmin: -6.009e-07  t[s]:   6374.17
	Linear fluid (dielectric constant: 78.4, screening length: 5.74355 Bohr) occupying 0.753230 of unit cell:	Completed after 0 iterations at t[s]:   6396.59
	Linear fluid (dielectric constant: 78.4, screening length: 5.74355 Bohr) occupying 0.753230 of unit cell:	Completed after 0 iterations at t[s]:   6417.50
	FillingsUpdate:  mu: -0.232936255  nElectrons: 737.000000
	SubspaceRotationAdjust: set factor to 0.223
ElecMinimize: Iter:  13  F: -3389.689412321906730  |grad|_K:  4.168e-08  alpha:  3.915e-01  linmin:  1.765e-08  t[s]:   6446.34
	Linear fluid (dielectric constant: 78.4, screening length: 5.74355 Bohr) occupying 0.753231 of unit cell:	Completed after 2 iterations at t[s]:   6469.46
	Linear fluid (dielectric constant: 78.4, screening length: 5.74355 Bohr) occupying 0.753230 of unit cell:	Completed after 0 iterations at t[s]:   6490.95
ElecMinimize: 	Step increased F by 1.877652e-08, reducing alpha to 1.234450e-02.
	Linear fluid (dielectric constant: 78.4, screening length: 5.74355 Bohr) occupying 0.753230 of unit cell:	Completed after 1 iterations at t[s]:   6536.88
ElecMinimize: 	Step increased F by 4.906042e-08, reducing alpha to 1.234450e-03.
	Linear fluid (dielectric constant: 78.4, screening length: 5.74355 Bohr) occupying 0.753230 of unit cell:	Completed after 0 iterations at t[s]:   6582.70
ElecMinimize: 	Step increased F by 5.090988e-08, reducing alpha to 1.234450e-04.
ElecMinimize: 	Step failed to reduce F after 3 attempts. Quitting step.
ElecMinimize: 	Undoing step.
	Linear fluid (dielectric constant: 78.4, screening length: 5.74355 Bohr) occupying 0.753230 of unit cell:	Completed after 0 iterations at t[s]:   6628.96
ElecMinimize: 	Step failed: resetting search direction.
	FillingsUpdate:  mu: -0.232946679  nElectrons: 737.000000
	SubspaceRotationAdjust: set factor to 0.205
ElecMinimize: Iter:  14  F: -3389.689412271063702  |grad|_K:  7.731e-08  alpha:  1.234e-04
	Linear fluid (dielectric constant: 78.4, screening length: 5.74355 Bohr) occupying 0.753230 of unit cell:	Completed after 2 iterations at t[s]:   6680.87
	Linear fluid (dielectric constant: 78.4, screening length: 5.74355 Bohr) occupying 0.753230 of unit cell:	Completed after 3 iterations at t[s]:   6703.33
	FillingsUpdate:  mu: -0.232937935  nElectrons: 737.000000
	SubspaceRotationAdjust: set factor to 0.0963
ElecMinimize: Iter:  15  F: -3389.689412333596010  |grad|_K:  3.372e-08  alpha:  1.110e-01  linmin:  8.123e-05  t[s]:   6732.43
	Linear fluid (dielectric constant: 78.4, screening length: 5.74355 Bohr) occupying 0.753230 of unit cell:	Completed after 0 iterations at t[s]:   6754.97
ElecMinimize: 	Predicted alpha/alphaT>3.000000, increasing alphaT to 3.331162e-01.
	Linear fluid (dielectric constant: 78.4, screening length: 5.74355 Bohr) occupying 0.753230 of unit cell:	Completed after 0 iterations at t[s]:   6776.01
	Linear fluid (dielectric constant: 78.4, screening length: 5.74355 Bohr) occupying 0.753231 of unit cell:	Completed after 0 iterations at t[s]:   6797.22
	FillingsUpdate:  mu: -0.232938091  nElectrons: 737.000000
	SubspaceRotationAdjust: set factor to 0.135
ElecMinimize: Iter:  16  F: -3389.689412411830745  |grad|_K:  4.225e-08  alpha:  4.852e-01  linmin:  2.042e-08  t[s]:   6826.23
	Linear fluid (dielectric constant: 78.4, screening length: 5.74355 Bohr) occupying 0.753232 of unit cell:	Completed after 2 iterations at t[s]:   6849.30
	Linear fluid (dielectric constant: 78.4, screening length: 5.74355 Bohr) occupying 0.753231 of unit cell:	Completed after 3 iterations at t[s]:   6871.47
ElecMinimize: 	Step increased F by 9.861924e-08, reducing alpha to 7.556459e-03.
	Linear fluid (dielectric constant: 78.4, screening length: 5.74355 Bohr) occupying 0.753231 of unit cell:	Completed after 0 iterations at t[s]:   6917.80
ElecMinimize: 	Step increased F by 6.804612e-08, reducing alpha to 7.556459e-04.
	Linear fluid (dielectric constant: 78.4, screening length: 5.74355 Bohr) occupying 0.753231 of unit cell:	Completed after 0 iterations at t[s]:   6963.82
ElecMinimize: 	Step increased F by 6.523214e-08, reducing alpha to 7.556459e-05.
ElecMinimize: 	Step failed to reduce F after 3 attempts. Quitting step.
ElecMinimize: 	Undoing step.
	Linear fluid (dielectric constant: 78.4, screening length: 5.74355 Bohr) occupying 0.753231 of unit cell:	Completed after 0 iterations at t[s]:   7009.87
ElecMinimize: 	Step failed: resetting search direction.
	FillingsUpdate:  mu: -0.232929550  nElectrons: 737.000000
	SubspaceRotationAdjust: set factor to 0.116
ElecMinimize: Iter:  17  F: -3389.689412346700465  |grad|_K:  6.156e-08  alpha:  7.556e-05
	Linear fluid (dielectric constant: 78.4, screening length: 5.74355 Bohr) occupying 0.753231 of unit cell:	Completed after 2 iterations at t[s]:   7061.42
	Linear fluid (dielectric constant: 78.4, screening length: 5.74355 Bohr) occupying 0.753231 of unit cell:	Completed after 2 iterations at t[s]:   7083.50
	FillingsUpdate:  mu: -0.232934177  nElectrons: 737.000000
	SubspaceRotationAdjust: set factor to 0.0556
ElecMinimize: Iter:  18  F: -3389.689412391705446  |grad|_K:  2.230e-08  alpha:  1.410e-01  linmin:  1.170e-04  t[s]:   7112.74
	Linear fluid (dielectric constant: 78.4, screening length: 5.74355 Bohr) occupying 0.753231 of unit cell:	Completed after 0 iterations at t[s]:   7135.36
ElecMinimize: 	Predicted alpha/alphaT>3.000000, increasing alphaT to 4.231484e-01.
	Linear fluid (dielectric constant: 78.4, screening length: 5.74355 Bohr) occupying 0.753231 of unit cell:	Completed after 0 iterations at t[s]:   7156.36
	Linear fluid (dielectric constant: 78.4, screening length: 5.74355 Bohr) occupying 0.753231 of unit cell:	Completed after 0 iterations at t[s]:   7177.38
	FillingsUpdate:  mu: -0.232934167  nElectrons: 737.000000
	SubspaceRotationAdjust: set factor to 0.0836
ElecMinimize: Iter:  19  F: -3389.689412424987950  |grad|_K:  1.906e-08  alpha:  4.778e-01  linmin: -4.804e-07  t[s]:   7206.01
	Linear fluid (dielectric constant: 78.4, screening length: 5.74355 Bohr) occupying 0.753231 of unit cell:	Completed after 1 iterations at t[s]:   7229.03
	Linear fluid (dielectric constant: 78.4, screening length: 5.74355 Bohr) occupying 0.753231 of unit cell:	Completed after 0 iterations at t[s]:   7250.65
ElecMinimize: 	Step increased F by 3.173636e-08, reducing alpha to 8.975940e-03.
	Linear fluid (dielectric constant: 78.4, screening length: 5.74355 Bohr) occupying 0.753231 of unit cell:	Completed after 0 iterations at t[s]:   7296.84
ElecMinimize: 	Step increased F by 2.227216e-08, reducing alpha to 8.975940e-04.
	Linear fluid (dielectric constant: 78.4, screening length: 5.74355 Bohr) occupying 0.753231 of unit cell:	Completed after 0 iterations at t[s]:   7342.45
ElecMinimize: 	Step increased F by 2.136494e-08, reducing alpha to 8.975940e-05.
ElecMinimize: 	Step failed to reduce F after 3 attempts. Quitting step.
ElecMinimize: 	Undoing step.
	Linear fluid (dielectric constant: 78.4, screening length: 5.74355 Bohr) occupying 0.753231 of unit cell:	Completed after 0 iterations at t[s]:   7388.39
ElecMinimize: 	Step failed: resetting search direction.
	FillingsUpdate:  mu: -0.232936637  nElectrons: 737.000000
	SubspaceRotationAdjust: set factor to 0.0783
ElecMinimize: Iter:  20  F: -3389.689412403460665  |grad|_K:  4.912e-08  alpha:  8.976e-05
	Linear fluid (dielectric constant: 78.4, screening length: 5.74355 Bohr) occupying 0.753231 of unit cell:	Completed after 3 iterations at t[s]:   7440.50
	Linear fluid (dielectric constant: 78.4, screening length: 5.74355 Bohr) occupying 0.753231 of unit cell:	Completed after 1 iterations at t[s]:   7462.52
	FillingsUpdate:  mu: -0.232934939  nElectrons: 737.000000
	SubspaceRotationAdjust: set factor to 0.0391
ElecMinimize: Iter:  21  F: -3389.689412415047627  |grad|_K:  1.399e-08  alpha:  1.298e-01  linmin:  2.508e-04  t[s]:   7491.60
	Linear fluid (dielectric constant: 78.4, screening length: 5.74355 Bohr) occupying 0.753231 of unit cell:	Completed after 0 iterations at t[s]:   7514.12
ElecMinimize: 	Predicted alpha/alphaT>3.000000, increasing alphaT to 3.895380e-01.
	Linear fluid (dielectric constant: 78.4, screening length: 5.74355 Bohr) occupying 0.753231 of unit cell:	Completed after 0 iterations at t[s]:   7534.99
	Linear fluid (dielectric constant: 78.4, screening length: 5.74355 Bohr) occupying 0.753231 of unit cell:	Completed after 0 iterations at t[s]:   7555.81
	FillingsUpdate:  mu: -0.232934971  nElectrons: 737.000000
	SubspaceRotationAdjust: set factor to 0.0488
ElecMinimize: Iter:  22  F: -3389.689412437237479  |grad|_K:  1.820e-08  alpha:  8.394e-01  linmin:  5.858e-07  t[s]:   7584.83
	Linear fluid (dielectric constant: 78.4, screening length: 5.74355 Bohr) occupying 0.753231 of unit cell:	Completed after 2 iterations at t[s]:   7607.88
	Linear fluid (dielectric constant: 78.4, screening length: 5.74355 Bohr) occupying 0.753231 of unit cell:	Completed after 2 iterations at t[s]:   7629.84
ElecMinimize: 	Step increased F by 4.597769e-08, reducing alpha to 1.073863e-02.
	Linear fluid (dielectric constant: 78.4, screening length: 5.74355 Bohr) occupying 0.753231 of unit cell:	Completed after 0 iterations at t[s]:   7676.18
ElecMinimize: 	Step increased F by 3.555169e-08, reducing alpha to 1.073863e-03.
	Linear fluid (dielectric constant: 78.4, screening length: 5.74355 Bohr) occupying 0.753231 of unit cell:	Completed after 0 iterations at t[s]:   7721.94
ElecMinimize: 	Step increased F by 3.474861e-08, reducing alpha to 1.073863e-04.
ElecMinimize: 	Step failed to reduce F after 3 attempts. Quitting step.
ElecMinimize: 	Undoing step.
	Linear fluid (dielectric constant: 78.4, screening length: 5.74355 Bohr) occupying 0.753231 of unit cell:	Completed after 0 iterations at t[s]:   7768.02
ElecMinimize: 	Step failed: resetting search direction.
	FillingsUpdate:  mu: -0.232933004  nElectrons: 737.000000
	SubspaceRotationAdjust: set factor to 0.046
ElecMinimize: Iter:  23  F: -3389.689412402542530  |grad|_K:  3.764e-08  alpha:  1.074e-04
	Linear fluid (dielectric constant: 78.4, screening length: 5.74355 Bohr) occupying 0.753231 of unit cell:	Completed after 2 iterations at t[s]:   7819.66
	Linear fluid (dielectric constant: 78.4, screening length: 5.74355 Bohr) occupying 0.753231 of unit cell:	Completed after 3 iterations at t[s]:   7841.69
	FillingsUpdate:  mu: -0.232934744  nElectrons: 737.000000
	SubspaceRotationAdjust: set factor to 0.0457
ElecMinimize: Iter:  24  F: -3389.689412425497267  |grad|_K:  9.955e-09  alpha:  1.705e-01  linmin:  1.987e-04  t[s]:   7871.04
	Linear fluid (dielectric constant: 78.4, screening length: 5.74355 Bohr) occupying 0.753231 of unit cell:	Completed after 0 iterations at t[s]:   7893.72
	Linear fluid (dielectric constant: 78.4, screening length: 5.74355 Bohr) occupying 0.753231 of unit cell:	Completed after 0 iterations at t[s]:   7914.66
	FillingsUpdate:  mu: -0.232934738  nElectrons: 737.000000
	SubspaceRotationAdjust: set factor to 0.057
ElecMinimize: Iter:  25  F: -3389.689412430761877  |grad|_K:  5.303e-09  alpha:  3.227e-01  linmin: -3.151e-05  t[s]:   7943.42
	Linear fluid (dielectric constant: 78.4, screening length: 5.74355 Bohr) occupying 0.753231 of unit cell:	Completed after 0 iterations at t[s]:   7965.92
	Linear fluid (dielectric constant: 78.4, screening length: 5.74355 Bohr) occupying 0.753231 of unit cell:	Completed after 0 iterations at t[s]:   7986.63
	FillingsUpdate:  mu: -0.232934735  nElectrons: 737.000000
	SubspaceRotationAdjust: set factor to 0.0694
ElecMinimize: Iter:  26  F: -3389.689412433234338  |grad|_K:  5.497e-09  alpha:  4.122e-01  linmin: -5.420e-06  t[s]:   8015.28
ElecMinimize: Converged (|Delta F|<1.000000e-08 for 2 iters).
Setting wave functions to eigenvectors of Hamiltonian
Single-point solvation energy estimate, DeltaF = -0.154428816106702

# Ionic positions in lattice coordinates:
ion Cr   0.000000000000000   0.125923334166667   0.566921689361069 1
ion Cr   0.125000000000000   0.125923334166667   0.433539991994632 1
ion Cr   0.250000000000000   0.125923334166667   0.566921689361069 1
ion Cr   0.375000000000000   0.125923334166667   0.433539991994632 1
ion Cr   0.500000000000000   0.125923334166667   0.566921689361069 1
ion Cr   0.625000000000000   0.125923334166667   0.433539991994632 1
ion Cr   0.750000000000000   0.125923334166667   0.566921689361069 1
ion Cr   0.875000000000000   0.125923334166667   0.433539991994632 1
ion Cr   0.000000000000000   0.375923334166667   0.566921689361069 1
ion Cr   0.125000000000000   0.375923334166667   0.433539991994632 1
ion Cr   0.250000000000000   0.375923334166667   0.566921689361069 1
ion Cr   0.375000000000000   0.375923334166667   0.433539991994632 1
ion Cr   0.500000000000000   0.375923334166667   0.566921689361069 1
ion Cr   0.625000000000000   0.375923334166667   0.433539991994632 1
ion Cr   0.750000000000000   0.375923334166667   0.566921689361069 1
ion Cr   0.875000000000000   0.375923334166667   0.433539991994632 1
ion Cr   0.000000000000000   0.625923334166667   0.566921689361069 1
ion Cr   0.125000000000000   0.625923334166667   0.433539991994632 1
ion Cr   0.250000000000000   0.625923334166667   0.566921689361069 1
ion Cr   0.375000000000000   0.625923334166667   0.433539991994632 1
ion Cr   0.500000000000000   0.625923334166667   0.566921689361069 1
ion Cr   0.625000000000000   0.625923334166667   0.433539991994632 1
ion Cr   0.750000000000000   0.625923334166667   0.566921689361069 1
ion Cr   0.875000000000000   0.625923334166667   0.433539991994632 1
ion Cr   0.000000000000000   0.875923334166667   0.566921689361069 1
ion Cr   0.125000000000000   0.875923334166667   0.433539991994632 1
ion Cr   0.250000000000000   0.875923334166667   0.566921689361069 1
ion Cr   0.375000000000000   0.875923334166667   0.433539991994632 1
ion Cr   0.500000000000000   0.875923334166667   0.566921689361069 1
ion Cr   0.625000000000000   0.875923334166667   0.433539991994632 1
ion Cr   0.750000000000000   0.875923334166667   0.566921689361069 1
ion Cr   0.875000000000000   0.875923334166667   0.433539991994632 1
ion B   0.000000000000000   0.000923334166667   0.478904511995150 1
ion B   0.125000000000000   0.000923334166667   0.521638227202347 1
ion B   0.250000000000000   0.000923334166667   0.478904511995150 1
ion B   0.375000000000000   0.000923334166667   0.521638227202347 1
ion B   0.500000000000000   0.000923334166667   0.478904511995150 1
ion B   0.625000000000000   0.000923334166667   0.521638227202347 1
ion B   0.750000000000000   0.000923334166667   0.478904511995150 1
ion B   0.875000000000000   0.000923334166667   0.521638227202347 1
ion B   0.000000000000000   0.250923334166667   0.478904511995150 1
ion B   0.125000000000000   0.250923334166667   0.521638227202347 1
ion B   0.250000000000000   0.250923334166667   0.478904511995150 1
ion B   0.375000000000000   0.250923334166667   0.521638227202347 1
ion B   0.500000000000000   0.250923334166667   0.478904511995150 1
ion B   0.625000000000000   0.250923334166667   0.521638227202347 1
ion B   0.750000000000000   0.250923334166667   0.478904511995150 1
ion B   0.875000000000000   0.250923334166667   0.521638227202347 1
ion B   0.000000000000000   0.500923334166667   0.478904511995150 1
ion B   0.125000000000000   0.500923334166667   0.521638227202347 1
ion B   0.250000000000000   0.500923334166667   0.478904511995150 1
ion B   0.375000000000000   0.500923334166667   0.521638227202347 1
ion B   0.500000000000000   0.500923334166667   0.478904511995150 1
ion B   0.625000000000000   0.500923334166667   0.521638227202347 1
ion B   0.750000000000000   0.500923334166667   0.478904511995150 1
ion B   0.875000000000000   0.500923334166667   0.521638227202347 1
ion B   0.000000000000000   0.750923334166667   0.478904511995150 1
ion B   0.125000000000000   0.750923334166667   0.521638227202347 1
ion B   0.250000000000000   0.750923334166667   0.478904511995150 1
ion B   0.375000000000000   0.750923334166667   0.521638227202347 1
ion B   0.500000000000000   0.750923334166667   0.478904511995150 1
ion B   0.625000000000000   0.750923334166667   0.521638227202347 1
ion B   0.750000000000000   0.750923334166667   0.478904511995150 1
ion B   0.875000000000000   0.750923334166667   0.521638227202347 1
ion O   0.125000000000000   0.125923334166667   0.626931865232538 1
ion O   0.000000000000000   0.125923334166667   0.373573749214265 1
ion O   0.375000000000000   0.125923334166667   0.626931865232538 1
ion O   0.250000000000000   0.125923334166667   0.373573749214265 1
ion O   0.625000000000000   0.125923334166667   0.626931865232538 1
ion O   0.500000000000000   0.125923334166667   0.373573749214265 1
ion O   0.875000000000000   0.125923334166667   0.626931865232538 1
ion O   0.750000000000000   0.125923334166667   0.373573749214265 1
ion O   0.125000000000000   0.375923334166667   0.626931865232538 1
ion O   0.000000000000000   0.375923334166667   0.373573749214265 1
ion O   0.375000000000000   0.375923334166667   0.626931865232538 1
ion O   0.250000000000000   0.375923334166667   0.373573749214265 1
ion O   0.625000000000000   0.375923334166667   0.626931865232538 1
ion O   0.500000000000000   0.375923334166667   0.373573749214265 1
ion O   0.875000000000000   0.375923334166667   0.626931865232538 1
ion O   0.750000000000000   0.375923334166667   0.373573749214265 1
ion O   0.125000000000000   0.625923334166667   0.626931865232538 1
ion O   0.000000000000000   0.625923334166667   0.373573749214265 1
ion O   0.375000000000000   0.625923334166667   0.626931865232538 1
ion O   0.250000000000000   0.625923334166667   0.373573749214265 1
ion O   0.625000000000000   0.625923334166667   0.626931865232538 1
ion O   0.500000000000000   0.625923334166667   0.373573749214265 1
ion O   0.875000000000000   0.625923334166667   0.626931865232538 1
ion O   0.750000000000000   0.625923334166667   0.373573749214265 1
ion O   0.125000000000000   0.875923334166667   0.626931865232538 1
ion O   0.000000000000000   0.875923334166667   0.373573749214265 1
ion O   0.375000000000000   0.875923334166667   0.626931865232538 1
ion O   0.250000000000000   0.875923334166667   0.373573749214265 1
ion O   0.625000000000000   0.875923334166667   0.626931865232538 1
ion O   0.500000000000000   0.875923334166667   0.373573749214265 1
ion O   0.875000000000000   0.875923334166667   0.626931865232538 1
ion O   0.750000000000000   0.875923334166667   0.373573749214265 1


# Forces in Lattice coordinates:
force Cr   0.000000000000000  -0.000000000000000  -0.154133146348359 1
force Cr   0.000000000000000   0.000000000000000   0.145816213894983 1
force Cr  -0.000000000000000  -0.000000000000000  -0.154133146348359 1
force Cr   0.000000000000000  -0.000000000000000   0.145816213894983 1
force Cr  -0.000000000000000   0.000000000000000  -0.154133146348359 1
force Cr  -0.000000000000000  -0.000000000000000   0.145816213895436 1
force Cr   0.000000000000000  -0.000000000000000  -0.154133146348359 1
force Cr  -0.000000000000000  -0.000000000000000   0.145816213895437 1
force Cr  -0.000000000000000   0.000000000000000  -0.154133146348132 1
force Cr  -0.000000000000000  -0.000000000000000   0.145816213895665 1
force Cr   0.000000000000000   0.000000000000000  -0.154133146348132 1
force Cr   0.000000000000000   0.000000000000000   0.145816213895665 1
force Cr   0.000000000000000   0.000000000000000  -0.154133146348131 1
force Cr  -0.000000000000000   0.000000000000000   0.145816213895666 1
force Cr   0.000000000000000  -0.000000000000000  -0.154133146348131 1
force Cr   0.000000000000000  -0.000000000000000   0.145816213896120 1
force Cr   0.000000000000000  -0.000000000000000  -0.154133146348360 1
force Cr  -0.000000000000000   0.000000000000000   0.145816213895437 1
force Cr  -0.000000000000000   0.000000000000000  -0.154133146348360 1
force Cr  -0.000000000000000   0.000000000000000   0.145816213895212 1
force Cr  -0.000000000000000  -0.000000000000000  -0.154133146348360 1
force Cr  -0.000000000000000  -0.000000000000000   0.145816213895211 1
force Cr  -0.000000000000000   0.000000000000000  -0.154133146348359 1
force Cr  -0.000000000000000  -0.000000000000000   0.145816213895210 1
force Cr   0.000000000000000  -0.000000000000000  -0.154133146348133 1
force Cr   0.000000000000000  -0.000000000000000   0.145816213895210 1
force Cr  -0.000000000000000  -0.000000000000000  -0.154133146348133 1
force Cr   0.000000000000000   0.000000000000000   0.145816213895210 1
force Cr   0.000000000000000  -0.000000000000000  -0.154133146348133 1
force Cr  -0.000000000000000   0.000000000000000   0.145816213895437 1
force Cr   0.000000000000000  -0.000000000000000  -0.154133146348133 1
force Cr   0.000000000000000   0.000000000000000   0.145816213895438 1
force B   0.000000000000000   0.000000000000000  -0.004818140651522 1
force B   0.000000000000000   0.000000000000000  -0.003291347736399 1
force B   0.000000000000000  -0.000000000000000  -0.004818140651522 1
force B   0.000000000000000   0.000000000000000  -0.003291347736371 1
force B   0.000000000000000   0.000000000000000  -0.004818140651551 1
force B  -0.000000000000000   0.000000000000000  -0.003291347736399 1
force B   0.000000000000000  -0.000000000000000  -0.004818140651551 1
force B  -0.000000000000000  -0.000000000000000  -0.003291347736371 1
force B  -0.000000000000000  -0.000000000000000  -0.004818140651551 1
force B  -0.000000000000000   0.000000000000000  -0.003291347736342 1
force B   0.000000000000000  -0.000000000000000  -0.004818140651579 1
force B  -0.000000000000000  -0.000000000000000  -0.003291347736342 1
force B   0.000000000000000   0.000000000000000  -0.004818140651579 1
force B  -0.000000000000000   0.000000000000000  -0.003291347736371 1
force B   0.000000000000000   0.000000000000000  -0.004818140651522 1
force B   0.000000000000000   0.000000000000000  -0.003291347736314 1
force B  -0.000000000000000   0.000000000000000  -0.004818140651551 1
force B  -0.000000000000000   0.000000000000000  -0.003291347736371 1
force B   0.000000000000000   0.000000000000000  -0.004818140651579 1
force B   0.000000000000000   0.000000000000000  -0.003291347736371 1
force B   0.000000000000000  -0.000000000000000  -0.004818140651551 1
force B   0.000000000000000   0.000000000000000  -0.003291347736371 1
force B   0.000000000000000   0.000000000000000  -0.004818140651550 1
force B   0.000000000000000  -0.000000000000000  -0.003291347736371 1
force B   0.000000000000000  -0.000000000000000  -0.004818140651494 1
force B   0.000000000000000  -0.000000000000000  -0.003291347736342 1
force B  -0.000000000000000  -0.000000000000000  -0.004818140651551 1
force B  -0.000000000000000  -0.000000000000000  -0.003291347736371 1
force B   0.000000000000000  -0.000000000000000  -0.004818140651522 1
force B  -0.000000000000000  -0.000000000000000  -0.003291347736342 1
force B   0.000000000000000  -0.000000000000000  -0.004818140651522 1
force B   0.000000000000000  -0.000000000000000  -0.003291347736342 1
force O  -0.000000000000000   0.000000000000000   0.142385195516052 1
force O  -0.000000000000000  -0.000000000000000  -0.148296235208203 1
force O   0.000000000000000   0.000000000000000   0.142385195516272 1
force O   0.000000000000000   0.000000000000000  -0.148296235208200 1
force O  -0.000000000000000   0.000000000000000   0.142385195516052 1
force O  -0.000000000000000  -0.000000000000000  -0.148296235208203 1
force O  -0.000000000000000   0.000000000000000   0.142385195516272 1
force O  -0.000000000000000  -0.000000000000000  -0.148296235207972 1
force O  -0.000000000000000   0.000000000000000   0.142385195516052 1
force O   0.000000000000000   0.000000000000000  -0.148296235208200 1
force O   0.000000000000000  -0.000000000000000   0.142385195516283 1
force O   0.000000000000000  -0.000000000000000  -0.148296235207749 1
force O   0.000000000000000   0.000000000000000   0.142385195516049 1
force O   0.000000000000000   0.000000000000000  -0.148296235207749 1
force O   0.000000000000000   0.000000000000000   0.142385195516052 1
force O  -0.000000000000000  -0.000000000000000  -0.148296235207972 1
force O   0.000000000000000  -0.000000000000000   0.142385195516049 1
force O  -0.000000000000000  -0.000000000000000  -0.148296235207976 1
force O   0.000000000000000   0.000000000000000   0.142385195516276 1
force O   0.000000000000000   0.000000000000000  -0.148296235208203 1
force O  -0.000000000000000   0.000000000000000   0.142385195516045 1
force O   0.000000000000000   0.000000000000000  -0.148296235207976 1
force O  -0.000000000000000   0.000000000000000   0.142385195516280 1
force O   0.000000000000000  -0.000000000000000  -0.148296235207976 1
force O  -0.000000000000000   0.000000000000000   0.142385195516049 1
force O  -0.000000000000000  -0.000000000000000  -0.148296235208203 1
force O  -0.000000000000000  -0.000000000000000   0.142385195515821 1
force O   0.000000000000000  -0.000000000000000  -0.148296235208203 1
force O   0.000000000000000   0.000000000000000   0.142385195516045 1
force O  -0.000000000000000   0.000000000000000  -0.148296235207976 1
force O   0.000000000000000   0.000000000000000   0.142385195516272 1
force O  -0.000000000000000  -0.000000000000000  -0.148296235207976 1

# Energy components:
   A_diel =       -0.1332849093387345
   Eewald =    31908.1044772276727599
       EH =    34819.9207523634686368
     Eloc =   -70938.9848000694037182
      Enl =      384.6769801639998150
      Exc =     -523.1104427238871040
 Exc_core =       37.5018570640637279
       KE =      922.5418808620647724
  MuShift =       -0.0215325116715011
-------------------------------------
     Etot =    -3389.5041125330303657
       TS =        0.1852999002038483
-------------------------------------
        F =    -3389.6894124332343381

IonicMinimize: Iter:   0  F: -3389.689412433234338  |grad|_K:  1.857e-03  t[s]:   8034.14

#--- Lowdin population analysis ---
# oxidation-state Cr +1.157 +1.157 +1.157 +1.157 +1.157 +1.157 +1.157 +1.157 +1.157 +1.157 +1.157 +1.157 +1.157 +1.157 +1.157 +1.157 +1.157 +1.157 +1.157 +1.157 +1.157 +1.157 +1.157 +1.157 +1.157 +1.157 +1.157 +1.157 +1.157 +1.157 +1.157 +1.157
# oxidation-state B -0.591 -0.591 -0.591 -0.591 -0.591 -0.591 -0.591 -0.591 -0.591 -0.591 -0.591 -0.591 -0.591 -0.591 -0.591 -0.591 -0.591 -0.591 -0.591 -0.591 -0.591 -0.591 -0.591 -0.591 -0.591 -0.591 -0.591 -0.591 -0.591 -0.591 -0.591 -0.591
# oxidation-state O -0.496 -0.496 -0.496 -0.496 -0.496 -0.496 -0.496 -0.496 -0.496 -0.496 -0.496 -0.496 -0.496 -0.496 -0.496 -0.496 -0.496 -0.496 -0.496 -0.496 -0.496 -0.496 -0.496 -0.496 -0.496 -0.496 -0.496 -0.496 -0.496 -0.496 -0.496 -0.496

	Linear fluid (dielectric constant: 78.4, screening length: 5.74355 Bohr) occupying 0.753130 of unit cell:	Completed after 10 iterations at t[s]:   8060.18

-------- Electronic minimization -----------
	Linear fluid (dielectric constant: 78.4, screening length: 5.74355 Bohr) occupying 0.753130 of unit cell:	Completed after 0 iterations at t[s]:   8075.83
	FillingsUpdate:  mu: -0.234906667  nElectrons: 737.000000
ElecMinimize: Iter:   0  F: -3389.689709499458331  |grad|_K:  1.098e-06  alpha:  1.000e+00
	Linear fluid (dielectric constant: 78.4, screening length: 5.74355 Bohr) occupying 0.753132 of unit cell:	Completed after 12 iterations at t[s]:   8132.35
	Linear fluid (dielectric constant: 78.4, screening length: 5.74355 Bohr) occupying 0.753131 of unit cell:	Completed after 10 iterations at t[s]:   8156.78
	FillingsUpdate:  mu: -0.233929559  nElectrons: 737.000000
	SubspaceRotationAdjust: set factor to 0.0868
ElecMinimize: Iter:   1  F: -3389.689819838328276  |grad|_K:  8.410e-07  alpha:  5.471e-01  linmin:  1.269e-06  t[s]:   8187.05
	Linear fluid (dielectric constant: 78.4, screening length: 5.74355 Bohr) occupying 0.753133 of unit cell:	Completed after 8 iterations at t[s]:   8211.24
	Linear fluid (dielectric constant: 78.4, screening length: 5.74355 Bohr) occupying 0.753132 of unit cell:	Completed after 2 iterations at t[s]:   8233.76
	FillingsUpdate:  mu: -0.233715108  nElectrons: 737.000000
	SubspaceRotationAdjust: set factor to 0.0984
ElecMinimize: Iter:   2  F: -3389.689857986560583  |grad|_K:  6.628e-07  alpha:  3.224e-01  linmin:  1.565e-05  t[s]:   8262.81
	Linear fluid (dielectric constant: 78.4, screening length: 5.74355 Bohr) occupying 0.753133 of unit cell:	Completed after 2 iterations at t[s]:   8286.17
ElecMinimize: 	Predicted alpha/alphaT>3.000000, increasing alphaT to 9.673206e-01.
	Linear fluid (dielectric constant: 78.4, screening length: 5.74355 Bohr) occupying 0.753134 of unit cell:	Completed after 3 iterations at t[s]:   8308.25
	Linear fluid (dielectric constant: 78.4, screening length: 5.74355 Bohr) occupying 0.753134 of unit cell:	Completed after 0 iterations at t[s]:   8329.92
	FillingsUpdate:  mu: -0.233812306  nElectrons: 737.000000
	SubspaceRotationAdjust: set factor to 0.118
ElecMinimize: Iter:   3  F: -3389.689931675296975  |grad|_K:  9.268e-07  alpha:  1.002e+00  linmin: -1.250e-05  t[s]:   8359.31
	Linear fluid (dielectric constant: 78.4, screening length: 5.74355 Bohr) occupying 0.753138 of unit cell:	Completed after 2 iterations at t[s]:   8382.41
	Linear fluid (dielectric constant: 78.4, screening length: 5.74355 Bohr) occupying 0.753137 of unit cell:	Completed after 2 iterations at t[s]:   8404.09
	FillingsUpdate:  mu: -0.233726018  nElectrons: 737.000000
	SubspaceRotationAdjust: set factor to 0.129
ElecMinimize: Iter:   4  F: -3389.690034437084250  |grad|_K:  1.034e-06  alpha:  7.126e-01  linmin:  8.668e-07  t[s]:   8433.00
	Linear fluid (dielectric constant: 78.4, screening length: 5.74355 Bohr) occupying 0.753138 of unit cell:	Completed after 3 iterations at t[s]:   8456.19
	Linear fluid (dielectric constant: 78.4, screening length: 5.74355 Bohr) occupying 0.753137 of unit cell:	Completed after 2 iterations at t[s]:   8478.21
	FillingsUpdate:  mu: -0.233922372  nElectrons: 737.000000
	SubspaceRotationAdjust: set factor to 0.135
ElecMinimize: Iter:   5  F: -3389.690111014065678  |grad|_K:  9.613e-07  alpha:  4.274e-01  linmin:  2.173e-06  t[s]:   8507.22
	Linear fluid (dielectric constant: 78.4, screening length: 5.74355 Bohr) occupying 0.753136 of unit cell:	Completed after 3 iterations at t[s]:   8530.32
	Linear fluid (dielectric constant: 78.4, screening length: 5.74355 Bohr) occupying 0.753136 of unit cell:	Completed after 0 iterations at t[s]:   8552.02
	FillingsUpdate:  mu: -0.233982134  nElectrons: 737.000000
	SubspaceRotationAdjust: set factor to 0.141
ElecMinimize: Iter:   6  F: -3389.690173266960301  |grad|_K:  6.182e-07  alpha:  4.022e-01  linmin:  1.178e-05  t[s]:   8580.83
	Linear fluid (dielectric constant: 78.4, screening length: 5.74355 Bohr) occupying 0.753134 of unit cell:	Completed after 2 iterations at t[s]:   8604.02
	Linear fluid (dielectric constant: 78.4, screening length: 5.74355 Bohr) occupying 0.753134 of unit cell:	Completed after 0 iterations at t[s]:   8625.36
	FillingsUpdate:  mu: -0.233917414  nElectrons: 737.000000
	SubspaceRotationAdjust: set factor to 0.145
ElecMinimize: Iter:   7  F: -3389.690197160265143  |grad|_K:  4.812e-07  alpha:  3.737e-01  linmin:  3.158e-05  t[s]:   8654.56
	Linear fluid (dielectric constant: 78.4, screening length: 5.74355 Bohr) occupying 0.753133 of unit cell:	Completed after 2 iterations at t[s]:   8677.40
[...]
	FillingsUpdate:  mu: -0.235726802  nElectrons: 737.000000
	SubspaceRotationAdjust: set factor to 0.0661
ElecMinimize: Iter:  21  F: -3389.690826273647872  |grad|_K:  2.347e-08  alpha:  1.640e-01  linmin: -1.935e-05  t[s]:  17136.48
	Linear fluid (dielectric constant: 78.4, screening length: 5.74355 Bohr) occupying 0.752831 of unit cell:	Completed after 0 iterations at t[s]:  17158.87
	Linear fluid (dielectric constant: 78.4, screening length: 5.74355 Bohr) occupying 0.752831 of unit cell:	Completed after 0 iterations at t[s]:  17179.77
	FillingsUpdate:  mu: -0.235726843  nElectrons: 737.000000
	SubspaceRotationAdjust: set factor to 0.0735
ElecMinimize: Iter:  22  F: -3389.690826310511511  |grad|_K:  2.141e-08  alpha:  3.711e-01  linmin:  1.822e-06  t[s]:  17208.65
	Linear fluid (dielectric constant: 78.4, screening length: 5.74355 Bohr) occupying 0.752831 of unit cell:	Completed after 2 iterations at t[s]:  17231.79
	Linear fluid (dielectric constant: 78.4, screening length: 5.74355 Bohr) occupying 0.752831 of unit cell:	Completed after 0 iterations at t[s]:  17253.06
ElecMinimize: 	Step increased F by 8.822099e-09, reducing alpha to 1.201514e-02.
	Linear fluid (dielectric constant: 78.4, screening length: 5.74355 Bohr) occupying 0.752831 of unit cell:	Completed after 0 iterations at t[s]:  17298.84
ElecMinimize: 	Step increased F by 9.446467e-09, reducing alpha to 1.201514e-03.
	Linear fluid (dielectric constant: 78.4, screening length: 5.74355 Bohr) occupying 0.752831 of unit cell:	Completed after 0 iterations at t[s]:  17344.32
ElecMinimize: 	Step increased F by 9.792075e-09, reducing alpha to 1.201514e-04.
ElecMinimize: 	Step failed to reduce F after 3 attempts. Quitting step.
ElecMinimize: 	Undoing step.
	Linear fluid (dielectric constant: 78.4, screening length: 5.74355 Bohr) occupying 0.752831 of unit cell:	Completed after 0 iterations at t[s]:  17390.00
ElecMinimize: 	Step failed: resetting search direction.
	FillingsUpdate:  mu: -0.235725765  nElectrons: 737.000000
	SubspaceRotationAdjust: set factor to 0.0738
ElecMinimize: Iter:  23  F: -3389.690826300588014  |grad|_K:  2.713e-08  alpha:  1.202e-04
	Linear fluid (dielectric constant: 78.4, screening length: 5.74355 Bohr) occupying 0.752831 of unit cell:	Completed after 2 iterations at t[s]:  17441.49
	Linear fluid (dielectric constant: 78.4, screening length: 5.74355 Bohr) occupying 0.752831 of unit cell:	Completed after 0 iterations at t[s]:  17462.86
	FillingsUpdate:  mu: -0.235727006  nElectrons: 737.000000
	SubspaceRotationAdjust: set factor to 0.0725
ElecMinimize: Iter:  24  F: -3389.690826310540160  |grad|_K:  1.397e-08  alpha:  1.295e-01  linmin:  4.021e-04  t[s]:  17491.61
	Linear fluid (dielectric constant: 78.4, screening length: 5.74355 Bohr) occupying 0.752831 of unit cell:	Completed after 0 iterations at t[s]:  17514.05
ElecMinimize: 	Predicted alpha/alphaT>3.000000, increasing alphaT to 3.884358e-01.
	Linear fluid (dielectric constant: 78.4, screening length: 5.74355 Bohr) occupying 0.752831 of unit cell:	Completed after 0 iterations at t[s]:  17534.91
	Linear fluid (dielectric constant: 78.4, screening length: 5.74355 Bohr) occupying 0.752831 of unit cell:	Completed after 0 iterations at t[s]:  17556.12
	FillingsUpdate:  mu: -0.235727020  nElectrons: 737.000000
	SubspaceRotationAdjust: set factor to 0.0851
ElecMinimize: Iter:  25  F: -3389.690826321245822  |grad|_K:  1.771e-08  alpha:  4.205e-01  linmin: -2.101e-07  t[s]:  17584.42
	Linear fluid (dielectric constant: 78.4, screening length: 5.74355 Bohr) occupying 0.752831 of unit cell:	Completed after 2 iterations at t[s]:  17607.49
	Linear fluid (dielectric constant: 78.4, screening length: 5.74355 Bohr) occupying 0.752831 of unit cell:	Completed after 0 iterations at t[s]:  17629.05
ElecMinimize: 	Step increased F by 2.938577e-09, reducing alpha to 6.869698e-03.
	Linear fluid (dielectric constant: 78.4, screening length: 5.74355 Bohr) occupying 0.752831 of unit cell:	Completed after 0 iterations at t[s]:  17674.93
	FillingsUpdate:  mu: -0.235723576  nElectrons: 737.000000
	SubspaceRotationAdjust: set factor to 0.0818
ElecMinimize: Iter:  26  F: -3389.690826328818275  |grad|_K:  4.141e-08  alpha:  6.870e-03  linmin:  1.209e-04  t[s]:  17703.58
ElecMinimize: 	Bad step direction: g.d > 0.
ElecMinimize: 	Undoing step.
	Linear fluid (dielectric constant: 78.4, screening length: 5.74355 Bohr) occupying 0.752831 of unit cell:	Completed after 0 iterations at t[s]:  17726.12
ElecMinimize: 	Step failed: resetting search direction.
	FillingsUpdate:  mu: -0.235723576  nElectrons: 737.000000
	SubspaceRotationAdjust: set factor to 0.106
ElecMinimize: Iter:  27  F: -3389.690826328846924  |grad|_K:  4.120e-08  alpha:  0.000e+00
ElecMinimize: Converged (|Delta F|<1.000000e-08 for 2 iters).
Setting wave functions to eigenvectors of Hamiltonian

# Ionic positions in lattice coordinates:
ion Cr  -0.000000000000000   0.125923334166667   0.566724746590668 1
ion Cr   0.125000000000000   0.125923334166667   0.433722096350213 1
ion Cr   0.250000000000000   0.125923334166667   0.566724746590668 1
ion Cr   0.375000000000000   0.125923334166667   0.433722096350213 1
ion Cr   0.500000000000000   0.125923334166667   0.566724746590668 1
ion Cr   0.625000000000000   0.125923334166667   0.433722096350213 1
ion Cr   0.750000000000000   0.125923334166667   0.566724746590668 1
ion Cr   0.875000000000000   0.125923334166667   0.433722096350213 1
ion Cr  -0.000000000000000   0.375923334166667   0.566724746590668 1
ion Cr   0.125000000000000   0.375923334166667   0.433722096350213 1
ion Cr   0.250000000000000   0.375923334166667   0.566724746590668 1
ion Cr   0.375000000000000   0.375923334166667   0.433722096350213 1
ion Cr   0.500000000000000   0.375923334166667   0.566724746590668 1
ion Cr   0.625000000000000   0.375923334166667   0.433722096350213 1
ion Cr   0.750000000000000   0.375923334166667   0.566724746590668 1
ion Cr   0.875000000000000   0.375923334166667   0.433722096350213 1
ion Cr   0.000000000000000   0.625923334166667   0.566724746590668 1
ion Cr   0.125000000000000   0.625923334166667   0.433722096350213 1
ion Cr   0.250000000000000   0.625923334166667   0.566724746590668 1
ion Cr   0.375000000000000   0.625923334166667   0.433722096350213 1
ion Cr   0.500000000000000   0.625923334166667   0.566724746590668 1
ion Cr   0.625000000000000   0.625923334166667   0.433722096350213 1
ion Cr   0.750000000000000   0.625923334166667   0.566724746590668 1
ion Cr   0.875000000000000   0.625923334166667   0.433722096350213 1
ion Cr  -0.000000000000000   0.875923334166667   0.566724746590668 1
ion Cr   0.125000000000000   0.875923334166667   0.433722096350213 1
ion Cr   0.250000000000000   0.875923334166667   0.566724746590668 1
ion Cr   0.375000000000000   0.875923334166667   0.433722096350213 1
ion Cr   0.500000000000000   0.875923334166667   0.566724746590668 1
ion Cr   0.625000000000000   0.875923334166667   0.433722096350213 1
ion Cr   0.750000000000000   0.875923334166667   0.566724746590668 1
ion Cr   0.875000000000000   0.875923334166667   0.433722096350213 1
ion B  -0.000000000000000   0.000923334166667   0.478793561056807 1
ion B   0.125000000000000   0.000923334166667   0.521739102028037 1
ion B   0.250000000000000   0.000923334166667   0.478793561056807 1
ion B   0.375000000000000   0.000923334166667   0.521739102028037 1
ion B   0.500000000000000   0.000923334166667   0.478793561056807 1
ion B   0.625000000000000   0.000923334166667   0.521739102028037 1
ion B   0.750000000000000   0.000923334166667   0.478793561056807 1
ion B   0.875000000000000   0.000923334166667   0.521739102028037 1
ion B  -0.000000000000000   0.250923334166667   0.478793561056807 1
ion B   0.125000000000000   0.250923334166667   0.521739102028037 1
ion B   0.250000000000000   0.250923334166667   0.478793561056807 1
ion B   0.375000000000000   0.250923334166667   0.521739102028037 1
ion B   0.500000000000000   0.250923334166667   0.478793561056807 1
ion B   0.625000000000000   0.250923334166667   0.521739102028037 1
ion B   0.750000000000000   0.250923334166667   0.478793561056807 1
ion B   0.875000000000000   0.250923334166667   0.521739102028037 1
ion B  -0.000000000000000   0.500923334166667   0.478793561056807 1
ion B   0.125000000000000   0.500923334166667   0.521739102028037 1
ion B   0.250000000000000   0.500923334166667   0.478793561056807 1
ion B   0.375000000000000   0.500923334166667   0.521739102028037 1
ion B   0.500000000000000   0.500923334166667   0.478793561056807 1
ion B   0.625000000000000   0.500923334166667   0.521739102028037 1
ion B   0.750000000000000   0.500923334166667   0.478793561056807 1
ion B   0.875000000000000   0.500923334166667   0.521739102028037 1
ion B   0.000000000000000   0.750923334166667   0.478793561056807 1
ion B   0.125000000000000   0.750923334166667   0.521739102028037 1
ion B   0.250000000000000   0.750923334166667   0.478793561056807 1
ion B   0.375000000000000   0.750923334166667   0.521739102028037 1
ion B   0.500000000000000   0.750923334166667   0.478793561056807 1
ion B   0.625000000000000   0.750923334166667   0.521739102028037 1
ion B   0.750000000000000   0.750923334166667   0.478793561056807 1
ion B   0.875000000000000   0.750923334166667   0.521739102028037 1
ion O   0.125000000000000   0.125923334166667   0.627358037901645 1
ion O   0.000000000000000   0.125923334166667   0.373172491072631 1
ion O   0.375000000000000   0.125923334166667   0.627358037901645 1
ion O   0.250000000000000   0.125923334166667   0.373172491072631 1
ion O   0.625000000000000   0.125923334166667   0.627358037901645 1
ion O   0.500000000000000   0.125923334166667   0.373172491072631 1
ion O   0.875000000000000   0.125923334166667   0.627358037901645 1
ion O   0.750000000000000   0.125923334166667   0.373172491072631 1
ion O   0.125000000000000   0.375923334166667   0.627358037901645 1
ion O  -0.000000000000000   0.375923334166667   0.373172491072631 1
ion O   0.375000000000000   0.375923334166667   0.627358037901645 1
ion O   0.250000000000000   0.375923334166667   0.373172491072631 1
ion O   0.625000000000000   0.375923334166667   0.627358037901645 1
ion O   0.500000000000000   0.375923334166667   0.373172491072631 1
ion O   0.875000000000000   0.375923334166667   0.627358037901645 1
ion O   0.750000000000000   0.375923334166667   0.373172491072631 1
ion O   0.125000000000000   0.625923334166667   0.627358037901645 1
ion O  -0.000000000000000   0.625923334166667   0.373172491072631 1
ion O   0.375000000000000   0.625923334166667   0.627358037901645 1
ion O   0.250000000000000   0.625923334166667   0.373172491072631 1
ion O   0.625000000000000   0.625923334166667   0.627358037901645 1
ion O   0.500000000000000   0.625923334166667   0.373172491072631 1
ion O   0.875000000000000   0.625923334166667   0.627358037901645 1
ion O   0.750000000000000   0.625923334166667   0.373172491072631 1
ion O   0.125000000000000   0.875923334166667   0.627358037901645 1
ion O  -0.000000000000000   0.875923334166667   0.373172491072631 1
ion O   0.375000000000000   0.875923334166667   0.627358037901645 1
ion O   0.250000000000000   0.875923334166667   0.373172491072631 1
ion O   0.625000000000000   0.875923334166667   0.627358037901645 1
ion O   0.500000000000000   0.875923334166667   0.373172491072631 1
ion O   0.875000000000000   0.875923334166667   0.627358037901645 1
ion O   0.750000000000000   0.875923334166667   0.373172491072631 1


# Forces in Lattice coordinates:
force Cr   0.000000000000000  -0.000000000000000   0.001906476684627 1
force Cr   0.000000000000000   0.000000000000000  -0.001200624578724 1
force Cr  -0.000000000000000  -0.000000000000000   0.001906476684627 1
force Cr   0.000000000000000  -0.000000000000000  -0.001200624578723 1
force Cr   0.000000000000000  -0.000000000000000   0.001906476684854 1
force Cr   0.000000000000000  -0.000000000000000  -0.001200624578496 1
force Cr   0.000000000000000   0.000000000000000   0.001906476684399 1
force Cr  -0.000000000000000   0.000000000000000  -0.001200624578951 1
force Cr  -0.000000000000000   0.000000000000000   0.001906476684172 1
force Cr   0.000000000000000  -0.000000000000000  -0.001200624578951 1
force Cr  -0.000000000000000   0.000000000000000   0.001906476684171 1
force Cr   0.000000000000000  -0.000000000000000  -0.001200624579406 1
force Cr  -0.000000000000000   0.000000000000000   0.001906476684628 1
force Cr  -0.000000000000000   0.000000000000000  -0.001200624579178 1
force Cr  -0.000000000000000  -0.000000000000000   0.001906476684400 1
force Cr   0.000000000000000   0.000000000000000  -0.001200624579407 1
force Cr  -0.000000000000000  -0.000000000000000   0.001906476684855 1
force Cr   0.000000000000000   0.000000000000000  -0.001200624579178 1
force Cr  -0.000000000000000  -0.000000000000000   0.001906476684627 1
force Cr  -0.000000000000000   0.000000000000000  -0.001200624579406 1
force Cr  -0.000000000000000  -0.000000000000000   0.001906476684627 1
force Cr   0.000000000000000  -0.000000000000000  -0.001200624579178 1
force Cr   0.000000000000000   0.000000000000000   0.001906476684627 1
force Cr   0.000000000000000  -0.000000000000000  -0.001200624579406 1
force Cr   0.000000000000000  -0.000000000000000   0.001906476683944 1
force Cr  -0.000000000000000   0.000000000000000  -0.001200624578951 1
force Cr  -0.000000000000000   0.000000000000000   0.001906476683946 1
force Cr  -0.000000000000000  -0.000000000000000  -0.001200624579406 1
force Cr   0.000000000000000  -0.000000000000000   0.001906476683945 1
force Cr  -0.000000000000000   0.000000000000000  -0.001200624579178 1
force Cr   0.000000000000000  -0.000000000000000   0.001906476684173 1
force Cr  -0.000000000000000   0.000000000000000  -0.001200624578951 1
force B   0.000000000000000  -0.000000000000000  -0.000277548641809 1
force B  -0.000000000000000   0.000000000000000  -0.008531243151145 1
force B   0.000000000000000   0.000000000000000  -0.000277548641837 1
force B  -0.000000000000000  -0.000000000000000  -0.008531243151116 1
force B   0.000000000000000  -0.000000000000000  -0.000277548641837 1
force B   0.000000000000000  -0.000000000000000  -0.008531243151116 1
force B   0.000000000000000  -0.000000000000000  -0.000277548641837 1
force B  -0.000000000000000   0.000000000000000  -0.008531243151173 1
force B   0.000000000000000   0.000000000000000  -0.000277548641894 1
force B   0.000000000000000  -0.000000000000000  -0.008531243151059 1
force B   0.000000000000000  -0.000000000000000  -0.000277548641866 1
force B   0.000000000000000   0.000000000000000  -0.008531243151059 1
force B  -0.000000000000000   0.000000000000000  -0.000277548641866 1
force B   0.000000000000000  -0.000000000000000  -0.008531243151088 1
force B   0.000000000000000   0.000000000000000  -0.000277548641866 1
force B  -0.000000000000000  -0.000000000000000  -0.008531243151088 1
force B  -0.000000000000000  -0.000000000000000  -0.000277548641809 1
force B   0.000000000000000  -0.000000000000000  -0.008531243151145 1
force B   0.000000000000000  -0.000000000000000  -0.000277548641809 1
force B  -0.000000000000000  -0.000000000000000  -0.008531243151145 1
force B   0.000000000000000   0.000000000000000  -0.000277548641837 1
force B  -0.000000000000000  -0.000000000000000  -0.008531243151116 1
force B  -0.000000000000000  -0.000000000000000  -0.000277548641809 1
force B  -0.000000000000000   0.000000000000000  -0.008531243151116 1
force B  -0.000000000000000   0.000000000000000  -0.000277548641781 1
force B   0.000000000000000  -0.000000000000000  -0.008531243151173 1
force B  -0.000000000000000   0.000000000000000  -0.000277548641837 1
force B   0.000000000000000   0.000000000000000  -0.008531243151173 1
force B   0.000000000000000  -0.000000000000000  -0.000277548641809 1
force B   0.000000000000000   0.000000000000000  -0.008531243151173 1
force B  -0.000000000000000   0.000000000000000  -0.000277548641809 1
force B   0.000000000000000  -0.000000000000000  -0.008531243151173 1
force O  -0.000000000000000   0.000000000000000  -0.005721742656291 1
force O   0.000000000000000   0.000000000000000  -0.008432035100718 1
force O  -0.000000000000000  -0.000000000000000  -0.005721742656291 1
force O   0.000000000000000   0.000000000000000  -0.008432035100721 1
force O  -0.000000000000000   0.000000000000000  -0.005721742656291 1
force O  -0.000000000000000  -0.000000000000000  -0.008432035100718 1
force O  -0.000000000000000   0.000000000000000  -0.005721742656291 1
force O  -0.000000000000000  -0.000000000000000  -0.008432035100714 1
force O  -0.000000000000000  -0.000000000000000  -0.005721742656288 1
force O   0.000000000000000   0.000000000000000  -0.008432035100714 1
force O   0.000000000000000  -0.000000000000000  -0.005721742656519 1
force O   0.000000000000000   0.000000000000000  -0.008432035100711 1
force O   0.000000000000000   0.000000000000000  -0.005721742656288 1
force O  -0.000000000000000   0.000000000000000  -0.008432035100714 1
force O   0.000000000000000   0.000000000000000  -0.005721742656519 1
force O  -0.000000000000000  -0.000000000000000  -0.008432035100718 1
force O   0.000000000000000   0.000000000000000  -0.005721742656291 1
force O   0.000000000000000   0.000000000000000  -0.008432035100711 1
force O   0.000000000000000   0.000000000000000  -0.005721742656291 1
force O  -0.000000000000000   0.000000000000000  -0.008432035100714 1
force O   0.000000000000000   0.000000000000000  -0.005721742656284 1
force O  -0.000000000000000   0.000000000000000  -0.008432035100714 1
force O   0.000000000000000   0.000000000000000  -0.005721742656288 1
force O  -0.000000000000000  -0.000000000000000  -0.008432035100711 1
force O  -0.000000000000000  -0.000000000000000  -0.005721742656291 1
force O   0.000000000000000  -0.000000000000000  -0.008432035100487 1
force O   0.000000000000000  -0.000000000000000  -0.005721742656291 1
force O   0.000000000000000   0.000000000000000  -0.008432035100483 1
force O   0.000000000000000  -0.000000000000000  -0.005721742656519 1
force O   0.000000000000000  -0.000000000000000  -0.008432035100714 1
force O   0.000000000000000   0.000000000000000  -0.005721742656522 1
force O  -0.000000000000000   0.000000000000000  -0.008432035100483 1

# Energy components:
   A_diel =       -0.1333145646118045
   Eewald =    31897.0674298242811346
       EH =    34807.7227287006171537
     Eloc =   -70915.4079891386791132
      Enl =      384.6026057835283609
      Exc =     -522.9654694751266106
 Exc_core =       37.5017006794339522
       KE =      922.1284694306343681
  MuShift =       -0.0215325116715011
-------------------------------------
     Etot =    -3389.5053712715953225
       TS =        0.1854550572517139
-------------------------------------
        F =    -3389.6908263288469243

IonicMinimize: Iter:   4  F: -3389.690826328846924  |grad|_K:  6.263e-05  alpha:  1.000e+00  linmin: -3.286e-03  t[s]:  17773.31
IonicMinimize: Converged (|grad|_K<1.000000e-04).

#--- Lowdin population analysis ---
# oxidation-state Cr +1.159 +1.156 +1.159 +1.156 +1.159 +1.156 +1.159 +1.156 +1.159 +1.156 +1.159 +1.156 +1.159 +1.156 +1.159 +1.156 +1.159 +1.156 +1.159 +1.156 +1.159 +1.156 +1.159 +1.156 +1.159 +1.156 +1.159 +1.156 +1.159 +1.156 +1.159 +1.156
# oxidation-state B -0.592 -0.592 -0.592 -0.592 -0.592 -0.592 -0.592 -0.592 -0.592 -0.592 -0.592 -0.592 -0.592 -0.592 -0.592 -0.592 -0.592 -0.592 -0.592 -0.592 -0.592 -0.592 -0.592 -0.592 -0.592 -0.592 -0.592 -0.592 -0.592 -0.592 -0.592 -0.592
# oxidation-state O -0.496 -0.496 -0.496 -0.496 -0.496 -0.496 -0.496 -0.496 -0.496 -0.496 -0.496 -0.496 -0.496 -0.496 -0.496 -0.496 -0.496 -0.496 -0.496 -0.496 -0.496 -0.496 -0.496 -0.496 -0.496 -0.496 -0.496 -0.496 -0.496 -0.496 -0.496 -0.496


Dumping 'NbTe2.fillings' ... done
Dumping 'NbTe2.wfns' ... done
Dumping 'NbTe2.fluidState' ... done
Dumping 'NbTe2.ionpos' ... done
Dumping 'NbTe2.eigenvals' ... done
End date and time: Thu Apr 22 15:19:04 2021  (Duration: 0-4:56:22.32)
Done!
