
*************** JDFTx 1.5.0  ***************

Start date and time: Tue Jul 14 19:10:44 2020
Executable jdftx_gpu with command-line: -i Charged.in -o Charged.out
Running on hosts (process indices):  amax (0-1)
Divided in process groups (process indices):  0 (0)  1 (1)
gpuInit: Found compatible cuda device 0 'Tesla K80'
gpuInit: Found compatible cuda device 1 'Tesla K80'
gpuInit: Selected device 0
Resource initialization completed at t[s]:      4.40
Run totals: 2 processes, 24 threads, 2 GPUs


Input parsed successfully to the following command list (including defaults):

basis kpoint-dependent
cache-projectors no
coords-type Lattice
core-overlap-check none
coulomb-interaction Slab 001
coulomb-truncation-embed 0 0 0.5
davidson-band-ratio 1.1
dump End State
dump-name NbTe2.$VAR
elec-cutoff 20 100
elec-eigen-algo Davidson
elec-ex-corr gga-PBE
elec-smearing Gauss 0.0073499
electronic-minimize  \
	dirUpdateScheme      FletcherReeves \
	linminMethod         DirUpdateRecommended \
	nIterations          500 \
	history              15 \
	knormThreshold       0 \
	energyDiffThreshold  1e-08 \
	nEnergyDiff          2 \
	alphaTstart          1 \
	alphaTmin            1e-10 \
	updateTestStepSize   yes \
	alphaTreduceFactor   0.1 \
	alphaTincreaseFactor 3 \
	nAlphaAdjustMax      3 \
	wolfeEnergy          0.0001 \
	wolfeGradient        0.9 \
	fdTest               no
exchange-regularization WignerSeitzTruncated
fluid LinearPCM 298.000000 1.013250
fluid-anion F- 1 MeanFieldLJ \
	epsBulk 1 \
	pMol 0 \
	epsInf 1 \
	Pvap 0 \
	sigmaBulk 0 \
	Rvdw 2.24877 \
	Res 0 \
	tauNuc 343133
fluid-cation Na+ 1 MeanFieldLJ \
	epsBulk 1 \
	pMol 0 \
	epsInf 1 \
	Pvap 0 \
	sigmaBulk 0 \
	Rvdw 2.19208 \
	Res 0 \
	tauNuc 343133
fluid-ex-corr lda-TF lda-PZ
fluid-gummel-loop 10 1.000000e-05
fluid-minimize  \
	dirUpdateScheme      PolakRibiere \
	linminMethod         DirUpdateRecommended \
	nIterations          400 \
	history              15 \
	knormThreshold       1e-11 \
	energyDiffThreshold  0 \
	nEnergyDiff          2 \
	alphaTstart          1 \
	alphaTmin            1e-10 \
	updateTestStepSize   yes \
	alphaTreduceFactor   0.1 \
	alphaTincreaseFactor 3 \
	nAlphaAdjustMax      6 \
	wolfeEnergy          0.0001 \
	wolfeGradient        0.9 \
	fdTest               no
fluid-solvent H2O 55.338 ScalarEOS \
	epsBulk 78.4 \
	pMol 0.92466 \
	epsInf 1.77 \
	Pvap 1.06736e-10 \
	sigmaBulk 4.62e-05 \
	Rvdw 2.61727 \
	Res 1.42 \
	tauNuc 343133 \
	poleEl 15 7 1
forces-output-coords Positions
initial-state NbTe2.$VAR
ion Ag   0.123058096279619   0.642410213240348   0.601677128009424 0
ion Ag   0.623058096279619   0.642410213240348   0.601677128009424 0
ion Ag   0.376941871300768   0.142410224540130   0.601677038046975 0
ion Ag   0.876941871300768   0.142410224540130   0.601677038046975 0
ion Au   0.051234083449421   0.986345035997899   0.488129859123958 0
ion Au   0.551234083449421   0.986345035997899   0.488129859123958 0
ion Au   0.448765964761834   0.486345251207467   0.488129905524374 0
ion Au   0.948765964761834   0.486345251207467   0.488129905524374 0
ion Au   0.250475018547786   0.745602491714326   0.403758252767990 0
ion Au   0.750475018547786   0.745602491714326   0.403758252767990 0
ion Au   0.249525002106327   0.245602489227191   0.403758334802245 0
ion Au   0.749525002106328   0.245602489227191   0.403758334802245 0
ion S   0.416916999734675   0.996090183375099   0.384698633085623 0
ion S   0.916916999734675   0.996090183375099   0.384698633085623 0
ion S   0.370166399934517   0.481739986513389   0.602734788010455 0
ion S   0.870166399934517   0.481739986513389   0.602734788010455 0
ion S   0.129833563966523   0.981739968700487   0.602734761088566 0
ion S   0.629833563966523   0.981739968700487   0.602734761088566 0
ion S   0.083082999918531   0.496090155483661   0.384698671951458 0
ion S   0.583082999918531   0.496090155483661   0.384698671951458 0
ion-species GBRV/$ID_pbe.uspp
ion-width Ecut
ionic-minimize  \
	dirUpdateScheme      L-BFGS \
	linminMethod         DirUpdateRecommended \
	nIterations          0 \
	history              15 \
	knormThreshold       0.0001 \
	energyDiffThreshold  1e-06 \
	nEnergyDiff          2 \
	alphaTstart          1 \
	alphaTmin            1e-10 \
	updateTestStepSize   yes \
	alphaTreduceFactor   0.1 \
	alphaTincreaseFactor 3 \
	nAlphaAdjustMax      3 \
	wolfeEnergy          0.0001 \
	wolfeGradient        0.9 \
	fdTest               no
kpoint   0.000000000000   0.000000000000   0.000000000000  1.00000000000000
kpoint-folding 4 5 1 
latt-move-scale 1 1 1
latt-scale 1 1 1 
lattice Triclinic 16.2051 13.5301 36.9574 90 90 90
lattice-minimize  \
	dirUpdateScheme      L-BFGS \
	linminMethod         DirUpdateRecommended \
	nIterations          0 \
	history              15 \
	knormThreshold       0 \
	energyDiffThreshold  1e-06 \
	nEnergyDiff          2 \
	alphaTstart          1 \
	alphaTmin            1e-10 \
	updateTestStepSize   yes \
	alphaTreduceFactor   0.1 \
	alphaTincreaseFactor 3 \
	nAlphaAdjustMax      3 \
	wolfeEnergy          0.0001 \
	wolfeGradient        0.9 \
	fdTest               no
lcao-params -1 1e-06 0.0073499
pcm-variant CANDLE
spintype no-spin
subspace-rotation-factor 1 yes
symmetries automatic
symmetry-threshold 0.0001
target-mu -0.171252 no




---------- Setting up symmetries ----------

Found 8 point-group symmetries of the bravais lattice
Found 4 space-group symmetries with basis
Applied RMS atom displacement 1.34692e-06 bohrs to make symmetries exact.

---------- Initializing the Grid ----------
R = 
[    16.2051          0          0  ]
[          0    13.5301          0  ]
[          0          0    36.9574  ]
unit cell volume = 8103.14
G =
[    0.38773          0          0  ]
[          0   0.464386          0  ]
[          0          0   0.170012  ]
Minimum fftbox size, Smin = [  76  64  168  ]
Chosen fftbox size, S = [  80  64  168  ]

---------- Initializing tighter grid for wavefunction operations ----------
R = 
[    16.2051          0          0  ]
[          0    13.5301          0  ]
[          0          0    36.9574  ]
unit cell volume = 8103.14
G =
[    0.38773          0          0  ]
[          0   0.464386          0  ]
[          0          0   0.170012  ]
Minimum fftbox size, Smin = [  68  56  152  ]
Chosen fftbox size, S = [  70  56  160  ]

---------- Exchange Correlation functional ----------
Initalized PBE GGA exchange.
Initalized PBE GGA correlation.

---------- Setting up pseudopotentials ----------
Width of ionic core gaussian charges (only for fluid interactions / plotting) set to 0.397384

Reading pseudopotential file '/home/guoxy/vasp/jdftx-1.5.0/build/pseudopotentials/GBRV/ag_pbe.uspp':
  Title: Ag.  Created by USPP 7.3.6 on 1-4-15
  Reference state energy: -147.606242.  19 valence electrons in orbitals:
    |400>  occupation: 2  eigenvalue: -3.637437
    |410>  occupation: 6  eigenvalue: -2.297267
    |420>  occupation: 10  eigenvalue: -0.417763
    |500>  occupation: 0.5  eigenvalue: -0.283525
    |510>  occupation: 0  eigenvalue: -0.122889
  lMax: 2  lLocal: 0  QijEcut: 5.5
  6 projectors sampled on a log grid with 717 points:
    l: 0  eig: -0.283528  rCut: 1.5
    l: 0  eig: -3.637440  rCut: 1.5
    l: 1  eig: -0.122892  rCut: 1.5
    l: 1  eig: -2.297267  rCut: 1.5
    l: 2  eig: -0.417762  rCut: 1.7
    l: 2  eig: -1.000000  rCut: 1.7
  Partial core density with radius 1.2
  Transforming core density to a uniform radial grid of dG=0.02 with 1295 points.
  Transforming local potential to a uniform radial grid of dG=0.02 with 1295 points.
  Transforming nonlocal projectors to a uniform radial grid of dG=0.02 with 432 points.
  Transforming density augmentations to a uniform radial grid of dG=0.02 with 1295 points.
  Transforming atomic orbitals to a uniform radial grid of dG=0.02 with 432 points.
  Core radius for overlap checks: 1.70 bohrs.

Reading pseudopotential file '/home/guoxy/vasp/jdftx-1.5.0/build/pseudopotentials/GBRV/au_pbe.uspp':
  Title: Au.  Created by USPP 7.3.6 on 14-9-2013
  Reference state energy: -57.375295.  11 valence electrons in orbitals:
    |520>  occupation: 10  eigenvalue: -0.252742
    |600>  occupation: 1  eigenvalue: -0.211744
    |610>  occupation: 0  eigenvalue: -0.028291
  lMax: 3  lLocal: -1  QijEcut: 5
  7 projectors sampled on a log grid with 755 points:
    l: 0  eig: -0.211744  rCut: 2.3
    l: 0  eig: 0.500000  rCut: 2.3
    l: 1  eig: -0.028291  rCut: 2.35
    l: 1  eig: 0.850000  rCut: 2.35
    l: 2  eig: -0.252741  rCut: 2.1
    l: 2  eig: 1.000000  rCut: 2.1
    l: 3  eig: 0.000000  rCut: 2.5
  Partial core density with radius 1
  Transforming core density to a uniform radial grid of dG=0.02 with 1295 points.
  Transforming local potential to a uniform radial grid of dG=0.02 with 1295 points.
  Transforming nonlocal projectors to a uniform radial grid of dG=0.02 with 432 points.
  Transforming density augmentations to a uniform radial grid of dG=0.02 with 1295 points.
  Transforming atomic orbitals to a uniform radial grid of dG=0.02 with 432 points.
  Core radius for overlap checks: 2.50 bohrs.

Reading pseudopotential file '/home/guoxy/vasp/jdftx-1.5.0/build/pseudopotentials/GBRV/s_pbe.uspp':
  Title: S.  Created by USPP 7.3.6 on 1-4-15
  Reference state energy: -11.898476.  6 valence electrons in orbitals:
    |300>  occupation: 2  eigenvalue: -0.634167
    |310>  occupation: 4  eigenvalue: -0.257568
  lMax: 2  lLocal: 3  QijEcut: 6
  6 projectors sampled on a log grid with 635 points:
    l: 0  eig: -0.634161  rCut: 1.5
    l: 0  eig: 1.500000  rCut: 1.5
    l: 1  eig: -0.257567  rCut: 1.5
    l: 1  eig: 1.500000  rCut: 1.5
    l: 2  eig: -1.000000  rCut: 1.5
    l: 2  eig: 1.500000  rCut: 1.5
  Partial core density with radius 1.15
  Transforming core density to a uniform radial grid of dG=0.02 with 1295 points.
  Transforming local potential to a uniform radial grid of dG=0.02 with 1295 points.
  Transforming nonlocal projectors to a uniform radial grid of dG=0.02 with 432 points.
  Transforming density augmentations to a uniform radial grid of dG=0.02 with 1295 points.
  Transforming atomic orbitals to a uniform radial grid of dG=0.02 with 432 points.
  Core radius for overlap checks: 1.50 bohrs.

Initialized 3 species with 20 total atoms.

Folded 1 k-points by 4x5x1 to 20 k-points.

---------- Setting up k-points, bands, fillings ----------
Adding inversion symmetry to k-mesh for non-inversion-symmetric unit cell.
Reduced to 9 k-points under symmetry. 
Computing the number of bands and number of electrons
Reading initial fillings from file NbTe2.fillings.
nElectrons: 212.000000   nBands: 156   nStates: 9

----- Setting up reduced wavefunction bases (one per k-point) -----
average nbasis = 34622.450 , ideal nbasis = 34617.216

---------- Setting up coulomb interaction ----------
Fluid mode embedding: using embedded box, but periodic Coulomb kernel.
(Fluid response is responsible for (approximate) separation between periodic images.)
Setting up double-sized grid for truncated Coulomb potentials:
R = 
[    16.2051          0          0  ]
[          0    13.5301          0  ]
[          0          0    73.9148  ]
unit cell volume = 16206.3
G =
[    0.38773          0          0  ]
[          0   0.464386          0  ]
[          0          0  0.0850058  ]
Chosen fftbox size, S = [  80  64  336  ]
Integer grid location selected as the embedding center:
   Grid: [  0  0  84  ]
   Lattice: [  0  0  0.5  ]
   Cartesian: [  0  0  18.4787  ]
Constructing Wigner-Seitz cell: 6 faces (6 quadrilaterals, 0 hexagons)
Range-separation parameter for embedded mesh potentials due to point charges: 0.591706 bohrs.

Initializing van der Waals corrections
	NOTE: vdW corrections apply only for interactions with fluid.
	Ag:  C6:  427.91 Eh-a0^6  R0: 3.097 a0
	Au:  C6:  815.23 Eh-a0^6  R0: 3.326 a0 (WARNING: beyond Grimme's data set)
	 S:  C6:   96.61 Eh-a0^6  R0: 3.180 a0

---------- Setting up ewald sum ----------
Optimum gaussian width for ewald sums = 6.127728 bohr.
Real space sum over 715 unit cells with max indices [  5  6  2  ]
Reciprocal space sum over 4961 terms with max indices [  5  5  20  ]

---------- Allocating electronic variables ----------
Initializing wave functions:  reading from 'NbTe2.wfns'
----- createFluidSolver() ----- (Fluid-side solver setup)
   Initializing fluid molecule 'H2O'
     Initializing site 'O'
       Electron density: proportional to exp(-r/0.36935)*erfc((r-0.51523)/0.36823) with norm 6.826
       Charge density: gaussian nuclear width 0.478731 with net site charge 0.826
       Polarizability: cuspless exponential with width 0.32 and norm 3.73
       Hard sphere radius: 2.57003 bohrs
       Positions in reference frame:
         [ +0.000000 +0.000000 +0.000000 ]
     Initializing site 'H'
       Electron density: proportional to exp(-r/0.34641)*erfc((r-0)/0.390882) with norm 0.587
       Charge density: gaussian nuclear width 0.377945 with net site charge -0.413
       Polarizability: cuspless exponential with width 0.39 and norm 3.3
       Positions in reference frame:
         [ +0.000000 -1.441945 +1.122523 ]
         [ +0.000000 +1.441945 +1.122523 ]
     Net charge: 0   dipole magnitude: 0.927204
     Initializing spherical shell mfKernel with radius 2.61727 Bohr
     deltaS corrections:
       site 'O': -7.54299
       site 'H': -6.83917
   Initializing fluid molecule 'Na+'
     Initializing site 'Na'
       Electron density: proportional to exp(-r/0.19682)*erfc((r-0.71491)/0.41314) with norm 8.1383
       Charge density: gaussian nuclear width 0.365347 with net site charge -1
       Hard sphere radius: 1.86327 bohrs
       Positions in reference frame:
         [ +0.000000 +0.000000 +0.000000 ]
     Net charge: -1   dipole magnitude: 0
     Initializing gaussian mfKernel with width: 1.55004 Bohr
     deltaS corrections:
       site 'Na': -22.3555
   Initializing fluid molecule 'F-'
     Initializing site 'F'
       Electron density: proportional to exp(-r/0.38886)*erfc((r-0)/0.438782) with norm 8
       Charge density: gaussian nuclear width 0.374796 with net site charge 1
       Hard sphere radius: 2.39995 bohrs
       Positions in reference frame:
         [ +0.000000 +0.000000 +0.000000 ]
     Net charge: 1   dipole magnitude: 0
     Initializing gaussian mfKernel with width: 1.59012 Bohr
     deltaS corrections:
       site 'F': -9.04335

Correction to mu due to finite nuclear width = -0.0129793
   Cavity determined by nc: 0.00142 and sigma: 0.707107
   Nonlocal vdW cavity from gaussian model electron density with norm = 8 and sigma = 0.993594 bohr
   Charge asymmetry in cavity with sensitivity pCavity = 36.5 e-bohr/Eh
   Electrostatic cavity expanded by eta = 1.46 bohrs
   Weighted density cavitation model constrained by Nbulk: 0.0049383 bohr^-3, Pvap: 3.14029 kPa, Rvdw: 2.61727 bohr and sigmaBulk: 4.62e-05 Eh/bohr^2 at T: 298 K.
   Weighted density dispersion model using vdW pair potentials with single solvent site with sqrtC6eff: 0.77 SI.
Reading fluid state from 'NbTe2.fluidState'


---- Citations for features of the code used in this run ----

   Software package:
      R. Sundararaman, K. Letchworth-Weaver, K.A. Schwarz, D. Gunceler, Y. Ozhabes and T.A. Arias, 'JDFTx: software for joint density-functional theory', SoftwareX 6, 278 (2017)

   gga-PBE exchange-correlation functional:
      J.P. Perdew, K. Burke and M. Ernzerhof, Phys. Rev. Lett. 77, 3865 (1996)

   Pseudopotentials:
      KF Garrity, JW Bennett, KM Rabe and D Vanderbilt, Comput. Mater. Sci. 81, 446 (2014)

   Truncated Coulomb potentials:
      R. Sundararaman and T.A. Arias, Phys. Rev. B 87, 165122 (2013)

   Van der Waals correction pair-potentials:
      S. Grimme, J. Comput. Chem. 27, 1787 (2006)

   Charge-asymmetric nonlocally-determined local-electric (CANDLE) solvation model:
      R. Sundararaman and W.A. Goddard III, J. Chem. Phys. 142, 064107 (2015)

   Total energy minimization with Auxiliary Hamiltonian:
      C. Freysoldt, S. Boeck, and J. Neugebauer, Phys. Rev. B 79, 241103(R) (2009)

   Grand-canonical (fixed-potential) DFT:
      R. Sundararaman, W. A. Goddard III and T. A. Arias, J. Chem. Phys. 146, 114104 (2017)

This list may not be complete. Please suggest additional citations or
report any other bugs at https://github.com/shankar1729/jdftx/issues

Initialization completed successfully at t[s]:     20.63

Shifting auxilliary hamiltonian by 0.024286 to set nElectrons=212.000000
	Linear fluid (dielectric constant: 78.4, screening length: 5.74355 Bohr) occupying 0.744744 of unit cell:	Completed after 2 iterations at t[s]:     24.49

-------- Electronic minimization -----------
	Linear fluid (dielectric constant: 78.4, screening length: 5.74355 Bohr) occupying 0.744744 of unit cell:	Completed after 0 iterations at t[s]:     28.58
	FillingsUpdate:  mu: -0.171251800  nElectrons: 212.000000
ElecMinimize: Iter:   0  G: -913.684768311205517  |grad|_K:  4.162e-05  alpha:  1.000e+00
	Linear fluid (dielectric constant: 78.4, screening length: 5.74355 Bohr) occupying 0.793800 of unit cell:	Completed after 30 iterations at t[s]:     43.12
	Linear fluid (dielectric constant: 78.4, screening length: 5.74355 Bohr) occupying 0.764961 of unit cell:	Completed after 27 iterations at t[s]:     52.11
ElecMinimize: 	Step increased G by 1.788113e-02, reducing alpha to 1.668887e-02.
	Linear fluid (dielectric constant: 78.4, screening length: 5.74355 Bohr) occupying 0.744909 of unit cell:	Completed after 20 iterations at t[s]:     63.91
	FillingsUpdate:  mu: -0.171251800  nElectrons: 212.115349
	SubspaceRotationAdjust: set factor to 0.506
ElecMinimize: Iter:   1  G: -913.686913970174146  |grad|_K:  2.301e-05  alpha:  1.669e-02  linmin: -6.650e-02  t[s]:     69.73
	Linear fluid (dielectric constant: 78.4, screening length: 5.74355 Bohr) occupying 0.745400 of unit cell:	Completed after 14 iterations at t[s]:     75.27
	Linear fluid (dielectric constant: 78.4, screening length: 5.74355 Bohr) occupying 0.746032 of unit cell:	Completed after 12 iterations at t[s]:     83.42
	FillingsUpdate:  mu: -0.171251800  nElectrons: 212.281851
	SubspaceRotationAdjust: set factor to 0.425
ElecMinimize: Iter:   2  G: -913.688090759913280  |grad|_K:  9.184e-06  alpha:  2.889e-02  linmin: -1.915e-03  t[s]:     89.88
	Linear fluid (dielectric constant: 78.4, screening length: 5.74355 Bohr) occupying 0.746288 of unit cell:	Completed after 10 iterations at t[s]:     97.16
ElecMinimize: 	Predicted alpha/alphaT>3.000000, increasing alphaT to 8.668366e-02.
	Linear fluid (dielectric constant: 78.4, screening length: 5.74355 Bohr) occupying 0.746891 of unit cell:	Completed after 12 iterations at t[s]:    104.06
ElecMinimize: 	Predicted alpha/alphaT>3.000000, increasing alphaT to 2.600510e-01.
	Linear fluid (dielectric constant: 78.4, screening length: 5.74355 Bohr) occupying 0.749347 of unit cell:	Completed after 16 iterations at t[s]:    110.33
	Linear fluid (dielectric constant: 78.4, screening length: 5.74355 Bohr) occupying 0.750562 of unit cell:	Completed after 12 iterations at t[s]:    116.31
	FillingsUpdate:  mu: -0.171251800  nElectrons: 212.567199
	SubspaceRotationAdjust: set factor to 0.261
ElecMinimize: Iter:   3  G: -913.689622594246316  |grad|_K:  1.394e-05  alpha:  3.296e-01  linmin: -1.544e-03  t[s]:    122.40
	Linear fluid (dielectric constant: 78.4, screening length: 5.74355 Bohr) occupying 0.756546 of unit cell:	Completed after 19 iterations at t[s]:    128.67
	Linear fluid (dielectric constant: 78.4, screening length: 5.74355 Bohr) occupying 0.753507 of unit cell:	Completed after 16 iterations at t[s]:    135.32
	FillingsUpdate:  mu: -0.171251800  nElectrons: 212.712672
	SubspaceRotationAdjust: set factor to 0.384
ElecMinimize: Iter:   4  G: -913.691465251610225  |grad|_K:  8.404e-06  alpha:  1.691e-01  linmin: -7.957e-05  t[s]:    141.08
	Linear fluid (dielectric constant: 78.4, screening length: 5.74355 Bohr) occupying 0.754142 of unit cell:	Completed after 14 iterations at t[s]:    147.97
	Linear fluid (dielectric constant: 78.4, screening length: 5.74355 Bohr) occupying 0.754780 of unit cell:	Completed after 13 iterations at t[s]:    154.39
	FillingsUpdate:  mu: -0.171251800  nElectrons: 212.785715
	SubspaceRotationAdjust: set factor to 0.366
ElecMinimize: Iter:   5  G: -913.692626367597541  |grad|_K:  9.271e-06  alpha:  3.363e-01  linmin:  1.487e-04  t[s]:    161.84
	Linear fluid (dielectric constant: 78.4, screening length: 5.74355 Bohr) occupying 0.761108 of unit cell:	Completed after 17 iterations at t[s]:    167.44
	Linear fluid (dielectric constant: 78.4, screening length: 5.74355 Bohr) occupying 0.759001 of unit cell:	Completed after 14 iterations at t[s]:    173.31
	FillingsUpdate:  mu: -0.171251800  nElectrons: 212.954622
	SubspaceRotationAdjust: set factor to 0.454
ElecMinimize: Iter:   6  G: -913.693539705396233  |grad|_K:  7.061e-06  alpha:  2.220e-01  linmin: -3.867e-06  t[s]:    178.18
	Linear fluid (dielectric constant: 78.4, screening length: 5.74355 Bohr) occupying 0.761651 of unit cell:	Completed after 16 iterations at t[s]:    183.42
	Linear fluid (dielectric constant: 78.4, screening length: 5.74355 Bohr) occupying 0.761700 of unit cell:	Completed after 3 iterations at t[s]:    188.79
	FillingsUpdate:  mu: -0.171251800  nElectrons: 213.064202
	SubspaceRotationAdjust: set factor to 0.462
ElecMinimize: Iter:   7  G: -913.694089628494339  |grad|_K:  5.463e-06  alpha:  2.262e-01  linmin: -1.880e-05  t[s]:    194.77
	Linear fluid (dielectric constant: 78.4, screening length: 5.74355 Bohr) occupying 0.760927 of unit cell:	Completed after 14 iterations at t[s]:    201.75
	Linear fluid (dielectric constant: 78.4, screening length: 5.74355 Bohr) occupying 0.761139 of unit cell:	Completed after 11 iterations at t[s]:    208.65
	FillingsUpdate:  mu: -0.171251800  nElectrons: 213.054650
	SubspaceRotationAdjust: set factor to 0.562
ElecMinimize: Iter:   8  G: -913.694330064124074  |grad|_K:  3.535e-06  alpha:  1.646e-01  linmin:  1.011e-05  t[s]:    215.08
	Linear fluid (dielectric constant: 78.4, screening length: 5.74355 Bohr) occupying 0.760692 of unit cell:	Completed after 12 iterations at t[s]:    220.59
	Linear fluid (dielectric constant: 78.4, screening length: 5.74355 Bohr) occupying 0.760300 of unit cell:	Completed after 12 iterations at t[s]:    226.22
	FillingsUpdate:  mu: -0.171251800  nElectrons: 213.035697
	SubspaceRotationAdjust: set factor to 0.514
ElecMinimize: Iter:   9  G: -913.694516728014378  |grad|_K:  4.046e-06  alpha:  3.073e-01  linmin:  2.088e-05  t[s]:    231.75
	Linear fluid (dielectric constant: 78.4, screening length: 5.74355 Bohr) occupying 0.761812 of unit cell:	Completed after 16 iterations at t[s]:    237.41
	Linear fluid (dielectric constant: 78.4, screening length: 5.74355 Bohr) occupying 0.760991 of unit cell:	Completed after 14 iterations at t[s]:    243.90
	FillingsUpdate:  mu: -0.171251800  nElectrons: 213.064808
	SubspaceRotationAdjust: set factor to 0.636
ElecMinimize: Iter:  10  G: -913.694626350581757  |grad|_K:  1.917e-06  alpha:  1.386e-01  linmin:  1.712e-05  t[s]:    250.53
	Linear fluid (dielectric constant: 78.4, screening length: 5.74355 Bohr) occupying 0.761149 of unit cell:	Completed after 11 iterations at t[s]:    257.93
	Linear fluid (dielectric constant: 78.4, screening length: 5.74355 Bohr) occupying 0.761274 of unit cell:	Completed after 11 iterations at t[s]:    264.07
	FillingsUpdate:  mu: -0.171251800  nElectrons: 213.076375
	SubspaceRotationAdjust: set factor to 0.51
ElecMinimize: Iter:  11  G: -913.694670927888637  |grad|_K:  2.240e-06  alpha:  2.493e-01  linmin: -1.319e-05  t[s]:    270.96
	Linear fluid (dielectric constant: 78.4, screening length: 5.74355 Bohr) occupying 0.760140 of unit cell:	Completed after 14 iterations at t[s]:    277.18
	Linear fluid (dielectric constant: 78.4, screening length: 5.74355 Bohr) occupying 0.760547 of unit cell:	Completed after 11 iterations at t[s]:    283.22
	FillingsUpdate:  mu: -0.171251800  nElectrons: 213.053143
	SubspaceRotationAdjust: set factor to 0.573
ElecMinimize: Iter:  12  G: -913.694710326977315  |grad|_K:  1.298e-06  alpha:  1.606e-01  linmin:  6.553e-07  t[s]:    290.21
	Linear fluid (dielectric constant: 78.4, screening length: 5.74355 Bohr) occupying 0.760267 of unit cell:	Completed after 11 iterations at t[s]:    297.22
	Linear fluid (dielectric constant: 78.4, screening length: 5.74355 Bohr) occupying 0.760131 of unit cell:	Completed after 8 iterations at t[s]:    303.06
	FillingsUpdate:  mu: -0.171251800  nElectrons: 213.039070
	SubspaceRotationAdjust: set factor to 0.472
ElecMinimize: Iter:  13  G: -913.694729899298409  |grad|_K:  1.274e-06  alpha:  2.386e-01  linmin:  6.720e-07  t[s]:    307.65
	Linear fluid (dielectric constant: 78.4, screening length: 5.74355 Bohr) occupying 0.760392 of unit cell:	Completed after 12 iterations at t[s]:    313.00
	Linear fluid (dielectric constant: 78.4, screening length: 5.74355 Bohr) occupying 0.760310 of unit cell:	Completed after 10 iterations at t[s]:    318.62
	FillingsUpdate:  mu: -0.171251800  nElectrons: 213.044383
	SubspaceRotationAdjust: set factor to 0.487
ElecMinimize: Iter:  14  G: -913.694742926604363  |grad|_K:  8.185e-07  alpha:  1.637e-01  linmin:  1.583e-05  t[s]:    325.78
	Linear fluid (dielectric constant: 78.4, screening length: 5.74355 Bohr) occupying 0.760325 of unit cell:	Completed after 6 iterations at t[s]:    331.11
	Linear fluid (dielectric constant: 78.4, screening length: 5.74355 Bohr) occupying 0.760336 of unit cell:	Completed after 8 iterations at t[s]:    336.17
	FillingsUpdate:  mu: -0.171251800  nElectrons: 213.043954
	SubspaceRotationAdjust: set factor to 0.406
ElecMinimize: Iter:  15  G: -913.694752308778448  |grad|_K:  8.251e-07  alpha:  2.898e-01  linmin:  1.229e-05  t[s]:    342.57
	Linear fluid (dielectric constant: 78.4, screening length: 5.74355 Bohr) occupying 0.759825 of unit cell:	Completed after 12 iterations at t[s]:    348.38
	Linear fluid (dielectric constant: 78.4, screening length: 5.74355 Bohr) occupying 0.760032 of unit cell:	Completed after 11 iterations at t[s]:    353.97
	FillingsUpdate:  mu: -0.171251800  nElectrons: 213.032645
	SubspaceRotationAdjust: set factor to 0.423
ElecMinimize: Iter:  16  G: -913.694758067981184  |grad|_K:  5.311e-07  alpha:  1.727e-01  linmin:  7.873e-06  t[s]:    360.89
	Linear fluid (dielectric constant: 78.4, screening length: 5.74355 Bohr) occupying 0.759922 of unit cell:	Completed after 8 iterations at t[s]:    366.50
	Linear fluid (dielectric constant: 78.4, screening length: 5.74355 Bohr) occupying 0.759836 of unit cell:	Completed after 8 iterations at t[s]:    374.19
	FillingsUpdate:  mu: -0.171251800  nElectrons: 213.024793
	SubspaceRotationAdjust: set factor to 0.352
ElecMinimize: Iter:  17  G: -913.694762266420867  |grad|_K:  5.477e-07  alpha:  3.083e-01  linmin:  2.206e-05  t[s]:    380.89
	Linear fluid (dielectric constant: 78.4, screening length: 5.74355 Bohr) occupying 0.759949 of unit cell:	Completed after 11 iterations at t[s]:    387.24
	Linear fluid (dielectric constant: 78.4, screening length: 5.74355 Bohr) occupying 0.759906 of unit cell:	Completed after 8 iterations at t[s]:    392.84
	FillingsUpdate:  mu: -0.171251800  nElectrons: 213.026025
	SubspaceRotationAdjust: set factor to 0.395
ElecMinimize: Iter:  18  G: -913.694765038296168  |grad|_K:  3.479e-07  alpha:  1.900e-01  linmin:  1.427e-05  t[s]:    399.09
	Linear fluid (dielectric constant: 78.4, screening length: 5.74355 Bohr) occupying 0.759922 of unit cell:	Completed after 3 iterations at t[s]:    404.15
	Linear fluid (dielectric constant: 78.4, screening length: 5.74355 Bohr) occupying 0.759932 of unit cell:	Completed after 3 iterations at t[s]:    409.18
	FillingsUpdate:  mu: -0.171251800  nElectrons: 213.026015
	SubspaceRotationAdjust: set factor to 0.385
ElecMinimize: Iter:  19  G: -913.694766864195799  |grad|_K:  3.373e-07  alpha:  3.128e-01  linmin:  5.114e-06  t[s]:    416.43
	Linear fluid (dielectric constant: 78.4, screening length: 5.74355 Bohr) occupying 0.759774 of unit cell:	Completed after 8 iterations at t[s]:    422.96
	Linear fluid (dielectric constant: 78.4, screening length: 5.74355 Bohr) occupying 0.759799 of unit cell:	Completed after 1 iterations at t[s]:    428.59
	FillingsUpdate:  mu: -0.171251800  nElectrons: 213.020800
	SubspaceRotationAdjust: set factor to 0.42
ElecMinimize: Iter:  20  G: -913.694768325453424  |grad|_K:  2.287e-07  alpha:  2.623e-01  linmin:  7.329e-05  t[s]:    435.08
	Linear fluid (dielectric constant: 78.4, screening length: 5.74355 Bohr) occupying 0.759751 of unit cell:	Completed after 4 iterations at t[s]:    441.28
	Linear fluid (dielectric constant: 78.4, screening length: 5.74355 Bohr) occupying 0.759745 of unit cell:	Completed after 0 iterations at t[s]:    446.72
	FillingsUpdate:  mu: -0.171251800  nElectrons: 213.018546
	SubspaceRotationAdjust: set factor to 0.469
ElecMinimize: Iter:  21  G: -913.694769049843671  |grad|_K:  1.582e-07  alpha:  2.963e-01  linmin: -6.598e-05  t[s]:    452.65
	Linear fluid (dielectric constant: 78.4, screening length: 5.74355 Bohr) occupying 0.759757 of unit cell:	Completed after 2 iterations at t[s]:    457.52
	Linear fluid (dielectric constant: 78.4, screening length: 5.74355 Bohr) occupying 0.759760 of unit cell:	Completed after 0 iterations at t[s]:    462.30
	FillingsUpdate:  mu: -0.171251800  nElectrons: 213.018774
	SubspaceRotationAdjust: set factor to 0.532
ElecMinimize: Iter:  22  G: -913.694769526066580  |grad|_K:  1.332e-07  alpha:  3.674e-01  linmin: -5.787e-05  t[s]:    469.05
	Linear fluid (dielectric constant: 78.4, screening length: 5.74355 Bohr) occupying 0.759781 of unit cell:	Completed after 3 iterations at t[s]:    474.24
	Linear fluid (dielectric constant: 78.4, screening length: 5.74355 Bohr) occupying 0.759776 of unit cell:	Completed after 0 iterations at t[s]:    479.35
	FillingsUpdate:  mu: -0.171251800  nElectrons: 213.019191
	SubspaceRotationAdjust: set factor to 0.514
ElecMinimize: Iter:  23  G: -913.694769795483694  |grad|_K:  1.162e-07  alpha:  2.863e-01  linmin:  6.765e-05  t[s]:    485.23
	Linear fluid (dielectric constant: 78.4, screening length: 5.74355 Bohr) occupying 0.759722 of unit cell:	Completed after 3 iterations at t[s]:    490.45
	Linear fluid (dielectric constant: 78.4, screening length: 5.74355 Bohr) occupying 0.759744 of unit cell:	Completed after 2 iterations at t[s]:    496.75
	FillingsUpdate:  mu: -0.171251800  nElectrons: 213.018078
	SubspaceRotationAdjust: set factor to 0.425
ElecMinimize: Iter:  24  G: -913.694769890271232  |grad|_K:  8.128e-08  alpha:  1.711e-01  linmin:  3.389e-05  t[s]:    502.11
	Linear fluid (dielectric constant: 78.4, screening length: 5.74355 Bohr) occupying 0.759743 of unit cell:	Completed after 0 iterations at t[s]:    506.82
	Linear fluid (dielectric constant: 78.4, screening length: 5.74355 Bohr) occupying 0.759743 of unit cell:	Completed after 0 iterations at t[s]:    511.06
	FillingsUpdate:  mu: -0.171251800  nElectrons: 213.018034
	SubspaceRotationAdjust: set factor to 0.548
ElecMinimize: Iter:  25  G: -913.694769995594356  |grad|_K:  6.100e-08  alpha:  3.509e-01  linmin:  2.980e-07  t[s]:    516.41
	Linear fluid (dielectric constant: 78.4, screening length: 5.74355 Bohr) occupying 0.759767 of unit cell:	Completed after 3 iterations at t[s]:    521.89
	Linear fluid (dielectric constant: 78.4, screening length: 5.74355 Bohr) occupying 0.759755 of unit cell:	Completed after 0 iterations at t[s]:    527.87
	FillingsUpdate:  mu: -0.171251800  nElectrons: 213.018460
	SubspaceRotationAdjust: set factor to 0.465
ElecMinimize: Iter:  26  G: -913.694770028713606  |grad|_K:  7.006e-08  alpha:  1.808e-01  linmin:  8.450e-05  t[s]:    534.51
	Linear fluid (dielectric constant: 78.4, screening length: 5.74355 Bohr) occupying 0.759747 of unit cell:	Completed after 0 iterations at t[s]:    540.07
	Linear fluid (dielectric constant: 78.4, screening length: 5.74355 Bohr) occupying 0.759746 of unit cell:	Completed after 1 iterations at t[s]:    545.56
	FillingsUpdate:  mu: -0.171251800  nElectrons: 213.018203
	SubspaceRotationAdjust: set factor to 0.507
ElecMinimize: Iter:  27  G: -913.694770037889498  |grad|_K:  4.526e-08  alpha:  1.956e-01  linmin:  4.675e-05  t[s]:    552.43
	Linear fluid (dielectric constant: 78.4, screening length: 5.74355 Bohr) occupying 0.759745 of unit cell:	Completed after 0 iterations at t[s]:    557.34
	Linear fluid (dielectric constant: 78.4, screening length: 5.74355 Bohr) occupying 0.759745 of unit cell:	Completed after 1 iterations at t[s]:    561.71
	FillingsUpdate:  mu: -0.171251800  nElectrons: 213.018224
	SubspaceRotationAdjust: set factor to 0.611
ElecMinimize: Iter:  28  G: -913.694770055164554  |grad|_K:  3.595e-08  alpha:  3.365e-01  linmin:  3.094e-05  t[s]:    567.42
	Linear fluid (dielectric constant: 78.4, screening length: 5.74355 Bohr) occupying 0.759758 of unit cell:	Completed after 2 iterations at t[s]:    571.90
	Linear fluid (dielectric constant: 78.4, screening length: 5.74355 Bohr) occupying 0.759752 of unit cell:	Completed after 0 iterations at t[s]:    576.78
	FillingsUpdate:  mu: -0.171251800  nElectrons: 213.018479
	SubspaceRotationAdjust: set factor to 0.646
ElecMinimize: Iter:  29  G: -913.694770060712926  |grad|_K:  4.247e-08  alpha:  1.766e-01  linmin:  6.386e-06  t[s]:    583.89
	Linear fluid (dielectric constant: 78.4, screening length: 5.74355 Bohr) occupying 0.759768 of unit cell:	Completed after 0 iterations at t[s]:    589.46
	Linear fluid (dielectric constant: 78.4, screening length: 5.74355 Bohr) occupying 0.759782 of unit cell:	Completed after 2 iterations at t[s]:    594.88
	FillingsUpdate:  mu: -0.171251800  nElectrons: 213.019574
	SubspaceRotationAdjust: set factor to 0.653
ElecMinimize: Iter:  30  G: -913.694770061570921  |grad|_K:  4.653e-08  alpha:  3.216e-01  linmin:  1.078e-04  t[s]:    601.76
ElecMinimize: Converged (|Delta G|<1.000000e-08 for 2 iters).
Setting wave functions to eigenvectors of Hamiltonian

# Ionic positions in lattice coordinates:
ion Ag   0.123058112489425   0.642410218890239   0.601677083028200 0
ion Ag   0.623058112489425   0.642410218890239   0.601677083028200 0
ion Ag   0.376941887510575   0.142410218890239   0.601677083028200 0
ion Ag   0.876941887510575   0.142410218890239   0.601677083028200 0
ion Au   0.051234059343794   0.986345143602683   0.488129882324166 0
ion Au   0.551234059343794   0.986345143602683   0.488129882324166 0
ion Au   0.448765940656206   0.486345143602683   0.488129882324166 0
ion Au   0.948765940656206   0.486345143602683   0.488129882324166 0
ion Au   0.250475008220729   0.745602490470759   0.403758293785118 0
ion Au   0.750475008220729   0.745602490470759   0.403758293785118 0
ion Au   0.249524991779271   0.245602490470759   0.403758293785118 0
ion Au   0.749524991779271   0.245602490470759   0.403758293785118 0
ion S   0.416916999908072   0.996090169429380   0.384698652518541 0
ion S   0.916916999908072   0.996090169429380   0.384698652518541 0
ion S   0.370166417983997   0.481739977606938   0.602734774549511 0
ion S   0.870166417983997   0.481739977606938   0.602734774549511 0
ion S   0.129833582016003   0.981739977606938   0.602734774549511 0
ion S   0.629833582016003   0.981739977606938   0.602734774549511 0
ion S   0.083083000091928   0.496090169429380   0.384698652518541 0
ion S   0.583083000091928   0.496090169429380   0.384698652518541 0


# Forces in Lattice coordinates:
force Ag  -0.004240877559690   0.010625072581532   0.006745615325079 0
force Ag  -0.004240877559685   0.010625072581532   0.006745615325079 0
force Ag   0.004240877559685   0.010625072581532   0.006745615325079 0
force Ag   0.004240877559686   0.010625072581532   0.006745615325078 0
force Au  -0.008399170896432  -0.011132614391556   0.040863476034180 0
force Au  -0.008399170896432  -0.011132614391557   0.040863476034294 0
force Au   0.008399170896432  -0.011132614391557   0.040863476034237 0
force Au   0.008399170896433  -0.011132614391556   0.040863476034237 0
force Au   0.007199599186923  -0.001763284021914  -0.126027876331794 0
force Au   0.007199599186923  -0.001763284021914  -0.126027876331794 0
force Au  -0.007199599186923  -0.001763284021914  -0.126027876331794 0
force Au  -0.007199599186923  -0.001763284021914  -0.126027876331794 0
force S   0.027189719734472  -0.004499672465655  -0.043833068337872 0
force S   0.027189719734474  -0.004499672465655  -0.043833068337872 0
force S   0.004892180886777   0.004742624219160   0.142536254644713 0
force S   0.004892180886777   0.004742624219160   0.142536254644713 0
force S  -0.004892180886777   0.004742624219160   0.142536254644713 0
force S  -0.004892180886777   0.004742624219160   0.142536254644713 0
force S  -0.027189719734474  -0.004499672465655  -0.043833068337758 0
force S  -0.027189719734472  -0.004499672465655  -0.043833068337758 0

# Energy components:
   A_diel =       -0.1738285193686767
   Eewald =     4963.6556564103184428
       EH =     5859.5794242650035812
     Eloc =   -11892.3145323025619291
      Enl =       -3.0490470434715231
      Exc =     -340.6778721276065198
 Exc_core =      197.5865511227389106
       KE =      265.2583232094921186
  MuShift =       -0.0132333917462947
-------------------------------------
     Etot =     -950.1485583772027894
       TS =        0.0261972081837923
-------------------------------------
        F =     -950.1747555853866061
      muN =      -36.4799855238156923
-------------------------------------
        G =     -913.6947700615709209

IonicMinimize: Iter:   0  G: -913.694770061570921  |grad|_K:  0.000e+00  t[s]:    606.08
IonicMinimize: Converged (|grad|_K<1.000000e-04).

#--- Lowdin population analysis ---
# oxidation-state Ag -0.177 -0.177 -0.177 -0.177
# oxidation-state Au -0.123 -0.123 -0.123 -0.123 -0.170 -0.170 -0.170 -0.170
# oxidation-state S +0.139 +0.139 +0.201 +0.201 +0.201 +0.201 +0.139 +0.139


Dumping 'NbTe2.fillings' ... done
Dumping 'NbTe2.wfns' ... done
Dumping 'NbTe2.fluidState' ... done
Dumping 'NbTe2.eigenvals' ... done
End date and time: Tue Jul 14 19:20:52 2020  (Duration: 0-0:10:08.17)
Done!
