
*************** JDFTx 1.5.0  ***************

Start date and time: Thu Apr 15 14:02:13 2021
Executable jdftx_gpu with command-line: -i Charged.in -o Charged.out
Running on hosts (process indices):  amax (0-6)
Divided in process groups (process indices):  0 (0)  1 (1)  2 (2)  3 (3)  4 (4)  5 (5)  6 (6)
gpuInit: Found compatible cuda device 0 'Tesla K80'
gpuInit: Found compatible cuda device 1 'Tesla K80'
gpuInit: Found compatible cuda device 2 'Tesla K80'
gpuInit: Found compatible cuda device 3 'Tesla K80'
gpuInit: Found compatible cuda device 4 'Tesla K80'
gpuInit: Found compatible cuda device 5 'Tesla K80'
gpuInit: Found compatible cuda device 6 'Tesla K80'
gpuInit: Selected device 0
Resource initialization completed at t[s]:      3.80
Run totals: 7 processes, 24 threads, 7 GPUs


Input parsed successfully to the following command list (including defaults):

basis kpoint-dependent
cache-projectors no
coords-type Lattice
core-overlap-check none
coulomb-interaction Slab 001
coulomb-truncation-embed 0.5 0.5 0.5
davidson-band-ratio 1.1
dump End State
dump-name NbTe2.$VAR
elec-cutoff 20
elec-eigen-algo Davidson
elec-ex-corr gga-PBE
elec-smearing Gauss 0.0073499
electronic-minimize  \
	dirUpdateScheme      FletcherReeves \
	linminMethod         DirUpdateRecommended \
	nIterations          200 \
	history              15 \
	knormThreshold       0 \
	energyDiffThreshold  1e-08 \
	nEnergyDiff          2 \
	alphaTstart          1 \
	alphaTmin            1e-10 \
	updateTestStepSize   yes \
	alphaTreduceFactor   0.1 \
	alphaTincreaseFactor 3 \
	nAlphaAdjustMax      3 \
	wolfeEnergy          0.0001 \
	wolfeGradient        0.9 \
	fdTest               no
exchange-regularization WignerSeitzTruncated
fluid LinearPCM 298.000000 1.013250
fluid-anion F- 1 MeanFieldLJ \
	epsBulk 1 \
	pMol 0 \
	epsInf 1 \
	Pvap 0 \
	sigmaBulk 0 \
	Rvdw 2.24877 \
	Res 0 \
	tauNuc 343133
fluid-cation Na+ 1 MeanFieldLJ \
	epsBulk 1 \
	pMol 0 \
	epsInf 1 \
	Pvap 0 \
	sigmaBulk 0 \
	Rvdw 2.19208 \
	Res 0 \
	tauNuc 343133
fluid-ex-corr lda-TF lda-PZ
fluid-gummel-loop 10 1.000000e-05
fluid-minimize  \
	dirUpdateScheme      PolakRibiere \
	linminMethod         DirUpdateRecommended \
	nIterations          400 \
	history              15 \
	knormThreshold       1e-11 \
	energyDiffThreshold  0 \
	nEnergyDiff          2 \
	alphaTstart          1 \
	alphaTmin            1e-10 \
	updateTestStepSize   yes \
	alphaTreduceFactor   0.1 \
	alphaTincreaseFactor 3 \
	nAlphaAdjustMax      6 \
	wolfeEnergy          0.0001 \
	wolfeGradient        0.9 \
	fdTest               no
fluid-solvent H2O 55.338 ScalarEOS \
	epsBulk 78.4 \
	pMol 0.92466 \
	epsInf 1.77 \
	Pvap 1.06736e-10 \
	sigmaBulk 4.62e-05 \
	Rvdw 2.61727 \
	Res 1.42 \
	tauNuc 343133 \
	poleEl 15 7 1
forces-output-coords Positions
initial-state NbTe2.$VAR
ion Mo   0.166666670266667   0.083333326383333   0.558556097997901 1
ion Mo   0.083333336933333   0.166666659716667   0.441447899802099 1
ion Mo   0.416666670266667   0.083333326383333   0.558556097997901 1
ion Mo   0.333333336933333   0.166666659716667   0.441447899802099 1
ion Mo   0.666666670266667   0.083333326383333   0.558556097997901 1
ion Mo   0.583333336933333   0.166666659716667   0.441447899802099 1
ion Mo   0.916666670266667   0.083333326383333   0.558556097997901 1
ion Mo   0.833333336933333   0.166666659716667   0.441447899802099 1
ion Mo   0.166666670266667   0.333333326383333   0.558556097997901 1
ion Mo   0.083333336933333   0.416666659716667   0.441447899802099 1
ion Mo   0.416666670266667   0.333333326383333   0.558556097997901 1
ion Mo   0.333333336933333   0.416666659716667   0.441447899802099 1
ion Mo   0.666666670266667   0.333333326383333   0.558556097997901 1
ion Mo   0.583333336933333   0.416666659716667   0.441447899802099 1
ion Mo   0.916666670266667   0.333333326383333   0.558556097997901 1
ion Mo   0.833333336933333   0.416666659716667   0.441447899802099 1
ion Mo   0.166666670266667   0.583333326383333   0.558556097997901 1
ion Mo   0.083333336933333   0.666666659716667   0.441447899802099 1
ion Mo   0.416666670266667   0.583333326383333   0.558556097997901 1
ion Mo   0.333333336933333   0.666666659716667   0.441447899802099 1
ion Mo   0.666666670266667   0.583333326383333   0.558556097997901 1
ion Mo   0.583333336933333   0.666666659716667   0.441447899802099 1
ion Mo   0.916666670266667   0.583333326383333   0.558556097997901 1
ion Mo   0.833333336933333   0.666666659716667   0.441447899802099 1
ion Mo   0.166666670266667   0.833333326383333   0.558556097997901 1
ion Mo   0.083333336933333   0.916666659716667   0.441447899802099 1
ion Mo   0.416666670266667   0.833333326383333   0.558556097997901 1
ion Mo   0.333333336933333   0.916666659716667   0.441447899802099 1
ion Mo   0.666666670266667   0.833333326383333   0.558556097997901 1
ion Mo   0.583333336933333   0.916666659716667   0.441447899802099 1
ion Mo   0.916666670266667   0.833333326383333   0.558556097997901 1
ion Mo   0.833333336933333   0.916666659716667   0.441447899802099 1
ion C   0.000000003600000  -0.000000006950000   0.500001998900000 1
ion C   0.250000003600000  -0.000000006950000   0.500001998900000 1
ion C   0.500000003600000  -0.000000006950000   0.500001998900000 1
ion C   0.750000003600000  -0.000000006950000   0.500001998900000 1
ion C   0.000000003600000   0.249999993050000   0.500001998900000 1
ion C   0.250000003600000   0.249999993050000   0.500001998900000 1
ion C   0.500000003600000   0.249999993050000   0.500001998900000 1
ion C   0.750000003600000   0.249999993050000   0.500001998900000 1
ion C   0.000000003600000   0.499999993050000   0.500001998900000 1
ion C   0.250000003600000   0.499999993050000   0.500001998900000 1
ion C   0.500000003600000   0.499999993050000   0.500001998900000 1
ion C   0.750000003600000   0.499999993050000   0.500001998900000 1
ion C   0.000000003600000   0.749999993050000   0.500001998900000 1
ion C   0.250000003600000   0.749999993050000   0.500001998900000 1
ion C   0.500000003600000   0.749999993050000   0.500001998900000 1
ion C   0.750000003600000   0.749999993050000   0.500001998900000 1
ion O   0.083333336933333   0.166666659716667   0.616517487420202 1
ion O   0.166666670266667   0.083333326383333   0.383486510379798 1
ion O   0.333333336933333   0.166666659716667   0.616517487420202 1
ion O   0.416666670266667   0.083333326383333   0.383486510379798 1
ion O   0.583333336933333   0.166666659716667   0.616517487420202 1
ion O   0.666666670266667   0.083333326383333   0.383486510379798 1
ion O   0.833333336933333   0.166666659716667   0.616517487420202 1
ion O   0.916666670266667   0.083333326383333   0.383486510379798 1
ion O   0.083333336933333   0.416666659716667   0.616517487420202 1
ion O   0.166666670266667   0.333333326383333   0.383486510379798 1
ion O   0.333333336933333   0.416666659716667   0.616517487420202 1
ion O   0.416666670266667   0.333333326383333   0.383486510379798 1
ion O   0.583333336933333   0.416666659716667   0.616517487420202 1
ion O   0.666666670266667   0.333333326383333   0.383486510379798 1
ion O   0.833333336933333   0.416666659716667   0.616517487420202 1
ion O   0.916666670266667   0.333333326383333   0.383486510379798 1
ion O   0.083333336933333   0.666666659716667   0.616517487420202 1
ion O   0.166666670266667   0.583333326383333   0.383486510379798 1
ion O   0.333333336933333   0.666666659716667   0.616517487420202 1
ion O   0.416666670266667   0.583333326383333   0.383486510379798 1
ion O   0.583333336933333   0.666666659716667   0.616517487420202 1
ion O   0.666666670266667   0.583333326383333   0.383486510379798 1
ion O   0.833333336933333   0.666666659716667   0.616517487420202 1
ion O   0.916666670266667   0.583333326383333   0.383486510379798 1
ion O   0.083333336933333   0.916666659716667   0.616517487420202 1
ion O   0.166666670266667   0.833333326383333   0.383486510379798 1
ion O   0.333333336933333   0.916666659716667   0.616517487420202 1
ion O   0.416666670266667   0.833333326383333   0.383486510379798 1
ion O   0.583333336933333   0.916666659716667   0.616517487420202 1
ion O   0.666666670266667   0.833333326383333   0.383486510379798 1
ion O   0.833333336933333   0.916666659716667   0.616517487420202 1
ion O   0.916666670266667   0.833333326383333   0.383486510379798 1
ion-species GBRV/$ID_pbe.uspp
ion-width Ecut
ionic-minimize  \
	dirUpdateScheme      L-BFGS \
	linminMethod         DirUpdateRecommended \
	nIterations          500 \
	history              15 \
	knormThreshold       0.0001 \
	energyDiffThreshold  1e-06 \
	nEnergyDiff          2 \
	alphaTstart          1 \
	alphaTmin            1e-10 \
	updateTestStepSize   yes \
	alphaTreduceFactor   0.1 \
	alphaTincreaseFactor 3 \
	nAlphaAdjustMax      3 \
	wolfeEnergy          0.0001 \
	wolfeGradient        0.9 \
	fdTest               no
kpoint   0.000000000000   0.000000000000   0.000000000000  1.00000000000000
kpoint-folding 3 3 1 
latt-move-scale 1 1 1
latt-scale 1.88973 1.88973 1.88973 
lattice Triclinic 12.2054 12.2053 19.4677 90 90 120
lattice-minimize  \
	dirUpdateScheme      L-BFGS \
	linminMethod         DirUpdateRecommended \
	nIterations          0 \
	history              15 \
	knormThreshold       0 \
	energyDiffThreshold  1e-06 \
	nEnergyDiff          2 \
	alphaTstart          1 \
	alphaTmin            1e-10 \
	updateTestStepSize   yes \
	alphaTreduceFactor   0.1 \
	alphaTincreaseFactor 3 \
	nAlphaAdjustMax      3 \
	wolfeEnergy          0.0001 \
	wolfeGradient        0.9 \
	fdTest               no
lcao-params -1 1e-06 0.0073499
pcm-variant CANDLE
spintype no-spin
subspace-rotation-factor 1 yes
symmetries automatic
symmetry-threshold 0.0005
target-mu -0.171252 no




---------- Setting up symmetries ----------

Found 24 point-group symmetries of the bravais lattice
Found 192 space-group symmetries with basis
Applied RMS atom displacement 1.21207e-14 bohrs to make symmetries exact.

---------- Initializing the Grid ----------
R = 
[    23.0649   -11.5324          0  ]
[          0    19.9746          0  ]
[          0          0    36.7886  ]
unit cell volume = 16948.9
G =
[   0.272414   0.157279         -0  ]
[          0   0.314559          0  ]
[          0         -0   0.170792  ]
Minimum fftbox size, Smin = [  96  96  152  ]
Chosen fftbox size, S = [  96  96  160  ]

---------- Exchange Correlation functional ----------
Initalized PBE GGA exchange.
Initalized PBE GGA correlation.

---------- Setting up pseudopotentials ----------
Width of ionic core gaussian charges (only for fluid interactions / plotting) set to 0.397384

Reading pseudopotential file '/home/guoxy/vasp/jdftx-1.5.0/build/pseudopotentials/GBRV/mo_pbe.uspp':
  Title: Mo.  Created by USPP 7.3.6 on 14-9-2013
  Reference state energy: -69.261020.  14 valence electrons in orbitals:
    |400>  occupation: 2  eigenvalue: -2.465796
    |410>  occupation: 6  eigenvalue: -1.510132
    |420>  occupation: 4  eigenvalue: -0.207728
    |500>  occupation: 2  eigenvalue: -0.179278
    |510>  occupation: 0  eigenvalue: -0.052696
  lMax: 2  lLocal: 3  QijEcut: 5
  6 projectors sampled on a log grid with 629 points:
    l: 0  eig: -2.465797  rCut: 1.8
    l: 0  eig: -0.179280  rCut: 1.8
    l: 1  eig: -1.510132  rCut: 2
    l: 1  eig: 0.150000  rCut: 2
    l: 2  eig: -0.052696  rCut: 2.2
    l: 2  eig: 0.150000  rCut: 2.2
  Partial core density with radius 1.2
  Transforming core density to a uniform radial grid of dG=0.02 with 1481 points.
  Transforming local potential to a uniform radial grid of dG=0.02 with 1481 points.
  Transforming nonlocal projectors to a uniform radial grid of dG=0.02 with 432 points.
  Transforming density augmentations to a uniform radial grid of dG=0.02 with 1481 points.
  Transforming atomic orbitals to a uniform radial grid of dG=0.02 with 432 points.
  Core radius for overlap checks: 2.20 bohrs.

Reading pseudopotential file '/home/guoxy/vasp/jdftx-1.5.0/build/pseudopotentials/GBRV/c_pbe.uspp':
  Title: C.  Created by USPP 7.3.6 on 3-2-2014
  Reference state energy: -5.406344.  4 valence electrons in orbitals:
    |200>  occupation: 2  eigenvalue: -0.504890
    |210>  occupation: 2  eigenvalue: -0.194356
  lMax: 1  lLocal: 2  QijEcut: 5
  4 projectors sampled on a log grid with 503 points:
    l: 0  eig: -0.504890  rCut: 1.3
    l: 0  eig: 0.000000  rCut: 1.3
    l: 1  eig: -0.194357  rCut: 1.3
    l: 1  eig: 0.000000  rCut: 1.3
  Partial core density with radius 1.1
  Transforming core density to a uniform radial grid of dG=0.02 with 1481 points.
  Transforming local potential to a uniform radial grid of dG=0.02 with 1481 points.
  Transforming nonlocal projectors to a uniform radial grid of dG=0.02 with 432 points.
  Transforming density augmentations to a uniform radial grid of dG=0.02 with 1481 points.
  Transforming atomic orbitals to a uniform radial grid of dG=0.02 with 432 points.
  Core radius for overlap checks: 1.30 bohrs.

Reading pseudopotential file '/home/guoxy/vasp/jdftx-1.5.0/build/pseudopotentials/GBRV/o_pbe.uspp':
  Title: O.  Created by USPP 7.3.6 on 3-2-2014
  Reference state energy: -15.894388.  6 valence electrons in orbitals:
    |200>  occupation: 2  eigenvalue: -0.878823
    |210>  occupation: 4  eigenvalue: -0.332131
  lMax: 2  lLocal: 2  QijEcut: 6
  5 projectors sampled on a log grid with 511 points:
    l: 0  eig: -0.878823  rCut: 1.25
    l: 0  eig: 0.000000  rCut: 1.25
    l: 1  eig: -0.332132  rCut: 1.25
    l: 1  eig: 0.000000  rCut: 1.25
    l: 2  eig: 1.000000  rCut: 1.25
  Partial core density with radius 0.7
  Transforming core density to a uniform radial grid of dG=0.02 with 1481 points.
  Transforming local potential to a uniform radial grid of dG=0.02 with 1481 points.
  Transforming nonlocal projectors to a uniform radial grid of dG=0.02 with 432 points.
  Transforming density augmentations to a uniform radial grid of dG=0.02 with 1481 points.
  Transforming atomic orbitals to a uniform radial grid of dG=0.02 with 432 points.
  Core radius for overlap checks: 1.25 bohrs.

Initialized 3 species with 80 total atoms.

Folded 1 k-points by 3x3x1 to 9 k-points.

---------- Setting up k-points, bands, fillings ----------
Reduced to 3 k-points under symmetry. 
Computing the number of bands and number of electrons
Calculating initial fillings.
nElectrons: 704.000000   nBands: 608   nStates: 3

----- Setting up reduced wavefunction bases (one per k-point) -----
average nbasis = 72392.333 , ideal nbasis = 72407.045

---------- Setting up coulomb interaction ----------
Fluid mode embedding: using embedded box, but periodic Coulomb kernel.
(Fluid response is responsible for (approximate) separation between periodic images.)
Setting up double-sized grid for truncated Coulomb potentials:
R = 
[    23.0649   -11.5324          0  ]
[          0    19.9746          0  ]
[          0          0    73.5772  ]
unit cell volume = 33897.8
G =
[   0.272414   0.157279         -0  ]
[          0   0.314559          0  ]
[          0         -0  0.0853958  ]
Chosen fftbox size, S = [  96  96  320  ]
Integer grid location selected as the embedding center:
   Grid: [  48  48  80  ]
   Lattice: [  0.5  0.5  0.5  ]
   Cartesian: [  5.76625  9.98729  18.3943  ]
Constructing Wigner-Seitz cell: 8 faces (6 quadrilaterals, 2 hexagons)
Range-separation parameter for embedded mesh potentials due to point charges: 0.618372 bohrs.

Initializing van der Waals corrections
	NOTE: vdW corrections apply only for interactions with fluid.
	Mo:  C6:  427.91 Eh-a0^6  R0: 3.097 a0
	 C:  C6:   30.35 Eh-a0^6  R0: 2.744 a0
	 O:  C6:   12.14 Eh-a0^6  R0: 2.536 a0

---------- Setting up ewald sum ----------
Optimum gaussian width for ewald sums = 6.219933 bohr.
Real space sum over 405 unit cells with max indices [  4  4  2  ]
Reciprocal space sum over 8775 terms with max indices [  7  7  19  ]

---------- Allocating electronic variables ----------
Initializing wave functions:  linear combination of atomic orbitals
Mo pseudo-atom occupations:   s ( 2 0 )  p ( 6 0 )  d ( 6 )
C pseudo-atom occupations:   s ( 2 )  p ( 2 )
O pseudo-atom occupations:   s ( 2 )  p ( 4 )
	FillingsUpdate:  mu: -0.171251800  nElectrons: 704.000000
LCAOMinimize: Iter:   0  G: -2625.3109512221599289  |grad|_K:  1.796e-02  alpha:  1.000e+00
	FillingsUpdate:  mu: -0.171251800  nElectrons: 704.000000
LCAOMinimize: Iter:   1  G: -2668.8791509553025207  |grad|_K:  5.271e-03  alpha:  2.233e-01  linmin: -2.802e-01  cgtest:  6.142e-01  t[s]:     61.18
LCAOMinimize: Encountered beta<0, resetting CG.
	FillingsUpdate:  mu: -0.171251800  nElectrons: 704.000000
LCAOMinimize: Iter:   2  G: -2673.0650271537119806  |grad|_K:  2.965e-03  alpha:  3.233e-01  linmin:  1.941e-01  cgtest: -4.303e-01  t[s]:     80.31
	FillingsUpdate:  mu: -0.171251800  nElectrons: 704.000000
LCAOMinimize: Iter:   3  G: -2673.0974559651667732  |grad|_K:  2.702e-03  alpha:  4.590e-02  linmin: -7.115e-04  cgtest:  9.846e-01  t[s]:     98.73
LCAOMinimize: Encountered beta<0, resetting CG.
	FillingsUpdate:  mu: -0.171251800  nElectrons: 704.000000
LCAOMinimize: Iter:   4  G: -2673.6410214087673012  |grad|_K:  6.060e-04  alpha:  1.285e-01  linmin: -1.796e-01  cgtest:  3.489e-01  t[s]:    117.47
LCAOMinimize: Encountered beta<0, resetting CG.
	FillingsUpdate:  mu: -0.171251800  nElectrons: 704.000000
LCAOMinimize: Iter:   5  G: -2673.7041693368573760  |grad|_K:  2.230e-04  alpha:  3.433e-01  linmin:  2.140e-01  cgtest: -4.547e-01  t[s]:    136.37
	FillingsUpdate:  mu: -0.171251800  nElectrons: 704.000000
LCAOMinimize: Iter:   6  G: -2673.7051864724244297  |grad|_K:  1.900e-04  alpha:  1.662e-01  linmin: -1.161e-01  cgtest:  9.206e-01  t[s]:    154.77
LCAOMinimize: Encountered beta<0, resetting CG.
	FillingsUpdate:  mu: -0.171251800  nElectrons: 704.000000
LCAOMinimize: Iter:   7  G: -2673.7064173608573583  |grad|_K:  1.293e-04  alpha:  1.043e-01  linmin: -3.013e-01  cgtest:  9.841e-01  t[s]:    173.20
LCAOMinimize: Encountered beta<0, resetting CG.
	FillingsUpdate:  mu: -0.171251800  nElectrons: 704.000000
LCAOMinimize: Iter:   8  G: -2673.7065111393490042  |grad|_K:  1.103e-04  alpha:  5.378e-02  linmin: -2.895e-01  cgtest:  9.962e-01  t[s]:    191.76
LCAOMinimize: Encountered beta<0, resetting CG.
LCAOMinimize: 	Step increased G by 6.244348e-06, reducing alpha to 2.560158e-03.
	FillingsUpdate:  mu: -0.171251800  nElectrons: 704.000000
LCAOMinimize: Iter:   9  G: -2673.7065114306878968  |grad|_K:  1.096e-04  alpha:  2.560e-03  linmin: -2.826e-01  cgtest:  1.000e+00  t[s]:    222.25
LCAOMinimize: Encountered beta<0, resetting CG.
	FillingsUpdate:  mu: -0.171251800  nElectrons: 704.000000
LCAOMinimize: Iter:  10  G: -2673.7065114859001369  |grad|_K:  1.092e-04  alpha:  1.282e-03  linmin: -2.824e-01  cgtest:  1.000e+00  t[s]:    240.66
LCAOMinimize: Encountered beta<0, resetting CG.
LCAOMinimize: Converged (|Delta G|<1.000000e-06 for 2 iters).
----- createFluidSolver() ----- (Fluid-side solver setup)
   Initializing fluid molecule 'H2O'
     Initializing site 'O'
       Electron density: proportional to exp(-r/0.36935)*erfc((r-0.51523)/0.36823) with norm 6.826
       Charge density: gaussian nuclear width 0.478731 with net site charge 0.826
       Polarizability: cuspless exponential with width 0.32 and norm 3.73
       Hard sphere radius: 2.57003 bohrs
       Positions in reference frame:
         [ +0.000000 +0.000000 +0.000000 ]
     Initializing site 'H'
       Electron density: proportional to exp(-r/0.34641)*erfc((r-0)/0.390882) with norm 0.587
       Charge density: gaussian nuclear width 0.377945 with net site charge -0.413
       Polarizability: cuspless exponential with width 0.39 and norm 3.3
       Positions in reference frame:
         [ +0.000000 -1.441945 +1.122523 ]
         [ +0.000000 +1.441945 +1.122523 ]
     Net charge: 0   dipole magnitude: 0.927204
     Initializing spherical shell mfKernel with radius 2.61727 Bohr
     deltaS corrections:
       site 'O': -7.54299
       site 'H': -6.83917
   Initializing fluid molecule 'Na+'
     Initializing site 'Na'
       Electron density: proportional to exp(-r/0.19682)*erfc((r-0.71491)/0.41314) with norm 8.1383
       Charge density: gaussian nuclear width 0.365347 with net site charge -1
       Hard sphere radius: 1.86327 bohrs
       Positions in reference frame:
         [ +0.000000 +0.000000 +0.000000 ]
     Net charge: -1   dipole magnitude: 0
     Initializing gaussian mfKernel with width: 1.55004 Bohr
     deltaS corrections:
       site 'Na': -22.3555
   Initializing fluid molecule 'F-'
     Initializing site 'F'
       Electron density: proportional to exp(-r/0.38886)*erfc((r-0)/0.438782) with norm 8
       Charge density: gaussian nuclear width 0.374796 with net site charge 1
       Hard sphere radius: 2.39995 bohrs
       Positions in reference frame:
         [ +0.000000 +0.000000 +0.000000 ]
     Net charge: 1   dipole magnitude: 0
     Initializing gaussian mfKernel with width: 1.59012 Bohr
     deltaS corrections:
       site 'F': -9.04335

Correction to mu due to finite nuclear width = -0.0206063
   Cavity determined by nc: 0.00142 and sigma: 0.707107
   Nonlocal vdW cavity from gaussian model electron density with norm = 8 and sigma = 0.993594 bohr
   Charge asymmetry in cavity with sensitivity pCavity = 36.5 e-bohr/Eh
   Electrostatic cavity expanded by eta = 1.46 bohrs
   Weighted density cavitation model constrained by Nbulk: 0.0049383 bohr^-3, Pvap: 3.14029 kPa, Rvdw: 2.61727 bohr and sigmaBulk: 4.62e-05 Eh/bohr^2 at T: 298 K.
   Weighted density dispersion model using vdW pair potentials with single solvent site with sqrtC6eff: 0.77 SI.


---- Citations for features of the code used in this run ----

   Software package:
      R. Sundararaman, K. Letchworth-Weaver, K.A. Schwarz, D. Gunceler, Y. Ozhabes and T.A. Arias, 'JDFTx: software for joint density-functional theory', SoftwareX 6, 278 (2017)

   gga-PBE exchange-correlation functional:
      J.P. Perdew, K. Burke and M. Ernzerhof, Phys. Rev. Lett. 77, 3865 (1996)

   Pseudopotentials:
      KF Garrity, JW Bennett, KM Rabe and D Vanderbilt, Comput. Mater. Sci. 81, 446 (2014)

   Truncated Coulomb potentials:
      R. Sundararaman and T.A. Arias, Phys. Rev. B 87, 165122 (2013)

   Van der Waals correction pair-potentials:
      S. Grimme, J. Comput. Chem. 27, 1787 (2006)

   Charge-asymmetric nonlocally-determined local-electric (CANDLE) solvation model:
      R. Sundararaman and W.A. Goddard III, J. Chem. Phys. 142, 064107 (2015)

   Total energy minimization with Auxiliary Hamiltonian:
      C. Freysoldt, S. Boeck, and J. Neugebauer, Phys. Rev. B 79, 241103(R) (2009)

   Grand-canonical (fixed-potential) DFT:
      R. Sundararaman, W. A. Goddard III and T. A. Arias, J. Chem. Phys. 146, 114104 (2017)

This list may not be complete. Please suggest additional citations or
report any other bugs at https://github.com/shankar1729/jdftx/issues

Initialization completed successfully at t[s]:    245.93

Fluid solver invoked on fresh (partially random / LCAO) wavefunctions
Running a vacuum solve first:

-------- Initial electronic minimization -----------
	FillingsUpdate:  mu: -0.126700966  nElectrons: 704.000000
ElecMinimize: Iter:   0  G: -2673.834165560117071  |grad|_K:  1.489e-04  alpha:  1.000e+00
	FillingsUpdate:  mu: -0.041323191  nElectrons: 704.000000
	SubspaceRotationAdjust: set factor to 0.753
ElecMinimize: Iter:   1  G: -2675.647276662572040  |grad|_K:  1.105e-04  alpha:  6.165e-01  linmin:  3.734e-06  t[s]:    289.82
	FillingsUpdate:  mu: -0.120079679  nElectrons: 704.000000
	SubspaceRotationAdjust: set factor to 0.41
ElecMinimize: Iter:   2  G: -2675.995882671589698  |grad|_K:  6.325e-05  alpha:  2.626e-01  linmin:  2.445e-04  t[s]:    317.29
	FillingsUpdate:  mu: -0.088660242  nElectrons: 704.000000
	SubspaceRotationAdjust: set factor to 0.572
ElecMinimize: Iter:   3  G: -2676.177078084637287  |grad|_K:  2.976e-05  alpha:  3.808e-01  linmin:  2.857e-05  t[s]:    345.17
	FillingsUpdate:  mu: -0.086930754  nElectrons: 704.000000
	SubspaceRotationAdjust: set factor to 0.632
ElecMinimize: Iter:   4  G: -2676.226659418598956  |grad|_K:  1.710e-05  alpha:  4.279e-01  linmin:  2.068e-05  t[s]:    372.67
	FillingsUpdate:  mu: -0.094151783  nElectrons: 704.000000
	SubspaceRotationAdjust: set factor to 0.759
ElecMinimize: Iter:   5  G: -2676.244811084863613  |grad|_K:  1.061e-05  alpha:  4.701e-01  linmin:  2.063e-06  t[s]:    399.75
	FillingsUpdate:  mu: -0.089913061  nElectrons: 704.000000
	SubspaceRotationAdjust: set factor to 0.908
ElecMinimize: Iter:   6  G: -2676.250724800125226  |grad|_K:  6.615e-06  alpha:  3.962e-01  linmin:  3.334e-06  t[s]:    428.29
	FillingsUpdate:  mu: -0.088920175  nElectrons: 704.000000
	SubspaceRotationAdjust: set factor to 1.02
ElecMinimize: Iter:   7  G: -2676.253391534769889  |grad|_K:  3.688e-06  alpha:  4.615e-01  linmin:  1.600e-05  t[s]:    455.31
	FillingsUpdate:  mu: -0.090575204  nElectrons: 704.000000
	SubspaceRotationAdjust: set factor to 0.903
ElecMinimize: Iter:   8  G: -2676.254048362261983  |grad|_K:  2.318e-06  alpha:  3.687e-01  linmin:  9.904e-07  t[s]:    482.48
	FillingsUpdate:  mu: -0.089524146  nElectrons: 704.000000
	SubspaceRotationAdjust: set factor to 0.631
ElecMinimize: Iter:   9  G: -2676.254255963196101  |grad|_K:  1.312e-06  alpha:  2.914e-01  linmin:  4.355e-07  t[s]:    510.46
	FillingsUpdate:  mu: -0.090133568  nElectrons: 704.000000
	SubspaceRotationAdjust: set factor to 0.713
ElecMinimize: Iter:  10  G: -2676.254338347052908  |grad|_K:  8.245e-07  alpha:  3.612e-01  linmin:  2.970e-07  t[s]:    537.80
	FillingsUpdate:  mu: -0.090183112  nElectrons: 704.000000
	SubspaceRotationAdjust: set factor to 0.876
ElecMinimize: Iter:  11  G: -2676.254377177172955  |grad|_K:  5.312e-07  alpha:  4.309e-01  linmin:  5.022e-07  t[s]:    564.87
	FillingsUpdate:  mu: -0.089875949  nElectrons: 704.000000
	SubspaceRotationAdjust: set factor to 0.879
ElecMinimize: Iter:  12  G: -2676.254391928002406  |grad|_K:  3.982e-07  alpha:  3.944e-01  linmin:  2.073e-07  t[s]:    592.42
	FillingsUpdate:  mu: -0.090052830  nElectrons: 704.000000
	SubspaceRotationAdjust: set factor to 0.759
ElecMinimize: Iter:  13  G: -2676.254399967369409  |grad|_K:  2.517e-07  alpha:  3.823e-01  linmin:  2.657e-07  t[s]:    619.61
	FillingsUpdate:  mu: -0.090011503  nElectrons: 704.000000
	SubspaceRotationAdjust: set factor to 0.815
ElecMinimize: Iter:  14  G: -2676.254403341872603  |grad|_K:  1.637e-07  alpha:  4.021e-01  linmin:  7.707e-08  t[s]:    646.99
	FillingsUpdate:  mu: -0.089977187  nElectrons: 704.000000
	SubspaceRotationAdjust: set factor to 0.859
ElecMinimize: Iter:  15  G: -2676.254404832559885  |grad|_K:  1.203e-07  alpha:  4.195e-01  linmin:  2.474e-08  t[s]:    674.53
	FillingsUpdate:  mu: -0.090026554  nElectrons: 704.000000
	SubspaceRotationAdjust: set factor to 0.888
ElecMinimize: Iter:  16  G: -2676.254405648159263  |grad|_K:  8.929e-08  alpha:  4.251e-01  linmin:  3.435e-08  t[s]:    701.79
	FillingsUpdate:  mu: -0.089992398  nElectrons: 704.000000
	SubspaceRotationAdjust: set factor to 0.955
ElecMinimize: Iter:  17  G: -2676.254406113945151  |grad|_K:  6.236e-08  alpha:  4.407e-01  linmin:  7.373e-08  t[s]:    728.95
	FillingsUpdate:  mu: -0.090004779  nElectrons: 704.000000
	SubspaceRotationAdjust: set factor to 0.997
ElecMinimize: Iter:  18  G: -2676.254406322554587  |grad|_K:  4.481e-08  alpha:  4.048e-01  linmin:  1.776e-08  t[s]:    756.66
	FillingsUpdate:  mu: -0.090002887  nElectrons: 704.000000
	SubspaceRotationAdjust: set factor to 1.11
ElecMinimize: Iter:  19  G: -2676.254406424787703  |grad|_K:  2.551e-08  alpha:  3.838e-01  linmin:  1.074e-08  t[s]:    784.44
	FillingsUpdate:  mu: -0.089996550  nElectrons: 704.000000
	SubspaceRotationAdjust: set factor to 1.15
ElecMinimize: Iter:  20  G: -2676.254406462324823  |grad|_K:  1.848e-08  alpha:  4.346e-01  linmin: -9.850e-09  t[s]:    811.82
	FillingsUpdate:  mu: -0.090006957  nElectrons: 704.000000
	SubspaceRotationAdjust: set factor to 1.01
ElecMinimize: Iter:  21  G: -2676.254406476997247  |grad|_K:  1.363e-08  alpha:  3.229e-01  linmin: -1.211e-08  t[s]:    839.49
	FillingsUpdate:  mu: -0.090000056  nElectrons: 704.000000
	SubspaceRotationAdjust: set factor to 0.843
ElecMinimize: Iter:  22  G: -2676.254406485154504  |grad|_K:  8.726e-09  alpha:  3.343e-01  linmin:  2.789e-08  t[s]:    867.88
	FillingsUpdate:  mu: -0.090002082  nElectrons: 704.000000
	SubspaceRotationAdjust: set factor to 0.865
ElecMinimize: Iter:  23  G: -2676.254406488454606  |grad|_K:  5.208e-09  alpha:  3.306e-01  linmin:  1.279e-07  t[s]:    895.12
ElecMinimize: Converged (|Delta G|<1.000000e-08 for 2 iters).
Setting wave functions to eigenvectors of Hamiltonian
Vacuum energy after initial minimize, F = -2676.254406488454606

Shifting auxilliary hamiltonian by -0.081250 to set nElectrons=704.000000
	Linear fluid (dielectric constant: 78.4, screening length: 5.74355 Bohr) occupying 0.755248 of unit cell:	Completed after 20 iterations at t[s]:    904.53

-------- Electronic minimization -----------
	Linear fluid (dielectric constant: 78.4, screening length: 5.74355 Bohr) occupying 0.755248 of unit cell:	Completed after 0 iterations at t[s]:    915.01
	FillingsUpdate:  mu: -0.171251800  nElectrons: 704.000000
ElecMinimize: Iter:   0  G: -2676.254124486274577  |grad|_K:  1.017e-04  alpha:  1.000e+00
	Linear fluid (dielectric constant: 78.4, screening length: 5.74355 Bohr) occupying 0.798771 of unit cell:	Completed after 19 iterations at t[s]:    941.18
	Linear fluid (dielectric constant: 78.4, screening length: 5.74355 Bohr) occupying 0.757891 of unit cell:	Completed after 21 iterations at t[s]:    959.50
	FillingsUpdate:  mu: -0.171251800  nElectrons: 704.831887
	SubspaceRotationAdjust: set factor to 0.477
ElecMinimize: Iter:   1  G: -2676.280259541317719  |grad|_K:  2.693e-05  alpha:  1.612e-02  linmin: -1.376e-02  t[s]:    976.11
	Linear fluid (dielectric constant: 78.4, screening length: 5.74355 Bohr) occupying 0.759705 of unit cell:	Completed after 14 iterations at t[s]:    986.95
	Linear fluid (dielectric constant: 78.4, screening length: 5.74355 Bohr) occupying 0.762254 of unit cell:	Completed after 14 iterations at t[s]:   1002.60
	FillingsUpdate:  mu: -0.171251800  nElectrons: 705.313552
	SubspaceRotationAdjust: set factor to 0.323
ElecMinimize: Iter:   2  G: -2676.284309803209908  |grad|_K:  2.296e-05  alpha:  3.444e-02  linmin: -3.287e-04  t[s]:   1018.35
	Linear fluid (dielectric constant: 78.4, screening length: 5.74355 Bohr) occupying 0.764538 of unit cell:	Completed after 12 iterations at t[s]:   1029.44
ElecMinimize: 	Predicted alpha/alphaT>3.000000, increasing alphaT to 1.033335e-01.
	Linear fluid (dielectric constant: 78.4, screening length: 5.74355 Bohr) occupying 0.769512 of unit cell:	Completed after 14 iterations at t[s]:   1044.84
	Linear fluid (dielectric constant: 78.4, screening length: 5.74355 Bohr) occupying 0.777053 of unit cell:	Completed after 16 iterations at t[s]:   1060.57
	FillingsUpdate:  mu: -0.171251800  nElectrons: 706.584276
	SubspaceRotationAdjust: set factor to 0.185
ElecMinimize: Iter:   3  G: -2676.299380230599127  |grad|_K:  3.799e-05  alpha:  2.101e-01  linmin:  2.524e-04  t[s]:   1076.50
	Linear fluid (dielectric constant: 78.4, screening length: 5.74355 Bohr) occupying 0.786701 of unit cell:	Completed after 21 iterations at t[s]:   1089.55
	Linear fluid (dielectric constant: 78.4, screening length: 5.74355 Bohr) occupying 0.780794 of unit cell:	Completed after 18 iterations at t[s]:   1106.90
	FillingsUpdate:  mu: -0.171251800  nElectrons: 706.987776
	SubspaceRotationAdjust: set factor to 0.171
ElecMinimize: Iter:   4  G: -2676.311188221694920  |grad|_K:  1.833e-05  alpha:  6.727e-02  linmin:  1.190e-04  t[s]:   1123.20
	Linear fluid (dielectric constant: 78.4, screening length: 5.74355 Bohr) occupying 0.779603 of unit cell:	Completed after 16 iterations at t[s]:   1135.19
	Linear fluid (dielectric constant: 78.4, screening length: 5.74355 Bohr) occupying 0.779310 of unit cell:	Completed after 13 iterations at t[s]:   1151.25
	FillingsUpdate:  mu: -0.171251800  nElectrons: 706.855547
	SubspaceRotationAdjust: set factor to 0.172
ElecMinimize: Iter:   5  G: -2676.314814989934348  |grad|_K:  1.356e-05  alpha:  8.345e-02  linmin: -8.131e-06  t[s]:   1166.49
	Linear fluid (dielectric constant: 78.4, screening length: 5.74355 Bohr) occupying 0.778895 of unit cell:	Completed after 15 iterations at t[s]:   1177.77
	Linear fluid (dielectric constant: 78.4, screening length: 5.74355 Bohr) occupying 0.778412 of unit cell:	Completed after 15 iterations at t[s]:   1194.64
	FillingsUpdate:  mu: -0.171251800  nElectrons: 706.799359
	SubspaceRotationAdjust: set factor to 0.112
	SubspaceRotationAdjust: resetting CG because factor has changed by 0.129432
	Linear fluid (dielectric constant: 78.4, screening length: 5.74355 Bohr) occupying 0.778412 of unit cell:	Completed after 0 iterations at t[s]:   1214.71
ElecMinimize: 	State modified externally: resetting search direction.
ElecMinimize: Iter:   6  G: -2676.319201266658183  |grad|_K:  1.426e-05  alpha:  1.799e-01
	Linear fluid (dielectric constant: 78.4, screening length: 5.74355 Bohr) occupying 0.781683 of unit cell:	Completed after 18 iterations at t[s]:   1239.48
	Linear fluid (dielectric constant: 78.4, screening length: 5.74355 Bohr) occupying 0.781606 of unit cell:	Completed after 9 iterations at t[s]:   1254.81
	FillingsUpdate:  mu: -0.171251800  nElectrons: 707.135179
	SubspaceRotationAdjust: set factor to 0.0926
ElecMinimize: Iter:   7  G: -2676.323938118407568  |grad|_K:  6.761e-06  alpha:  1.754e-01  linmin:  4.192e-04  t[s]:   1270.09
	Linear fluid (dielectric constant: 78.4, screening length: 5.74355 Bohr) occupying 0.781023 of unit cell:	Completed after 12 iterations at t[s]:   1280.90
ElecMinimize: 	Predicted alpha/alphaT>3.000000, increasing alphaT to 5.261987e-01.
	Linear fluid (dielectric constant: 78.4, screening length: 5.74355 Bohr) occupying 0.779821 of unit cell:	Completed after 14 iterations at t[s]:   1296.38
	Linear fluid (dielectric constant: 78.4, screening length: 5.74355 Bohr) occupying 0.779317 of unit cell:	Completed after 12 iterations at t[s]:   1311.49
	FillingsUpdate:  mu: -0.171251800  nElectrons: 706.924961
	SubspaceRotationAdjust: set factor to 0.126
ElecMinimize: Iter:   8  G: -2676.327974665832699  |grad|_K:  3.474e-06  alpha:  6.694e-01  linmin: -6.980e-05  t[s]:   1326.71
	Linear fluid (dielectric constant: 78.4, screening length: 5.74355 Bohr) occupying 0.779251 of unit cell:	Completed after 8 iterations at t[s]:   1336.83
	Linear fluid (dielectric constant: 78.4, screening length: 5.74355 Bohr) occupying 0.779220 of unit cell:	Completed after 7 iterations at t[s]:   1350.11
	FillingsUpdate:  mu: -0.171251800  nElectrons: 706.937828
	SubspaceRotationAdjust: set factor to 0.155
ElecMinimize: Iter:   9  G: -2676.329535558369116  |grad|_K:  3.527e-06  alpha:  9.725e-01  linmin:  8.412e-06  t[s]:   1364.93
	Linear fluid (dielectric constant: 78.4, screening length: 5.74355 Bohr) occupying 0.779276 of unit cell:	Completed after 8 iterations at t[s]:   1375.39
	Linear fluid (dielectric constant: 78.4, screening length: 5.74355 Bohr) occupying 0.779258 of unit cell:	Completed after 5 iterations at t[s]:   1388.23
	FillingsUpdate:  mu: -0.171251800  nElectrons: 706.959831
	SubspaceRotationAdjust: set factor to 0.189
ElecMinimize: Iter:  10  G: -2676.330574264808547  |grad|_K:  3.358e-06  alpha:  6.297e-01  linmin:  4.513e-07  t[s]:   1402.45
	Linear fluid (dielectric constant: 78.4, screening length: 5.74355 Bohr) occupying 0.779355 of unit cell:	Completed after 8 iterations at t[s]:   1412.63
	Linear fluid (dielectric constant: 78.4, screening length: 5.74355 Bohr) occupying 0.779355 of unit cell:	Completed after 0 iterations at t[s]:   1425.47
	FillingsUpdate:  mu: -0.171251800  nElectrons: 706.987955
	SubspaceRotationAdjust: set factor to 0.219
ElecMinimize: Iter:  11  G: -2676.331509429520338  |grad|_K:  3.044e-06  alpha:  6.252e-01  linmin:  4.307e-06  t[s]:   1438.23
	Linear fluid (dielectric constant: 78.4, screening length: 5.74355 Bohr) occupying 0.778883 of unit cell:	Completed after 14 iterations at t[s]:   1449.50
	Linear fluid (dielectric constant: 78.4, screening length: 5.74355 Bohr) occupying 0.778961 of unit cell:	Completed after 10 iterations at t[s]:   1465.08
	FillingsUpdate:  mu: -0.171251800  nElectrons: 706.962563
	SubspaceRotationAdjust: set factor to 0.175
ElecMinimize: Iter:  12  G: -2676.332151443143175  |grad|_K:  3.335e-06  alpha:  5.236e-01  linmin:  7.730e-08  t[s]:   1480.34
	Linear fluid (dielectric constant: 78.4, screening length: 5.74355 Bohr) occupying 0.781769 of unit cell:	Completed after 18 iterations at t[s]:   1492.70
	Linear fluid (dielectric constant: 78.4, screening length: 5.74355 Bohr) occupying 0.779795 of unit cell:	Completed after 16 iterations at t[s]:   1508.99
	FillingsUpdate:  mu: -0.171251800  nElectrons: 707.053327
	SubspaceRotationAdjust: set factor to 0.117
ElecMinimize: Iter:  13  G: -2676.332372109235166  |grad|_K:  2.439e-06  alpha:  1.489e-01  linmin: -5.226e-06  t[s]:   1525.01
	Linear fluid (dielectric constant: 78.4, screening length: 5.74355 Bohr) occupying 0.779840 of unit cell:	Completed after 9 iterations at t[s]:   1535.33
	Linear fluid (dielectric constant: 78.4, screening length: 5.74355 Bohr) occupying 0.779905 of unit cell:	Completed after 9 iterations at t[s]:   1549.36
	FillingsUpdate:  mu: -0.171251800  nElectrons: 707.073150
	SubspaceRotationAdjust: set factor to 0.169
ElecMinimize: Iter:  14  G: -2676.332669711875496  |grad|_K:  1.790e-06  alpha:  3.753e-01  linmin:  2.131e-07  t[s]:   1564.57
	Linear fluid (dielectric constant: 78.4, screening length: 5.74355 Bohr) occupying 0.779692 of unit cell:	Completed after 13 iterations at t[s]:   1575.81
	Linear fluid (dielectric constant: 78.4, screening length: 5.74355 Bohr) occupying 0.779684 of unit cell:	Completed after 0 iterations at t[s]:   1588.84
	FillingsUpdate:  mu: -0.171251800  nElectrons: 707.055376
	SubspaceRotationAdjust: set factor to 0.148
ElecMinimize: Iter:  15  G: -2676.332835660640285  |grad|_K:  1.637e-06  alpha:  3.904e-01  linmin: -1.275e-05  t[s]:   1602.51
	Linear fluid (dielectric constant: 78.4, screening length: 5.74355 Bohr) occupying 0.780516 of unit cell:	Completed after 14 iterations at t[s]:   1613.91
	Linear fluid (dielectric constant: 78.4, screening length: 5.74355 Bohr) occupying 0.780096 of unit cell:	Completed after 12 iterations at t[s]:   1628.98
	FillingsUpdate:  mu: -0.171251800  nElectrons: 707.100944
	SubspaceRotationAdjust: set factor to 0.107
ElecMinimize: Iter:  16  G: -2676.332906094569353  |grad|_K:  1.067e-06  alpha:  1.916e-01  linmin: -7.902e-07  t[s]:   1644.07
	Linear fluid (dielectric constant: 78.4, screening length: 5.74355 Bohr) occupying 0.780109 of unit cell:	Completed after 3 iterations at t[s]:   1653.50
	Linear fluid (dielectric constant: 78.4, screening length: 5.74355 Bohr) occupying 0.780127 of unit cell:	Completed after 7 iterations at t[s]:   1666.30
	FillingsUpdate:  mu: -0.171251800  nElectrons: 707.107246
	SubspaceRotationAdjust: set factor to 0.139
ElecMinimize: Iter:  17  G: -2676.332976226889514  |grad|_K:  8.179e-07  alpha:  4.695e-01  linmin:  9.240e-06  t[s]:   1680.36
	Linear fluid (dielectric constant: 78.4, screening length: 5.74355 Bohr) occupying 0.780083 of unit cell:	Completed after 11 iterations at t[s]:   1690.66
	Linear fluid (dielectric constant: 78.4, screening length: 5.74355 Bohr) occupying 0.780091 of unit cell:	Completed after 3 iterations at t[s]:   1704.36
	FillingsUpdate:  mu: -0.171251800  nElectrons: 707.105310
	SubspaceRotationAdjust: set factor to 0.114
ElecMinimize: Iter:  18  G: -2676.333010246525191  |grad|_K:  6.869e-07  alpha:  3.885e-01  linmin:  4.697e-06  t[s]:   1718.19
	Linear fluid (dielectric constant: 78.4, screening length: 5.74355 Bohr) occupying 0.780453 of unit cell:	Completed after 12 iterations at t[s]:   1728.94
	Linear fluid (dielectric constant: 78.4, screening length: 5.74355 Bohr) occupying 0.780292 of unit cell:	Completed after 11 iterations at t[s]:   1744.63
	FillingsUpdate:  mu: -0.171251800  nElectrons: 707.127449
	SubspaceRotationAdjust: set factor to 0.08
ElecMinimize: Iter:  19  G: -2676.333023429891000  |grad|_K:  4.788e-07  alpha:  2.147e-01  linmin: -8.348e-08  t[s]:   1759.45
	Linear fluid (dielectric constant: 78.4, screening length: 5.74355 Bohr) occupying 0.780315 of unit cell:	Completed after 2 iterations at t[s]:   1768.46
	Linear fluid (dielectric constant: 78.4, screening length: 5.74355 Bohr) occupying 0.780342 of unit cell:	Completed after 3 iterations at t[s]:   1780.44
	FillingsUpdate:  mu: -0.171251800  nElectrons: 707.133910
	SubspaceRotationAdjust: set factor to 0.114
ElecMinimize: Iter:  20  G: -2676.333037454901842  |grad|_K:  3.637e-07  alpha:  4.632e-01  linmin:  2.363e-06  t[s]:   1794.20
	Linear fluid (dielectric constant: 78.4, screening length: 5.74355 Bohr) occupying 0.780277 of unit cell:	Completed after 11 iterations at t[s]:   1804.62
	Linear fluid (dielectric constant: 78.4, screening length: 5.74355 Bohr) occupying 0.780300 of unit cell:	Completed after 5 iterations at t[s]:   1818.22
	FillingsUpdate:  mu: -0.171251800  nElectrons: 707.129856
	SubspaceRotationAdjust: set factor to 0.0959
ElecMinimize: Iter:  21  G: -2676.333042659109196  |grad|_K:  2.835e-07  alpha:  3.008e-01  linmin:  7.571e-06  t[s]:   1832.12
	Linear fluid (dielectric constant: 78.4, screening length: 5.74355 Bohr) occupying 0.780366 of unit cell:	Completed after 9 iterations at t[s]:   1842.44
	Linear fluid (dielectric constant: 78.4, screening length: 5.74355 Bohr) occupying 0.780367 of unit cell:	Completed after 0 iterations at t[s]:   1854.81
	FillingsUpdate:  mu: -0.171251800  nElectrons: 707.137285
	SubspaceRotationAdjust: set factor to 0.0907
ElecMinimize: Iter:  22  G: -2676.333045871337163  |grad|_K:  2.040e-07  alpha:  3.048e-01  linmin: -1.848e-05  t[s]:   1867.73
	Linear fluid (dielectric constant: 78.4, screening length: 5.74355 Bohr) occupying 0.780376 of unit cell:	Completed after 1 iterations at t[s]:   1876.65
	Linear fluid (dielectric constant: 78.4, screening length: 5.74355 Bohr) occupying 0.780379 of unit cell:	Completed after 0 iterations at t[s]:   1887.90
	FillingsUpdate:  mu: -0.171251800  nElectrons: 707.138612
	SubspaceRotationAdjust: set factor to 0.124
ElecMinimize: Iter:  23  G: -2676.333048102673274  |grad|_K:  1.530e-07  alpha:  3.840e-01  linmin: -9.962e-06  t[s]:   1900.95
	Linear fluid (dielectric constant: 78.4, screening length: 5.74355 Bohr) occupying 0.780353 of unit cell:	Completed after 3 iterations at t[s]:   1910.25
	Linear fluid (dielectric constant: 78.4, screening length: 5.74355 Bohr) occupying 0.780351 of unit cell:	Completed after 0 iterations at t[s]:   1921.56
	FillingsUpdate:  mu: -0.171251800  nElectrons: 707.135602
	SubspaceRotationAdjust: set factor to 0.133
ElecMinimize: Iter:  24  G: -2676.333049431224481  |grad|_K:  1.352e-07  alpha:  4.110e-01  linmin: -2.022e-05  t[s]:   1934.70
	Linear fluid (dielectric constant: 78.4, screening length: 5.74355 Bohr) occupying 0.780365 of unit cell:	Completed after 2 iterations at t[s]:   1943.98
	Linear fluid (dielectric constant: 78.4, screening length: 5.74355 Bohr) occupying 0.780367 of unit cell:	Completed after 0 iterations at t[s]:   1955.02
	FillingsUpdate:  mu: -0.171251800  nElectrons: 707.137044
	SubspaceRotationAdjust: set factor to 0.172
ElecMinimize: Iter:  25  G: -2676.333050726039346  |grad|_K:  1.325e-07  alpha:  4.893e-01  linmin: -5.007e-06  t[s]:   1968.20
	Linear fluid (dielectric constant: 78.4, screening length: 5.74355 Bohr) occupying 0.780386 of unit cell:	Completed after 3 iterations at t[s]:   1977.65
	Linear fluid (dielectric constant: 78.4, screening length: 5.74355 Bohr) occupying 0.780382 of unit cell:	Completed after 0 iterations at t[s]:   1988.82
	FillingsUpdate:  mu: -0.171251800  nElectrons: 707.138182
	SubspaceRotationAdjust: set factor to 0.144
ElecMinimize: Iter:  26  G: -2676.333051630975206  |grad|_K:  1.828e-07  alpha:  3.777e-01  linmin:  1.666e-06  t[s]:   2002.03
	Linear fluid (dielectric constant: 78.4, screening length: 5.74355 Bohr) occupying 0.780302 of unit cell:	Completed after 4 iterations at t[s]:   2012.00
	Linear fluid (dielectric constant: 78.4, screening length: 5.74355 Bohr) occupying 0.780344 of unit cell:	Completed after 2 iterations at t[s]:   2024.26
	FillingsUpdate:  mu: -0.171251800  nElectrons: 707.133710
	SubspaceRotationAdjust: set factor to 0.13
ElecMinimize: Iter:  27  G: -2676.333052344202315  |grad|_K:  1.502e-07  alpha:  1.789e-01  linmin:  2.980e-06  t[s]:   2037.46
	Linear fluid (dielectric constant: 78.4, screening length: 5.74355 Bohr) occupying 0.780330 of unit cell:	Completed after 0 iterations at t[s]:   2046.21
	Linear fluid (dielectric constant: 78.4, screening length: 5.74355 Bohr) occupying 0.780316 of unit cell:	Completed after 2 iterations at t[s]:   2057.99
	FillingsUpdate:  mu: -0.171251800  nElectrons: 707.129932
	SubspaceRotationAdjust: set factor to 0.165
ElecMinimize: Iter:  28  G: -2676.333053250098601  |grad|_K:  1.361e-07  alpha:  3.696e-01  linmin:  7.854e-06  t[s]:   2071.80
	Linear fluid (dielectric constant: 78.4, screening length: 5.74355 Bohr) occupying 0.780342 of unit cell:	Completed after 4 iterations at t[s]:   2081.05
	Linear fluid (dielectric constant: 78.4, screening length: 5.74355 Bohr) occupying 0.780333 of unit cell:	Completed after 2 iterations at t[s]:   2093.23
	FillingsUpdate:  mu: -0.171251800  nElectrons: 707.131308
	SubspaceRotationAdjust: set factor to 0.139
ElecMinimize: Iter:  29  G: -2676.333053769868002  |grad|_K:  1.236e-07  alpha:  2.506e-01  linmin:  2.239e-06  t[s]:   2106.84
	Linear fluid (dielectric constant: 78.4, screening length: 5.74355 Bohr) occupying 0.780322 of unit cell:	Completed after 0 iterations at t[s]:   2115.60
	Linear fluid (dielectric constant: 78.4, screening length: 5.74355 Bohr) occupying 0.780316 of unit cell:	Completed after 1 iterations at t[s]:   2126.91
	FillingsUpdate:  mu: -0.171251800  nElectrons: 707.128812
	SubspaceRotationAdjust: set factor to 0.179
ElecMinimize: Iter:  30  G: -2676.333054421696488  |grad|_K:  9.013e-08  alpha:  3.688e-01  linmin:  4.911e-06  t[s]:   2140.02
	Linear fluid (dielectric constant: 78.4, screening length: 5.74355 Bohr) occupying 0.780281 of unit cell:	Completed after 3 iterations at t[s]:   2149.61
	Linear fluid (dielectric constant: 78.4, screening length: 5.74355 Bohr) occupying 0.780294 of unit cell:	Completed after 0 iterations at t[s]:   2161.08
	FillingsUpdate:  mu: -0.171251800  nElectrons: 707.126201
	SubspaceRotationAdjust: set factor to 0.134
ElecMinimize: Iter:  31  G: -2676.333054672025355  |grad|_K:  1.058e-07  alpha:  2.305e-01  linmin:  1.416e-05  t[s]:   2174.05
	Linear fluid (dielectric constant: 78.4, screening length: 5.74355 Bohr) occupying 0.780304 of unit cell:	Completed after 1 iterations at t[s]:   2183.06
	Linear fluid (dielectric constant: 78.4, screening length: 5.74355 Bohr) occupying 0.780300 of unit cell:	Completed after 0 iterations at t[s]:   2193.83
	FillingsUpdate:  mu: -0.171251800  nElectrons: 707.126627
	SubspaceRotationAdjust: set factor to 0.175
ElecMinimize: Iter:  32  G: -2676.333054792348321  |grad|_K:  6.160e-08  alpha:  1.386e-01  linmin: -3.479e-06  t[s]:   2206.99
	Linear fluid (dielectric constant: 78.4, screening length: 5.74355 Bohr) occupying 0.780302 of unit cell:	Completed after 0 iterations at t[s]:   2215.87
	Linear fluid (dielectric constant: 78.4, screening length: 5.74355 Bohr) occupying 0.780307 of unit cell:	Completed after 2 iterations at t[s]:   2226.59
	FillingsUpdate:  mu: -0.171251800  nElectrons: 707.127233
	SubspaceRotationAdjust: set factor to 0.185
ElecMinimize: Iter:  33  G: -2676.333054923322379  |grad|_K:  5.230e-08  alpha:  3.988e-01  linmin:  1.775e-05  t[s]:   2240.18
	Linear fluid (dielectric constant: 78.4, screening length: 5.74355 Bohr) occupying 0.780286 of unit cell:	Completed after 2 iterations at t[s]:   2249.15
	Linear fluid (dielectric constant: 78.4, screening length: 5.74355 Bohr) occupying 0.780294 of unit cell:	Completed after 0 iterations at t[s]:   2260.43
	FillingsUpdate:  mu: -0.171251800  nElectrons: 707.125816
	SubspaceRotationAdjust: set factor to 0.168
ElecMinimize: Iter:  34  G: -2676.333054993919632  |grad|_K:  4.709e-08  alpha:  2.401e-01  linmin:  7.259e-06  t[s]:   2273.67
	Linear fluid (dielectric constant: 78.4, screening length: 5.74355 Bohr) occupying 0.780294 of unit cell:	Completed after 0 iterations at t[s]:   2282.17
	Linear fluid (dielectric constant: 78.4, screening length: 5.74355 Bohr) occupying 0.780294 of unit cell:	Completed after 0 iterations at t[s]:   2292.74
	FillingsUpdate:  mu: -0.171251800  nElectrons: 707.125775
	SubspaceRotationAdjust: set factor to 0.212
ElecMinimize: Iter:  35  G: -2676.333055070498631  |grad|_K:  3.937e-08  alpha:  3.161e-01  linmin:  3.951e-10  t[s]:   2306.24
	Linear fluid (dielectric constant: 78.4, screening length: 5.74355 Bohr) occupying 0.780307 of unit cell:	Completed after 2 iterations at t[s]:   2315.54
	Linear fluid (dielectric constant: 78.4, screening length: 5.74355 Bohr) occupying 0.780298 of unit cell:	Completed after 0 iterations at t[s]:   2326.48
ElecMinimize: 	Step increased G by 5.837137e-09, reducing alpha to 9.488617e-03.
	Linear fluid (dielectric constant: 78.4, screening length: 5.74355 Bohr) occupying 0.780295 of unit cell:	Completed after 0 iterations at t[s]:   2346.91
	FillingsUpdate:  mu: -0.171251800  nElectrons: 707.125815
	SubspaceRotationAdjust: set factor to 0.125
ElecMinimize: Iter:  36  G: -2676.333055084859097  |grad|_K:  8.200e-08  alpha:  9.489e-03  linmin:  1.304e-05  t[s]:   2359.80
	Linear fluid (dielectric constant: 78.4, screening length: 5.74355 Bohr) occupying 0.780295 of unit cell:	Completed after 0 iterations at t[s]:   2368.47
ElecMinimize: 	Predicted alpha/alphaT>3.000000, increasing alphaT to 2.846585e-02.
	Linear fluid (dielectric constant: 78.4, screening length: 5.74355 Bohr) occupying 0.780295 of unit cell:	Completed after 0 iterations at t[s]:   2378.97
	Linear fluid (dielectric constant: 78.4, screening length: 5.74355 Bohr) occupying 0.780295 of unit cell:	Completed after 0 iterations at t[s]:   2389.95
	FillingsUpdate:  mu: -0.171251800  nElectrons: 707.125806
	SubspaceRotationAdjust: set factor to 0.0787
ElecMinimize: Iter:  37  G: -2676.333055103812057  |grad|_K:  6.501e-08  alpha:  4.009e-02  linmin:  6.786e-09  t[s]:   2402.69
	Linear fluid (dielectric constant: 78.4, screening length: 5.74355 Bohr) occupying 0.780291 of unit cell:	Completed after 1 iterations at t[s]:   2412.10
	Linear fluid (dielectric constant: 78.4, screening length: 5.74355 Bohr) occupying 0.780293 of unit cell:	Completed after 0 iterations at t[s]:   2423.23
ElecMinimize: 	Step increased G by 1.835951e-08, reducing alpha to 1.692580e-03.
	Linear fluid (dielectric constant: 78.4, screening length: 5.74355 Bohr) occupying 0.780295 of unit cell:	Completed after 0 iterations at t[s]:   2443.75
ElecMinimize: 	Step increased G by 2.738579e-08, reducing alpha to 1.692580e-04.
	Linear fluid (dielectric constant: 78.4, screening length: 5.74355 Bohr) occupying 0.780295 of unit cell:	Completed after 0 iterations at t[s]:   2463.81
ElecMinimize: 	Step increased G by 2.838260e-08, reducing alpha to 1.692580e-05.
ElecMinimize: 	Step failed to reduce G after 3 attempts. Quitting step.
ElecMinimize: 	Undoing step.
	Linear fluid (dielectric constant: 78.4, screening length: 5.74355 Bohr) occupying 0.780295 of unit cell:	Completed after 0 iterations at t[s]:   2483.39
ElecMinimize: 	Step failed: resetting search direction.
	FillingsUpdate:  mu: -0.171251800  nElectrons: 707.125805
	SubspaceRotationAdjust: set factor to 0.099
ElecMinimize: Iter:  38  G: -2676.333055075397169  |grad|_K:  3.483e-08  alpha:  1.693e-05
	Linear fluid (dielectric constant: 78.4, screening length: 5.74355 Bohr) occupying 0.780294 of unit cell:	Completed after 0 iterations at t[s]:   2505.05
ElecMinimize: 	Predicted alpha/alphaT>3.000000, increasing alphaT to 1.202824e-01.
	Linear fluid (dielectric constant: 78.4, screening length: 5.74355 Bohr) occupying 0.780292 of unit cell:	Completed after 0 iterations at t[s]:   2515.66
ElecMinimize: 	Predicted alpha/alphaT>3.000000, increasing alphaT to 3.608472e-01.
	Linear fluid (dielectric constant: 78.4, screening length: 5.74355 Bohr) occupying 0.780285 of unit cell:	Completed after 0 iterations at t[s]:   2526.34
	Linear fluid (dielectric constant: 78.4, screening length: 5.74355 Bohr) occupying 0.780273 of unit cell:	Completed after 2 iterations at t[s]:   2537.50
ElecMinimize: 	Step increased G by 9.803716e-08, reducing alpha to 8.130126e-02.
	Linear fluid (dielectric constant: 78.4, screening length: 5.74355 Bohr) occupying 0.780293 of unit cell:	Completed after 2 iterations at t[s]:   2558.14
	FillingsUpdate:  mu: -0.171251800  nElectrons: 707.125579
	SubspaceRotationAdjust: set factor to 0.123
ElecMinimize: Iter:  39  G: -2676.333055109262659  |grad|_K:  2.116e-08  alpha:  8.130e-02  linmin: -1.059e-04  t[s]:   2571.56
	Linear fluid (dielectric constant: 78.4, screening length: 5.74355 Bohr) occupying 0.780292 of unit cell:	Completed after 0 iterations at t[s]:   2580.11
ElecMinimize: 	Predicted alpha/alphaT>3.000000, increasing alphaT to 2.439038e-01.
	Linear fluid (dielectric constant: 78.4, screening length: 5.74355 Bohr) occupying 0.780291 of unit cell:	Completed after 0 iterations at t[s]:   2590.88
	Linear fluid (dielectric constant: 78.4, screening length: 5.74355 Bohr) occupying 0.780289 of unit cell:	Completed after 0 iterations at t[s]:   2601.43
	FillingsUpdate:  mu: -0.171251800  nElectrons: 707.125201
	SubspaceRotationAdjust: set factor to 0.156
ElecMinimize: Iter:  40  G: -2676.333055149542815  |grad|_K:  2.324e-08  alpha:  4.935e-01  linmin: -2.297e-07  t[s]:   2614.78
	Linear fluid (dielectric constant: 78.4, screening length: 5.74355 Bohr) occupying 0.780284 of unit cell:	Completed after 0 iterations at t[s]:   2623.39
	Linear fluid (dielectric constant: 78.4, screening length: 5.74355 Bohr) occupying 0.780284 of unit cell:	Completed after 0 iterations at t[s]:   2634.06
	FillingsUpdate:  mu: -0.171251800  nElectrons: 707.124778
	SubspaceRotationAdjust: set factor to 0.189
ElecMinimize: Iter:  41  G: -2676.333055185136345  |grad|_K:  2.601e-08  alpha:  4.944e-01  linmin:  7.076e-09  t[s]:   2647.26
	Linear fluid (dielectric constant: 78.4, screening length: 5.74355 Bohr) occupying 0.780277 of unit cell:	Completed after 1 iterations at t[s]:   2656.05
	Linear fluid (dielectric constant: 78.4, screening length: 5.74355 Bohr) occupying 0.780281 of unit cell:	Completed after 0 iterations at t[s]:   2667.17
ElecMinimize: 	Step increased G by 2.082743e-10, reducing alpha to 2.218329e-02.
	Linear fluid (dielectric constant: 78.4, screening length: 5.74355 Bohr) occupying 0.780284 of unit cell:	Completed after 0 iterations at t[s]:   2687.36
ElecMinimize: 	Step increased G by 1.304397e-08, reducing alpha to 2.218329e-03.
	Linear fluid (dielectric constant: 78.4, screening length: 5.74355 Bohr) occupying 0.780284 of unit cell:	Completed after 0 iterations at t[s]:   2707.26
ElecMinimize: 	Step increased G by 1.522449e-08, reducing alpha to 2.218329e-04.
ElecMinimize: 	Step failed to reduce G after 3 attempts. Quitting step.
ElecMinimize: 	Undoing step.
	Linear fluid (dielectric constant: 78.4, screening length: 5.74355 Bohr) occupying 0.780284 of unit cell:	Completed after 0 iterations at t[s]:   2727.15
ElecMinimize: 	Step failed: resetting search direction.
	FillingsUpdate:  mu: -0.171251800  nElectrons: 707.124775
	SubspaceRotationAdjust: set factor to 0.145
ElecMinimize: Iter:  42  G: -2676.333055169864565  |grad|_K:  3.996e-08  alpha:  2.218e-04
	Linear fluid (dielectric constant: 78.4, screening length: 5.74355 Bohr) occupying 0.780318 of unit cell:	Completed after 3 iterations at t[s]:   2749.37
	Linear fluid (dielectric constant: 78.4, screening length: 5.74355 Bohr) occupying 0.780294 of unit cell:	Completed after 1 iterations at t[s]:   2761.28
	FillingsUpdate:  mu: -0.171251800  nElectrons: 707.125870
	SubspaceRotationAdjust: set factor to 0.0848
ElecMinimize: Iter:  43  G: -2676.333055213318858  |grad|_K:  5.236e-08  alpha:  1.508e-01  linmin:  7.426e-05  t[s]:   2775.21
	Linear fluid (dielectric constant: 78.4, screening length: 5.74355 Bohr) occupying 0.780298 of unit cell:	Completed after 0 iterations at t[s]:   2784.11
	Linear fluid (dielectric constant: 78.4, screening length: 5.74355 Bohr) occupying 0.780297 of unit cell:	Completed after 0 iterations at t[s]:   2794.83
	FillingsUpdate:  mu: -0.171251800  nElectrons: 707.126184
	SubspaceRotationAdjust: set factor to 0.051
ElecMinimize: Iter:  44  G: -2676.333055223287829  |grad|_K:  3.972e-08  alpha:  1.078e-01  linmin:  4.211e-08  t[s]:   2808.14
	Linear fluid (dielectric constant: 78.4, screening length: 5.74355 Bohr) occupying 0.780293 of unit cell:	Completed after 0 iterations at t[s]:   2817.22
	Linear fluid (dielectric constant: 78.4, screening length: 5.74355 Bohr) occupying 0.780292 of unit cell:	Completed after 0 iterations at t[s]:   2828.28
	FillingsUpdate:  mu: -0.171251800  nElectrons: 707.125613
	SubspaceRotationAdjust: set factor to 0.0354
ElecMinimize: Iter:  45  G: -2676.333055266110478  |grad|_K:  3.216e-08  alpha:  1.504e-01  linmin: -4.441e-05  t[s]:   2841.36
	Linear fluid (dielectric constant: 78.4, screening length: 5.74355 Bohr) occupying 0.780283 of unit cell:	Completed after 2 iterations at t[s]:   2850.63
	Linear fluid (dielectric constant: 78.4, screening length: 5.74355 Bohr) occupying 0.780289 of unit cell:	Completed after 0 iterations at t[s]:   2861.80
ElecMinimize: 	Step increased G by 2.142770e-08, reducing alpha to 4.522752e-03.
	Linear fluid (dielectric constant: 78.4, screening length: 5.74355 Bohr) occupying 0.780291 of unit cell:	Completed after 0 iterations at t[s]:   2882.64
ElecMinimize: 	Step increased G by 1.140143e-08, reducing alpha to 4.522752e-04.
	Linear fluid (dielectric constant: 78.4, screening length: 5.74355 Bohr) occupying 0.780292 of unit cell:	Completed after 0 iterations at t[s]:   2902.62
ElecMinimize: 	Step increased G by 1.040280e-08, reducing alpha to 4.522752e-05.
ElecMinimize: 	Step failed to reduce G after 3 attempts. Quitting step.
ElecMinimize: 	Undoing step.
	Linear fluid (dielectric constant: 78.4, screening length: 5.74355 Bohr) occupying 0.780292 of unit cell:	Completed after 0 iterations at t[s]:   2921.61
ElecMinimize: 	Step failed: resetting search direction.
	FillingsUpdate:  mu: -0.171251800  nElectrons: 707.125610
	SubspaceRotationAdjust: set factor to 0.018
ElecMinimize: Iter:  46  G: -2676.333055255678119  |grad|_K:  2.268e-08  alpha:  4.523e-05
	Linear fluid (dielectric constant: 78.4, screening length: 5.74355 Bohr) occupying 0.780294 of unit cell:	Completed after 0 iterations at t[s]:   2942.33
ElecMinimize: 	Predicted alpha/alphaT>3.000000, increasing alphaT to 4.511021e-01.
	Linear fluid (dielectric constant: 78.4, screening length: 5.74355 Bohr) occupying 0.780299 of unit cell:	Completed after 1 iterations at t[s]:   2953.48
	Linear fluid (dielectric constant: 78.4, screening length: 5.74355 Bohr) occupying 0.780294 of unit cell:	Completed after 0 iterations at t[s]:   2964.88
ElecMinimize: 	Step increased G by 1.577200e-08, reducing alpha to 1.617663e-02.
	Linear fluid (dielectric constant: 78.4, screening length: 5.74355 Bohr) occupying 0.780292 of unit cell:	Completed after 0 iterations at t[s]:   2984.83
ElecMinimize: 	Step increased G by 1.589842e-08, reducing alpha to 1.617663e-03.
	Linear fluid (dielectric constant: 78.4, screening length: 5.74355 Bohr) occupying 0.780292 of unit cell:	Completed after 0 iterations at t[s]:   3004.69
ElecMinimize: 	Step increased G by 1.608441e-08, reducing alpha to 1.617663e-04.
ElecMinimize: 	Step failed to reduce G after 3 attempts. Quitting step.
ElecMinimize: 	Undoing step.
	Linear fluid (dielectric constant: 78.4, screening length: 5.74355 Bohr) occupying 0.780292 of unit cell:	Completed after 0 iterations at t[s]:   3024.71
ElecMinimize: 	Step failed along negative gradient direction.
ElecMinimize: Probably at roundoff error limit. (Stopping)
Setting wave functions to eigenvectors of Hamiltonian
Single-point solvation energy estimate, DeltaG = -0.078648751206856

# Ionic positions in lattice coordinates:
ion Mo   0.166666670266667   0.083333326383333   0.558556097997901 1
ion Mo   0.083333336933333   0.166666659716667   0.441447899802099 1
ion Mo   0.416666670266667   0.083333326383333   0.558556097997901 1
ion Mo   0.333333336933333   0.166666659716667   0.441447899802099 1
ion Mo   0.666666670266667   0.083333326383333   0.558556097997901 1
ion Mo   0.583333336933333   0.166666659716667   0.441447899802099 1
ion Mo   0.916666670266667   0.083333326383333   0.558556097997901 1
ion Mo   0.833333336933333   0.166666659716667   0.441447899802099 1
ion Mo   0.166666670266667   0.333333326383333   0.558556097997901 1
ion Mo   0.083333336933333   0.416666659716667   0.441447899802099 1
ion Mo   0.416666670266667   0.333333326383333   0.558556097997901 1
ion Mo   0.333333336933333   0.416666659716667   0.441447899802099 1
ion Mo   0.666666670266667   0.333333326383333   0.558556097997901 1
ion Mo   0.583333336933333   0.416666659716667   0.441447899802099 1
ion Mo   0.916666670266667   0.333333326383333   0.558556097997901 1
ion Mo   0.833333336933333   0.416666659716667   0.441447899802099 1
ion Mo   0.166666670266667   0.583333326383333   0.558556097997901 1
ion Mo   0.083333336933333   0.666666659716667   0.441447899802099 1
ion Mo   0.416666670266667   0.583333326383333   0.558556097997901 1
ion Mo   0.333333336933333   0.666666659716667   0.441447899802099 1
ion Mo   0.666666670266667   0.583333326383333   0.558556097997901 1
ion Mo   0.583333336933333   0.666666659716667   0.441447899802099 1
ion Mo   0.916666670266667   0.583333326383333   0.558556097997901 1
ion Mo   0.833333336933333   0.666666659716667   0.441447899802099 1
ion Mo   0.166666670266667   0.833333326383333   0.558556097997901 1
ion Mo   0.083333336933333   0.916666659716667   0.441447899802099 1
ion Mo   0.416666670266667   0.833333326383333   0.558556097997901 1
ion Mo   0.333333336933333   0.916666659716667   0.441447899802099 1
ion Mo   0.666666670266667   0.833333326383333   0.558556097997901 1
ion Mo   0.583333336933333   0.916666659716667   0.441447899802099 1
ion Mo   0.916666670266667   0.833333326383333   0.558556097997901 1
ion Mo   0.833333336933333   0.916666659716667   0.441447899802099 1
ion C   0.000000003600000  -0.000000006950000   0.500001998900000 1
ion C   0.250000003600000  -0.000000006950000   0.500001998900000 1
ion C   0.500000003600000  -0.000000006950000   0.500001998900000 1
ion C   0.750000003600000  -0.000000006950000   0.500001998900000 1
ion C   0.000000003600000   0.249999993050000   0.500001998900000 1
ion C   0.250000003600000   0.249999993050000   0.500001998900000 1
ion C   0.500000003600000   0.249999993050000   0.500001998900000 1
ion C   0.750000003600000   0.249999993050000   0.500001998900000 1
ion C   0.000000003600000   0.499999993050000   0.500001998900000 1
ion C   0.250000003600000   0.499999993050000   0.500001998900000 1
ion C   0.500000003600000   0.499999993050000   0.500001998900000 1
ion C   0.750000003600000   0.499999993050000   0.500001998900000 1
ion C   0.000000003600000   0.749999993050000   0.500001998900000 1
ion C   0.250000003600000   0.749999993050000   0.500001998900000 1
ion C   0.500000003600000   0.749999993050000   0.500001998900000 1
ion C   0.750000003600000   0.749999993050000   0.500001998900000 1
ion O   0.083333336933333   0.166666659716667   0.616517487420202 1
ion O   0.166666670266667   0.083333326383333   0.383486510379798 1
ion O   0.333333336933333   0.166666659716667   0.616517487420202 1
ion O   0.416666670266667   0.083333326383333   0.383486510379798 1
ion O   0.583333336933333   0.166666659716667   0.616517487420202 1
ion O   0.666666670266667   0.083333326383333   0.383486510379798 1
ion O   0.833333336933333   0.166666659716667   0.616517487420202 1
ion O   0.916666670266667   0.083333326383333   0.383486510379798 1
ion O   0.083333336933333   0.416666659716667   0.616517487420202 1
ion O   0.166666670266667   0.333333326383333   0.383486510379798 1
ion O   0.333333336933333   0.416666659716667   0.616517487420202 1
ion O   0.416666670266667   0.333333326383333   0.383486510379798 1
ion O   0.583333336933333   0.416666659716667   0.616517487420202 1
ion O   0.666666670266667   0.333333326383333   0.383486510379798 1
ion O   0.833333336933333   0.416666659716667   0.616517487420202 1
ion O   0.916666670266667   0.333333326383333   0.383486510379798 1
ion O   0.083333336933333   0.666666659716667   0.616517487420202 1
ion O   0.166666670266667   0.583333326383333   0.383486510379798 1
ion O   0.333333336933333   0.666666659716667   0.616517487420202 1
ion O   0.416666670266667   0.583333326383333   0.383486510379798 1
ion O   0.583333336933333   0.666666659716667   0.616517487420202 1
ion O   0.666666670266667   0.583333326383333   0.383486510379798 1
ion O   0.833333336933333   0.666666659716667   0.616517487420202 1
ion O   0.916666670266667   0.583333326383333   0.383486510379798 1
ion O   0.083333336933333   0.916666659716667   0.616517487420202 1
ion O   0.166666670266667   0.833333326383333   0.383486510379798 1
ion O   0.333333336933333   0.916666659716667   0.616517487420202 1
ion O   0.416666670266667   0.833333326383333   0.383486510379798 1
ion O   0.583333336933333   0.916666659716667   0.616517487420202 1
ion O   0.666666670266667   0.833333326383333   0.383486510379798 1
ion O   0.833333336933333   0.916666659716667   0.616517487420202 1
ion O   0.916666670266667   0.833333326383333   0.383486510379798 1


# Forces in Lattice coordinates:
force Mo  -0.000000000000000  -0.000000000000000  -0.503032002227349 1
force Mo   0.000000000000000  -0.000000000000000   0.503032002225530 1
force Mo  -0.000000000000000   0.000000000000000  -0.503032002227349 1
force Mo   0.000000000000000  -0.000000000000000   0.503032002225531 1
force Mo  -0.000000000000000   0.000000000000000  -0.503032002227349 1
force Mo   0.000000000000000  -0.000000000000000   0.503032002225530 1
force Mo   0.000000000000000   0.000000000000000  -0.503032002227348 1
force Mo   0.000000000000000  -0.000000000000000   0.503032002225530 1
force Mo  -0.000000000000000   0.000000000000000  -0.503032002227349 1
force Mo   0.000000000000000  -0.000000000000000   0.503032002225530 1
force Mo  -0.000000000000000  -0.000000000000000  -0.503032002227349 1
force Mo   0.000000000000000   0.000000000000000   0.503032002225303 1
force Mo  -0.000000000000000  -0.000000000000000  -0.503032002227349 1
force Mo   0.000000000000000  -0.000000000000000   0.503032002225303 1
force Mo  -0.000000000000000   0.000000000000000  -0.503032002227349 1
force Mo   0.000000000000000  -0.000000000000000   0.503032002225303 1
force Mo  -0.000000000000000  -0.000000000000000  -0.503032002227349 1
force Mo   0.000000000000000  -0.000000000000000   0.503032002225530 1
force Mo  -0.000000000000000  -0.000000000000000  -0.503032002227349 1
force Mo   0.000000000000000   0.000000000000000   0.503032002225530 1
force Mo  -0.000000000000000   0.000000000000000  -0.503032002227349 1
force Mo   0.000000000000000   0.000000000000000   0.503032002225530 1
force Mo  -0.000000000000000   0.000000000000000  -0.503032002227348 1
force Mo   0.000000000000000   0.000000000000000   0.503032002225303 1
force Mo  -0.000000000000000   0.000000000000000  -0.503032002227349 1
force Mo   0.000000000000000  -0.000000000000000   0.503032002225530 1
force Mo  -0.000000000000000   0.000000000000000  -0.503032002227349 1
force Mo   0.000000000000000  -0.000000000000000   0.503032002225531 1
force Mo  -0.000000000000000  -0.000000000000000  -0.503032002227349 1
force Mo   0.000000000000000  -0.000000000000000   0.503032002225530 1
force Mo  -0.000000000000000   0.000000000000000  -0.503032002227349 1
force Mo   0.000000000000000   0.000000000000000   0.503032002225530 1
force C  -0.000000000000000  -0.000000000000000  -0.000000000000000 1
force C   0.000000000000000   0.000000000000000  -0.000000000000000 1
force C   0.000000000000000  -0.000000000000000  -0.000000000000000 1
force C   0.000000000000000   0.000000000000000  -0.000000000000000 1
force C   0.000000000000000  -0.000000000000000  -0.000000000000000 1
force C  -0.000000000000000  -0.000000000000000  -0.000000000000000 1
force C  -0.000000000000000   0.000000000000000  -0.000000000000000 1
force C   0.000000000000000  -0.000000000000000  -0.000000000000000 1
force C   0.000000000000000  -0.000000000000000  -0.000000000000000 1
force C   0.000000000000000  -0.000000000000000  -0.000000000000000 1
force C  -0.000000000000000  -0.000000000000000   0.000000000000000 1
force C  -0.000000000000000  -0.000000000000000   0.000000000000000 1
force C   0.000000000000000   0.000000000000000   0.000000000000000 1
force C  -0.000000000000000  -0.000000000000000   0.000000000000000 1
force C   0.000000000000000  -0.000000000000000   0.000000000000000 1
force C  -0.000000000000000  -0.000000000000000   0.000000000000000 1
force O  -0.000000000000000  -0.000000000000000   0.369503152037272 1
force O  -0.000000000000000   0.000000000000000  -0.369503152034085 1
force O   0.000000000000000  -0.000000000000000   0.369503152037268 1
force O   0.000000000000000  -0.000000000000000  -0.369503152034312 1
force O   0.000000000000000  -0.000000000000000   0.369503152037268 1
force O  -0.000000000000000  -0.000000000000000  -0.369503152034085 1
force O   0.000000000000000  -0.000000000000000   0.369503152037268 1
force O  -0.000000000000000  -0.000000000000000  -0.369503152034081 1
force O  -0.000000000000000   0.000000000000000   0.369503152037272 1
force O  -0.000000000000000  -0.000000000000000  -0.369503152034081 1
force O   0.000000000000000  -0.000000000000000   0.369503152037268 1
force O  -0.000000000000000   0.000000000000000  -0.369503152034767 1
force O   0.000000000000000  -0.000000000000000   0.369503152037268 1
force O  -0.000000000000000   0.000000000000000  -0.369503152034536 1
force O   0.000000000000000   0.000000000000000   0.369503152037272 1
force O  -0.000000000000000  -0.000000000000000  -0.369503152034540 1
force O   0.000000000000000  -0.000000000000000   0.369503152037268 1
force O  -0.000000000000000  -0.000000000000000  -0.369503152034532 1
force O  -0.000000000000000  -0.000000000000000   0.369503152037268 1
force O   0.000000000000000   0.000000000000000  -0.369503152034312 1
force O   0.000000000000000  -0.000000000000000   0.369503152037268 1
force O   0.000000000000000   0.000000000000000  -0.369503152034540 1
force O   0.000000000000000  -0.000000000000000   0.369503152037268 1
force O   0.000000000000000   0.000000000000000  -0.369503152034540 1
force O   0.000000000000000  -0.000000000000000   0.369503152037268 1
force O   0.000000000000000   0.000000000000000  -0.369503152034536 1
force O  -0.000000000000000  -0.000000000000000   0.369503152037268 1
force O   0.000000000000000  -0.000000000000000  -0.369503152034540 1
force O   0.000000000000000   0.000000000000000   0.369503152037268 1
force O   0.000000000000000   0.000000000000000  -0.369503152034085 1
force O   0.000000000000000   0.000000000000000   0.369503152037272 1
force O  -0.000000000000000   0.000000000000000  -0.369503152034540 1

# Energy components:
   A_diel =       -0.7884590743865066
   Eewald =    28608.1972240998948109
       EH =    31155.7501516521988378
     Eloc =   -63398.2286662300830358
      Enl =      495.7220618323975145
      Exc =     -456.6332912298114479
 Exc_core =       41.6778461789883465
       KE =      757.0647327049400701
  MuShift =       -0.0644073755804868
-------------------------------------
     Etot =    -2797.3028074414373805
       TS =        0.1267818119322388
-------------------------------------
        F =    -2797.4295892533696133
      muN =     -121.0965340137082933
-------------------------------------
        G =    -2676.3330552396614621

IonicMinimize: Iter:   0  G: -2676.333055239661462  |grad|_K:  6.195e-03  t[s]:   3050.01

#--- Lowdin population analysis ---
# oxidation-state Mo +0.501 +0.501 +0.501 +0.501 +0.501 +0.501 +0.501 +0.501 +0.501 +0.501 +0.501 +0.501 +0.501 +0.501 +0.501 +0.501 +0.501 +0.501 +0.501 +0.501 +0.501 +0.501 +0.501 +0.501 +0.501 +0.501 +0.501 +0.501 +0.501 +0.501 +0.501 +0.501
# oxidation-state C -0.229 -0.229 -0.229 -0.229 -0.229 -0.229 -0.229 -0.229 -0.229 -0.229 -0.229 -0.229 -0.229 -0.229 -0.229 -0.229
# oxidation-state O -0.424 -0.424 -0.424 -0.424 -0.424 -0.424 -0.424 -0.424 -0.424 -0.424 -0.424 -0.424 -0.424 -0.424 -0.424 -0.424 -0.424 -0.424 -0.424 -0.424 -0.424 -0.424 -0.424 -0.424 -0.424 -0.424 -0.424 -0.424 -0.424 -0.424 -0.424 -0.424

Shifting auxilliary hamiltonian by -0.000018 to set nElectrons=707.125613
	Linear fluid (dielectric constant: 78.4, screening length: 5.74355 Bohr) occupying 0.780027 of unit cell:	Completed after 14 iterations at t[s]:   3062.59

-------- Electronic minimization -----------
	Linear fluid (dielectric constant: 78.4, screening length: 5.74355 Bohr) occupying 0.780027 of unit cell:	Completed after 0 iterations at t[s]:   3072.58
	FillingsUpdate:  mu: -0.171251800  nElectrons: 707.125613
ElecMinimize: Iter:   0  G: -2676.330698885453785  |grad|_K:  4.099e-06  alpha:  1.000e+00
	Linear fluid (dielectric constant: 78.4, screening length: 5.74355 Bohr) occupying 0.781445 of unit cell:	Completed after 17 iterations at t[s]:   3098.77
	Linear fluid (dielectric constant: 78.4, screening length: 5.74355 Bohr) occupying 0.780868 of unit cell:	Completed after 15 iterations at t[s]:   3115.45
	FillingsUpdate:  mu: -0.171251800  nElectrons: 707.216931
	SubspaceRotationAdjust: set factor to 0.025
ElecMinimize: Iter:   1  G: -2676.332005297731484  |grad|_K:  1.914e-06  alpha:  5.855e-01  linmin: -2.116e-05  t[s]:   3130.98
	Linear fluid (dielectric constant: 78.4, screening length: 5.74355 Bohr) occupying 0.781055 of unit cell:	Completed after 6 iterations at t[s]:   3140.78
	Linear fluid (dielectric constant: 78.4, screening length: 5.74355 Bohr) occupying 0.781135 of unit cell:	Completed after 4 iterations at t[s]:   3153.59
	FillingsUpdate:  mu: -0.171251800  nElectrons: 707.247613
	SubspaceRotationAdjust: set factor to 0.03
ElecMinimize: Iter:   2  G: -2676.332412478615879  |grad|_K:  1.964e-06  alpha:  8.380e-01  linmin:  2.813e-06  t[s]:   3167.41
	Linear fluid (dielectric constant: 78.4, screening length: 5.74355 Bohr) occupying 0.781382 of unit cell:	Completed after 6 iterations at t[s]:   3177.10
	Linear fluid (dielectric constant: 78.4, screening length: 5.74355 Bohr) occupying 0.781485 of unit cell:	Completed after 5 iterations at t[s]:   3190.00
	FillingsUpdate:  mu: -0.171251800  nElectrons: 707.289633
	SubspaceRotationAdjust: set factor to 0.0353
ElecMinimize: Iter:   3  G: -2676.333020692922219  |grad|_K:  3.033e-06  alpha:  1.189e+00  linmin:  3.251e-06  t[s]:   3204.05
	Linear fluid (dielectric constant: 78.4, screening length: 5.74355 Bohr) occupying 0.782216 of unit cell:	Completed after 12 iterations at t[s]:   3215.17
	Linear fluid (dielectric constant: 78.4, screening length: 5.74355 Bohr) occupying 0.782116 of unit cell:	Completed after 5 iterations at t[s]:   3228.51
	FillingsUpdate:  mu: -0.171251800  nElectrons: 707.368242
	SubspaceRotationAdjust: set factor to 0.0384
ElecMinimize: Iter:   4  G: -2676.334270349019789  |grad|_K:  4.208e-06  alpha:  1.024e+00  linmin:  6.909e-06  t[s]:   3242.45
	Linear fluid (dielectric constant: 78.4, screening length: 5.74355 Bohr) occupying 0.782636 of unit cell:	Completed after 14 iterations at t[s]:   3253.78
	Linear fluid (dielectric constant: 78.4, screening length: 5.74355 Bohr) occupying 0.782570 of unit cell:	Completed after 5 iterations at t[s]:   3267.57
	FillingsUpdate:  mu: -0.171251800  nElectrons: 707.429284
	SubspaceRotationAdjust: set factor to 0.0415
ElecMinimize: Iter:   5  G: -2676.336370575349065  |grad|_K:  5.148e-06  alpha:  8.956e-01  linmin:  8.486e-06  t[s]:   3281.65
	Linear fluid (dielectric constant: 78.4, screening length: 5.74355 Bohr) occupying 0.782150 of unit cell:	Completed after 12 iterations at t[s]:   3292.59
	Linear fluid (dielectric constant: 78.4, screening length: 5.74355 Bohr) occupying 0.782268 of unit cell:	Completed after 11 iterations at t[s]:   3307.39
	FillingsUpdate:  mu: -0.171251800  nElectrons: 707.396177
	SubspaceRotationAdjust: set factor to 0.0447
ElecMinimize: Iter:   6  G: -2676.338559837803587  |grad|_K:  4.475e-06  alpha:  6.252e-01  linmin:  2.914e-06  t[s]:   3322.48
	Linear fluid (dielectric constant: 78.4, screening length: 5.74355 Bohr) occupying 0.781602 of unit cell:	Completed after 14 iterations at t[s]:   3333.46
	Linear fluid (dielectric constant: 78.4, screening length: 5.74355 Bohr) occupying 0.781715 of unit cell:	Completed after 9 iterations at t[s]:   3348.50
	FillingsUpdate:  mu: -0.171251800  nElectrons: 707.328971
	SubspaceRotationAdjust: set factor to 0.0443
ElecMinimize: Iter:   7  G: -2676.339934564372925  |grad|_K:  3.041e-06  alpha:  5.182e-01  linmin: -3.060e-06  t[s]:   3363.24
	Linear fluid (dielectric constant: 78.4, screening length: 5.74355 Bohr) occupying 0.781570 of unit cell:	Completed after 11 iterations at t[s]:   3373.91
	Linear fluid (dielectric constant: 78.4, screening length: 5.74355 Bohr) occupying 0.781591 of unit cell:	Completed after 3 iterations at t[s]:   3387.66
	FillingsUpdate:  mu: -0.171251800  nElectrons: 707.310924
	SubspaceRotationAdjust: set factor to 0.0448
ElecMinimize: Iter:   8  G: -2676.340478085031918  |grad|_K:  1.802e-06  alpha:  4.427e-01  linmin:  2.068e-07  t[s]:   3401.12
	Linear fluid (dielectric constant: 78.4, screening length: 5.74355 Bohr) occupying 0.781530 of unit cell:	Completed after 9 iterations at t[s]:   3411.71
	Linear fluid (dielectric constant: 78.4, screening length: 5.74355 Bohr) occupying 0.781532 of unit cell:	Completed after 0 iterations at t[s]:   3424.26
	FillingsUpdate:  mu: -0.171251800  nElectrons: 707.301396
	SubspaceRotationAdjust: set factor to 0.048
ElecMinimize: Iter:   9  G: -2676.340661841216388  |grad|_K:  1.085e-06  alpha:  4.263e-01  linmin:  1.042e-05  t[s]:   3437.28
	Linear fluid (dielectric constant: 78.4, screening length: 5.74355 Bohr) occupying 0.781414 of unit cell:	Completed after 9 iterations at t[s]:   3447.76
	Linear fluid (dielectric constant: 78.4, screening length: 5.74355 Bohr) occupying 0.781416 of unit cell:	Completed after 0 iterations at t[s]:   3460.06
	FillingsUpdate:  mu: -0.171251800  nElectrons: 707.286407
	SubspaceRotationAdjust: set factor to 0.0566
ElecMinimize: Iter:  10  G: -2676.340727137263457  |grad|_K:  6.853e-07  alpha:  4.189e-01  linmin: -8.155e-07  t[s]:   3473.00
	Linear fluid (dielectric constant: 78.4, screening length: 5.74355 Bohr) occupying 0.781351 of unit cell:	Completed after 8 iterations at t[s]:   3483.02
	Linear fluid (dielectric constant: 78.4, screening length: 5.74355 Bohr) occupying 0.781337 of unit cell:	Completed after 1 iterations at t[s]:   3495.53
	FillingsUpdate:  mu: -0.171251800  nElectrons: 707.276322
	SubspaceRotationAdjust: set factor to 0.0733
ElecMinimize: Iter:  11  G: -2676.340758777263090  |grad|_K:  5.051e-07  alpha:  5.070e-01  linmin: -1.532e-05  t[s]:   3508.64
	Linear fluid (dielectric constant: 78.4, screening length: 5.74355 Bohr) occupying 0.781344 of unit cell:	Completed after 3 iterations at t[s]:   3517.66
	Linear fluid (dielectric constant: 78.4, screening length: 5.74355 Bohr) occupying 0.781345 of unit cell:	Completed after 0 iterations at t[s]:   3529.23
[...]
	FillingsUpdate:  mu: -0.171251800  nElectrons: 707.580250
	SubspaceRotationAdjust: set factor to 0.114
ElecMinimize: Iter:  29  G: -2676.348569395255254  |grad|_K:  1.728e-08  alpha:  1.050e-01  linmin: -4.923e-03  t[s]:  11148.56
	Linear fluid (dielectric constant: 78.4, screening length: 5.74355 Bohr) occupying 0.782862 of unit cell:	Completed after 0 iterations at t[s]:  11157.21
ElecMinimize: 	Predicted alpha/alphaT>3.000000, increasing alphaT to 3.148525e-01.
	Linear fluid (dielectric constant: 78.4, screening length: 5.74355 Bohr) occupying 0.782862 of unit cell:	Completed after 0 iterations at t[s]:  11167.93
	Linear fluid (dielectric constant: 78.4, screening length: 5.74355 Bohr) occupying 0.782862 of unit cell:	Completed after 0 iterations at t[s]:  11178.80
	FillingsUpdate:  mu: -0.171251800  nElectrons: 707.580263
	SubspaceRotationAdjust: set factor to 0.13
ElecMinimize: Iter:  30  G: -2676.348569430905627  |grad|_K:  1.719e-08  alpha:  4.829e-01  linmin: -1.235e-06  t[s]:  11191.81
	Linear fluid (dielectric constant: 78.4, screening length: 5.74355 Bohr) occupying 0.782862 of unit cell:	Completed after 1 iterations at t[s]:  11200.69
	Linear fluid (dielectric constant: 78.4, screening length: 5.74355 Bohr) occupying 0.782862 of unit cell:	Completed after 0 iterations at t[s]:  11211.64
ElecMinimize: 	Step increased G by 1.713352e-08, reducing alpha to 7.139327e-03.
	Linear fluid (dielectric constant: 78.4, screening length: 5.74355 Bohr) occupying 0.782862 of unit cell:	Completed after 0 iterations at t[s]:  11231.49
ElecMinimize: 	Step increased G by 9.512860e-09, reducing alpha to 7.139327e-04.
	Linear fluid (dielectric constant: 78.4, screening length: 5.74355 Bohr) occupying 0.782862 of unit cell:	Completed after 0 iterations at t[s]:  11251.63
ElecMinimize: 	Step increased G by 8.837105e-09, reducing alpha to 7.139327e-05.
ElecMinimize: 	Step failed to reduce G after 3 attempts. Quitting step.
ElecMinimize: 	Undoing step.
	Linear fluid (dielectric constant: 78.4, screening length: 5.74355 Bohr) occupying 0.782862 of unit cell:	Completed after 0 iterations at t[s]:  11271.68
ElecMinimize: 	Step failed: resetting search direction.
	FillingsUpdate:  mu: -0.171251800  nElectrons: 707.580263
	SubspaceRotationAdjust: set factor to 0.127
ElecMinimize: Iter:  31  G: -2676.348569422093078  |grad|_K:  3.224e-08  alpha:  7.139e-05
	Linear fluid (dielectric constant: 78.4, screening length: 5.74355 Bohr) occupying 0.782860 of unit cell:	Completed after 2 iterations at t[s]:  11294.01
	Linear fluid (dielectric constant: 78.4, screening length: 5.74355 Bohr) occupying 0.782861 of unit cell:	Completed after 0 iterations at t[s]:  11305.30
	FillingsUpdate:  mu: -0.171251800  nElectrons: 707.580118
	SubspaceRotationAdjust: set factor to 0.101
ElecMinimize: Iter:  32  G: -2676.348569432013846  |grad|_K:  1.705e-08  alpha:  2.014e-01  linmin:  2.500e-03  t[s]:  11318.57
	Linear fluid (dielectric constant: 78.4, screening length: 5.74355 Bohr) occupying 0.782863 of unit cell:	Completed after 0 iterations at t[s]:  11327.46
ElecMinimize: 	Predicted alpha/alphaT>3.000000, increasing alphaT to 6.042940e-01.
	Linear fluid (dielectric constant: 78.4, screening length: 5.74355 Bohr) occupying 0.782868 of unit cell:	Completed after 0 iterations at t[s]:  11338.26
	Linear fluid (dielectric constant: 78.4, screening length: 5.74355 Bohr) occupying 0.782870 of unit cell:	Completed after 2 iterations at t[s]:  11349.11
ElecMinimize: 	Step increased G by 3.807872e-08, reducing alpha to 8.476126e-02.
	Linear fluid (dielectric constant: 78.4, screening length: 5.74355 Bohr) occupying 0.782862 of unit cell:	Completed after 0 iterations at t[s]:  11369.82
	FillingsUpdate:  mu: -0.171251800  nElectrons: 707.580237
	SubspaceRotationAdjust: set factor to 0.0581
ElecMinimize: Iter:  33  G: -2676.348569445590329  |grad|_K:  2.628e-08  alpha:  8.476e-02  linmin:  2.213e-03  t[s]:  11382.73
	Linear fluid (dielectric constant: 78.4, screening length: 5.74355 Bohr) occupying 0.782862 of unit cell:	Completed after 0 iterations at t[s]:  11391.15
	Linear fluid (dielectric constant: 78.4, screening length: 5.74355 Bohr) occupying 0.782861 of unit cell:	Completed after 0 iterations at t[s]:  11402.13
	FillingsUpdate:  mu: -0.171251800  nElectrons: 707.580129
	SubspaceRotationAdjust: set factor to 0.0437
ElecMinimize: Iter:  34  G: -2676.348569453264645  |grad|_K:  2.279e-08  alpha:  1.788e-01  linmin: -9.262e-06  t[s]:  11414.78
	Linear fluid (dielectric constant: 78.4, screening length: 5.74355 Bohr) occupying 0.782857 of unit cell:	Completed after 1 iterations at t[s]:  11423.56
	Linear fluid (dielectric constant: 78.4, screening length: 5.74355 Bohr) occupying 0.782860 of unit cell:	Completed after 0 iterations at t[s]:  11434.74
ElecMinimize: 	Step increased G by 2.053821e-08, reducing alpha to 5.077378e-03.
	Linear fluid (dielectric constant: 78.4, screening length: 5.74355 Bohr) occupying 0.782861 of unit cell:	Completed after 0 iterations at t[s]:  11454.70
ElecMinimize: 	Step increased G by 2.165507e-08, reducing alpha to 5.077378e-04.
	Linear fluid (dielectric constant: 78.4, screening length: 5.74355 Bohr) occupying 0.782861 of unit cell:	Completed after 0 iterations at t[s]:  11474.44
ElecMinimize: 	Step increased G by 2.173738e-08, reducing alpha to 5.077378e-05.
ElecMinimize: 	Step failed to reduce G after 3 attempts. Quitting step.
ElecMinimize: 	Undoing step.
	Linear fluid (dielectric constant: 78.4, screening length: 5.74355 Bohr) occupying 0.782861 of unit cell:	Completed after 0 iterations at t[s]:  11494.14
ElecMinimize: 	Step failed: resetting search direction.
	FillingsUpdate:  mu: -0.171251800  nElectrons: 707.580128
	SubspaceRotationAdjust: set factor to 0.063
ElecMinimize: Iter:  35  G: -2676.348569431526812  |grad|_K:  1.178e-08  alpha:  5.077e-05
	Linear fluid (dielectric constant: 78.4, screening length: 5.74355 Bohr) occupying 0.782861 of unit cell:	Completed after 0 iterations at t[s]:  11515.87
	Linear fluid (dielectric constant: 78.4, screening length: 5.74355 Bohr) occupying 0.782861 of unit cell:	Completed after 0 iterations at t[s]:  11526.35
	FillingsUpdate:  mu: -0.171251800  nElectrons: 707.580057
	SubspaceRotationAdjust: set factor to 0.0807
ElecMinimize: Iter:  36  G: -2676.348569437551305  |grad|_K:  6.398e-09  alpha:  3.227e-01  linmin: -1.491e-04  t[s]:  11539.81
	Linear fluid (dielectric constant: 78.4, screening length: 5.74355 Bohr) occupying 0.782860 of unit cell:	Completed after 0 iterations at t[s]:  11549.24
	Linear fluid (dielectric constant: 78.4, screening length: 5.74355 Bohr) occupying 0.782858 of unit cell:	Completed after 0 iterations at t[s]:  11559.86
	FillingsUpdate:  mu: -0.171251800  nElectrons: 707.579770
	SubspaceRotationAdjust: set factor to 0.101
ElecMinimize: Iter:  37  G: -2676.348569441914606  |grad|_K:  7.144e-09  alpha:  7.418e-01  linmin: -7.664e-05  t[s]:  11572.88
ElecMinimize: Converged (|Delta G|<1.000000e-08 for 2 iters).
Setting wave functions to eigenvectors of Hamiltonian

# Ionic positions in lattice coordinates:
ion Mo   0.166666670266667   0.083333326383333   0.557542112654441 1
ion Mo   0.083333336933333   0.166666659716667   0.442461885145559 1
ion Mo   0.416666670266667   0.083333326383333   0.557542112654441 1
ion Mo   0.333333336933333   0.166666659716667   0.442461885145559 1
ion Mo   0.666666670266667   0.083333326383333   0.557542112654441 1
ion Mo   0.583333336933333   0.166666659716667   0.442461885145559 1
ion Mo   0.916666670266667   0.083333326383333   0.557542112654441 1
ion Mo   0.833333336933333   0.166666659716667   0.442461885145559 1
ion Mo   0.166666670266667   0.333333326383333   0.557542112654441 1
ion Mo   0.083333336933333   0.416666659716667   0.442461885145559 1
ion Mo   0.416666670266667   0.333333326383333   0.557542112654441 1
ion Mo   0.333333336933333   0.416666659716667   0.442461885145559 1
ion Mo   0.666666670266667   0.333333326383333   0.557542112654441 1
ion Mo   0.583333336933333   0.416666659716667   0.442461885145559 1
ion Mo   0.916666670266667   0.333333326383333   0.557542112654441 1
ion Mo   0.833333336933333   0.416666659716667   0.442461885145559 1
ion Mo   0.166666670266667   0.583333326383333   0.557542112654441 1
ion Mo   0.083333336933333   0.666666659716667   0.442461885145559 1
ion Mo   0.416666670266667   0.583333326383333   0.557542112654441 1
ion Mo   0.333333336933333   0.666666659716667   0.442461885145559 1
ion Mo   0.666666670266667   0.583333326383333   0.557542112654441 1
ion Mo   0.583333336933333   0.666666659716667   0.442461885145559 1
ion Mo   0.916666670266667   0.583333326383333   0.557542112654441 1
ion Mo   0.833333336933333   0.666666659716667   0.442461885145559 1
ion Mo   0.166666670266667   0.833333326383333   0.557542112654441 1
ion Mo   0.083333336933333   0.916666659716667   0.442461885145559 1
ion Mo   0.416666670266667   0.833333326383333   0.557542112654441 1
ion Mo   0.333333336933333   0.916666659716667   0.442461885145559 1
ion Mo   0.666666670266667   0.833333326383333   0.557542112654441 1
ion Mo   0.583333336933333   0.916666659716667   0.442461885145559 1
ion Mo   0.916666670266667   0.833333326383333   0.557542112654441 1
ion Mo   0.833333336933333   0.916666659716667   0.442461885145559 1
ion C   0.000000003600000  -0.000000006950000   0.500001998900000 1
ion C   0.250000003600000  -0.000000006950000   0.500001998900000 1
ion C   0.500000003600000  -0.000000006950000   0.500001998900000 1
ion C   0.750000003600000  -0.000000006950000   0.500001998900000 1
ion C   0.000000003600000   0.249999993050000   0.500001998900000 1
ion C   0.250000003600000   0.249999993050000   0.500001998900000 1
ion C   0.500000003600000   0.249999993050000   0.500001998900000 1
ion C   0.750000003600000   0.249999993050000   0.500001998900000 1
ion C   0.000000003600000   0.499999993050000   0.500001998900000 1
ion C   0.250000003600000   0.499999993050000   0.500001998900000 1
ion C   0.500000003600000   0.499999993050000   0.500001998900000 1
ion C   0.750000003600000   0.499999993050000   0.500001998900000 1
ion C   0.000000003600000   0.749999993050000   0.500001998900000 1
ion C   0.250000003600000   0.749999993050000   0.500001998900000 1
ion C   0.500000003600000   0.749999993050000   0.500001998900000 1
ion C   0.750000003600000   0.749999993050000   0.500001998900000 1
ion O   0.083333336933333   0.166666659716667   0.617728473065345 1
ion O   0.166666670266667   0.083333326383333   0.382275524734655 1
ion O   0.333333336933333   0.166666659716667   0.617728473065345 1
ion O   0.416666670266667   0.083333326383333   0.382275524734655 1
ion O   0.583333336933333   0.166666659716667   0.617728473065345 1
ion O   0.666666670266667   0.083333326383333   0.382275524734655 1
ion O   0.833333336933333   0.166666659716667   0.617728473065345 1
ion O   0.916666670266667   0.083333326383333   0.382275524734655 1
ion O   0.083333336933333   0.416666659716667   0.617728473065345 1
ion O   0.166666670266667   0.333333326383333   0.382275524734655 1
ion O   0.333333336933333   0.416666659716667   0.617728473065345 1
ion O   0.416666670266667   0.333333326383333   0.382275524734655 1
ion O   0.583333336933333   0.416666659716667   0.617728473065345 1
ion O   0.666666670266667   0.333333326383333   0.382275524734655 1
ion O   0.833333336933333   0.416666659716667   0.617728473065345 1
ion O   0.916666670266667   0.333333326383333   0.382275524734655 1
ion O   0.083333336933333   0.666666659716667   0.617728473065345 1
ion O   0.166666670266667   0.583333326383333   0.382275524734655 1
ion O   0.333333336933333   0.666666659716667   0.617728473065345 1
ion O   0.416666670266667   0.583333326383333   0.382275524734655 1
ion O   0.583333336933333   0.666666659716667   0.617728473065345 1
ion O   0.666666670266667   0.583333326383333   0.382275524734655 1
ion O   0.833333336933333   0.666666659716667   0.617728473065345 1
ion O   0.916666670266667   0.583333326383333   0.382275524734655 1
ion O   0.083333336933333   0.916666659716667   0.617728473065345 1
ion O   0.166666670266667   0.833333326383333   0.382275524734655 1
ion O   0.333333336933333   0.916666659716667   0.617728473065345 1
ion O   0.416666670266667   0.833333326383333   0.382275524734655 1
ion O   0.583333336933333   0.916666659716667   0.617728473065345 1
ion O   0.666666670266667   0.833333326383333   0.382275524734655 1
ion O   0.833333336933333   0.916666659716667   0.617728473065345 1
ion O   0.916666670266667   0.833333326383333   0.382275524734655 1


# Forces in Lattice coordinates:
force Mo  -0.000000000000000   0.000000000000000  -0.004136698769460 1
force Mo   0.000000000000000  -0.000000000000000   0.004136698768094 1
force Mo  -0.000000000000000   0.000000000000000  -0.004136698768777 1
force Mo   0.000000000000000  -0.000000000000000   0.004136698768094 1
force Mo   0.000000000000000  -0.000000000000000  -0.004136698769233 1
force Mo   0.000000000000000  -0.000000000000000   0.004136698768549 1
force Mo  -0.000000000000000   0.000000000000000  -0.004136698769460 1
force Mo   0.000000000000000  -0.000000000000000   0.004136698768094 1
force Mo  -0.000000000000000   0.000000000000000  -0.004136698769232 1
force Mo   0.000000000000000  -0.000000000000000   0.004136698768549 1
force Mo  -0.000000000000000   0.000000000000000  -0.004136698769232 1
force Mo   0.000000000000000  -0.000000000000000   0.004136698768094 1
force Mo  -0.000000000000000   0.000000000000000  -0.004136698769232 1
force Mo   0.000000000000000  -0.000000000000000   0.004136698768094 1
force Mo  -0.000000000000000   0.000000000000000  -0.004136698769460 1
force Mo   0.000000000000000  -0.000000000000000   0.004136698768094 1
force Mo  -0.000000000000000  -0.000000000000000  -0.004136698769232 1
force Mo   0.000000000000000  -0.000000000000000   0.004136698768549 1
force Mo  -0.000000000000000   0.000000000000000  -0.004136698769460 1
force Mo   0.000000000000000  -0.000000000000000   0.004136698768094 1
force Mo  -0.000000000000000  -0.000000000000000  -0.004136698769232 1
force Mo   0.000000000000000  -0.000000000000000   0.004136698768094 1
force Mo  -0.000000000000000   0.000000000000000  -0.004136698769460 1
force Mo   0.000000000000000  -0.000000000000000   0.004136698768094 1
force Mo  -0.000000000000000   0.000000000000000  -0.004136698769232 1
force Mo  -0.000000000000000  -0.000000000000000   0.004136698767867 1
force Mo   0.000000000000000   0.000000000000000  -0.004136698769233 1
force Mo   0.000000000000000  -0.000000000000000   0.004136698768094 1
force Mo  -0.000000000000000   0.000000000000000  -0.004136698768778 1
force Mo   0.000000000000000  -0.000000000000000   0.004136698767867 1
force Mo  -0.000000000000000   0.000000000000000  -0.004136698769460 1
force Mo   0.000000000000000  -0.000000000000000   0.004136698768549 1
force C   0.000000000000000   0.000000000000000  -0.000000000000000 1
force C  -0.000000000000000  -0.000000000000000  -0.000000000000000 1
force C  -0.000000000000000   0.000000000000000   0.000000000000000 1
force C   0.000000000000000   0.000000000000000   0.000000000000000 1
force C   0.000000000000000  -0.000000000000000   0.000000000000000 1
force C   0.000000000000000   0.000000000000000   0.000000000000000 1
force C  -0.000000000000000  -0.000000000000000   0.000000000000000 1
force C  -0.000000000000000  -0.000000000000000   0.000000000000000 1
force C  -0.000000000000000   0.000000000000000   0.000000000000000 1
force C   0.000000000000000  -0.000000000000000  -0.000000000000000 1
force C  -0.000000000000000   0.000000000000000  -0.000000000000000 1
force C   0.000000000000000   0.000000000000000  -0.000000000000000 1
force C  -0.000000000000000   0.000000000000000  -0.000000000000000 1
force C   0.000000000000000   0.000000000000000   0.000000000000000 1
force C  -0.000000000000000   0.000000000000000  -0.000000000000000 1
force C  -0.000000000000000   0.000000000000000  -0.000000000000000 1
force O  -0.000000000000000   0.000000000000000  -0.002496027138172 1
force O   0.000000000000000  -0.000000000000000   0.002496027138175 1
force O  -0.000000000000000   0.000000000000000  -0.002496027138179 1
force O   0.000000000000000  -0.000000000000000   0.002496027138172 1
force O  -0.000000000000000   0.000000000000000  -0.002496027138175 1
force O  -0.000000000000000  -0.000000000000000   0.002496027138402 1
force O  -0.000000000000000   0.000000000000000  -0.002496027138179 1
force O  -0.000000000000000  -0.000000000000000   0.002496027138406 1
force O  -0.000000000000000   0.000000000000000  -0.002496027137717 1
force O   0.000000000000000  -0.000000000000000   0.002496027138179 1
force O  -0.000000000000000   0.000000000000000  -0.002496027138172 1
force O   0.000000000000000  -0.000000000000000   0.002496027138402 1
force O  -0.000000000000000   0.000000000000000  -0.002496027137720 1
force O   0.000000000000000  -0.000000000000000   0.002496027138175 1
force O  -0.000000000000000   0.000000000000000  -0.002496027138179 1
force O   0.000000000000000  -0.000000000000000   0.002496027137720 1
force O  -0.000000000000000   0.000000000000000  -0.002496027138179 1
force O   0.000000000000000  -0.000000000000000   0.002496027138179 1
force O  -0.000000000000000  -0.000000000000000  -0.002496027138179 1
force O   0.000000000000000  -0.000000000000000   0.002496027138399 1
force O  -0.000000000000000  -0.000000000000000  -0.002496027137720 1
force O   0.000000000000000   0.000000000000000   0.002496027138172 1
force O  -0.000000000000000   0.000000000000000  -0.002496027137724 1
force O   0.000000000000000  -0.000000000000000   0.002496027138179 1
force O  -0.000000000000000  -0.000000000000000  -0.002496027138182 1
force O   0.000000000000000  -0.000000000000000   0.002496027138172 1
force O  -0.000000000000000   0.000000000000000  -0.002496027138179 1
force O   0.000000000000000  -0.000000000000000   0.002496027138172 1
force O  -0.000000000000000   0.000000000000000  -0.002496027138175 1
force O   0.000000000000000  -0.000000000000000   0.002496027138168 1
force O   0.000000000000000  -0.000000000000000  -0.002496027138179 1
force O   0.000000000000000  -0.000000000000000   0.002496027138175 1

# Energy components:
   A_diel =       -0.9755772498096247
   Eewald =    28607.7854010799601383
       EH =    31182.9531342645132099
     Eloc =   -63424.4535077844411717
      Enl =      495.5218964311064838
      Exc =     -456.6154497912954184
 Exc_core =       41.6776730783839398
       KE =      756.7697423064656732
  MuShift =       -0.0737658840020427
-------------------------------------
     Etot =    -2797.4104535491155730
       TS =        0.1124251448043705
-------------------------------------
        F =    -2797.5228786939201200
      muN =     -121.1743092520054716
-------------------------------------
        G =    -2676.3485694419146057

IonicMinimize: Iter:   5  G: -2676.348569441914606  |grad|_K:  4.795e-05  alpha:  1.000e+00  linmin:  8.379e-01  t[s]:  11585.20
IonicMinimize: Converged (|grad|_K<1.000000e-04).

#--- Lowdin population analysis ---
# oxidation-state Mo +0.493 +0.493 +0.493 +0.493 +0.493 +0.493 +0.493 +0.493 +0.493 +0.493 +0.493 +0.493 +0.493 +0.493 +0.493 +0.493 +0.493 +0.493 +0.493 +0.493 +0.493 +0.493 +0.493 +0.493 +0.493 +0.493 +0.493 +0.493 +0.493 +0.493 +0.493 +0.493
# oxidation-state C -0.221 -0.221 -0.221 -0.221 -0.221 -0.221 -0.221 -0.221 -0.221 -0.221 -0.221 -0.221 -0.221 -0.221 -0.221 -0.221
# oxidation-state O -0.435 -0.435 -0.435 -0.435 -0.435 -0.435 -0.435 -0.435 -0.435 -0.435 -0.435 -0.435 -0.435 -0.435 -0.435 -0.435 -0.435 -0.435 -0.435 -0.435 -0.435 -0.435 -0.435 -0.435 -0.435 -0.435 -0.435 -0.435 -0.435 -0.435 -0.435 -0.435


Dumping 'NbTe2.fillings' ... done
Dumping 'NbTe2.wfns' ... done
Dumping 'NbTe2.fluidState' ... done
Dumping 'NbTe2.ionpos' ... done
Dumping 'NbTe2.eigenvals' ... done
End date and time: Thu Apr 15 17:15:23 2021  (Duration: 0-3:13:09.95)
Done!
