
*************** JDFTx 1.5.0  ***************

Start date and time: Wed Apr 14 14:11:42 2021
Executable jdftx_gpu with command-line: -i Charged.in -o Charged.out
Running on hosts (process indices):  amax (0-6)
Divided in process groups (process indices):  0 (0)  1 (1)  2 (2)  3 (3)  4 (4)  5 (5)  6 (6)
gpuInit: Found compatible cuda device 0 'Tesla K80'
gpuInit: Found compatible cuda device 1 'Tesla K80'
gpuInit: Found compatible cuda device 2 'Tesla K80'
gpuInit: Found compatible cuda device 3 'Tesla K80'
gpuInit: Found compatible cuda device 4 'Tesla K80'
gpuInit: Found compatible cuda device 5 'Tesla K80'
gpuInit: Found compatible cuda device 6 'Tesla K80'
gpuInit: Selected device 0
Resource initialization completed at t[s]:      3.91
Run totals: 7 processes, 24 threads, 7 GPUs


Input parsed successfully to the following command list (including defaults):

basis kpoint-dependent
cache-projectors no
coords-type Lattice
core-overlap-check none
coulomb-interaction Slab 001
coulomb-truncation-embed 0.5 0.5 0.5
davidson-band-ratio 1.1
dump End State
dump-name NbTe2.$VAR
elec-cutoff 20
elec-eigen-algo Davidson
elec-ex-corr gga-PBE
elec-smearing Gauss 0.0073499
electronic-minimize  \
	dirUpdateScheme      FletcherReeves \
	linminMethod         DirUpdateRecommended \
	nIterations          200 \
	history              15 \
	knormThreshold       0 \
	energyDiffThreshold  1e-08 \
	nEnergyDiff          2 \
	alphaTstart          1 \
	alphaTmin            1e-10 \
	updateTestStepSize   yes \
	alphaTreduceFactor   0.1 \
	alphaTincreaseFactor 3 \
	nAlphaAdjustMax      3 \
	wolfeEnergy          0.0001 \
	wolfeGradient        0.9 \
	fdTest               no
exchange-regularization WignerSeitzTruncated
fluid LinearPCM 298.000000 1.013250
fluid-anion F- 1 MeanFieldLJ \
	epsBulk 1 \
	pMol 0 \
	epsInf 1 \
	Pvap 0 \
	sigmaBulk 0 \
	Rvdw 2.24877 \
	Res 0 \
	tauNuc 343133
fluid-cation Na+ 1 MeanFieldLJ \
	epsBulk 1 \
	pMol 0 \
	epsInf 1 \
	Pvap 0 \
	sigmaBulk 0 \
	Rvdw 2.19208 \
	Res 0 \
	tauNuc 343133
fluid-ex-corr lda-TF lda-PZ
fluid-gummel-loop 10 1.000000e-05
fluid-minimize  \
	dirUpdateScheme      PolakRibiere \
	linminMethod         DirUpdateRecommended \
	nIterations          400 \
	history              15 \
	knormThreshold       1e-11 \
	energyDiffThreshold  0 \
	nEnergyDiff          2 \
	alphaTstart          1 \
	alphaTmin            1e-10 \
	updateTestStepSize   yes \
	alphaTreduceFactor   0.1 \
	alphaTincreaseFactor 3 \
	nAlphaAdjustMax      6 \
	wolfeEnergy          0.0001 \
	wolfeGradient        0.9 \
	fdTest               no
fluid-solvent H2O 55.338 ScalarEOS \
	epsBulk 78.4 \
	pMol 0.92466 \
	epsInf 1.77 \
	Pvap 1.06736e-10 \
	sigmaBulk 4.62e-05 \
	Rvdw 2.61727 \
	Res 1.42 \
	tauNuc 343133 \
	poleEl 15 7 1
forces-output-coords Positions
initial-state NbTe2.$VAR
ion Mo   0.000005518049096   0.125028514157608   0.570650132772739 1
ion Mo   0.125367322139596   0.124659690926260   0.430578266413131 1
ion Mo   0.249997883852966   0.124973150884568   0.571097644826522 1
ion Mo   0.375188777870972   0.124764614213788   0.430993528476754 1
ion Mo   0.500373388741140   0.124978077599496   0.571097633526215 1
ion Mo   0.624994975831628   0.124661894556033   0.430585498221199 1
ion Mo   0.750362718443067   0.125032203675158   0.570651820402753 1
ion Mo   0.875173973776628   0.124749602023477   0.430314052754677 1
ion Mo   0.000826542823457   0.375327401852468   0.570823883415533 1
ion Mo   0.124901597975169   0.374539813138829   0.430120848326361 1
ion Mo   0.250860485828885   0.376445353287986   0.569825405252485 1
ion Mo   0.375184958642515   0.374367965001356   0.429523681664033 1
ion Mo   0.499534464210391   0.376449990010045   0.569816071458199 1
ion Mo   0.625482712289612   0.374547724540153   0.430103393036911 1
ion Mo   0.749568550380144   0.375330546400287   0.570812994552343 1
ion Mo   0.875199592829674   0.374547479001484   0.430407146977136 1
ion Mo   0.000098256222809   0.624277922903386   0.570047182403496 1
ion Mo   0.125825891000956   0.625063339201957   0.429019603754593 1
ion Mo   0.246202749341891   0.623490000792226   0.568957011652894 1
ion Mo   0.375184046826910   0.625079597727927   0.429347763522801 1
ion Mo   0.504159347973331   0.623491332672173   0.568956815427064 1
ion Mo   0.624541852750397   0.625076652907000   0.429024184268194 1
ion Mo   0.750288334991170   0.624281125230048   0.570045300326220 1
ion Mo   0.875186791896618   0.624893558314069   0.429185543958377 1
ion Mo   0.000211051916793   0.874100853895017   0.570946604262458 1
ion Mo   0.124495107822750   0.874775453925993   0.430741791772839 1
ion Mo   0.250267331797099   0.874177021240726   0.570717437841086 1
ion Mo   0.375171597436795   0.874755496016727   0.430551846218386 1
ion Mo   0.500087160176313   0.874186741121177   0.570721561413040 1
ion Mo   0.625850432894446   0.874780831073757   0.430745123543007 1
ion Mo   0.750154333226274   0.874108944065852   0.570952243326953 1
ion Mo   0.875176958647169   0.875067689904185   0.430980439383939 1
ion B   0.000158947488547  -0.000231143137683   0.479246765274514 1
ion B   0.125153950478190  -0.000285967335085   0.522553969255778 1
ion B   0.250147773310575  -0.000243138494003   0.479320642969955 1
ion B   0.375167172594239  -0.000245526904115   0.522650428893374 1
ion B   0.500181004253589  -0.000224309926259   0.479326458199127 1
ion B   0.625180309024932  -0.000288264093529   0.522559035862646 1
ion B   0.750166329894213  -0.000225496147774   0.479256581208024 1
ion B   0.875166551482135  -0.000367310958551   0.522614777419878 1
ion B   0.000298474283038   0.249877297047444   0.479032514458649 1
ion B   0.125288737944500   0.249983379757820   0.522283126332407 1
ion B   0.250302363393321   0.249993138146729   0.479135989475837 1
ion B   0.375191803967113   0.250378294817653   0.522633803723284 1
ion B   0.500074437817349   0.249998535098632   0.479127602539012 1
ion B   0.625107102554568   0.249981091653097   0.522275115572332 1
ion B   0.750082827714745   0.249872267351384   0.479019233394936 1
ion B   0.875195122894166   0.249928066560359   0.522196285641637 1
ion B   0.000261345558710   0.500253442058780   0.478156573361782 1
ion B   0.125450615409737   0.499983095713088   0.520949265915646 1
ion B   0.250706219835843   0.500182060805911   0.477611883818443 1
ion B   0.375185257205554   0.501110895742578   0.521603341788128 1
ion B   0.499662706248606   0.500199591372533   0.477600937620726 1
ion B   0.624928744557601   0.499977959470771   0.520958319771767 1
ion B   0.750117006095764   0.500257348542073   0.478145663046082 1
ion B   0.875179264476978   0.499970622903507   0.521386566039496 1
ion B   0.000155012468691   0.749255006675634   0.478596407169278 1
ion B   0.125012839255081   0.749209921415731   0.521811430396903 1
ion B   0.250837144801846   0.748705705753058   0.479055465036298 1
ion B   0.375183682434467   0.747831759420028   0.523404037361214 1
ion B   0.499536220438790   0.748713559202395   0.479051295790529 1
ion B   0.625354114572635   0.749246343354171   0.521809421628272 1
ion B   0.750222776253974   0.749254197131523   0.478595204485782 1
ion B   0.875192038965055   0.749377443053537   0.521840960352398 1
ion O   0.125089134181678   0.125025547709780   0.636483977017669 1
ion O   0.000126995951342   0.124465782591316   0.364897306431683 1
ion O   0.375176204817010   0.125273450360633   0.636627406297209 1
ion O   0.250233926656565   0.124763779391764   0.365100221444665 1
ion O   0.625264054772616   0.125045256746383   0.636486445763451 1
ion O   0.500122430948503   0.124773145851468   0.365099859801235 1
ion O   0.875176638343032   0.125102151932073   0.636427996298506 1
ion O   0.750252326836641   0.124467686777303   0.364896309832421 1
ion O   0.125093200423956   0.376141026261507   0.636140159305480 1
ion O   0.000237352008543   0.373847183497271   0.364440385428308 1
ion O   0.375206878531235   0.381237046358599   0.636858308488046 1
ion O   0.250345314841524   0.374420766943822   0.364244887080396 1
ion O   0.625299470747910   0.376150502983988   0.636129329498692 1
ion O   0.500012336334083   0.374432175938552   0.364239651762778 1
ion O   0.875180361401064   0.375269790504999   0.635988048047026 1
ion O   0.750127298143030   0.373850244714335   0.364437578736525 1
ion O   0.126233202401160   0.622219214650024   0.636411143836185 1
ion O   0.000183423634492   0.625358981648291   0.363544408266450 1
ion O   0.375187921382715   0.623930662005835   0.642573189231029 1
ion O   0.250091181033330   0.625511611332606   0.363222887224563 1
ion O   0.624132991714506   0.622214744793107   0.636404090501688 1
ion O   0.500281091441770   0.625526395316583   0.363223076545285 1
ion O   0.875177809237323   0.624391188167717   0.635870082642285 1
ion O   0.750183021017150   0.625380281231976   0.363547109477312 1
ion O   0.125050924538610   0.874264181772533   0.636436409623978 1
ion O   0.000649813844358   0.875773903216917   0.364927450354400 1
ion O   0.375176198179565   0.874116722387861   0.636415685619529 1
ion O   0.250609076491715   0.874307275898126   0.365295689545102 1
ion O   0.625307847856974   0.874276396979455   0.636441485801068 1
ion O   0.499730969039967   0.874308986645808   0.365300536865397 1
ion O   0.875190313449988   0.873929376153308   0.636482896155517 1
ion O   0.749685281396658   0.875812775675963   0.364934460145926 1
ion H   0.375192467119838   0.569581109247465   0.678500308973645 1
ion-species GBRV/$ID_pbe.uspp
ion-width Ecut
ionic-minimize  \
	dirUpdateScheme      L-BFGS \
	linminMethod         DirUpdateRecommended \
	nIterations          500 \
	history              15 \
	knormThreshold       0.0001 \
	energyDiffThreshold  1e-06 \
	nEnergyDiff          2 \
	alphaTstart          1 \
	alphaTmin            1e-10 \
	updateTestStepSize   yes \
	alphaTreduceFactor   0.1 \
	alphaTincreaseFactor 3 \
	nAlphaAdjustMax      3 \
	wolfeEnergy          0.0001 \
	wolfeGradient        0.9 \
	fdTest               no
kpoint   0.000000000000   0.000000000000   0.000000000000  1.00000000000000
kpoint-folding 3 3 1 
latt-move-scale 1 1 1
latt-scale 1.88973 1.88973 1.88973 
lattice Triclinic 11.4386 12.0462 20.3069 90 90 90
lattice-minimize  \
	dirUpdateScheme      L-BFGS \
	linminMethod         DirUpdateRecommended \
	nIterations          0 \
	history              15 \
	knormThreshold       0 \
	energyDiffThreshold  1e-06 \
	nEnergyDiff          2 \
	alphaTstart          1 \
	alphaTmin            1e-10 \
	updateTestStepSize   yes \
	alphaTreduceFactor   0.1 \
	alphaTincreaseFactor 3 \
	nAlphaAdjustMax      3 \
	wolfeEnergy          0.0001 \
	wolfeGradient        0.9 \
	fdTest               no
lcao-params -1 1e-06 0.0073499
pcm-variant CANDLE
spintype no-spin
subspace-rotation-factor 1 yes
symmetries automatic
symmetry-threshold 0.0001
target-mu -0.171252 no




---------- Setting up symmetries ----------

Found 8 point-group symmetries of the bravais lattice
Found 1 space-group symmetries with basis
Applied RMS atom displacement 0 bohrs to make symmetries exact.

---------- Initializing the Grid ----------
R = 
[    21.6158          0          0  ]
[          0     22.764          0  ]
[          0          0    38.3745  ]
unit cell volume = 18882.7
G =
[   0.290675          0          0  ]
[          0   0.276014          0  ]
[          0          0   0.163733  ]
Minimum fftbox size, Smin = [  88  92  156  ]
Chosen fftbox size, S = [  90  96  160  ]

---------- Exchange Correlation functional ----------
Initalized PBE GGA exchange.
Initalized PBE GGA correlation.

---------- Setting up pseudopotentials ----------
Width of ionic core gaussian charges (only for fluid interactions / plotting) set to 0.397384

Reading pseudopotential file '/home/guoxy/vasp/jdftx-1.5.0/build/pseudopotentials/GBRV/mo_pbe.uspp':
  Title: Mo.  Created by USPP 7.3.6 on 14-9-2013
  Reference state energy: -69.261020.  14 valence electrons in orbitals:
    |400>  occupation: 2  eigenvalue: -2.465796
    |410>  occupation: 6  eigenvalue: -1.510132
    |420>  occupation: 4  eigenvalue: -0.207728
    |500>  occupation: 2  eigenvalue: -0.179278
    |510>  occupation: 0  eigenvalue: -0.052696
  lMax: 2  lLocal: 3  QijEcut: 5
  6 projectors sampled on a log grid with 629 points:
    l: 0  eig: -2.465797  rCut: 1.8
    l: 0  eig: -0.179280  rCut: 1.8
    l: 1  eig: -1.510132  rCut: 2
    l: 1  eig: 0.150000  rCut: 2
    l: 2  eig: -0.052696  rCut: 2.2
    l: 2  eig: 0.150000  rCut: 2.2
  Partial core density with radius 1.2
  Transforming core density to a uniform radial grid of dG=0.02 with 1144 points.
  Transforming local potential to a uniform radial grid of dG=0.02 with 1144 points.
  Transforming nonlocal projectors to a uniform radial grid of dG=0.02 with 432 points.
  Transforming density augmentations to a uniform radial grid of dG=0.02 with 1144 points.
  Transforming atomic orbitals to a uniform radial grid of dG=0.02 with 432 points.
  Core radius for overlap checks: 2.20 bohrs.

Reading pseudopotential file '/home/guoxy/vasp/jdftx-1.5.0/build/pseudopotentials/GBRV/b_pbe.uspp':
  Title: B.  Created by USPP 7.3.6 on 8-4-15
  Reference state energy: -2.950027.  3 valence electrons in orbitals:
    |200>  occupation: 2  eigenvalue: -0.346865
    |210>  occupation: 1  eigenvalue: -0.132618
  lMax: 1  lLocal: 2  QijEcut: 6
  4 projectors sampled on a log grid with 559 points:
    l: 0  eig: -0.346865  rCut: 1.25
    l: 0  eig: -0.500000  rCut: 1.25
    l: 1  eig: -0.346865  rCut: 1.25
    l: 1  eig: -1.000000  rCut: 1.25
  Partial core density with radius 0.9
  Transforming core density to a uniform radial grid of dG=0.02 with 1144 points.
  Transforming local potential to a uniform radial grid of dG=0.02 with 1144 points.
  Transforming nonlocal projectors to a uniform radial grid of dG=0.02 with 432 points.
  Transforming density augmentations to a uniform radial grid of dG=0.02 with 1144 points.
  Transforming atomic orbitals to a uniform radial grid of dG=0.02 with 432 points.
  Core radius for overlap checks: 1.25 bohrs.

Reading pseudopotential file '/home/guoxy/vasp/jdftx-1.5.0/build/pseudopotentials/GBRV/o_pbe.uspp':
  Title: O.  Created by USPP 7.3.6 on 3-2-2014
  Reference state energy: -15.894388.  6 valence electrons in orbitals:
    |200>  occupation: 2  eigenvalue: -0.878823
    |210>  occupation: 4  eigenvalue: -0.332131
  lMax: 2  lLocal: 2  QijEcut: 6
  5 projectors sampled on a log grid with 511 points:
    l: 0  eig: -0.878823  rCut: 1.25
    l: 0  eig: 0.000000  rCut: 1.25
    l: 1  eig: -0.332132  rCut: 1.25
    l: 1  eig: 0.000000  rCut: 1.25
    l: 2  eig: 1.000000  rCut: 1.25
  Partial core density with radius 0.7
  Transforming core density to a uniform radial grid of dG=0.02 with 1144 points.
  Transforming local potential to a uniform radial grid of dG=0.02 with 1144 points.
  Transforming nonlocal projectors to a uniform radial grid of dG=0.02 with 432 points.
  Transforming density augmentations to a uniform radial grid of dG=0.02 with 1144 points.
  Transforming atomic orbitals to a uniform radial grid of dG=0.02 with 432 points.
  Core radius for overlap checks: 1.25 bohrs.

Reading pseudopotential file '/home/guoxy/vasp/jdftx-1.5.0/build/pseudopotentials/GBRV/h_pbe.uspp':
  Title: H.  Created by USPP 7.3.6 on 2-4-15
  Reference state energy: -0.458849.  1 valence electrons in orbitals:
    |100>  occupation: 1  eigenvalue: -0.238595
  lMax: 0  lLocal: 1  QijEcut: 6
  2 projectors sampled on a log grid with 395 points:
    l: 0  eig: -0.238595  rCut: 1.2
    l: 0  eig: 1.000000  rCut: 1.2
  Transforming local potential to a uniform radial grid of dG=0.02 with 1144 points.
  Transforming nonlocal projectors to a uniform radial grid of dG=0.02 with 432 points.
  Transforming density augmentations to a uniform radial grid of dG=0.02 with 1144 points.
  Transforming atomic orbitals to a uniform radial grid of dG=0.02 with 432 points.
  Core radius for overlap checks: 1.20 bohrs.

Initialized 4 species with 97 total atoms.

Folded 1 k-points by 3x3x1 to 9 k-points.

---------- Setting up k-points, bands, fillings ----------
Adding inversion symmetry to k-mesh for non-inversion-symmetric unit cell.
Reduced to 5 k-points under symmetry. 
Computing the number of bands and number of electrons
Calculating initial fillings.
nElectrons: 737.000000   nBands: 673   nStates: 5

----- Setting up reduced wavefunction bases (one per k-point) -----
average nbasis = 80683.000 , ideal nbasis = 80668.147

---------- Setting up coulomb interaction ----------
Fluid mode embedding: using embedded box, but periodic Coulomb kernel.
(Fluid response is responsible for (approximate) separation between periodic images.)
Setting up double-sized grid for truncated Coulomb potentials:
R = 
[    21.6158          0          0  ]
[          0     22.764          0  ]
[          0          0     76.749  ]
unit cell volume = 37765.3
G =
[   0.290675          0          0  ]
[          0   0.276014          0  ]
[          0          0  0.0818667  ]
Chosen fftbox size, S = [  90  96  320  ]
Integer grid location selected as the embedding center:
   Grid: [  45  48  80  ]
   Lattice: [  0.5  0.5  0.5  ]
   Cartesian: [  10.8079  11.382  19.1872  ]
Constructing Wigner-Seitz cell: 6 faces (6 quadrilaterals, 0 hexagons)
Range-separation parameter for embedded mesh potentials due to point charges: 0.618265 bohrs.

Initializing van der Waals corrections
	NOTE: vdW corrections apply only for interactions with fluid.
	Mo:  C6:  427.91 Eh-a0^6  R0: 3.097 a0
	 B:  C6:   54.29 Eh-a0^6  R0: 2.806 a0
	 O:  C6:   12.14 Eh-a0^6  R0: 2.536 a0
	 H:  C6:    2.43 Eh-a0^6  R0: 1.892 a0

---------- Setting up ewald sum ----------
Optimum gaussian width for ewald sums = 6.244234 bohr.
Real space sum over 405 unit cells with max indices [  4  4  2  ]
Reciprocal space sum over 9225 terms with max indices [  7  7  20  ]

---------- Allocating electronic variables ----------
Initializing wave functions:  linear combination of atomic orbitals
Mo pseudo-atom occupations:   s ( 2 0 )  p ( 6 0 )  d ( 6 )
B pseudo-atom occupations:   s ( 2 )  p ( 1 )
O pseudo-atom occupations:   s ( 2 )  p ( 4 )
H pseudo-atom occupations:   s ( 1 )
	FillingsUpdate:  mu: -0.171251800  nElectrons: 737.000000
LCAOMinimize: Iter:   0  G: -2612.9806847530735467  |grad|_K:  1.145e-02  alpha:  1.000e+00
	FillingsUpdate:  mu: -0.171251800  nElectrons: 737.000000
LCAOMinimize: Iter:   1  G: -2661.1826161018011589  |grad|_K:  5.154e-03  alpha:  2.156e-01  linmin: -4.021e-01  cgtest:  7.329e-01  t[s]:    143.87
LCAOMinimize: Encountered beta<0, resetting CG.
	FillingsUpdate:  mu: -0.171251800  nElectrons: 737.000000
LCAOMinimize: Iter:   2  G: -2666.8872071146265625  |grad|_K:  4.608e-03  alpha:  1.505e-01  linmin:  1.486e-03  cgtest:  1.218e-01  t[s]:    198.51
	FillingsUpdate:  mu: -0.171251800  nElectrons: 737.000000
LCAOMinimize: Iter:   3  G: -2667.8794435321051424  |grad|_K:  2.179e-03  alpha:  3.093e-02  linmin: -1.608e-01  cgtest:  6.780e-01  t[s]:    252.94
LCAOMinimize: Encountered beta<0, resetting CG.
	FillingsUpdate:  mu: -0.171251800  nElectrons: 737.000000
LCAOMinimize: Iter:   4  G: -2668.3802522283526741  |grad|_K:  1.834e-03  alpha:  8.612e-02  linmin: -3.447e-02  cgtest:  1.389e-01  t[s]:    307.76
	FillingsUpdate:  mu: -0.171251800  nElectrons: 737.000000
LCAOMinimize: Iter:   5  G: -2668.6229904513770634  |grad|_K:  1.078e-03  alpha:  5.835e-02  linmin: -5.036e-03  cgtest: -2.372e-01  t[s]:    362.65
	FillingsUpdate:  mu: -0.171251800  nElectrons: 737.000000
LCAOMinimize: Iter:   6  G: -2668.7516229185303018  |grad|_K:  6.331e-04  alpha:  9.481e-02  linmin:  2.356e-03  cgtest:  1.602e-01  t[s]:    417.34
	FillingsUpdate:  mu: -0.171251800  nElectrons: 737.000000
LCAOMinimize: Iter:   7  G: -2668.7877519159669646  |grad|_K:  2.700e-04  alpha:  8.000e-02  linmin: -1.760e-02  cgtest:  9.946e-02  t[s]:    472.60
	FillingsUpdate:  mu: -0.171251800  nElectrons: 737.000000
LCAOMinimize: Iter:   8  G: -2668.7942665223081349  |grad|_K:  1.765e-04  alpha:  7.729e-02  linmin: -6.287e-02  cgtest:  2.213e-01  t[s]:    527.22
	FillingsUpdate:  mu: -0.171251800  nElectrons: 737.000000
LCAOMinimize: Iter:   9  G: -2668.7984760218405427  |grad|_K:  2.040e-04  alpha:  1.003e-01  linmin: -5.077e-02  cgtest:  1.798e-01  t[s]:    582.47
	FillingsUpdate:  mu: -0.171251800  nElectrons: 737.000000
LCAOMinimize: Iter:  10  G: -2668.8027711979498235  |grad|_K:  1.426e-04  alpha:  7.461e-02  linmin: -3.650e-02  cgtest: -3.530e-01  t[s]:    638.77
	FillingsUpdate:  mu: -0.171251800  nElectrons: 737.000000
LCAOMinimize: Iter:  11  G: -2668.8047432234275220  |grad|_K:  4.872e-05  alpha:  6.700e-02  linmin: -2.068e-01  cgtest:  5.082e-01  t[s]:    693.99
LCAOMinimize: Encountered beta<0, resetting CG.
	FillingsUpdate:  mu: -0.171251800  nElectrons: 737.000000
LCAOMinimize: Iter:  12  G: -2668.8052731570833203  |grad|_K:  5.234e-05  alpha:  1.618e-01  linmin: -7.084e-02  cgtest:  3.430e-01  t[s]:    749.56
	FillingsUpdate:  mu: -0.171251800  nElectrons: 737.000000
LCAOMinimize: Iter:  13  G: -2668.8055611340810174  |grad|_K:  4.966e-05  alpha:  8.136e-02  linmin: -1.667e-02  cgtest: -2.412e-01  t[s]:    804.50
	FillingsUpdate:  mu: -0.171251800  nElectrons: 737.000000
LCAOMinimize: Iter:  14  G: -2668.8057360176080692  |grad|_K:  3.734e-05  alpha:  6.014e-02  linmin: -4.018e-02  cgtest:  4.132e-01  t[s]:    860.10
	FillingsUpdate:  mu: -0.171251800  nElectrons: 737.000000
LCAOMinimize: Iter:  15  G: -2668.8058162343168078  |grad|_K:  1.826e-05  alpha:  4.825e-02  linmin: -1.790e-01  cgtest:  4.673e-01  t[s]:    915.48
	FillingsUpdate:  mu: -0.171251800  nElectrons: 737.000000
LCAOMinimize: Iter:  16  G: -2668.8058213372623868  |grad|_K:  1.526e-05  alpha:  2.797e-02  linmin: -3.978e-01  cgtest:  8.619e-01  t[s]:    969.88
LCAOMinimize: Encountered beta<0, resetting CG.
	FillingsUpdate:  mu: -0.171251800  nElectrons: 737.000000
LCAOMinimize: Iter:  17  G: -2668.8058227374667695  |grad|_K:  1.478e-05  alpha:  1.645e-02  linmin: -4.405e-01  cgtest:  9.993e-01  t[s]:   1024.87
LCAOMinimize: Encountered beta<0, resetting CG.
	FillingsUpdate:  mu: -0.171251800  nElectrons: 737.000000
LCAOMinimize: Iter:  18  G: -2668.8058234548348082  |grad|_K:  1.452e-05  alpha:  9.611e-03  linmin: -4.401e-01  cgtest:  9.999e-01  t[s]:   1079.35
LCAOMinimize: Encountered beta<0, resetting CG.
	FillingsUpdate:  mu: -0.171251800  nElectrons: 737.000000
LCAOMinimize: Iter:  19  G: -2668.8058238444600647  |grad|_K:  1.437e-05  alpha:  5.599e-03  linmin: -4.399e-01  cgtest:  1.000e+00  t[s]:   1134.49
LCAOMinimize: Encountered beta<0, resetting CG.
LCAOMinimize: Converged (|Delta G|<1.000000e-06 for 2 iters).
----- createFluidSolver() ----- (Fluid-side solver setup)
   Initializing fluid molecule 'H2O'
     Initializing site 'O'
       Electron density: proportional to exp(-r/0.36935)*erfc((r-0.51523)/0.36823) with norm 6.826
       Charge density: gaussian nuclear width 0.478731 with net site charge 0.826
       Polarizability: cuspless exponential with width 0.32 and norm 3.73
       Hard sphere radius: 2.57003 bohrs
       Positions in reference frame:
         [ +0.000000 +0.000000 +0.000000 ]
     Initializing site 'H'
       Electron density: proportional to exp(-r/0.34641)*erfc((r-0)/0.390882) with norm 0.587
       Charge density: gaussian nuclear width 0.377945 with net site charge -0.413
       Polarizability: cuspless exponential with width 0.39 and norm 3.3
       Positions in reference frame:
         [ +0.000000 -1.441945 +1.122523 ]
         [ +0.000000 +1.441945 +1.122523 ]
     Net charge: 0   dipole magnitude: 0.927204
     Initializing spherical shell mfKernel with radius 2.61727 Bohr
     deltaS corrections:
       site 'O': -7.54299
       site 'H': -6.83917
   Initializing fluid molecule 'Na+'
     Initializing site 'Na'
       Electron density: proportional to exp(-r/0.19682)*erfc((r-0.71491)/0.41314) with norm 8.1383
       Charge density: gaussian nuclear width 0.365347 with net site charge -1
       Hard sphere radius: 1.86327 bohrs
       Positions in reference frame:
         [ +0.000000 +0.000000 +0.000000 ]
     Net charge: -1   dipole magnitude: 0
     Initializing gaussian mfKernel with width: 1.55004 Bohr
     deltaS corrections:
       site 'Na': -22.3555
   Initializing fluid molecule 'F-'
     Initializing site 'F'
       Electron density: proportional to exp(-r/0.38886)*erfc((r-0)/0.438782) with norm 8
       Charge density: gaussian nuclear width 0.374796 with net site charge 1
       Hard sphere radius: 2.39995 bohrs
       Positions in reference frame:
         [ +0.000000 +0.000000 +0.000000 ]
     Net charge: 1   dipole magnitude: 0
     Initializing gaussian mfKernel with width: 1.59012 Bohr
     deltaS corrections:
       site 'F': -9.04335

Correction to mu due to finite nuclear width = -0.0193631
   Cavity determined by nc: 0.00142 and sigma: 0.707107
   Nonlocal vdW cavity from gaussian model electron density with norm = 8 and sigma = 0.993594 bohr
   Charge asymmetry in cavity with sensitivity pCavity = 36.5 e-bohr/Eh
   Electrostatic cavity expanded by eta = 1.46 bohrs
   Weighted density cavitation model constrained by Nbulk: 0.0049383 bohr^-3, Pvap: 3.14029 kPa, Rvdw: 2.61727 bohr and sigmaBulk: 4.62e-05 Eh/bohr^2 at T: 298 K.
   Weighted density dispersion model using vdW pair potentials with single solvent site with sqrtC6eff: 0.77 SI.


---- Citations for features of the code used in this run ----

   Software package:
      R. Sundararaman, K. Letchworth-Weaver, K.A. Schwarz, D. Gunceler, Y. Ozhabes and T.A. Arias, 'JDFTx: software for joint density-functional theory', SoftwareX 6, 278 (2017)

   gga-PBE exchange-correlation functional:
      J.P. Perdew, K. Burke and M. Ernzerhof, Phys. Rev. Lett. 77, 3865 (1996)

   Pseudopotentials:
      KF Garrity, JW Bennett, KM Rabe and D Vanderbilt, Comput. Mater. Sci. 81, 446 (2014)

   Truncated Coulomb potentials:
      R. Sundararaman and T.A. Arias, Phys. Rev. B 87, 165122 (2013)

   Van der Waals correction pair-potentials:
      S. Grimme, J. Comput. Chem. 27, 1787 (2006)

   Charge-asymmetric nonlocally-determined local-electric (CANDLE) solvation model:
      R. Sundararaman and W.A. Goddard III, J. Chem. Phys. 142, 064107 (2015)

   Total energy minimization with Auxiliary Hamiltonian:
      C. Freysoldt, S. Boeck, and J. Neugebauer, Phys. Rev. B 79, 241103(R) (2009)

   Grand-canonical (fixed-potential) DFT:
      R. Sundararaman, W. A. Goddard III and T. A. Arias, J. Chem. Phys. 146, 114104 (2017)

This list may not be complete. Please suggest additional citations or
report any other bugs at https://github.com/shankar1729/jdftx/issues

Initialization completed successfully at t[s]:   1147.92

Fluid solver invoked on fresh (partially random / LCAO) wavefunctions
Running a vacuum solve first:

-------- Initial electronic minimization -----------
	FillingsUpdate:  mu: -0.153535214  nElectrons: 737.000000
ElecMinimize: Iter:   0  G: -2668.842299931862271  |grad|_K:  1.037e-04  alpha:  1.000e+00
	FillingsUpdate:  mu: -0.079130478  nElectrons: 737.000000
	SubspaceRotationAdjust: set factor to 0.704
ElecMinimize: Iter:   1  G: -2670.703225143578948  |grad|_K:  7.401e-05  alpha:  6.345e-01  linmin:  3.211e-06  t[s]:   1293.83
	FillingsUpdate:  mu: -0.146975316  nElectrons: 737.000000
	SubspaceRotationAdjust: set factor to 0.375
ElecMinimize: Iter:   2  G: -2670.919294337774318  |grad|_K:  5.151e-05  alpha:  1.989e-01  linmin:  5.981e-04  t[s]:   1383.02
	FillingsUpdate:  mu: -0.130578233  nElectrons: 737.000000
	SubspaceRotationAdjust: set factor to 0.254
ElecMinimize: Iter:   3  G: -2671.099720502953460  |grad|_K:  4.048e-05  alpha:  3.123e-01  linmin:  1.981e-05  t[s]:   1473.11
	FillingsUpdate:  mu: -0.122260945  nElectrons: 737.000000
	SubspaceRotationAdjust: set factor to 0.149
ElecMinimize: Iter:   4  G: -2671.153543147039272  |grad|_K:  2.054e-05  alpha:  1.201e-01  linmin: -1.988e-05  t[s]:   1562.56
	FillingsUpdate:  mu: -0.117605865  nElectrons: 737.000000
	SubspaceRotationAdjust: set factor to 0.207
ElecMinimize: Iter:   5  G: -2671.191269082481540  |grad|_K:  1.188e-05  alpha:  3.270e-01  linmin:  3.517e-05  t[s]:   1651.77
	FillingsUpdate:  mu: -0.119054324  nElectrons: 737.000000
	SubspaceRotationAdjust: set factor to 0.187
ElecMinimize: Iter:   6  G: -2671.203989055379679  |grad|_K:  8.998e-06  alpha:  3.329e-01  linmin:  1.715e-06  t[s]:   1741.75
	FillingsUpdate:  mu: -0.121451244  nElectrons: 737.000000
	SubspaceRotationAdjust: set factor to 0.178
ElecMinimize: Iter:   7  G: -2671.210244517539650  |grad|_K:  5.555e-06  alpha:  2.835e-01  linmin: -2.383e-06  t[s]:   1829.96
	FillingsUpdate:  mu: -0.122620879  nElectrons: 737.000000
	SubspaceRotationAdjust: set factor to 0.221
ElecMinimize: Iter:   8  G: -2671.213664724268710  |grad|_K:  4.237e-06  alpha:  4.062e-01  linmin: -2.586e-06  t[s]:   1919.70
	FillingsUpdate:  mu: -0.122658427  nElectrons: 737.000000
	SubspaceRotationAdjust: set factor to 0.18
ElecMinimize: Iter:   9  G: -2671.216006510895113  |grad|_K:  4.593e-06  alpha:  4.782e-01  linmin:  3.312e-06  t[s]:   2009.73
	FillingsUpdate:  mu: -0.121942990  nElectrons: 737.000000
	SubspaceRotationAdjust: set factor to 0.154
ElecMinimize: Iter:  10  G: -2671.217703360903670  |grad|_K:  3.376e-06  alpha:  2.946e-01  linmin: -6.173e-07  t[s]:   2098.86
	FillingsUpdate:  mu: -0.120829490  nElectrons: 737.000000
	SubspaceRotationAdjust: set factor to 0.196
ElecMinimize: Iter:  11  G: -2671.219312812869703  |grad|_K:  2.945e-06  alpha:  5.193e-01  linmin:  5.140e-06  t[s]:   2188.88
	FillingsUpdate:  mu: -0.120752376  nElectrons: 737.000000
	SubspaceRotationAdjust: set factor to 0.165
ElecMinimize: Iter:  12  G: -2671.220167658320861  |grad|_K:  2.307e-06  alpha:  3.633e-01  linmin:  3.196e-08  t[s]:   2278.82
	FillingsUpdate:  mu: -0.121198898  nElectrons: 737.000000
	SubspaceRotationAdjust: set factor to 0.141
ElecMinimize: Iter:  13  G: -2671.220663597174280  |grad|_K:  1.542e-06  alpha:  3.417e-01  linmin:  3.671e-07  t[s]:   2367.56
	FillingsUpdate:  mu: -0.121478652  nElectrons: 737.000000
	SubspaceRotationAdjust: set factor to 0.158
ElecMinimize: Iter:  14  G: -2671.220893644183889  |grad|_K:  9.090e-07  alpha:  3.552e-01  linmin:  1.757e-07  t[s]:   2457.58
	FillingsUpdate:  mu: -0.121395612  nElectrons: 737.000000
	SubspaceRotationAdjust: set factor to 0.142
ElecMinimize: Iter:  15  G: -2671.220979207699202  |grad|_K:  6.066e-07  alpha:  3.799e-01  linmin: -1.042e-07  t[s]:   2548.70
	FillingsUpdate:  mu: -0.121276691  nElectrons: 737.000000
	SubspaceRotationAdjust: set factor to 0.129
	SubspaceRotationAdjust: resetting CG because factor has changed by 0.129262
ElecMinimize: 	State modified externally: resetting search direction.
ElecMinimize: Iter:  16  G: -2671.221011588098008  |grad|_K:  3.561e-07  alpha:  3.227e-01
	FillingsUpdate:  mu: -0.121289522  nElectrons: 737.000000
	SubspaceRotationAdjust: set factor to 0.223
ElecMinimize: Iter:  17  G: -2671.221025193132846  |grad|_K:  2.179e-07  alpha:  3.935e-01  linmin:  2.004e-08  t[s]:   2777.09
	FillingsUpdate:  mu: -0.121266069  nElectrons: 737.000000
	SubspaceRotationAdjust: set factor to 0.251
ElecMinimize: Iter:  18  G: -2671.221031668763771  |grad|_K:  1.675e-07  alpha:  5.005e-01  linmin:  5.276e-08  t[s]:   2866.88
	FillingsUpdate:  mu: -0.121260133  nElectrons: 737.000000
	SubspaceRotationAdjust: set factor to 0.261
ElecMinimize: Iter:  19  G: -2671.221035679580837  |grad|_K:  1.592e-07  alpha:  5.243e-01  linmin:  5.793e-08  t[s]:   2956.82
	FillingsUpdate:  mu: -0.121281886  nElectrons: 737.000000
	SubspaceRotationAdjust: set factor to 0.205
ElecMinimize: Iter:  20  G: -2671.221038166946073  |grad|_K:  1.508e-07  alpha:  3.598e-01  linmin:  1.642e-08  t[s]:   3048.10
	FillingsUpdate:  mu: -0.121311246  nElectrons: 737.000000
	SubspaceRotationAdjust: set factor to 0.162
ElecMinimize: Iter:  21  G: -2671.221039817524343  |grad|_K:  9.155e-08  alpha:  2.661e-01  linmin:  3.804e-08  t[s]:   3138.36
	FillingsUpdate:  mu: -0.121319145  nElectrons: 737.000000
	SubspaceRotationAdjust: set factor to 0.162
ElecMinimize: Iter:  22  G: -2671.221040881705903  |grad|_K:  6.927e-08  alpha:  4.666e-01  linmin:  1.450e-07  t[s]:   3228.87
	FillingsUpdate:  mu: -0.121313963  nElectrons: 737.000000
	SubspaceRotationAdjust: set factor to 0.176
ElecMinimize: Iter:  23  G: -2671.221041608835549  |grad|_K:  4.889e-08  alpha:  5.576e-01  linmin:  3.124e-08  t[s]:   3318.52
	FillingsUpdate:  mu: -0.121313770  nElectrons: 737.000000
	SubspaceRotationAdjust: set factor to 0.19
ElecMinimize: Iter:  24  G: -2671.221041921618507  |grad|_K:  4.108e-08  alpha:  4.803e-01  linmin: -1.822e-08  t[s]:   3409.02
	FillingsUpdate:  mu: -0.121313072  nElectrons: 737.000000
	SubspaceRotationAdjust: set factor to 0.165
ElecMinimize: Iter:  25  G: -2671.221042117386787  |grad|_K:  3.161e-08  alpha:  4.253e-01  linmin: -2.269e-08  t[s]:   3499.56
	FillingsUpdate:  mu: -0.121314794  nElectrons: 737.000000
	SubspaceRotationAdjust: set factor to 0.142
ElecMinimize: Iter:  26  G: -2671.221042221534390  |grad|_K:  2.026e-08  alpha:  3.822e-01  linmin: -2.347e-08  t[s]:   3588.66
	FillingsUpdate:  mu: -0.121318193  nElectrons: 737.000000
	SubspaceRotationAdjust: set factor to 0.151
ElecMinimize: Iter:  27  G: -2671.221042265872711  |grad|_K:  1.465e-08  alpha:  3.961e-01  linmin: -1.118e-08  t[s]:   3678.65
	FillingsUpdate:  mu: -0.121321748  nElectrons: 737.000000
	SubspaceRotationAdjust: set factor to 0.192
ElecMinimize: Iter:  28  G: -2671.221042293804203  |grad|_K:  9.274e-09  alpha:  4.770e-01  linmin:  8.088e-08  t[s]:   3768.14
	FillingsUpdate:  mu: -0.121319936  nElectrons: 737.000000
	SubspaceRotationAdjust: set factor to 0.186
ElecMinimize: Iter:  29  G: -2671.221042304274761  |grad|_K:  7.687e-09  alpha:  4.490e-01  linmin: -7.138e-08  t[s]:   3858.23
	FillingsUpdate:  mu: -0.121317285  nElectrons: 737.000000
	SubspaceRotationAdjust: set factor to 0.163
ElecMinimize: Iter:  30  G: -2671.221042310094617  |grad|_K:  6.077e-09  alpha:  3.587e-01  linmin: -2.702e-08  t[s]:   3948.43
	FillingsUpdate:  mu: -0.121315873  nElectrons: 737.000000
	SubspaceRotationAdjust: set factor to 0.189
ElecMinimize: Iter:  31  G: -2671.221042315081831  |grad|_K:  4.568e-09  alpha:  4.800e-01  linmin: -4.862e-08  t[s]:   4039.04
ElecMinimize: Converged (|Delta G|<1.000000e-08 for 2 iters).
Setting wave functions to eigenvectors of Hamiltonian
Vacuum energy after initial minimize, F = -2671.221042315081831

Shifting auxilliary hamiltonian by -0.049936 to set nElectrons=737.000000
	Linear fluid (dielectric constant: 78.4, screening length: 5.74355 Bohr) occupying 0.743868 of unit cell:	Completed after 23 iterations at t[s]:   4059.27

-------- Electronic minimization -----------
	Linear fluid (dielectric constant: 78.4, screening length: 5.74355 Bohr) occupying 0.743868 of unit cell:	Completed after 0 iterations at t[s]:   4079.10
	FillingsUpdate:  mu: -0.171251800  nElectrons: 737.000000
ElecMinimize: Iter:   0  G: -2671.223148015036713  |grad|_K:  5.134e-05  alpha:  1.000e+00
	Linear fluid (dielectric constant: 78.4, screening length: 5.74355 Bohr) occupying 0.786457 of unit cell:	Completed after 25 iterations at t[s]:   4157.14
	Linear fluid (dielectric constant: 78.4, screening length: 5.74355 Bohr) occupying 0.760958 of unit cell:	Completed after 31 iterations at t[s]:   4194.76
	FillingsUpdate:  mu: -0.171251800  nElectrons: 739.409018
	SubspaceRotationAdjust: set factor to 0.112
ElecMinimize: Iter:   1  G: -2671.306888966082170  |grad|_K:  2.203e-05  alpha:  1.443e-01  linmin:  5.196e-03  t[s]:   4237.52
	Linear fluid (dielectric constant: 78.4, screening length: 5.74355 Bohr) occupying 0.762483 of unit cell:	Completed after 17 iterations at t[s]:   4271.66
ElecMinimize: 	Predicted alpha/alphaT>3.000000, increasing alphaT to 4.328617e-01.
	Linear fluid (dielectric constant: 78.4, screening length: 5.74355 Bohr) occupying 0.765205 of unit cell:	Completed after 20 iterations at t[s]:   4303.48
	Linear fluid (dielectric constant: 78.4, screening length: 5.74355 Bohr) occupying 0.766918 of unit cell:	Completed after 19 iterations at t[s]:   4336.94
	FillingsUpdate:  mu: -0.171251800  nElectrons: 740.093922
	SubspaceRotationAdjust: set factor to 0.0798
ElecMinimize: Iter:   2  G: -2671.382531860424024  |grad|_K:  1.679e-05  alpha:  6.437e-01  linmin: -4.383e-05  t[s]:   4377.83
	Linear fluid (dielectric constant: 78.4, screening length: 5.74355 Bohr) occupying 0.779443 of unit cell:	Completed after 29 iterations at t[s]:   4415.14
	Linear fluid (dielectric constant: 78.4, screening length: 5.74355 Bohr) occupying 0.776460 of unit cell:	Completed after 28 iterations at t[s]:   4451.11
	FillingsUpdate:  mu: -0.171251800  nElectrons: 741.612677
	SubspaceRotationAdjust: set factor to 0.0405
ElecMinimize: Iter:   3  G: -2671.414742332462993  |grad|_K:  8.832e-06  alpha:  4.175e-01  linmin:  6.478e-04  t[s]:   4492.74
	Linear fluid (dielectric constant: 78.4, screening length: 5.74355 Bohr) occupying 0.775838 of unit cell:	Completed after 20 iterations at t[s]:   4528.41
	Linear fluid (dielectric constant: 78.4, screening length: 5.74355 Bohr) occupying 0.775394 of unit cell:	Completed after 18 iterations at t[s]:   4560.80
	FillingsUpdate:  mu: -0.171251800  nElectrons: 741.504255
	SubspaceRotationAdjust: set factor to 0.0309
ElecMinimize: Iter:   4  G: -2671.429256783901110  |grad|_K:  5.504e-06  alpha:  7.034e-01  linmin:  1.797e-04  t[s]:   4601.70
	Linear fluid (dielectric constant: 78.4, screening length: 5.74355 Bohr) occupying 0.776107 of unit cell:	Completed after 19 iterations at t[s]:   4636.26
	Linear fluid (dielectric constant: 78.4, screening length: 5.74355 Bohr) occupying 0.776151 of unit cell:	Completed after 11 iterations at t[s]:   4668.25
	FillingsUpdate:  mu: -0.171251800  nElectrons: 741.711008
	SubspaceRotationAdjust: set factor to 0.0358
ElecMinimize: Iter:   5  G: -2671.435378309483895  |grad|_K:  4.739e-06  alpha:  7.495e-01  linmin: -2.203e-05  t[s]:   4707.72
	Linear fluid (dielectric constant: 78.4, screening length: 5.74355 Bohr) occupying 0.776747 of unit cell:	Completed after 16 iterations at t[s]:   4740.60
	Linear fluid (dielectric constant: 78.4, screening length: 5.74355 Bohr) occupying 0.776564 of unit cell:	Completed after 14 iterations at t[s]:   4771.89
	FillingsUpdate:  mu: -0.171251800  nElectrons: 741.824256
	SubspaceRotationAdjust: set factor to 0.0409
ElecMinimize: Iter:   6  G: -2671.438514046975797  |grad|_K:  4.135e-06  alpha:  5.112e-01  linmin: -7.170e-07  t[s]:   4811.69
	Linear fluid (dielectric constant: 78.4, screening length: 5.74355 Bohr) occupying 0.776731 of unit cell:	Completed after 15 iterations at t[s]:   4845.08
	Linear fluid (dielectric constant: 78.4, screening length: 5.74355 Bohr) occupying 0.776785 of unit cell:	Completed after 9 iterations at t[s]:   4875.68
	FillingsUpdate:  mu: -0.171251800  nElectrons: 741.895085
	SubspaceRotationAdjust: set factor to 0.0468
ElecMinimize: Iter:   7  G: -2671.441708765903513  |grad|_K:  4.045e-06  alpha:  6.853e-01  linmin:  1.882e-06  t[s]:   4914.70
	Linear fluid (dielectric constant: 78.4, screening length: 5.74355 Bohr) occupying 0.777019 of unit cell:	Completed after 16 iterations at t[s]:   4947.69
	Linear fluid (dielectric constant: 78.4, screening length: 5.74355 Bohr) occupying 0.777057 of unit cell:	Completed after 10 iterations at t[s]:   4978.55
	FillingsUpdate:  mu: -0.171251800  nElectrons: 741.987922
	SubspaceRotationAdjust: set factor to 0.0515
ElecMinimize: Iter:   8  G: -2671.445296678044087  |grad|_K:  4.492e-06  alpha:  8.047e-01  linmin: -1.600e-06  t[s]:   5018.35
	Linear fluid (dielectric constant: 78.4, screening length: 5.74355 Bohr) occupying 0.777691 of unit cell:	Completed after 20 iterations at t[s]:   5051.98
	Linear fluid (dielectric constant: 78.4, screening length: 5.74355 Bohr) occupying 0.777670 of unit cell:	Completed after 4 iterations at t[s]:   5082.51
	FillingsUpdate:  mu: -0.171251800  nElectrons: 742.195514
	SubspaceRotationAdjust: set factor to 0.0573
ElecMinimize: Iter:   9  G: -2671.449562174189850  |grad|_K:  4.528e-06  alpha:  7.750e-01  linmin:  8.234e-07  t[s]:   5120.80
	Linear fluid (dielectric constant: 78.4, screening length: 5.74355 Bohr) occupying 0.778372 of unit cell:	Completed after 22 iterations at t[s]:   5155.11
	Linear fluid (dielectric constant: 78.4, screening length: 5.74355 Bohr) occupying 0.778267 of unit cell:	Completed after 12 iterations at t[s]:   5187.00
	FillingsUpdate:  mu: -0.171251800  nElectrons: 742.433498
	SubspaceRotationAdjust: set factor to 0.0611
ElecMinimize: Iter:  10  G: -2671.453187430223807  |grad|_K:  4.356e-06  alpha:  6.481e-01  linmin:  5.173e-06  t[s]:   5226.27
	Linear fluid (dielectric constant: 78.4, screening length: 5.74355 Bohr) occupying 0.778528 of unit cell:	Completed after 18 iterations at t[s]:   5260.81
	Linear fluid (dielectric constant: 78.4, screening length: 5.74355 Bohr) occupying 0.778495 of unit cell:	Completed after 6 iterations at t[s]:   5290.82
	FillingsUpdate:  mu: -0.171251800  nElectrons: 742.580482
	SubspaceRotationAdjust: set factor to 0.0678
ElecMinimize: Iter:  11  G: -2671.456064363028418  |grad|_K:  3.239e-06  alpha:  5.571e-01  linmin:  3.389e-06  t[s]:   5330.29
	Linear fluid (dielectric constant: 78.4, screening length: 5.74355 Bohr) occupying 0.778402 of unit cell:	Completed after 14 iterations at t[s]:   5363.35
	Linear fluid (dielectric constant: 78.4, screening length: 5.74355 Bohr) occupying 0.778406 of unit cell:	Completed after 3 iterations at t[s]:   5392.23
	FillingsUpdate:  mu: -0.171251800  nElectrons: 742.600602
	SubspaceRotationAdjust: set factor to 0.0723
ElecMinimize: Iter:  12  G: -2671.457578214175555  |grad|_K:  2.563e-06  alpha:  5.300e-01  linmin:  6.685e-06  t[s]:   5430.89
	Linear fluid (dielectric constant: 78.4, screening length: 5.74355 Bohr) occupying 0.778453 of unit cell:	Completed after 12 iterations at t[s]:   5463.77
	Linear fluid (dielectric constant: 78.4, screening length: 5.74355 Bohr) occupying 0.778454 of unit cell:	Completed after 0 iterations at t[s]:   5491.66
	FillingsUpdate:  mu: -0.171251800  nElectrons: 742.646748
	SubspaceRotationAdjust: set factor to 0.0923
ElecMinimize: Iter:  13  G: -2671.458526255377819  |grad|_K:  1.772e-06  alpha:  5.309e-01  linmin: -4.994e-07  t[s]:   5529.63
	Linear fluid (dielectric constant: 78.4, screening length: 5.74355 Bohr) occupying 0.778502 of unit cell:	Completed after 14 iterations at t[s]:   5562.15
	Linear fluid (dielectric constant: 78.4, screening length: 5.74355 Bohr) occupying 0.778512 of unit cell:	Completed after 9 iterations at t[s]:   5592.70
	FillingsUpdate:  mu: -0.171251800  nElectrons: 742.685149
	SubspaceRotationAdjust: set factor to 0.104
ElecMinimize: Iter:  14  G: -2671.459070897401034  |grad|_K:  1.542e-06  alpha:  6.364e-01  linmin:  4.064e-06  t[s]:   5632.09
	Linear fluid (dielectric constant: 78.4, screening length: 5.74355 Bohr) occupying 0.778222 of unit cell:	Completed after 16 iterations at t[s]:   5666.70
	Linear fluid (dielectric constant: 78.4, screening length: 5.74355 Bohr) occupying 0.778275 of unit cell:	Completed after 11 iterations at t[s]:   5696.82
	FillingsUpdate:  mu: -0.171251800  nElectrons: 742.622993
	SubspaceRotationAdjust: set factor to 0.104
ElecMinimize: Iter:  15  G: -2671.459409321861131  |grad|_K:  1.201e-06  alpha:  5.226e-01  linmin:  3.350e-06  t[s]:   5735.58
	Linear fluid (dielectric constant: 78.4, screening length: 5.74355 Bohr) occupying 0.778238 of unit cell:	Completed after 10 iterations at t[s]:   5767.77
	Linear fluid (dielectric constant: 78.4, screening length: 5.74355 Bohr) occupying 0.778231 of unit cell:	Completed after 3 iterations at t[s]:   5796.41
	FillingsUpdate:  mu: -0.171251800  nElectrons: 742.616931
	SubspaceRotationAdjust: set factor to 0.117
ElecMinimize: Iter:  16  G: -2671.459652488820666  |grad|_K:  9.291e-07  alpha:  6.193e-01  linmin: -4.934e-07  t[s]:   5834.45
	Linear fluid (dielectric constant: 78.4, screening length: 5.74355 Bohr) occupying 0.778217 of unit cell:	Completed after 12 iterations at t[s]:   5866.72
	Linear fluid (dielectric constant: 78.4, screening length: 5.74355 Bohr) occupying 0.778222 of unit cell:	Completed after 4 iterations at t[s]:   5895.78
	FillingsUpdate:  mu: -0.171251800  nElectrons: 742.616497
	SubspaceRotationAdjust: set factor to 0.128
ElecMinimize: Iter:  17  G: -2671.459752047209804  |grad|_K:  6.265e-07  alpha:  4.234e-01  linmin:  7.717e-07  t[s]:   5934.46
	Linear fluid (dielectric constant: 78.4, screening length: 5.74355 Bohr) occupying 0.778134 of unit cell:	Completed after 12 iterations at t[s]:   5967.56
	Linear fluid (dielectric constant: 78.4, screening length: 5.74355 Bohr) occupying 0.778123 of unit cell:	Completed after 3 iterations at t[s]:   5995.60
	FillingsUpdate:  mu: -0.171251800  nElectrons: 742.587777
	SubspaceRotationAdjust: set factor to 0.106
ElecMinimize: Iter:  18  G: -2671.459803327319605  |grad|_K:  4.334e-07  alpha:  4.774e-01  linmin: -3.530e-05  t[s]:   6033.98
	Linear fluid (dielectric constant: 78.4, screening length: 5.74355 Bohr) occupying 0.778182 of unit cell:	Completed after 12 iterations at t[s]:   6066.64
	Linear fluid (dielectric constant: 78.4, screening length: 5.74355 Bohr) occupying 0.778167 of unit cell:	Completed after 6 iterations at t[s]:   6095.91
	FillingsUpdate:  mu: -0.171251800  nElectrons: 742.602269
	SubspaceRotationAdjust: set factor to 0.087
ElecMinimize: Iter:  19  G: -2671.459822464094941  |grad|_K:  2.915e-07  alpha:  3.584e-01  linmin:  1.698e-05  t[s]:   6134.64
	Linear fluid (dielectric constant: 78.4, screening length: 5.74355 Bohr) occupying 0.778158 of unit cell:	Completed after 8 iterations at t[s]:   6165.61
	Linear fluid (dielectric constant: 78.4, screening length: 5.74355 Bohr) occupying 0.778153 of unit cell:	Completed after 2 iterations at t[s]:   6193.81
	FillingsUpdate:  mu: -0.171251800  nElectrons: 742.599050
	SubspaceRotationAdjust: set factor to 0.121
ElecMinimize: Iter:  20  G: -2671.459835233433751  |grad|_K:  2.036e-07  alpha:  5.564e-01  linmin: -1.575e-05  t[s]:   6232.58
	Linear fluid (dielectric constant: 78.4, screening length: 5.74355 Bohr) occupying 0.778135 of unit cell:	Completed after 9 iterations at t[s]:   6264.88
	Linear fluid (dielectric constant: 78.4, screening length: 5.74355 Bohr) occupying 0.778136 of unit cell:	Completed after 0 iterations at t[s]:   6292.52
	FillingsUpdate:  mu: -0.171251800  nElectrons: 742.595050
	SubspaceRotationAdjust: set factor to 0.134
ElecMinimize: Iter:  21  G: -2671.459841351467276  |grad|_K:  2.043e-07  alpha:  5.255e-01  linmin: -5.159e-06  t[s]:   6330.16
	Linear fluid (dielectric constant: 78.4, screening length: 5.74355 Bohr) occupying 0.778162 of unit cell:	Completed after 10 iterations at t[s]:   6362.29
	Linear fluid (dielectric constant: 78.4, screening length: 5.74355 Bohr) occupying 0.778159 of unit cell:	Completed after 0 iterations at t[s]:   6390.03
	FillingsUpdate:  mu: -0.171251800  nElectrons: 742.603331
	SubspaceRotationAdjust: set factor to 0.126
ElecMinimize: Iter:  22  G: -2671.459846772894707  |grad|_K:  1.977e-07  alpha:  4.685e-01  linmin:  7.405e-06  t[s]:   6427.95
	Linear fluid (dielectric constant: 78.4, screening length: 5.74355 Bohr) occupying 0.778142 of unit cell:	Completed after 8 iterations at t[s]:   6459.20
	Linear fluid (dielectric constant: 78.4, screening length: 5.74355 Bohr) occupying 0.778139 of unit cell:	Completed after 0 iterations at t[s]:   6486.78
	FillingsUpdate:  mu: -0.171251800  nElectrons: 742.599294
	SubspaceRotationAdjust: set factor to 0.129
ElecMinimize: Iter:  23  G: -2671.459852448452693  |grad|_K:  1.851e-07  alpha:  5.424e-01  linmin: -1.097e-05  t[s]:   6524.73
	Linear fluid (dielectric constant: 78.4, screening length: 5.74355 Bohr) occupying 0.778138 of unit cell:	Completed after 3 iterations at t[s]:   6556.13
	Linear fluid (dielectric constant: 78.4, screening length: 5.74355 Bohr) occupying 0.778138 of unit cell:	Completed after 0 iterations at t[s]:   6583.10
	FillingsUpdate:  mu: -0.171251800  nElectrons: 742.600617
	SubspaceRotationAdjust: set factor to 0.153
ElecMinimize: Iter:  24  G: -2671.459856692707035  |grad|_K:  1.488e-07  alpha:  4.243e-01  linmin: -2.142e-07  t[s]:   6621.42
	Linear fluid (dielectric constant: 78.4, screening length: 5.74355 Bohr) occupying 0.778159 of unit cell:	Completed after 6 iterations at t[s]:   6653.27
	Linear fluid (dielectric constant: 78.4, screening length: 5.74355 Bohr) occupying 0.778160 of unit cell:	Completed after 0 iterations at t[s]:   6680.67
	FillingsUpdate:  mu: -0.171251800  nElectrons: 742.608401
	SubspaceRotationAdjust: set factor to 0.127
ElecMinimize: Iter:  25  G: -2671.459859291527664  |grad|_K:  1.150e-07  alpha:  4.304e-01  linmin:  8.925e-07  t[s]:   6718.60
	Linear fluid (dielectric constant: 78.4, screening length: 5.74355 Bohr) occupying 0.778150 of unit cell:	Completed after 3 iterations at t[s]:   6749.10
	Linear fluid (dielectric constant: 78.4, screening length: 5.74355 Bohr) occupying 0.778151 of unit cell:	Completed after 0 iterations at t[s]:   6776.03
	FillingsUpdate:  mu: -0.171251800  nElectrons: 742.606316
	SubspaceRotationAdjust: set factor to 0.142
ElecMinimize: Iter:  26  G: -2671.459860662438587  |grad|_K:  7.581e-08  alpha:  3.822e-01  linmin:  1.535e-06  t[s]:   6814.32
	Linear fluid (dielectric constant: 78.4, screening length: 5.74355 Bohr) occupying 0.778147 of unit cell:	Completed after 0 iterations at t[s]:   6844.45
	Linear fluid (dielectric constant: 78.4, screening length: 5.74355 Bohr) occupying 0.778147 of unit cell:	Completed after 0 iterations at t[s]:   6871.21
	FillingsUpdate:  mu: -0.171251800  nElectrons: 742.605292
	SubspaceRotationAdjust: set factor to 0.16
ElecMinimize: Iter:  27  G: -2671.459861264045230  |grad|_K:  4.809e-08  alpha:  3.873e-01  linmin:  2.527e-08  t[s]:   6908.26
	Linear fluid (dielectric constant: 78.4, screening length: 5.74355 Bohr) occupying 0.778143 of unit cell:	Completed after 2 iterations at t[s]:   6938.96
	Linear fluid (dielectric constant: 78.4, screening length: 5.74355 Bohr) occupying 0.778144 of unit cell:	Completed after 0 iterations at t[s]:   6966.32
	FillingsUpdate:  mu: -0.171251800  nElectrons: 742.604620
	SubspaceRotationAdjust: set factor to 0.11
ElecMinimize: Iter:  28  G: -2671.459861370795807  |grad|_K:  5.837e-08  alpha:  2.667e-01  linmin: -4.175e-05  t[s]:   7004.80
	Linear fluid (dielectric constant: 78.4, screening length: 5.74355 Bohr) occupying 0.778152 of unit cell:	Completed after 2 iterations at t[s]:   7035.20
	Linear fluid (dielectric constant: 78.4, screening length: 5.74355 Bohr) occupying 0.778150 of unit cell:	Completed after 0 iterations at t[s]:   7061.38
	FillingsUpdate:  mu: -0.171251800  nElectrons: 742.606418
	SubspaceRotationAdjust: set factor to 0.178
ElecMinimize: Iter:  29  G: -2671.459861571640886  |grad|_K:  3.262e-08  alpha:  1.866e-01  linmin:  3.942e-06  t[s]:   7099.26
	Linear fluid (dielectric constant: 78.4, screening length: 5.74355 Bohr) occupying 0.778152 of unit cell:	Completed after 0 iterations at t[s]:   7129.33
ElecMinimize: 	Predicted alpha/alphaT>3.000000, increasing alphaT to 5.597114e-01.
	Linear fluid (dielectric constant: 78.4, screening length: 5.74355 Bohr) occupying 0.778158 of unit cell:	Completed after 2 iterations at t[s]:   7155.61
	Linear fluid (dielectric constant: 78.4, screening length: 5.74355 Bohr) occupying 0.778154 of unit cell:	Completed after 0 iterations at t[s]:   7182.52
	FillingsUpdate:  mu: -0.171251800  nElectrons: 742.607918
	SubspaceRotationAdjust: set factor to 0.132
ElecMinimize: Iter:  30  G: -2671.459861671638919  |grad|_K:  3.734e-08  alpha:  3.315e-01  linmin:  3.437e-05  t[s]:   7220.29
	Linear fluid (dielectric constant: 78.4, screening length: 5.74355 Bohr) occupying 0.778151 of unit cell:	Completed after 0 iterations at t[s]:   7250.33
	Linear fluid (dielectric constant: 78.4, screening length: 5.74355 Bohr) occupying 0.778152 of unit cell:	Completed after 0 iterations at t[s]:   7277.17
	FillingsUpdate:  mu: -0.171251800  nElectrons: 742.607158
	SubspaceRotationAdjust: set factor to 0.142
ElecMinimize: Iter:  31  G: -2671.459861749570337  |grad|_K:  4.043e-08  alpha:  2.759e-01  linmin:  2.997e-08  t[s]:   7314.51
	Linear fluid (dielectric constant: 78.4, screening length: 5.74355 Bohr) occupying 0.778143 of unit cell:	Completed after 2 iterations at t[s]:   7344.84
	Linear fluid (dielectric constant: 78.4, screening length: 5.74355 Bohr) occupying 0.778150 of unit cell:	Completed after 1 iterations at t[s]:   7372.08
ElecMinimize: 	Step increased G by 4.426010e-08, reducing alpha to 7.107173e-03.
	Linear fluid (dielectric constant: 78.4, screening length: 5.74355 Bohr) occupying 0.778152 of unit cell:	Completed after 0 iterations at t[s]:   7433.15
ElecMinimize: 	Step increased G by 2.152319e-08, reducing alpha to 7.107173e-04.
	Linear fluid (dielectric constant: 78.4, screening length: 5.74355 Bohr) occupying 0.778152 of unit cell:	Completed after 0 iterations at t[s]:   7494.69
ElecMinimize: 	Step increased G by 1.846047e-08, reducing alpha to 7.107173e-05.
ElecMinimize: 	Step failed to reduce G after 3 attempts. Quitting step.
ElecMinimize: 	Undoing step.
	Linear fluid (dielectric constant: 78.4, screening length: 5.74355 Bohr) occupying 0.778152 of unit cell:	Completed after 0 iterations at t[s]:   7554.80
ElecMinimize: 	Step failed: resetting search direction.
	FillingsUpdate:  mu: -0.171251800  nElectrons: 742.607151
	SubspaceRotationAdjust: set factor to 0.099
ElecMinimize: Iter:  32  G: -2671.459861731167166  |grad|_K:  4.149e-08  alpha:  7.107e-05
	Linear fluid (dielectric constant: 78.4, screening length: 5.74355 Bohr) occupying 0.778158 of unit cell:	Completed after 2 iterations at t[s]:   7623.15
	Linear fluid (dielectric constant: 78.4, screening length: 5.74355 Bohr) occupying 0.778155 of unit cell:	Completed after 0 iterations at t[s]:   7650.09
	FillingsUpdate:  mu: -0.171251800  nElectrons: 742.608006
	SubspaceRotationAdjust: set factor to 0.0539
ElecMinimize: Iter:  33  G: -2671.459861759874912  |grad|_K:  3.276e-08  alpha:  1.206e-01  linmin:  2.208e-04  t[s]:   7687.57
	Linear fluid (dielectric constant: 78.4, screening length: 5.74355 Bohr) occupying 0.778154 of unit cell:	Completed after 0 iterations at t[s]:   7717.67
	Linear fluid (dielectric constant: 78.4, screening length: 5.74355 Bohr) occupying 0.778154 of unit cell:	Completed after 1 iterations at t[s]:   7744.61
ElecMinimize: 	Step increased G by 6.098162e-10, reducing alpha to 2.061410e-02.
	Linear fluid (dielectric constant: 78.4, screening length: 5.74355 Bohr) occupying 0.778155 of unit cell:	Completed after 0 iterations at t[s]:   7805.41
ElecMinimize: 	Step increased G by 2.373281e-08, reducing alpha to 2.061410e-03.
	Linear fluid (dielectric constant: 78.4, screening length: 5.74355 Bohr) occupying 0.778155 of unit cell:	Completed after 0 iterations at t[s]:   7867.07
ElecMinimize: 	Step increased G by 2.979459e-08, reducing alpha to 2.061410e-04.
ElecMinimize: 	Step failed to reduce G after 3 attempts. Quitting step.
ElecMinimize: 	Undoing step.
	Linear fluid (dielectric constant: 78.4, screening length: 5.74355 Bohr) occupying 0.778155 of unit cell:	Completed after 0 iterations at t[s]:   7928.39
ElecMinimize: 	Step failed: resetting search direction.
	FillingsUpdate:  mu: -0.171251800  nElectrons: 742.608003
	SubspaceRotationAdjust: set factor to 0.0992
ElecMinimize: Iter:  34  G: -2671.459861729990735  |grad|_K:  1.949e-08  alpha:  2.061e-04
	Linear fluid (dielectric constant: 78.4, screening length: 5.74355 Bohr) occupying 0.778154 of unit cell:	Completed after 0 iterations at t[s]:   7996.32
ElecMinimize: 	Predicted alpha/alphaT>3.000000, increasing alphaT to 3.617324e-01.
	Linear fluid (dielectric constant: 78.4, screening length: 5.74355 Bohr) occupying 0.778153 of unit cell:	Completed after 0 iterations at t[s]:   8022.00
	Linear fluid (dielectric constant: 78.4, screening length: 5.74355 Bohr) occupying 0.778152 of unit cell:	Completed after 0 iterations at t[s]:   8048.24
	FillingsUpdate:  mu: -0.171251800  nElectrons: 742.607062
	SubspaceRotationAdjust: set factor to 0.12
ElecMinimize: Iter:  35  G: -2671.459861794648987  |grad|_K:  2.461e-08  alpha:  6.265e-01  linmin:  1.428e-06  t[s]:   8086.09
	Linear fluid (dielectric constant: 78.4, screening length: 5.74355 Bohr) occupying 0.778141 of unit cell:	Completed after 6 iterations at t[s]:   8117.24
	Linear fluid (dielectric constant: 78.4, screening length: 5.74355 Bohr) occupying 0.778150 of unit cell:	Completed after 3 iterations at t[s]:   8145.06
ElecMinimize: 	Step increased G by 3.684772e-08, reducing alpha to 8.384131e-03.
	Linear fluid (dielectric constant: 78.4, screening length: 5.74355 Bohr) occupying 0.778152 of unit cell:	Completed after 0 iterations at t[s]:   8206.72
ElecMinimize: 	Step increased G by 3.138666e-09, reducing alpha to 8.384131e-04.
	Linear fluid (dielectric constant: 78.4, screening length: 5.74355 Bohr) occupying 0.778152 of unit cell:	Completed after 0 iterations at t[s]:   8267.39
	FillingsUpdate:  mu: -0.171251800  nElectrons: 742.607057
	SubspaceRotationAdjust: set factor to 0.0911
ElecMinimize: Iter:  36  G: -2671.459861794802237  |grad|_K:  4.132e-08  alpha:  8.384e-04  linmin:  1.754e-04  t[s]:   8305.36
ElecMinimize: 	Bad step direction: g.d > 0.
ElecMinimize: 	Undoing step.
	Linear fluid (dielectric constant: 78.4, screening length: 5.74355 Bohr) occupying 0.778152 of unit cell:	Completed after 0 iterations at t[s]:   8335.66
ElecMinimize: 	Step failed: resetting search direction.
	FillingsUpdate:  mu: -0.171251800  nElectrons: 742.607057
	SubspaceRotationAdjust: set factor to 0.0768
ElecMinimize: Iter:  37  G: -2671.459861794743119  |grad|_K:  3.793e-08  alpha:  0.000e+00
	Linear fluid (dielectric constant: 78.4, screening length: 5.74355 Bohr) occupying 0.778152 of unit cell:	Completed after 0 iterations at t[s]:   8404.13
ElecMinimize: 	Wrong curvature in test step, increasing alphaT to 2.515239e-03.
	Linear fluid (dielectric constant: 78.4, screening length: 5.74355 Bohr) occupying 0.778152 of unit cell:	Completed after 0 iterations at t[s]:   8420.77
	FillingsUpdate:  mu: -0.171251800  nElectrons: 742.607062
	SubspaceRotationAdjust: set factor to 0.0694
ElecMinimize: Iter:  38  G: -2671.459861795488450  |grad|_K:  3.607e-08  alpha: -3.141e-03  linmin: -6.484e-04  t[s]:   8458.74
	Linear fluid (dielectric constant: 78.4, screening length: 5.74355 Bohr) occupying 0.778186 of unit cell:	Completed after 12 iterations at t[s]:   8491.63
	Linear fluid (dielectric constant: 78.4, screening length: 5.74355 Bohr) occupying 0.778155 of unit cell:	Completed after 10 iterations at t[s]:   8521.94
ElecMinimize: 	Step increased G by 1.303260e-08, reducing alpha to 1.053881e-02.
	Linear fluid (dielectric constant: 78.4, screening length: 5.74355 Bohr) occupying 0.778152 of unit cell:	Completed after 1 iterations at t[s]:   8584.34
ElecMinimize: 	Step increased G by 5.379661e-10, reducing alpha to 1.053881e-03.
	Linear fluid (dielectric constant: 78.4, screening length: 5.74355 Bohr) occupying 0.778152 of unit cell:	Completed after 0 iterations at t[s]:   8645.34
ElecMinimize: 	Step increased G by 7.275958e-12, reducing alpha to 1.053881e-04.
ElecMinimize: 	Step failed to reduce G after 3 attempts. Quitting step.
ElecMinimize: 	Undoing step.
	Linear fluid (dielectric constant: 78.4, screening length: 5.74355 Bohr) occupying 0.778152 of unit cell:	Completed after 0 iterations at t[s]:   8705.33
ElecMinimize: 	Step failed: resetting search direction.
	FillingsUpdate:  mu: -0.171251800  nElectrons: 742.607072
	SubspaceRotationAdjust: set factor to 0.0411
ElecMinimize: Iter:  39  G: -2671.459861795500728  |grad|_K:  2.443e-08  alpha:  1.054e-04
ElecMinimize: Converged (|Delta G|<1.000000e-08 for 2 iters).
Setting wave functions to eigenvectors of Hamiltonian
Single-point solvation energy estimate, DeltaG = -0.238819480418897

# Ionic positions in lattice coordinates:
ion Mo   0.000005518049096   0.125028514157608   0.570650132772739 1
ion Mo   0.125367322139596   0.124659690926260   0.430578266413131 1
ion Mo   0.249997883852966   0.124973150884568   0.571097644826522 1
ion Mo   0.375188777870972   0.124764614213788   0.430993528476754 1
ion Mo   0.500373388741140   0.124978077599496   0.571097633526215 1
ion Mo   0.624994975831628   0.124661894556033   0.430585498221199 1
ion Mo   0.750362718443067   0.125032203675158   0.570651820402753 1
ion Mo   0.875173973776628   0.124749602023477   0.430314052754677 1
ion Mo   0.000826542823457   0.375327401852468   0.570823883415533 1
ion Mo   0.124901597975169   0.374539813138829   0.430120848326361 1
ion Mo   0.250860485828885   0.376445353287986   0.569825405252485 1
ion Mo   0.375184958642515   0.374367965001356   0.429523681664033 1
ion Mo   0.499534464210391   0.376449990010045   0.569816071458199 1
ion Mo   0.625482712289612   0.374547724540153   0.430103393036911 1
ion Mo   0.749568550380144   0.375330546400287   0.570812994552343 1
ion Mo   0.875199592829674   0.374547479001484   0.430407146977136 1
ion Mo   0.000098256222809   0.624277922903386   0.570047182403496 1
ion Mo   0.125825891000956   0.625063339201957   0.429019603754593 1
ion Mo   0.246202749341891   0.623490000792226   0.568957011652894 1
ion Mo   0.375184046826910   0.625079597727927   0.429347763522801 1
ion Mo   0.504159347973331   0.623491332672173   0.568956815427064 1
ion Mo   0.624541852750397   0.625076652907000   0.429024184268194 1
ion Mo   0.750288334991170   0.624281125230048   0.570045300326220 1
ion Mo   0.875186791896618   0.624893558314069   0.429185543958377 1
ion Mo   0.000211051916793   0.874100853895017   0.570946604262458 1
ion Mo   0.124495107822750   0.874775453925993   0.430741791772839 1
ion Mo   0.250267331797099   0.874177021240726   0.570717437841086 1
ion Mo   0.375171597436795   0.874755496016727   0.430551846218386 1
ion Mo   0.500087160176313   0.874186741121177   0.570721561413040 1
ion Mo   0.625850432894446   0.874780831073757   0.430745123543007 1
ion Mo   0.750154333226274   0.874108944065852   0.570952243326953 1
ion Mo   0.875176958647169   0.875067689904185   0.430980439383939 1
ion B   0.000158947488547  -0.000231143137683   0.479246765274514 1
ion B   0.125153950478190  -0.000285967335085   0.522553969255778 1
ion B   0.250147773310575  -0.000243138494003   0.479320642969955 1
ion B   0.375167172594239  -0.000245526904115   0.522650428893374 1
ion B   0.500181004253589  -0.000224309926259   0.479326458199127 1
ion B   0.625180309024932  -0.000288264093529   0.522559035862646 1
ion B   0.750166329894213  -0.000225496147774   0.479256581208024 1
ion B   0.875166551482135  -0.000367310958551   0.522614777419878 1
ion B   0.000298474283038   0.249877297047444   0.479032514458649 1
ion B   0.125288737944500   0.249983379757820   0.522283126332407 1
ion B   0.250302363393321   0.249993138146729   0.479135989475837 1
ion B   0.375191803967113   0.250378294817653   0.522633803723284 1
ion B   0.500074437817349   0.249998535098632   0.479127602539012 1
ion B   0.625107102554568   0.249981091653097   0.522275115572332 1
ion B   0.750082827714745   0.249872267351384   0.479019233394936 1
ion B   0.875195122894166   0.249928066560359   0.522196285641637 1
ion B   0.000261345558710   0.500253442058780   0.478156573361782 1
ion B   0.125450615409737   0.499983095713088   0.520949265915646 1
ion B   0.250706219835843   0.500182060805911   0.477611883818443 1
ion B   0.375185257205554   0.501110895742578   0.521603341788128 1
ion B   0.499662706248606   0.500199591372533   0.477600937620726 1
ion B   0.624928744557601   0.499977959470771   0.520958319771767 1
ion B   0.750117006095764   0.500257348542073   0.478145663046082 1
ion B   0.875179264476978   0.499970622903507   0.521386566039496 1
ion B   0.000155012468691   0.749255006675634   0.478596407169278 1
ion B   0.125012839255081   0.749209921415731   0.521811430396903 1
ion B   0.250837144801846   0.748705705753058   0.479055465036298 1
ion B   0.375183682434467   0.747831759420028   0.523404037361214 1
ion B   0.499536220438790   0.748713559202395   0.479051295790529 1
ion B   0.625354114572635   0.749246343354171   0.521809421628272 1
ion B   0.750222776253974   0.749254197131523   0.478595204485782 1
ion B   0.875192038965055   0.749377443053537   0.521840960352398 1
ion O   0.125089134181678   0.125025547709780   0.636483977017669 1
ion O   0.000126995951342   0.124465782591316   0.364897306431683 1
ion O   0.375176204817010   0.125273450360633   0.636627406297209 1
ion O   0.250233926656565   0.124763779391764   0.365100221444665 1
ion O   0.625264054772616   0.125045256746383   0.636486445763451 1
ion O   0.500122430948503   0.124773145851468   0.365099859801235 1
ion O   0.875176638343032   0.125102151932073   0.636427996298506 1
ion O   0.750252326836641   0.124467686777303   0.364896309832421 1
ion O   0.125093200423956   0.376141026261507   0.636140159305480 1
ion O   0.000237352008543   0.373847183497271   0.364440385428308 1
ion O   0.375206878531235   0.381237046358599   0.636858308488046 1
ion O   0.250345314841524   0.374420766943822   0.364244887080396 1
ion O   0.625299470747910   0.376150502983988   0.636129329498692 1
ion O   0.500012336334083   0.374432175938552   0.364239651762778 1
ion O   0.875180361401064   0.375269790504999   0.635988048047026 1
ion O   0.750127298143030   0.373850244714335   0.364437578736525 1
ion O   0.126233202401160   0.622219214650024   0.636411143836185 1
ion O   0.000183423634492   0.625358981648291   0.363544408266450 1
ion O   0.375187921382715   0.623930662005835   0.642573189231029 1
ion O   0.250091181033330   0.625511611332606   0.363222887224563 1
ion O   0.624132991714506   0.622214744793107   0.636404090501688 1
ion O   0.500281091441770   0.625526395316583   0.363223076545285 1
ion O   0.875177809237323   0.624391188167717   0.635870082642285 1
ion O   0.750183021017150   0.625380281231976   0.363547109477312 1
ion O   0.125050924538610   0.874264181772533   0.636436409623978 1
ion O   0.000649813844358   0.875773903216917   0.364927450354400 1
ion O   0.375176198179565   0.874116722387861   0.636415685619529 1
ion O   0.250609076491715   0.874307275898126   0.365295689545102 1
ion O   0.625307847856974   0.874276396979455   0.636441485801068 1
ion O   0.499730969039967   0.874308986645808   0.365300536865397 1
ion O   0.875190313449988   0.873929376153308   0.636482896155517 1
ion O   0.749685281396658   0.875812775675963   0.364934460145926 1
ion H   0.375192467119838   0.569581109247465   0.678500308973645 1


# Forces in Lattice coordinates:
force Mo  -0.002741271998623  -0.007940989387636  -0.796715806812588 1
force Mo  -0.000415546059148   0.003755523379922   0.840222230802023 1
force Mo   0.005986452280249  -0.001886364786927  -0.828078511918067 1
force Mo   0.001969052228792   0.000704544604132   0.801232506063182 1
force Mo  -0.006936737156766  -0.001866757502122  -0.827035223722269 1
force Mo  -0.005302026255873   0.003889961971599   0.838795855101351 1
force Mo   0.002682460170554  -0.007637568756319  -0.795446094096885 1
force Mo   0.003129214573544  -0.002456345741773   0.850750195546220 1
force Mo  -0.021115984867753  -0.001502851029424  -0.865568869607548 1
force Mo   0.013130836801874  -0.000253143104262   0.808107895611675 1
force Mo  -0.014094446422320  -0.018158591460463  -0.710985724837448 1
force Mo   0.002537198710972   0.005438267671407   0.864115394733749 1
force Mo   0.015277492521028  -0.018734587861854  -0.711921191964225 1
force Mo  -0.019245072150245  -0.000215868687518   0.810273932134085 1
force Mo   0.018923593699975  -0.001944776252125  -0.864032172877798 1
force Mo   0.001811513062797  -0.000274431959521   0.773749920190972 1
force Mo  -0.004448285373361   0.002424554539254  -0.708462108093455 1
force Mo  -0.019136938579077  -0.004366364767251   0.858981000261007 1
force Mo   0.044179147111044  -0.003070968490802  -0.451388955007018 1
force Mo   0.002425834621766  -0.005401263134054   0.800084354390788 1
force Mo  -0.048226819938147  -0.003020684986082  -0.454000288776929 1
force Mo   0.014925995394116  -0.005047864640868   0.858015556872062 1
force Mo   0.001605526112911   0.002838163023414  -0.708238103045169 1
force Mo   0.002357517849132   0.003859057829129   0.871909714495430 1
force Mo  -0.004905129715113   0.012099364692183  -0.844329663388571 1
force Mo   0.033532985165521   0.001226530693557   0.815201011200076 1
force Mo   0.000681355400227   0.013531650220322  -0.830040310924427 1
force Mo   0.003076777203690  -0.006485137862826   0.879450887114055 1
force Mo  -0.000418448303351   0.012707981597376  -0.831157378410836 1
force Mo  -0.038654177077544   0.001691781595481   0.815390518856739 1
force Mo   0.004601435443779   0.011917145418046  -0.843997096329050 1
force Mo   0.002346394385678  -0.008496476421676   0.745542182315306 1
force B  -0.003896256443825   0.002943066564829   0.050438345686315 1
force B   0.004734095916701  -0.004217422906122  -0.050140403081490 1
force B  -0.002955955142329  -0.002563827831837   0.044816922028250 1
force B  -0.003803031036711  -0.005463701957025  -0.056082932613044 1
force B   0.004758892173699  -0.003433438198594   0.046426276416557 1
force B   0.003515470459989  -0.003674761015154  -0.049902292583970 1
force B   0.005666468358016   0.002702777227581   0.046861361783753 1
force B  -0.003151803130699   0.000376839948049  -0.059461105374581 1
force B  -0.002694988935060   0.000579078386935   0.043805728790888 1
force B   0.006933490228222   0.003308524978665  -0.045285765520321 1
force B  -0.002903049434583  -0.002422350650895   0.039874357526796 1
force B  -0.003898624652851   0.001032464611694  -0.062048132515130 1
force B   0.003129975690598  -0.002352217152533   0.043242332768036 1
force B  -0.000879257643504   0.003588026913687  -0.045420797779903 1
force B   0.003976487897578   0.001051273999379   0.043466790810542 1
force B  -0.005069569155252   0.004439277713417  -0.046432037216561 1
force B  -0.008498235249888  -0.001524746267957   0.048207044411968 1
force B   0.011671269480031  -0.014125250868999  -0.042774947254600 1
force B  -0.012020844070156  -0.000655677592099   0.056903756803084 1
force B  -0.003838342337981  -0.007876416798094  -0.056957208190373 1
force B   0.010900370031096  -0.001571180156189   0.057858201149338 1
force B  -0.004311675064962  -0.013251409938709  -0.047158103896703 1
force B   0.007627821136690  -0.001418553262985   0.049250770229703 1
force B  -0.002936960408748  -0.006139735946796  -0.038241070877536 1
force B  -0.004812535312177  -0.003942243443108   0.045005884661379 1
force B   0.013898930142984   0.012781198789330  -0.049437251584938 1
force B  -0.013241158283394   0.012798994272351   0.041049834037061 1
force B  -0.003544706296570   0.012420056163643  -0.078821340762578 1
force B   0.008943066165673   0.013242212529299   0.044242628324060 1
force B  -0.005088584114615   0.010891478401462  -0.048682323405607 1
force B   0.003846751562893  -0.003738852146682   0.045330024608262 1
force B  -0.004866817568858   0.001716569078142  -0.044265512113798 1
force O  -0.008552548611592   0.003546026962583   0.839351757459021 1
force O   0.002351560886605   0.000563411767927  -0.852589316178658 1
force O   0.003894862387262   0.006411555957642   0.838174433142832 1
force O   0.006676739756398  -0.004108252570773  -0.856505347104839 1
force O   0.001488866833308   0.003406038343966   0.839117137709280 1
force O  -0.006121617588718  -0.004372153807861  -0.856317776314235 1
force O   0.003915362288966  -0.000156912874728   0.835122357877975 1
force O  -0.002832450188518   0.000522509160356  -0.853359046987212 1
force O   0.013668719417121  -0.002082635370328   0.814208862798271 1
force O  -0.008115853010638   0.001459811242732  -0.827814088124846 1
force O   0.003686953700218  -0.027953954125660   0.736902015979183 1
force O  -0.010189852772269  -0.004535460694429  -0.858988386101814 1
force O  -0.021172345029332  -0.002353748087782   0.814511101488108 1
force O   0.011312926840146  -0.004600003143621  -0.858075069823883 1
force O   0.004124447668826  -0.000842310234399   0.854865782055565 1
force O   0.008738411600304   0.001665535300204  -0.829292496791602 1
force O  -0.034444897906695   0.011962363986280   0.650903186214478 1
force O  -0.001322011842572  -0.000038744437736  -0.850466444634314 1
force O   0.003635021518285   0.171832991894895   0.142607773205197 1
force O   0.006866236358777   0.001017486205932  -0.825758728427875 1
force O   0.028388088314439   0.012129452568786   0.651230497809209 1
force O  -0.007285383202323   0.001099285645322  -0.824995964639086 1
force O   0.004060668499158  -0.003587582004708   0.769861969209892 1
force O   0.001603820348717  -0.000248738925477  -0.851283261924905 1
force O  -0.000776168263085  -0.006542332765661   0.849137062682253 1
force O  -0.016717173463243  -0.001516284825053  -0.825786287967972 1
force O   0.003698169013702  -0.003476236857670   0.868109816978993 1
force O  -0.011131305067511   0.008120493022897  -0.870180237245709 1
force O  -0.006524480384483  -0.006505713066949   0.848525089445157 1
force O   0.013277120681427   0.008321261632471  -0.870043754993588 1
force O   0.003442607400735   0.002749582794662   0.846362123056771 1
force O   0.014988924874490  -0.002183273817353  -0.827304862166748 1
force H   0.000100545575081  -0.127586401097378   0.233635356560783 1

# Energy components:
   A_diel =       -1.9479066943123642
   Eewald =    29366.1052145221256069
       EH =    32067.6033794460672652
     Eloc =   -65064.7095649346883874
      Enl =      491.5687576959117564
      Exc =     -476.2553057373486354
 Exc_core =       52.0916207331083712
       KE =      767.1270372317776491
  MuShift =       -0.1085700774310139
-------------------------------------
     Etot =    -2798.5253378147872354
       TS =        0.1073217846256286
-------------------------------------
        F =    -2798.6326595994128184
      muN =     -127.1727978039120188
-------------------------------------
        G =    -2671.4598617955007285

IonicMinimize: Iter:   0  G: -2671.459861795500728  |grad|_K:  9.887e-03  t[s]:   8766.05

#--- Lowdin population analysis ---
# oxidation-state Mo +0.359 +0.360 +0.363 +0.355 +0.363 +0.359 +0.359 +0.364 +0.368 +0.359 +0.343 +0.368 +0.343 +0.359 +0.368 +0.357 +0.358 +0.365 +0.324 +0.356 +0.324 +0.365 +0.358 +0.364 +0.364 +0.359 +0.357 +0.364 +0.357 +0.359 +0.364 +0.354
# oxidation-state B -0.111 -0.111 -0.112 -0.110 -0.112 -0.111 -0.111 -0.110 -0.111 -0.111 -0.112 -0.111 -0.112 -0.111 -0.111 -0.112 -0.112 -0.101 -0.108 -0.108 -0.108 -0.101 -0.112 -0.112 -0.112 -0.105 -0.111 -0.115 -0.111 -0.105 -0.112 -0.111
# oxidation-state O -0.375 -0.375 -0.377 -0.375 -0.375 -0.375 -0.375 -0.375 -0.378 -0.376 -0.408 -0.376 -0.378 -0.376 -0.373 -0.376 -0.372 -0.379 -0.484 -0.379 -0.372 -0.379 -0.373 -0.379 -0.376 -0.375 -0.377 -0.374 -0.376 -0.374 -0.373 -0.375
# oxidation-state H +0.441

Shifting auxilliary hamiltonian by -0.000040 to set nElectrons=742.607072
	Linear fluid (dielectric constant: 78.4, screening length: 5.74355 Bohr) occupying 0.778222 of unit cell:	Completed after 24 iterations at t[s]:   8801.75

-------- Electronic minimization -----------
	Linear fluid (dielectric constant: 78.4, screening length: 5.74355 Bohr) occupying 0.778222 of unit cell:	Completed after 0 iterations at t[s]:   8821.67
	FillingsUpdate:  mu: -0.171251800  nElectrons: 742.607072
ElecMinimize: Iter:   0  G: -2671.102862455642025  |grad|_K:  4.579e-05  alpha:  1.000e+00
	Linear fluid (dielectric constant: 78.4, screening length: 5.74355 Bohr) occupying 0.779627 of unit cell:	Completed after 28 iterations at t[s]:   8899.30
	Linear fluid (dielectric constant: 78.4, screening length: 5.74355 Bohr) occupying 0.778898 of unit cell:	Completed after 24 iterations at t[s]:   8935.02
	FillingsUpdate:  mu: -0.171251800  nElectrons: 742.889389
	SubspaceRotationAdjust: set factor to 0.0442
ElecMinimize: Iter:   1  G: -2671.339538865935538  |grad|_K:  2.382e-05  alpha:  4.143e-01  linmin:  8.310e-05  t[s]:   8976.57
	Linear fluid (dielectric constant: 78.4, screening length: 5.74355 Bohr) occupying 0.779007 of unit cell:	Completed after 18 iterations at t[s]:   9010.77
	Linear fluid (dielectric constant: 78.4, screening length: 5.74355 Bohr) occupying 0.778986 of unit cell:	Completed after 8 iterations at t[s]:   9040.97
	FillingsUpdate:  mu: -0.171251800  nElectrons: 742.961688
	SubspaceRotationAdjust: set factor to 0.0592
ElecMinimize: Iter:   2  G: -2671.390417077980601  |grad|_K:  8.152e-06  alpha:  3.290e-01  linmin: -8.484e-06  t[s]:   9080.43
	Linear fluid (dielectric constant: 78.4, screening length: 5.74355 Bohr) occupying 0.778910 of unit cell:	Completed after 14 iterations at t[s]:   9112.67
	Linear fluid (dielectric constant: 78.4, screening length: 5.74355 Bohr) occupying 0.778813 of unit cell:	Completed after 14 iterations at t[s]:   9143.85
	FillingsUpdate:  mu: -0.171251800  nElectrons: 742.937961
	SubspaceRotationAdjust: set factor to 0.0611
ElecMinimize: Iter:   3  G: -2671.403910812397953  |grad|_K:  6.848e-06  alpha:  7.449e-01  linmin:  1.299e-05  t[s]:   9183.68
	Linear fluid (dielectric constant: 78.4, screening length: 5.74355 Bohr) occupying 0.778852 of unit cell:	Completed after 15 iterations at t[s]:   9217.07
	Linear fluid (dielectric constant: 78.4, screening length: 5.74355 Bohr) occupying 0.778869 of unit cell:	Completed after 14 iterations at t[s]:   9248.68
	FillingsUpdate:  mu: -0.171251800  nElectrons: 743.014466
	SubspaceRotationAdjust: set factor to 0.0735
ElecMinimize: Iter:   4  G: -2671.418833416280449  |grad|_K:  9.434e-06  alpha:  1.167e+00  linmin: -7.228e-06  t[s]:   9288.81
	Linear fluid (dielectric constant: 78.4, screening length: 5.74355 Bohr) occupying 0.778366 of unit cell:	Completed after 19 iterations at t[s]:   9323.04
	Linear fluid (dielectric constant: 78.4, screening length: 5.74355 Bohr) occupying 0.778528 of unit cell:	Completed after 16 iterations at t[s]:   9355.79
	FillingsUpdate:  mu: -0.171251800  nElectrons: 742.939837
	SubspaceRotationAdjust: set factor to 0.0791
ElecMinimize: Iter:   5  G: -2671.438834757283075  |grad|_K:  1.160e-05  alpha:  8.230e-01  linmin:  7.588e-07  t[s]:   9396.09
	Linear fluid (dielectric constant: 78.4, screening length: 5.74355 Bohr) occupying 0.777778 of unit cell:	Completed after 21 iterations at t[s]:   9430.67
	Linear fluid (dielectric constant: 78.4, screening length: 5.74355 Bohr) occupying 0.778072 of unit cell:	Completed after 16 iterations at t[s]:   9463.30
	FillingsUpdate:  mu: -0.171251800  nElectrons: 742.798324
	SubspaceRotationAdjust: set factor to 0.0835
ElecMinimize: Iter:   6  G: -2671.458371829510270  |grad|_K:  8.955e-06  alpha:  5.323e-01  linmin: -4.742e-07  t[s]:   9503.20
	Linear fluid (dielectric constant: 78.4, screening length: 5.74355 Bohr) occupying 0.778105 of unit cell:	Completed after 16 iterations at t[s]:   9536.41
	Linear fluid (dielectric constant: 78.4, screening length: 5.74355 Bohr) occupying 0.778107 of unit cell:	Completed after 10 iterations at t[s]:   9567.52
	FillingsUpdate:  mu: -0.171251800  nElectrons: 742.787922
	SubspaceRotationAdjust: set factor to 0.0895
ElecMinimize: Iter:   7  G: -2671.471617237351893  |grad|_K:  5.940e-06  alpha:  6.056e-01  linmin: -1.339e-05  t[s]:   9607.22
	Linear fluid (dielectric constant: 78.4, screening length: 5.74355 Bohr) occupying 0.777819 of unit cell:	Completed after 18 iterations at t[s]:   9641.19
	Linear fluid (dielectric constant: 78.4, screening length: 5.74355 Bohr) occupying 0.777900 of unit cell:	Completed after 14 iterations at t[s]:   9673.24
[...]
ElecMinimize: Iter:  24  G: -2671.495975228664520  |grad|_K:  1.940e-08  alpha:  9.176e-02  linmin:  2.231e-03  t[s]:  70238.49
	Linear fluid (dielectric constant: 78.4, screening length: 5.74355 Bohr) occupying 0.777589 of unit cell:	Completed after 0 iterations at t[s]:  70268.86
ElecMinimize: 	Predicted alpha/alphaT>3.000000, increasing alphaT to 2.752762e-01.
	Linear fluid (dielectric constant: 78.4, screening length: 5.74355 Bohr) occupying 0.777588 of unit cell:	Completed after 0 iterations at t[s]:  70295.05
	Linear fluid (dielectric constant: 78.4, screening length: 5.74355 Bohr) occupying 0.777588 of unit cell:	Completed after 0 iterations at t[s]:  70321.39
	FillingsUpdate:  mu: -0.171251800  nElectrons: 743.425321
	SubspaceRotationAdjust: set factor to 0.0892
ElecMinimize: Iter:  25  G: -2671.495975249774801  |grad|_K:  1.211e-08  alpha:  2.780e-01  linmin:  1.964e-06  t[s]:  70359.04
	Linear fluid (dielectric constant: 78.4, screening length: 5.74355 Bohr) occupying 0.777587 of unit cell:	Completed after 0 iterations at t[s]:  70389.15
	Linear fluid (dielectric constant: 78.4, screening length: 5.74355 Bohr) occupying 0.777587 of unit cell:	Completed after 0 iterations at t[s]:  70415.00
	FillingsUpdate:  mu: -0.171251800  nElectrons: 743.424935
	SubspaceRotationAdjust: set factor to 0.105
ElecMinimize: Iter:  26  G: -2671.495975266573623  |grad|_K:  1.074e-08  alpha:  4.199e-01  linmin: -1.547e-05  t[s]:  70452.56
	Linear fluid (dielectric constant: 78.4, screening length: 5.74355 Bohr) occupying 0.777586 of unit cell:	Completed after 1 iterations at t[s]:  70482.82
	Linear fluid (dielectric constant: 78.4, screening length: 5.74355 Bohr) occupying 0.777587 of unit cell:	Completed after 0 iterations at t[s]:  70509.45
ElecMinimize: 	Step increased G by 2.373372e-08, reducing alpha to 9.725668e-03.
	Linear fluid (dielectric constant: 78.4, screening length: 5.74355 Bohr) occupying 0.777587 of unit cell:	Completed after 0 iterations at t[s]:  70569.94
ElecMinimize: 	Step increased G by 2.362231e-08, reducing alpha to 9.725668e-04.
	Linear fluid (dielectric constant: 78.4, screening length: 5.74355 Bohr) occupying 0.777587 of unit cell:	Completed after 0 iterations at t[s]:  70629.90
ElecMinimize: 	Step increased G by 2.360139e-08, reducing alpha to 9.725668e-05.
ElecMinimize: 	Step failed to reduce G after 3 attempts. Quitting step.
ElecMinimize: 	Undoing step.
	Linear fluid (dielectric constant: 78.4, screening length: 5.74355 Bohr) occupying 0.777587 of unit cell:	Completed after 0 iterations at t[s]:  70690.71
ElecMinimize: 	Step failed: resetting search direction.
	FillingsUpdate:  mu: -0.171251800  nElectrons: 743.424935
	SubspaceRotationAdjust: set factor to 0.103
ElecMinimize: Iter:  27  G: -2671.495975242955410  |grad|_K:  1.455e-08  alpha:  9.726e-05
	Linear fluid (dielectric constant: 78.4, screening length: 5.74355 Bohr) occupying 0.777589 of unit cell:	Completed after 0 iterations at t[s]:  70758.51
	Linear fluid (dielectric constant: 78.4, screening length: 5.74355 Bohr) occupying 0.777588 of unit cell:	Completed after 0 iterations at t[s]:  70784.82
	FillingsUpdate:  mu: -0.171251800  nElectrons: 743.425697
	SubspaceRotationAdjust: set factor to 0.0692
ElecMinimize: Iter:  28  G: -2671.495975261613694  |grad|_K:  1.244e-08  alpha:  3.657e-01  linmin: -1.251e-02  t[s]:  70822.32
	Linear fluid (dielectric constant: 78.4, screening length: 5.74355 Bohr) occupying 0.777592 of unit cell:	Completed after 1 iterations at t[s]:  70852.76
	Linear fluid (dielectric constant: 78.4, screening length: 5.74355 Bohr) occupying 0.777590 of unit cell:	Completed after 0 iterations at t[s]:  70879.53
	FillingsUpdate:  mu: -0.171251800  nElectrons: 743.426515
	SubspaceRotationAdjust: set factor to 0.071
ElecMinimize: Iter:  29  G: -2671.495975268379425  |grad|_K:  7.593e-09  alpha:  2.170e-01  linmin:  9.439e-04  t[s]:  70917.26
	Linear fluid (dielectric constant: 78.4, screening length: 5.74355 Bohr) occupying 0.777591 of unit cell:	Completed after 0 iterations at t[s]:  70947.08
	Linear fluid (dielectric constant: 78.4, screening length: 5.74355 Bohr) occupying 0.777591 of unit cell:	Completed after 0 iterations at t[s]:  70973.22
	FillingsUpdate:  mu: -0.171251800  nElectrons: 743.426986
	SubspaceRotationAdjust: set factor to 0.0877
ElecMinimize: Iter:  30  G: -2671.495975273594013  |grad|_K:  5.280e-09  alpha:  3.646e-01  linmin:  1.472e-04  t[s]:  71011.00
ElecMinimize: Converged (|Delta G|<1.000000e-08 for 2 iters).
Setting wave functions to eigenvectors of Hamiltonian

# Ionic positions in lattice coordinates:
ion Mo   0.000098628823476   0.124851914071271   0.570482615268104 1
ion Mo   0.125411475959992   0.124692344127348   0.430644720231337 1
ion Mo   0.250143995392211   0.124906752408805   0.570640824681027 1
ion Mo   0.375221724870886   0.124725757036574   0.430735521853933 1
ion Mo   0.500246505091082   0.124904966732292   0.570622895864674 1
ion Mo   0.624942387210897   0.124695599028198   0.430647624784731 1
ion Mo   0.750292759063029   0.124854716022959   0.570499848686112 1
ion Mo   0.875226000090672   0.124726610950824   0.430478249141247 1
ion Mo   0.000133463065487   0.375002909166186   0.570275918543231 1
ion Mo   0.125393618515556   0.374565969186679   0.430298518633675 1
ion Mo   0.250072410535739   0.375696516801627   0.570157629257943 1
ion Mo   0.375212037964791   0.374536838854112   0.430297572179147 1
ion Mo   0.500284309753005   0.375699383182781   0.570146642675586 1
ion Mo   0.624935505416721   0.374571506162992   0.430303920430204 1
ion Mo   0.750225751889614   0.375007624703819   0.570289265773899 1
ion Mo   0.875211029705152   0.374527107381969   0.430194874243344 1
ion Mo  -0.000506066597217   0.624521778365700   0.569742403118135 1
ion Mo   0.125436586549262   0.624907195385563   0.429891255508388 1
ion Mo   0.245644501796205   0.623901869786097   0.569505473875826 1
ion Mo   0.375191305766925   0.624909814283188   0.430168088741464 1
ion Mo   0.504614442412957   0.623894068276621   0.569481244237594 1
ion Mo   0.624868305245283   0.624910260415154   0.429891950493191 1
ion Mo   0.750812160891050   0.624519539361192   0.569759121151871 1
ion Mo   0.875202853609002   0.624863647092631   0.429860976610437 1
ion Mo   0.000144700183961   0.874527722492046   0.570489217200157 1
ion Mo   0.125425455366515   0.874854343744156   0.430591050919321 1
ion Mo   0.250274579937504   0.874497907831336   0.570505920776666 1
ion Mo   0.375211485373994   0.874784711080713   0.430807254544548 1
ion Mo   0.500090526744189   0.874497169545798   0.570491799603276 1
ion Mo   0.624897756610626   0.874849461665531   0.430598826214883 1
ion Mo   0.750217122079499   0.874527762764582   0.570504472814122 1
ion Mo   0.875208406440838   0.874922652304705   0.430471029039783 1
ion B   0.000267744334728  -0.000238048944619   0.479031253224024 1
ion B   0.125269200872207  -0.000287524457014   0.522284700205347 1
ion B   0.250226307873775  -0.000241773765572   0.479100470903331 1
ion B   0.375149236608935  -0.000253277388478   0.522385891583224 1
ion B   0.500162847541872  -0.000237555145111   0.479139779146102 1
ion B   0.625209614588688  -0.000283500596768   0.522287386628874 1
ion B   0.750123948085086  -0.000237479123614   0.478997170956072 1
ion B   0.875149894542614  -0.000275337353174   0.522180375101498 1
ion B   0.000303789788272   0.249785313693570   0.478906875874823 1
ion B   0.125296468556192   0.249873045601366   0.522147268711587 1
ion B   0.250271621416364   0.249821721868860   0.479010696754484 1
ion B   0.375148347859604   0.250120443521573   0.522345620034528 1
ion B   0.500114544524426   0.249823116863293   0.479048014411970 1
ion B   0.625179806787945   0.249871570025313   0.522148513399740 1
ion B   0.750089920476745   0.249783741944902   0.478874720815999 1
ion B   0.875150557674835   0.249802731869128   0.522017077430465 1
ion B   0.000187341444873   0.499864698194919   0.478301253568257 1
ion B   0.125250941356148   0.499532415062676   0.521345985094751 1
ion B   0.250601146577888   0.499967191667407   0.478419105282656 1
ion B   0.375117201849156   0.500748738714417   0.522324181425029 1
ion B   0.499718938281154   0.499970089372882   0.478445240233454 1
ion B   0.625162678088406   0.499544423833385   0.521343172681482 1
ion B   0.750159718694792   0.499870234982134   0.478282066253856 1
ion B   0.875130720992273   0.499511457145707   0.521456201247109 1
ion B   0.000156679726484   0.749616297326097   0.478580098958033 1
ion B   0.125056914123940   0.749837397634850   0.521781853310153 1
ion B   0.250677274848217   0.749251872461174   0.479135494971781 1
ion B   0.375116797136645   0.748319886566137   0.523236168706330 1
ion B   0.499641436249488   0.749255581041085   0.479174950998520 1
ion B   0.625359549688225   0.749825395560933   0.521783785871298 1
ion B   0.750185744066324   0.749607169039697   0.478557221937803 1
ion B   0.875127806120318   0.749901563228682   0.521725380673529 1
ion O   0.125026512698694   0.125016091818396   0.638996375356967 1
ion O   0.000135893749923   0.124621420151358   0.362115841366914 1
ion O   0.375283521087216   0.125415159080610   0.639089319587887 1
ion O   0.250312713582939   0.124624305696986   0.362151635213056 1
ion O   0.625199825957315   0.125016759221588   0.638994920847627 1
ion O   0.500105230036300   0.124625003431202   0.362142922517067 1
ion O   0.875288931866304   0.124886172814929   0.638968988771291 1
ion O   0.750287869963712   0.124625696291805   0.362129031300601 1
ion O   0.124980452485409   0.375670722484594   0.638780348436147 1
ion O   0.000301442623182   0.374237183036057   0.361806763490409 1
ion O   0.375279124577592   0.378524053681348   0.639391868202154 1
ion O   0.250450651488947   0.374560592166747   0.361765645658989 1
ion O   0.625210384956278   0.375669658637121   0.638781289659301 1
ion O   0.499962724268888   0.374556657015365   0.361754527336887 1
ion O   0.875268626712658   0.375025645718700   0.638676116341871 1
ion O   0.750056921393781   0.374252466791079   0.361823676148972 1
ion O   0.125218027859362   0.623391710502220   0.638407740143807 1
ion O   0.000265551968039   0.625090160892426   0.361394487846411 1
ion O   0.375246851883158   0.626351485357797   0.644668225895538 1
ion O   0.250272818791213   0.625128328703122   0.361507439526282 1
ion O   0.624907253411247   0.623378941244256   0.638402845795569 1
ion O   0.500077123468989   0.625137586913877   0.361499248517785 1
ion O   0.875239212211415   0.624464069632080   0.638172916989489 1
ion O   0.750074154931990   0.625086586462251   0.361412268123617 1
ion O   0.124797670951775   0.874219740641418   0.638983742199550 1
ion O   0.000428106883038   0.875268068543695   0.362087409351611 1
ion O   0.375274364433671   0.874103554579686   0.639135717861389 1
ion O   0.250504171048398   0.874803036137396   0.362168759608906 1
ion O   0.625400446132902   0.874221337485138   0.638984458253751 1
ion O   0.499909969572854   0.874803260627259   0.362160737740845 1
ion O   0.875270723144503   0.874442905349717   0.638914848254099 1
ion O   0.749901126030335   0.875254565061946   0.362103799300152 1
ion H   0.375291198292512   0.568828847168572   0.679531721861009 1


# Forces in Lattice coordinates:
force Mo  -0.001102285399129  -0.000270891095765  -0.008456378432454 1
force Mo  -0.000078522579269   0.000662226497918  -0.002503370529647 1
force Mo  -0.001402456913025   0.000025697602737  -0.003598216232427 1
force Mo  -0.000004043314496   0.001803554907078  -0.001983700300320 1
force Mo   0.001292916987185   0.000021912441118  -0.003120550208603 1
force Mo   0.000057967549523   0.000571943027685  -0.002621735351362 1
force Mo   0.001167637268960  -0.000290979912222  -0.008924262278552 1
force Mo  -0.000123981235852  -0.000528343378238  -0.001486329185988 1
force Mo   0.002395582655874  -0.000784834467839   0.000253036326057 1
force Mo  -0.002789456001751   0.000792882040029   0.003735597932727 1
force Mo   0.002157379770086  -0.001012826047750  -0.000936381861995 1
force Mo  -0.000162350957012   0.001520341942858  -0.002305157005672 1
force Mo  -0.002326406776190  -0.001106021394800  -0.000709891718302 1
force Mo   0.002673651125651   0.000797719009440   0.003865914648759 1
force Mo  -0.002524895886286  -0.000860861878479   0.000371276207432 1
force Mo  -0.000040102722304  -0.000665973028543   0.004986235660947 1
force Mo  -0.000445617299683  -0.000042011397746  -0.001609967875295 1
force Mo   0.000893223262629  -0.000503367742882   0.002866590722026 1
force Mo   0.001239803829144  -0.001100136020072   0.003058324623900 1
force Mo  -0.000157571625598  -0.002394587952526   0.002875316646869 1
force Mo  -0.001284843510708  -0.000854884740808   0.003500005811623 1
force Mo  -0.001152360541153  -0.000560877052829   0.002973029739026 1
force Mo   0.000435940069873   0.000000753771076  -0.001677472249164 1
force Mo  -0.000227194465981   0.000087028070688   0.004661077976147 1
force Mo   0.000011022534121   0.001258609494325  -0.006321408335521 1
force Mo  -0.004004546344409  -0.000491227727062   0.000182065518771 1
force Mo  -0.000388279970489   0.001091014756873  -0.004162190845282 1
force Mo  -0.000178716062858  -0.001270791591552  -0.005088685612823 1
force Mo   0.000264512538782   0.001071877833433  -0.003541699394512 1
force Mo   0.003913441520349  -0.000461897193144   0.000066702631353 1
force Mo  -0.000105932407642   0.001309041682700  -0.006219761298281 1
force Mo  -0.000033522127640   0.001907115514924   0.002269247377247 1
force B   0.000028351265742  -0.001224786970521  -0.005519877230422 1
force B  -0.000005936783567  -0.000324689081108  -0.000681780658415 1
force B  -0.000050387863396   0.000238876356868  -0.004476007091729 1
force B  -0.000061299664016  -0.001469306089441   0.001211343270518 1
force B  -0.000200791153970   0.000374983608652  -0.005023496864575 1
force B  -0.000303011150080  -0.000413999338349  -0.000732797616073 1
force B  -0.000149174710295  -0.001155618319701  -0.004988579938761 1
force B  -0.000002690396799   0.001120386226203  -0.002525149835241 1
force B  -0.000324165368408   0.001031624223734  -0.004801030705964 1
force B  -0.000189821526918  -0.001087663699584  -0.000086573584926 1
force B  -0.000234292388133  -0.000904828746194  -0.002078019902258 1
force B  -0.000044131209200  -0.000025126737225   0.001022404866582 1
force B   0.000076696985476  -0.000894004293909  -0.002399155859650 1
force B  -0.000012837541128  -0.000885020746334  -0.000081509079228 1
force B   0.000155441470368   0.000989365855097  -0.004299977246064 1
force B   0.000029109160000  -0.002500071046660  -0.000544364620228 1
force B  -0.000752947251910   0.000276807724831  -0.002696024176982 1
force B  -0.001314883910282   0.000810820661763  -0.000315673342931 1
force B  -0.000859744240919   0.000477406042311  -0.002722395589142 1
force B  -0.000015203144719   0.000165149482653   0.000653535380659 1
force B   0.000767756284885   0.000564650903915  -0.002952528704044 1
force B   0.001066704664875   0.000595202109683  -0.000049287414025 1
force B   0.000627660175392   0.000310642771800  -0.002537266490868 1
force B   0.000043425646443   0.002123613176218   0.001966687516563 1
force B  -0.000412221910430   0.000553341582157  -0.003314982995928 1
force B  -0.000777136902381   0.000370060067010  -0.000044621103338 1
force B  -0.000449577901102  -0.000764246011364  -0.002333279995178 1
force B   0.000003895941226   0.000213698120743   0.001631996791886 1
force B   0.000358824296854  -0.000930869808029  -0.002777343435155 1
force B   0.000622724113144   0.000394016688531   0.000069078474193 1
force B   0.000385666830917   0.000497214874864  -0.002936643694387 1
force B   0.000069448688568  -0.000207206521340  -0.000473503563378 1
force O   0.000215670870263  -0.000841499393661  -0.002411997104765 1
force O   0.000067634176400   0.000777929602251  -0.002373413687060 1
force O  -0.000154260753547  -0.002118184120761  -0.002988344269230 1
force O  -0.000283651329627   0.000920888809954  -0.004857288561887 1
force O  -0.000062325437724  -0.000846703754972  -0.001840666628453 1
force O   0.000227062206941   0.000914076755761  -0.004364860230339 1
force O  -0.000231536969923   0.000168874779265  -0.002264259700112 1
force O  -0.000202063487157   0.000775100857673  -0.002903276165938 1
force O   0.000127567792358  -0.000874156632741   0.000926816921258 1
force O  -0.000247193274062   0.001396029257177  -0.002381410435756 1
force O  -0.000228407761161  -0.001606022866040   0.002759765704031 1
force O  -0.000283479755017   0.001331867088874  -0.001552726652605 1
force O   0.000041053477080  -0.000880396393693   0.000675460523162 1
force O   0.000015634630012   0.001371868268625  -0.000718308556557 1
force O  -0.000227045653593   0.000115195437863   0.001168362097587 1
force O   0.000178351969556   0.001339691068036  -0.002943985003061 1
force O   0.001710789191305  -0.000911911800931   0.001744199717908 1
force O   0.000074209411385  -0.000859633786103  -0.003001266745549 1
force O  -0.000325179907326   0.006473334723015  -0.008444716360555 1
force O  -0.000515818832132   0.000093043719805  -0.007124564236459 1
force O  -0.001483593315679  -0.000924054383487   0.001812696228217 1
force O   0.000572607943294   0.000088656859962  -0.006573901483527 1
force O  -0.000189997276085   0.001341575325800   0.006001183086170 1
force O  -0.000305034493588  -0.000813360789549  -0.003758445265657 1
force O   0.000279525792001   0.001323216163664  -0.000988341416186 1
force O   0.000533229057751  -0.000862685942405  -0.001986711547197 1
force O  -0.000225491485570   0.001296145114339  -0.000006832435105 1
force O   0.000404627972322  -0.002220188786568  -0.000766065140823 1
force O  -0.000133756818878   0.001347699452032  -0.001050497478154 1
force O  -0.000642480310199  -0.002256429733487  -0.000100307532449 1
force O  -0.000197223159200  -0.000273768069958  -0.003755065076795 1
force O  -0.000572371341883  -0.000791245875294  -0.002361501292334 1
force H   0.000098444997408  -0.000565156682768   0.019142240062306 1

# Energy components:
   A_diel =       -2.4408096956936438
   Eewald =    29251.4673388436058303
       EH =    32002.6492459120599960
     Eloc =   -64883.2566734758147504
      Enl =      491.2263722914582331
      Exc =     -475.8801067322112885
 Exc_core =       52.0914797958849078
       KE =      765.5629074902064986
  MuShift =       -0.1244461101025783
-------------------------------------
     Etot =    -2798.7046916806079935
       TS =        0.1044930422238338
-------------------------------------
        F =    -2798.8091847228320148
      muN =     -127.3132094492378030
-------------------------------------
        G =    -2671.4959752735940128

IonicMinimize: Iter:  15  G: -2671.495975273594013  |grad|_K:  6.808e-05  alpha:  1.000e+00  linmin: -4.130e-01  t[s]:  71033.74
IonicMinimize: Converged (|grad|_K<1.000000e-04).

#--- Lowdin population analysis ---
# oxidation-state Mo +0.355 +0.352 +0.354 +0.353 +0.354 +0.352 +0.354 +0.355 +0.355 +0.353 +0.340 +0.355 +0.341 +0.353 +0.355 +0.355 +0.353 +0.355 +0.327 +0.350 +0.327 +0.355 +0.352 +0.354 +0.356 +0.353 +0.349 +0.352 +0.350 +0.353 +0.355 +0.354
# oxidation-state B -0.109 -0.109 -0.109 -0.109 -0.109 -0.109 -0.109 -0.109 -0.109 -0.109 -0.109 -0.109 -0.109 -0.109 -0.109 -0.109 -0.109 -0.100 -0.107 -0.108 -0.107 -0.100 -0.109 -0.109 -0.110 -0.103 -0.108 -0.114 -0.108 -0.103 -0.110 -0.109
# oxidation-state O -0.397 -0.399 -0.399 -0.398 -0.397 -0.398 -0.397 -0.399 -0.401 -0.398 -0.435 -0.399 -0.401 -0.399 -0.395 -0.398 -0.384 -0.401 -0.493 -0.399 -0.384 -0.399 -0.389 -0.401 -0.400 -0.398 -0.402 -0.398 -0.400 -0.397 -0.396 -0.398
# oxidation-state H +0.441


Dumping 'NbTe2.fillings' ... done
Dumping 'NbTe2.wfns' ... done
Dumping 'NbTe2.fluidState' ... done
Dumping 'NbTe2.ionpos' ... done
Dumping 'NbTe2.eigenvals' ... done
End date and time: Thu Apr 15 09:55:50 2021  (Duration: 0-19:44:08.37)
Done!
