
*************** JDFTx 1.5.0  ***************

Start date and time: Thu Jul  9 18:48:05 2020
Executable jdftx_gpu with command-line: -i Neutral.in -o Neutral.out
Running on hosts (process indices):  amax (0)
Divided in process groups (process indices):  0 (0)
gpuInit: Found compatible cuda device 0 'Tesla K80'
gpuInit: Selected device 0
Resource initialization completed at t[s]:      8.41
Run totals: 1 processes, 24 threads, 1 GPUs


Input parsed successfully to the following command list (including defaults):

basis kpoint-dependent
cache-projectors no
coords-type Lattice
core-overlap-check none
coulomb-interaction Slab 001
coulomb-truncation-embed 0 0 0.5
davidson-band-ratio 1.1
dump End State
dump-name NbTe2.$VAR
elec-cutoff 20 100
elec-eigen-algo Davidson
elec-ex-corr gga-PBE
elec-smearing Gauss 0.0073499
electronic-minimize  \
	dirUpdateScheme      FletcherReeves \
	linminMethod         DirUpdateRecommended \
	nIterations          100 \
	history              15 \
	knormThreshold       0 \
	energyDiffThreshold  1e-08 \
	nEnergyDiff          2 \
	alphaTstart          1 \
	alphaTmin            1e-10 \
	updateTestStepSize   yes \
	alphaTreduceFactor   0.1 \
	alphaTincreaseFactor 3 \
	nAlphaAdjustMax      3 \
	wolfeEnergy          0.0001 \
	wolfeGradient        0.9 \
	fdTest               no
electronic-scf  \
	nIterations	500 \
	energyDiffThreshold	1e-08 \
	residualThreshold	1e-07 \
	mixFraction	0.5 \
	qMetric	0.8 \
	history	10 \
	nEigSteps	2 \
	eigDiffThreshold	1e-08 \
	mixedVariable	Density \
	qKerker	0.8 \
	qKappa	-1 \
	verbose	no \
	mixFractionMag	1.5
exchange-regularization WignerSeitzTruncated
fluid LinearPCM 298.000000 1.013250
fluid-anion F- 1 MeanFieldLJ \
	epsBulk 1 \
	pMol 0 \
	epsInf 1 \
	Pvap 0 \
	sigmaBulk 0 \
	Rvdw 2.24877 \
	Res 0 \
	tauNuc 343133
fluid-cation Na+ 1 MeanFieldLJ \
	epsBulk 1 \
	pMol 0 \
	epsInf 1 \
	Pvap 0 \
	sigmaBulk 0 \
	Rvdw 2.19208 \
	Res 0 \
	tauNuc 343133
fluid-ex-corr lda-TF lda-PZ
fluid-gummel-loop 10 1.000000e-05
fluid-minimize  \
	dirUpdateScheme      PolakRibiere \
	linminMethod         DirUpdateRecommended \
	nIterations          400 \
	history              15 \
	knormThreshold       1e-11 \
	energyDiffThreshold  0 \
	nEnergyDiff          2 \
	alphaTstart          1 \
	alphaTmin            1e-10 \
	updateTestStepSize   yes \
	alphaTreduceFactor   0.1 \
	alphaTincreaseFactor 3 \
	nAlphaAdjustMax      6 \
	wolfeEnergy          0.0001 \
	wolfeGradient        0.9 \
	fdTest               no
fluid-solvent H2O 55.338 ScalarEOS \
	epsBulk 78.4 \
	pMol 0.92466 \
	epsInf 1.77 \
	Pvap 1.06736e-10 \
	sigmaBulk 4.62e-05 \
	Rvdw 2.61727 \
	Res 1.42 \
	tauNuc 343133 \
	poleEl 15 7 1
forces-output-coords Positions
initial-state NbTe2.$VAR
ion Bi   0.168118595450887   0.333192594289291   0.637652498768168 0
ion Bi   0.665066687199559   0.333168622103996   0.637653663284594 0
ion Bi   0.168002783200000   0.835828345638053   0.637601990871643 0
ion Bi   0.666985438805325   0.833832482521201   0.637458319847190 0
ion Bi   0.333042119470115   0.165949588195415   0.362605214679335 0
ion Bi   0.833176911745088   0.166224803600423   0.362505662089445 0
ion Bi   0.333134552471013   0.666181536594055   0.362510203317751 0
ion Bi   0.833062261112778   0.666181528450659   0.362512097926076 0
ion Bi  -0.000258522156768  -0.000603118932214   0.252838387230989 0
ion Bi   0.499755159400547  -0.000522075429243   0.252845284181049 0
ion Bi  -0.000200856450899   0.499400257861816   0.252857437374895 0
ion Bi   0.499682551967384   0.499313468387335   0.252820934235648 0
ion Bi   0.987612107157065   0.994501134165175   0.746333154861433 0
ion Bi   0.507016056687301   0.994500319754874   0.746327727318392 0
ion Bi   0.000589786248912   0.501033755987568   0.747319384951721 0
ion Bi   0.507094726453671   0.513838362460472   0.746362625782501 0
ion Bi   0.333294509821071   0.166639879870066   0.523250707313796 0
ion Bi   0.832961899423284   0.166040305206576   0.523339606501883 0
ion Bi   0.333206179684479   0.666574633731346   0.523487967454916 0
ion Bi   0.832877065947242   0.666970526083527   0.523384389708848 0
ion Bi   0.166580575346427   0.333331827317786   0.477867371401499 0
ion Bi   0.666709579667197   0.333370322391053   0.477859084961405 0
ion Bi   0.166493340973416   0.833167993866078   0.477888165771099 0
ion Bi   0.666049491164774   0.832991841274723   0.477734195371829 0
ion Te   0.168839598495937   0.332478777688659   0.791163228861392 0
ion Te   0.663849298451045   0.332543539042863   0.791177167078318 0
ion Te   0.168807536947332   0.837461615291094   0.791183766093907 0
ion Te   0.332990743368506   0.166010429532558   0.206677217634342 0
ion Te   0.833069987163946   0.166096661351279   0.206695324651801 0
ion Te   0.333063282747327   0.666091640124800   0.206680122843535 0
ion Te   0.833062520723010   0.666050575320489   0.206688880333000 0
ion Te  -0.000322217840061  -0.000496485992556   0.409504487123089 0
ion Te   0.499839966522614  -0.000501137368487   0.409505230134529 0
ion Te  -0.000211830620012   0.499566919358055   0.409531652634725 0
ion Te   0.499771943537614   0.499547581420955   0.409486663372087 0
ion Te   0.000300159478731   0.000549838119626   0.590403053083716 0
ion Te   0.500327104841109   0.000510891762482   0.590395325914411 0
ion Te   0.000197487849204   0.500444378198113   0.590829480483924 0
ion Te   0.500211651105864   0.500391571080168   0.590407498341265 0
ion Te   0.333690575324262   0.167347984674059   0.694174827882877 0
ion Te   0.833513197172773   0.166948450288293   0.690891438827673 0
ion Te   0.333776282993890   0.667301956185211   0.690890838872926 0
ion Te   0.833602427572719   0.667284559721949   0.690885070326017 0
ion Te   0.166280005466398   0.332433021485706   0.308203747102711 0
ion Te   0.666165139589606   0.332469050752038   0.308206182344962 0
ion Te   0.166219547538581   0.832544952041672   0.308213824609390 0
ion Te   0.666244001779715   0.832501789530949   0.308247026243251 0
ion-species GBRV/$ID_pbe.uspp
ion-width Ecut
ionic-minimize  \
	dirUpdateScheme      L-BFGS \
	linminMethod         DirUpdateRecommended \
	nIterations          0 \
	history              15 \
	knormThreshold       0.0001 \
	energyDiffThreshold  1e-06 \
	nEnergyDiff          2 \
	alphaTstart          1 \
	alphaTmin            1e-10 \
	updateTestStepSize   yes \
	alphaTreduceFactor   0.1 \
	alphaTincreaseFactor 3 \
	nAlphaAdjustMax      3 \
	wolfeEnergy          0.0001 \
	wolfeGradient        0.9 \
	fdTest               no
kpoint   0.000000000000   0.000000000000   0.000000000000  1.00000000000000
kpoint-folding 4 4 1 
latt-move-scale 1 1 1
latt-scale 1 1 1 
lattice Triclinic 16.7546 16.7531 69.7863 90 90 120.003
lattice-minimize  \
	dirUpdateScheme      L-BFGS \
	linminMethod         DirUpdateRecommended \
	nIterations          0 \
	history              15 \
	knormThreshold       0 \
	energyDiffThreshold  1e-06 \
	nEnergyDiff          2 \
	alphaTstart          1 \
	alphaTmin            1e-10 \
	updateTestStepSize   yes \
	alphaTreduceFactor   0.1 \
	alphaTincreaseFactor 3 \
	nAlphaAdjustMax      3 \
	wolfeEnergy          0.0001 \
	wolfeGradient        0.9 \
	fdTest               no
lcao-params -1 1e-06 0.0073499
pcm-variant CANDLE
spintype no-spin
subspace-rotation-factor 1 yes
symmetries automatic
symmetry-threshold 0.0001



---------- Setting up symmetries ----------

Non-trivial transmission matrix:
[   1   0   0  ]
[   1   1   0  ]
[   0   0   1  ]
with reduced lattice vectors:
[      8.377278     -8.377279      0.000000  ]
[     14.508235     14.508235      0.000000  ]
[      0.000000      0.000000     69.786277  ]

Found 24 point-group symmetries of the bravais lattice
Found 1 space-group symmetries with basis
Applied RMS atom displacement 0 bohrs to make symmetries exact.

---------- Initializing the Grid ----------
R = 
[    16.7546   -8.37728          0  ]
[          0    14.5082          0  ]
[          0          0    69.7863  ]
unit cell volume = 16963.6
G =
[   0.375014   0.216539         -0  ]
[          0   0.433077          0  ]
[          0         -0  0.0900347  ]
Minimum fftbox size, Smin = [  76  76  316  ]
Chosen fftbox size, S = [  80  80  320  ]

---------- Initializing tighter grid for wavefunction operations ----------
R = 
[    16.7546   -8.37728          0  ]
[          0    14.5082          0  ]
[          0          0    69.7863  ]
unit cell volume = 16963.6
G =
[   0.375014   0.216539         -0  ]
[          0   0.433077          0  ]
[          0         -0  0.0900347  ]
Minimum fftbox size, Smin = [  68  68  284  ]
Chosen fftbox size, S = [  70  70  288  ]

---------- Exchange Correlation functional ----------
Initalized PBE GGA exchange.
Initalized PBE GGA correlation.

---------- Setting up pseudopotentials ----------
Width of ionic core gaussian charges (only for fluid interactions / plotting) set to 0.397384

Reading pseudopotential file '/home/guoxy/vasp/jdftx-1.5.0/build/pseudopotentials/GBRV/bi_pbe.uspp':
  Title: Bi.  Created by USPP 7.3.6 on 14-9-2013
  Reference state energy: -92.204004.  15 valence electrons in orbitals:
    |520>  occupation: 10  eigenvalue: -1.293263
    |600>  occupation: 2  eigenvalue: -0.812524
    |610>  occupation: 2  eigenvalue: -0.420386
  lMax: 2  lLocal: 3  QijEcut: 5
  6 projectors sampled on a log grid with 747 points:
    l: 0  eig: -0.812524  rCut: 2.5
    l: 0  eig: 0.500000  rCut: 2.5
    l: 1  eig: -0.420386  rCut: 2.5
    l: 1  eig: 1.000000  rCut: 2.5
    l: 2  eig: -1.293263  rCut: 2.3
    l: 2  eig: -0.500000  rCut: 2.3
  Partial core density with radius 1
  Transforming core density to a uniform radial grid of dG=0.02 with 1670 points.
  Transforming local potential to a uniform radial grid of dG=0.02 with 1670 points.
  Transforming nonlocal projectors to a uniform radial grid of dG=0.02 with 432 points.
  Transforming density augmentations to a uniform radial grid of dG=0.02 with 1670 points.
  Transforming atomic orbitals to a uniform radial grid of dG=0.02 with 432 points.
  Core radius for overlap checks: 2.50 bohrs.

Reading pseudopotential file '/home/guoxy/vasp/jdftx-1.5.0/build/pseudopotentials/GBRV/te_pbe.uspp':
  Title: Te.  Created by USPP 7.3.6 on 14-9-2013
  Reference state energy: -13.134220.  6 valence electrons in orbitals:
    |500>  occupation: 2  eigenvalue: -0.555231
    |510>  occupation: 4  eigenvalue: -0.218781
  lMax: 2  lLocal: 2  QijEcut: 5
  5 projectors sampled on a log grid with 723 points:
    l: 0  eig: -0.555229  rCut: 2.1
    l: 0  eig: 1.000000  rCut: 2.1
    l: 1  eig: -0.218780  rCut: 2.1
    l: 1  eig: 1.000000  rCut: 2.1
    l: 2  eig: 1.000000  rCut: 2.6
  Partial core density with radius 1.8
  Transforming core density to a uniform radial grid of dG=0.02 with 1670 points.
  Transforming local potential to a uniform radial grid of dG=0.02 with 1670 points.
  Transforming nonlocal projectors to a uniform radial grid of dG=0.02 with 432 points.
  Transforming density augmentations to a uniform radial grid of dG=0.02 with 1670 points.
  Transforming atomic orbitals to a uniform radial grid of dG=0.02 with 432 points.
  Core radius for overlap checks: 2.60 bohrs.

Initialized 2 species with 47 total atoms.

Folded 1 k-points by 4x4x1 to 16 k-points.

---------- Setting up k-points, bands, fillings ----------
Adding inversion symmetry to k-mesh for non-inversion-symmetric unit cell.
Reduced to 10 k-points under symmetry. 
Computing the number of bands and number of electrons
Calculating initial fillings.
nElectrons: 498.000000   nBands: 308   nStates: 10

----- Setting up reduced wavefunction bases (one per k-point) -----
average nbasis = 72473.688 , ideal nbasis = 72469.710

---------- Setting up coulomb interaction ----------
Fluid mode embedding: using embedded box, but periodic Coulomb kernel.
(Fluid response is responsible for (approximate) separation between periodic images.)
Setting up double-sized grid for truncated Coulomb potentials:
R = 
[    16.7546   -8.37728          0  ]
[          0    14.5082          0  ]
[          0          0    139.573  ]
unit cell volume = 33927.2
G =
[   0.375014   0.216539         -0  ]
[          0   0.433077          0  ]
[          0         -0  0.0450173  ]
Chosen fftbox size, S = [  80  80  640  ]
Integer grid location selected as the embedding center:
   Grid: [  0  0  160  ]
   Lattice: [  0  0  0.5  ]
   Cartesian: [  0  0  34.8931  ]
Constructing Wigner-Seitz cell: 8 faces (6 quadrilaterals, 2 hexagons)
Range-separation parameter for embedded mesh potentials due to point charges: 0.589142 bohrs.

Initializing van der Waals corrections
	NOTE: vdW corrections apply only for interactions with fluid.
	Bi:  C6:  893.28 Eh-a0^6  R0: 3.555 a0 (WARNING: beyond Grimme's data set)
	Te:  C6:  550.54 Eh-a0^6  R0: 3.575 a0

---------- Setting up ewald sum ----------
Optimum gaussian width for ewald sums = 6.798445 bohr.
Real space sum over 845 unit cells with max indices [  6  6  2  ]
Reciprocal space sum over 8107 terms with max indices [  5  5  33  ]

---------- Allocating electronic variables ----------
Initializing wave functions:  linear combination of atomic orbitals
Bi pseudo-atom occupations:   s ( 2 )  p ( 3 )  d ( 10 )
Te pseudo-atom occupations:   s ( 2 )  p ( 4 )
	FillingsUpdate:  mu: -0.126464037  nElectrons: 498.000000
LCAOMinimize: Iter:   0  F: -1913.3130388384174694  |grad|_K:  3.852e-03  alpha:  1.000e+00
	FillingsUpdate:  mu: -0.193868871  nElectrons: 498.000000
LCAOMinimize: Iter:   1  F: -1914.1265871418618190  |grad|_K:  2.977e-03  alpha:  7.959e-02  linmin: -9.813e-02  cgtest:  3.879e-01  t[s]:    145.44
	FillingsUpdate:  mu: -0.031816163  nElectrons: 498.000000
LCAOMinimize: Iter:   2  F: -1914.4365427114614704  |grad|_K:  3.053e-03  alpha:  6.177e-02  linmin:  3.261e-03  cgtest: -1.943e-01  t[s]:    202.33
	FillingsUpdate:  mu: +0.050141580  nElectrons: 498.000000
LCAOMinimize: Iter:   3  F: -1914.6032320163637905  |grad|_K:  2.047e-03  alpha:  3.487e-02  linmin: -8.645e-03  cgtest:  7.197e-01  t[s]:    257.63
LCAOMinimize: Encountered beta<0, resetting CG.
	FillingsUpdate:  mu: -0.012162565  nElectrons: 498.000000
LCAOMinimize: Iter:   4  F: -1914.6779945829428016  |grad|_K:  1.450e-03  alpha:  3.742e-02  linmin:  3.025e-03  cgtest: -2.144e-02  t[s]:    314.05
	FillingsUpdate:  mu: -0.091773383  nElectrons: 498.000000
LCAOMinimize: Iter:   5  F: -1914.7598631256892077  |grad|_K:  1.674e-03  alpha:  1.029e-01  linmin:  5.580e-02  cgtest: -1.190e-01  t[s]:    366.42
	FillingsUpdate:  mu: -0.096269341  nElectrons: 498.000000
LCAOMinimize: Iter:   6  F: -1914.7928049989548072  |grad|_K:  1.577e-03  alpha:  4.046e-02  linmin: -3.568e-03  cgtest:  9.164e-01  t[s]:    418.81
	FillingsUpdate:  mu: -0.046885401  nElectrons: 498.000000
LCAOMinimize: Iter:   7  F: -1914.8443478606461667  |grad|_K:  7.503e-04  alpha:  4.318e-02  linmin: -2.029e-02  cgtest:  8.828e-03  t[s]:    470.08
	FillingsUpdate:  mu: -0.023980461  nElectrons: 498.000000
LCAOMinimize: Iter:   8  F: -1914.8584080419566362  |grad|_K:  5.624e-04  alpha:  5.035e-02  linmin:  4.990e-03  cgtest: -3.462e-02  t[s]:    521.21
	FillingsUpdate:  mu: -0.023204910  nElectrons: 498.000000
LCAOMinimize: Iter:   9  F: -1914.8675812750104797  |grad|_K:  2.492e-04  alpha:  6.233e-02  linmin:  1.098e-02  cgtest:  1.607e-01  t[s]:    573.77
	FillingsUpdate:  mu: -0.029459833  nElectrons: 498.000000
LCAOMinimize: Iter:  10  F: -1914.8725504836838809  |grad|_K:  2.616e-04  alpha:  1.725e-01  linmin:  6.123e-03  cgtest: -1.429e-02  t[s]:    625.31
	FillingsUpdate:  mu: -0.030683947  nElectrons: 498.000000
LCAOMinimize: Iter:  11  F: -1914.8737838103863851  |grad|_K:  1.695e-04  alpha:  3.953e-02  linmin:  2.801e-03  cgtest:  5.085e-02  t[s]:    676.05
	FillingsUpdate:  mu: -0.022885993  nElectrons: 498.000000
LCAOMinimize: Iter:  12  F: -1914.8746379827434794  |grad|_K:  8.660e-05  alpha:  6.316e-02  linmin:  2.451e-03  cgtest: -1.600e-02  t[s]:    728.59
	FillingsUpdate:  mu: -0.026402546  nElectrons: 498.000000
LCAOMinimize: Iter:  13  F: -1914.8748248488725494  |grad|_K:  2.644e-05  alpha:  5.255e-02  linmin:  9.602e-04  cgtest:  3.280e-02  t[s]:    780.55
	FillingsUpdate:  mu: -0.025720436  nElectrons: 498.000000
LCAOMinimize: Iter:  14  F: -1914.8748738634433266  |grad|_K:  1.726e-05  alpha:  1.472e-01  linmin:  1.158e-03  cgtest: -4.357e-03  t[s]:    832.41
	FillingsUpdate:  mu: -0.024635029  nElectrons: 498.000000
LCAOMinimize: Iter:  15  F: -1914.8748824031792992  |grad|_K:  1.785e-05  alpha:  6.041e-02  linmin:  2.275e-04  cgtest:  7.525e-04  t[s]:    884.16
	FillingsUpdate:  mu: -0.024583639  nElectrons: 498.000000
LCAOMinimize: Iter:  16  F: -1914.8748964913800137  |grad|_K:  1.709e-05  alpha:  9.278e-02  linmin: -9.021e-05  cgtest:  2.743e-04  t[s]:    935.59
	FillingsUpdate:  mu: -0.025268030  nElectrons: 498.000000
LCAOMinimize: Iter:  17  F: -1914.8749043790521682  |grad|_K:  5.747e-06  alpha:  5.654e-02  linmin: -1.112e-05  cgtest: -5.504e-03  t[s]:    987.08
LCAOMinimize: 	Predicted alpha/alphaT>3.000000, increasing alphaT to 1.696143e-01.
	FillingsUpdate:  mu: -0.025199881  nElectrons: 498.000000
LCAOMinimize: Iter:  18  F: -1914.8749075335479120  |grad|_K:  4.851e-06  alpha:  2.000e-01  linmin:  1.175e-04  cgtest: -3.955e-04  t[s]:   1055.09
	FillingsUpdate:  mu: -0.025006118  nElectrons: 498.000000
LCAOMinimize: Iter:  19  F: -1914.8749085811755322  |grad|_K:  4.451e-06  alpha:  9.330e-02  linmin:  7.907e-06  cgtest:  1.057e-03  t[s]:   1107.36
	FillingsUpdate:  mu: -0.024997569  nElectrons: 498.000000
LCAOMinimize: Iter:  20  F: -1914.8749090798480665  |grad|_K:  2.908e-06  alpha:  5.272e-02  linmin: -6.724e-06  cgtest: -4.055e-04  t[s]:   1158.60
	FillingsUpdate:  mu: -0.025166126  nElectrons: 498.000000
LCAOMinimize: Iter:  21  F: -1914.8749092620514602  |grad|_K:  1.641e-06  alpha:  4.513e-02  linmin:  6.325e-06  cgtest: -1.699e-04  t[s]:   1210.09
LCAOMinimize: Converged (|Delta F|<1.000000e-06 for 2 iters).
----- createFluidSolver() ----- (Fluid-side solver setup)
   Initializing fluid molecule 'H2O'
     Initializing site 'O'
       Electron density: proportional to exp(-r/0.36935)*erfc((r-0.51523)/0.36823) with norm 6.826
       Charge density: gaussian nuclear width 0.478731 with net site charge 0.826
       Polarizability: cuspless exponential with width 0.32 and norm 3.73
       Hard sphere radius: 2.57003 bohrs
       Positions in reference frame:
         [ +0.000000 +0.000000 +0.000000 ]
     Initializing site 'H'
       Electron density: proportional to exp(-r/0.34641)*erfc((r-0)/0.390882) with norm 0.587
       Charge density: gaussian nuclear width 0.377945 with net site charge -0.413
       Polarizability: cuspless exponential with width 0.39 and norm 3.3
       Positions in reference frame:
         [ +0.000000 -1.441945 +1.122523 ]
         [ +0.000000 +1.441945 +1.122523 ]
     Net charge: 0   dipole magnitude: 0.927204
     Initializing spherical shell mfKernel with radius 2.61727 Bohr
     deltaS corrections:
       site 'O': -7.54299
       site 'H': -6.83917
   Initializing fluid molecule 'Na+'
     Initializing site 'Na'
       Electron density: proportional to exp(-r/0.19682)*erfc((r-0.71491)/0.41314) with norm 8.1383
       Charge density: gaussian nuclear width 0.365347 with net site charge -1
       Hard sphere radius: 1.86327 bohrs
       Positions in reference frame:
         [ +0.000000 +0.000000 +0.000000 ]
     Net charge: -1   dipole magnitude: 0
     Initializing gaussian mfKernel with width: 1.55004 Bohr
     deltaS corrections:
       site 'Na': -22.3555
   Initializing fluid molecule 'F-'
     Initializing site 'F'
       Electron density: proportional to exp(-r/0.38886)*erfc((r-0)/0.438782) with norm 8
       Charge density: gaussian nuclear width 0.374796 with net site charge 1
       Hard sphere radius: 2.39995 bohrs
       Positions in reference frame:
         [ +0.000000 +0.000000 +0.000000 ]
     Net charge: 1   dipole magnitude: 0
     Initializing gaussian mfKernel with width: 1.59012 Bohr
     deltaS corrections:
       site 'F': -9.04335

Correction to mu due to finite nuclear width = -0.014564
   Cavity determined by nc: 0.00142 and sigma: 0.707107
   Nonlocal vdW cavity from gaussian model electron density with norm = 8 and sigma = 0.993594 bohr
   Charge asymmetry in cavity with sensitivity pCavity = 36.5 e-bohr/Eh
   Electrostatic cavity expanded by eta = 1.46 bohrs
   Weighted density cavitation model constrained by Nbulk: 0.0049383 bohr^-3, Pvap: 3.14029 kPa, Rvdw: 2.61727 bohr and sigmaBulk: 4.62e-05 Eh/bohr^2 at T: 298 K.
   Weighted density dispersion model using vdW pair potentials with single solvent site with sqrtC6eff: 0.77 SI.


---- Citations for features of the code used in this run ----

   Software package:
      R. Sundararaman, K. Letchworth-Weaver, K.A. Schwarz, D. Gunceler, Y. Ozhabes and T.A. Arias, 'JDFTx: software for joint density-functional theory', SoftwareX 6, 278 (2017)

   gga-PBE exchange-correlation functional:
      J.P. Perdew, K. Burke and M. Ernzerhof, Phys. Rev. Lett. 77, 3865 (1996)

   Pseudopotentials:
      KF Garrity, JW Bennett, KM Rabe and D Vanderbilt, Comput. Mater. Sci. 81, 446 (2014)

   Truncated Coulomb potentials:
      R. Sundararaman and T.A. Arias, Phys. Rev. B 87, 165122 (2013)

   Van der Waals correction pair-potentials:
      S. Grimme, J. Comput. Chem. 27, 1787 (2006)

   Charge-asymmetric nonlocally-determined local-electric (CANDLE) solvation model:
      R. Sundararaman and W.A. Goddard III, J. Chem. Phys. 142, 064107 (2015)

This list may not be complete. Please suggest additional citations or
report any other bugs at https://github.com/shankar1729/jdftx/issues

Initialization completed successfully at t[s]:   1221.80

Fluid solver invoked on fresh (partially random / LCAO) wavefunctions
Running a vacuum solve first:

-------- Initial electronic minimization -----------
Will mix electronic density at each iteration.
	FillingsUpdate:  mu: -0.025166126  nElectrons: 498.000000
	FillingsUpdate:  mu: -0.038406927  nElectrons: 498.000000
SCF: Cycle:  0   F: -1915.536687140971253   dF: -6.618e-01   |Residual|: 2.769e-01   |deigs|: 9.711e-03  t[s]:   1398.07
	FillingsUpdate:  mu: -0.039158110  nElectrons: 498.000000
SCF: Cycle:  1   F: -1915.720062666692911   dF: -1.834e-01   |Residual|: 1.328e-01   |deigs|: 1.032e-02  t[s]:   1538.66
	FillingsUpdate:  mu: -0.036702087  nElectrons: 498.000000
SCF: Cycle:  2   F: -1915.784259162844364   dF: -6.420e-02   |Residual|: 4.392e-02   |deigs|: 4.833e-03  t[s]:   1678.15
	FillingsUpdate:  mu: -0.035219727  nElectrons: 498.000000
SCF: Cycle:  3   F: -1915.785165872368907   dF: -9.067e-04   |Residual|: 1.939e-02   |deigs|: 1.256e-03  t[s]:   1819.27
	FillingsUpdate:  mu: -0.033043354  nElectrons: 498.000000
SCF: Cycle:  4   F: -1915.789455945664713   dF: -4.290e-03   |Residual|: 7.959e-03   |deigs|: 2.186e-03  t[s]:   1960.90
	FillingsUpdate:  mu: -0.031179324  nElectrons: 498.000000
SCF: Cycle:  5   F: -1915.790185053810774   dF: -7.291e-04   |Residual|: 5.428e-03   |deigs|: 1.692e-03  t[s]:   2100.91
	FillingsUpdate:  mu: -0.029309580  nElectrons: 498.000000
SCF: Cycle:  6   F: -1915.790874419399415   dF: -6.894e-04   |Residual|: 3.653e-03   |deigs|: 1.974e-03  t[s]:   2239.69
	FillingsUpdate:  mu: -0.027218015  nElectrons: 498.000000
SCF: Cycle:  7   F: -1915.791189213525968   dF: -3.148e-04   |Residual|: 2.759e-03   |deigs|: 2.061e-03  t[s]:   2380.13
	FillingsUpdate:  mu: -0.025228469  nElectrons: 498.000000
SCF: Cycle:  8   F: -1915.791345243325850   dF: -1.560e-04   |Residual|: 1.887e-03   |deigs|: 2.006e-03  t[s]:   2519.95
	FillingsUpdate:  mu: -0.023147376  nElectrons: 498.000000
SCF: Cycle:  9   F: -1915.791379590130873   dF: -3.435e-05   |Residual|: 1.327e-03   |deigs|: 2.090e-03  t[s]:   2655.91
	FillingsUpdate:  mu: -0.021379811  nElectrons: 498.000000
SCF: Cycle: 10   F: -1915.791395618989100   dF: -1.603e-05   |Residual|: 1.087e-03   |deigs|: 1.775e-03  t[s]:   2795.52
	FillingsUpdate:  mu: -0.019749060  nElectrons: 498.000000
SCF: Cycle: 11   F: -1915.791411803844085   dF: -1.618e-05   |Residual|: 8.210e-04   |deigs|: 1.633e-03  t[s]:   2930.29
	FillingsUpdate:  mu: -0.018565757  nElectrons: 498.000000
SCF: Cycle: 12   F: -1915.791416273930736   dF: -4.470e-06   |Residual|: 5.724e-04   |deigs|: 1.200e-03  t[s]:   3070.08
	FillingsUpdate:  mu: -0.017786230  nElectrons: 498.000000
SCF: Cycle: 13   F: -1915.791417232381036   dF: -9.585e-07   |Residual|: 3.925e-04   |deigs|: 7.821e-04  t[s]:   3206.46
	FillingsUpdate:  mu: -0.017205771  nElectrons: 498.000000
SCF: Cycle: 14   F: -1915.791419273264637   dF: -2.041e-06   |Residual|: 2.072e-04   |deigs|: 5.746e-04  t[s]:   3343.94
	FillingsUpdate:  mu: -0.017180045  nElectrons: 498.000000
SCF: Cycle: 15   F: -1915.791422916459169   dF: -3.643e-06   |Residual|: 1.184e-04   |deigs|: 2.410e-05  t[s]:   3474.10
	FillingsUpdate:  mu: -0.017036120  nElectrons: 498.000000
SCF: Cycle: 16   F: -1915.791425416060520   dF: -2.500e-06   |Residual|: 8.323e-05   |deigs|: 1.413e-04  t[s]:   3584.59
	FillingsUpdate:  mu: -0.017008130  nElectrons: 498.000000
SCF: Cycle: 17   F: -1915.791425921245946   dF: -5.052e-07   |Residual|: 5.604e-05   |deigs|: 2.636e-05  t[s]:   3692.31
	FillingsUpdate:  mu: -0.016984034  nElectrons: 498.000000
SCF: Cycle: 18   F: -1915.791426314541013   dF: -3.933e-07   |Residual|: 3.829e-05   |deigs|: 2.118e-05  t[s]:   3823.07
	FillingsUpdate:  mu: -0.017002427  nElectrons: 498.000000
SCF: Cycle: 19   F: -1915.791426293276118   dF: +2.126e-08   |Residual|: 2.198e-05   |deigs|: 1.792e-05  t[s]:   3945.44
	FillingsUpdate:  mu: -0.017002203  nElectrons: 498.000000
SCF: Cycle: 20   F: -1915.791426343763078   dF: -5.049e-08   |Residual|: 1.289e-05   |deigs|: 1.970e-06  t[s]:   4072.70
	FillingsUpdate:  mu: -0.016997250  nElectrons: 498.000000
SCF: Cycle: 21   F: -1915.791426346722801   dF: -2.960e-09   |Residual|: 8.640e-06   |deigs|: 5.297e-06  t[s]:   4189.31
	FillingsUpdate:  mu: -0.016994993  nElectrons: 498.000000
SCF: Cycle: 22   F: -1915.791426349196399   dF: -2.474e-09   |Residual|: 6.444e-06   |deigs|: 2.252e-06  t[s]:   4304.35
SCF: Converged (|Delta E|<1.000000e-08 for 2 iters).

Vacuum energy after initial minimize, F = -1915.791426349196399

	FillingsUpdate:  mu: -0.016994993  nElectrons: 498.000000
	Linear fluid (dielectric constant: 78.4, screening length: 5.74355 Bohr) occupying 0.631345 of unit cell:	Completed after 31 iterations at t[s]:   4321.19

-------- Electronic minimization -----------
Will mix electronic density at each iteration.
	FillingsUpdate:  mu: -0.016994993  nElectrons: 498.000000
	Linear fluid (dielectric constant: 78.4, screening length: 5.74355 Bohr) occupying 0.631345 of unit cell:	Completed after 0 iterations at t[s]:   4336.17
	FillingsUpdate:  mu: -0.158034927  nElectrons: 498.000000
	Linear fluid (dielectric constant: 78.4, screening length: 5.74355 Bohr) occupying 0.631806 of unit cell:	Completed after 26 iterations at t[s]:   4495.26
SCF: Cycle:  0   F: -1915.785099819862353   dF: +1.589e-03   |Residual|: 5.164e-03   |deigs|: 4.231e-06  t[s]:   4497.01
	Linear fluid (dielectric constant: 78.4, screening length: 5.74355 Bohr) occupying 0.631360 of unit cell:	Completed after 26 iterations at t[s]:   4499.73
	FillingsUpdate:  mu: -0.157978831  nElectrons: 498.000000
	Linear fluid (dielectric constant: 78.4, screening length: 5.74355 Bohr) occupying 0.631797 of unit cell:	Completed after 19 iterations at t[s]:   4636.10
SCF: Cycle:  1   F: -1915.786706308387920   dF: -1.606e-03   |Residual|: 2.043e-03   |deigs|: 5.355e-04  t[s]:   4638.21
	Linear fluid (dielectric constant: 78.4, screening length: 5.74355 Bohr) occupying 0.631391 of unit cell:	Completed after 15 iterations at t[s]:   4640.02
	FillingsUpdate:  mu: -0.157722758  nElectrons: 498.000000
	Linear fluid (dielectric constant: 78.4, screening length: 5.74355 Bohr) occupying 0.631783 of unit cell:	Completed after 15 iterations at t[s]:   4756.51
SCF: Cycle:  2   F: -1915.786787827631315   dF: -8.152e-05   |Residual|: 1.268e-03   |deigs|: 3.287e-04  t[s]:   4758.35
	Linear fluid (dielectric constant: 78.4, screening length: 5.74355 Bohr) occupying 0.631471 of unit cell:	Completed after 14 iterations at t[s]:   4760.22
	FillingsUpdate:  mu: -0.157852026  nElectrons: 498.000000
	Linear fluid (dielectric constant: 78.4, screening length: 5.74355 Bohr) occupying 0.631799 of unit cell:	Completed after 21 iterations at t[s]:   4878.26
SCF: Cycle:  3   F: -1915.786548566339661   dF: +2.393e-04   |Residual|: 1.484e-03   |deigs|: 2.096e-04  t[s]:   4880.18
	Linear fluid (dielectric constant: 78.4, screening length: 5.74355 Bohr) occupying 0.631481 of unit cell:	Completed after 21 iterations at t[s]:   4882.52
	FillingsUpdate:  mu: -0.157598548  nElectrons: 498.000000
	Linear fluid (dielectric constant: 78.4, screening length: 5.74355 Bohr) occupying 0.631786 of unit cell:	Completed after 22 iterations at t[s]:   4969.38
SCF: Cycle:  4   F: -1915.786740567171137   dF: -1.920e-04   |Residual|: 9.207e-04   |deigs|: 2.547e-04  t[s]:   4971.25
	Linear fluid (dielectric constant: 78.4, screening length: 5.74355 Bohr) occupying 0.631541 of unit cell:	Completed after 21 iterations at t[s]:   4973.56
	FillingsUpdate:  mu: -0.157431106  nElectrons: 498.000000
	Linear fluid (dielectric constant: 78.4, screening length: 5.74355 Bohr) occupying 0.631778 of unit cell:	Completed after 18 iterations at t[s]:   5059.64
SCF: Cycle:  5   F: -1915.786821514232088   dF: -8.095e-05   |Residual|: 6.485e-04   |deigs|: 2.590e-04  t[s]:   5061.53
	Linear fluid (dielectric constant: 78.4, screening length: 5.74355 Bohr) occupying 0.631603 of unit cell:	Completed after 18 iterations at t[s]:   5063.56
	FillingsUpdate:  mu: -0.157282609  nElectrons: 498.000000
	Linear fluid (dielectric constant: 78.4, screening length: 5.74355 Bohr) occupying 0.631773 of unit cell:	Completed after 18 iterations at t[s]:   5150.98
SCF: Cycle:  6   F: -1915.786820370051601   dF: +1.144e-06   |Residual|: 5.342e-04   |deigs|: 1.557e-04  t[s]:   5152.88
	Linear fluid (dielectric constant: 78.4, screening length: 5.74355 Bohr) occupying 0.631681 of unit cell:	Completed after 19 iterations at t[s]:   5155.06
	FillingsUpdate:  mu: -0.157096426  nElectrons: 498.000000
	Linear fluid (dielectric constant: 78.4, screening length: 5.74355 Bohr) occupying 0.631769 of unit cell:	Completed after 15 iterations at t[s]:   5291.28
SCF: Cycle:  7   F: -1915.786831999093465   dF: -1.163e-05   |Residual|: 4.205e-04   |deigs|: 1.853e-04  t[s]:   5293.13
	Linear fluid (dielectric constant: 78.4, screening length: 5.74355 Bohr) occupying 0.631713 of unit cell:	Completed after 13 iterations at t[s]:   5294.75
	FillingsUpdate:  mu: -0.157208991  nElectrons: 498.000000
	Linear fluid (dielectric constant: 78.4, screening length: 5.74355 Bohr) occupying 0.631779 of unit cell:	Completed after 18 iterations at t[s]:   5382.68
SCF: Cycle:  8   F: -1915.786807667377161   dF: +2.433e-05   |Residual|: 4.628e-04   |deigs|: 1.517e-04  t[s]:   5384.67
	Linear fluid (dielectric constant: 78.4, screening length: 5.74355 Bohr) occupying 0.631760 of unit cell:	Completed after 18 iterations at t[s]:   5386.79
	FillingsUpdate:  mu: -0.156897275  nElectrons: 498.000000
	Linear fluid (dielectric constant: 78.4, screening length: 5.74355 Bohr) occupying 0.631763 of unit cell:	Completed after 18 iterations at t[s]:   5473.10
SCF: Cycle:  9   F: -1915.786817973855932   dF: -1.031e-05   |Residual|: 4.731e-04   |deigs|: 3.128e-04  t[s]:   5475.02
	Linear fluid (dielectric constant: 78.4, screening length: 5.74355 Bohr) occupying 0.631800 of unit cell:	Completed after 19 iterations at t[s]:   5477.22
	FillingsUpdate:  mu: -0.156889917  nElectrons: 498.000000
	Linear fluid (dielectric constant: 78.4, screening length: 5.74355 Bohr) occupying 0.631764 of unit cell:	Completed after 14 iterations at t[s]:   5563.89
SCF: Cycle: 10   F: -1915.786835964237753   dF: -1.799e-05   |Residual|: 2.384e-04   |deigs|: 3.367e-05  t[s]:   5565.94
	Linear fluid (dielectric constant: 78.4, screening length: 5.74355 Bohr) occupying 0.631819 of unit cell:	Completed after 9 iterations at t[s]:   5567.31
	FillingsUpdate:  mu: -0.157067395  nElectrons: 498.000000
	Linear fluid (dielectric constant: 78.4, screening length: 5.74355 Bohr) occupying 0.631776 of unit cell:	Completed after 19 iterations at t[s]:   5654.36
SCF: Cycle: 11   F: -1915.786806414128932   dF: +2.955e-05   |Residual|: 5.002e-04   |deigs|: 1.881e-04  t[s]:   5656.23
	Linear fluid (dielectric constant: 78.4, screening length: 5.74355 Bohr) occupying 0.631819 of unit cell:	Completed after 20 iterations at t[s]:   5658.62
	FillingsUpdate:  mu: -0.156847838  nElectrons: 498.000000
	Linear fluid (dielectric constant: 78.4, screening length: 5.74355 Bohr) occupying 0.631761 of unit cell:	Completed after 15 iterations at t[s]:   5745.95
SCF: Cycle: 12   F: -1915.786825309088272   dF: -1.889e-05   |Residual|: 3.610e-04   |deigs|: 2.451e-04  t[s]:   5748.08
	Linear fluid (dielectric constant: 78.4, screening length: 5.74355 Bohr) occupying 0.631818 of unit cell:	Completed after 16 iterations at t[s]:   5750.02
	FillingsUpdate:  mu: -0.156878366  nElectrons: 498.000000
	Linear fluid (dielectric constant: 78.4, screening length: 5.74355 Bohr) occupying 0.631763 of unit cell:	Completed after 15 iterations at t[s]:   5836.27
SCF: Cycle: 13   F: -1915.786829314376291   dF: -4.005e-06   |Residual|: 3.018e-04   |deigs|: 2.950e-05  t[s]:   5838.13
	Linear fluid (dielectric constant: 78.4, screening length: 5.74355 Bohr) occupying 0.631797 of unit cell:	Completed after 15 iterations at t[s]:   5840.15
	FillingsUpdate:  mu: -0.156987627  nElectrons: 498.000000
	Linear fluid (dielectric constant: 78.4, screening length: 5.74355 Bohr) occupying 0.631767 of unit cell:	Completed after 8 iterations at t[s]:   5925.81
SCF: Cycle: 14   F: -1915.786837746506535   dF: -8.432e-06   |Residual|: 1.676e-04   |deigs|: 1.130e-04  t[s]:   5927.80
	Linear fluid (dielectric constant: 78.4, screening length: 5.74355 Bohr) occupying 0.631792 of unit cell:	Completed after 8 iterations at t[s]:   5929.05
	FillingsUpdate:  mu: -0.157040415  nElectrons: 498.000000
	Linear fluid (dielectric constant: 78.4, screening length: 5.74355 Bohr) occupying 0.631772 of unit cell:	Completed after 16 iterations at t[s]:   6015.48
SCF: Cycle: 15   F: -1915.786831942363278   dF: +5.804e-06   |Residual|: 3.140e-04   |deigs|: 8.838e-05  t[s]:   6017.31
	Linear fluid (dielectric constant: 78.4, screening length: 5.74355 Bohr) occupying 0.631792 of unit cell:	Completed after 16 iterations at t[s]:   6019.25
	FillingsUpdate:  mu: -0.156879197  nElectrons: 498.000000
	Linear fluid (dielectric constant: 78.4, screening length: 5.74355 Bohr) occupying 0.631762 of unit cell:	Completed after 18 iterations at t[s]:   6106.87
SCF: Cycle: 16   F: -1915.786820805221396   dF: +1.114e-05   |Residual|: 3.760e-04   |deigs|: 1.724e-04  t[s]:   6108.78
	Linear fluid (dielectric constant: 78.4, screening length: 5.74355 Bohr) occupying 0.631792 of unit cell:	Completed after 18 iterations at t[s]:   6110.92
	FillingsUpdate:  mu: -0.156948875  nElectrons: 498.000000
	Linear fluid (dielectric constant: 78.4, screening length: 5.74355 Bohr) occupying 0.631766 of unit cell:	Completed after 9 iterations at t[s]:   6195.98
SCF: Cycle: 17   F: -1915.786834216908801   dF: -1.341e-05   |Residual|: 2.980e-04   |deigs|: 8.529e-05  t[s]:   6197.84
	Linear fluid (dielectric constant: 78.4, screening length: 5.74355 Bohr) occupying 0.631787 of unit cell:	Completed after 9 iterations at t[s]:   6199.28
	FillingsUpdate:  mu: -0.156951633  nElectrons: 498.000000
	Linear fluid (dielectric constant: 78.4, screening length: 5.74355 Bohr) occupying 0.631765 of unit cell:	Completed after 13 iterations at t[s]:   6286.17
SCF: Cycle: 18   F: -1915.786833096487044   dF: +1.120e-06   |Residual|: 3.139e-04   |deigs|: 3.794e-05  t[s]:   6287.99
	Linear fluid (dielectric constant: 78.4, screening length: 5.74355 Bohr) occupying 0.631789 of unit cell:	Completed after 13 iterations at t[s]:   6289.69
	FillingsUpdate:  mu: -0.157069471  nElectrons: 498.000000
	Linear fluid (dielectric constant: 78.4, screening length: 5.74355 Bohr) occupying 0.631773 of unit cell:	Completed after 13 iterations at t[s]:   6376.02
SCF: Cycle: 19   F: -1915.786835997942717   dF: -2.901e-06   |Residual|: 2.954e-04   |deigs|: 1.208e-04  t[s]:   6378.03
	Linear fluid (dielectric constant: 78.4, screening length: 5.74355 Bohr) occupying 0.631783 of unit cell:	Completed after 14 iterations at t[s]:   6379.85
	FillingsUpdate:  mu: -0.156963709  nElectrons: 498.000000
	Linear fluid (dielectric constant: 78.4, screening length: 5.74355 Bohr) occupying 0.631765 of unit cell:	Completed after 9 iterations at t[s]:   6488.43
SCF: Cycle: 20   F: -1915.786835474206327   dF: +5.237e-07   |Residual|: 3.046e-04   |deigs|: 1.066e-04  t[s]:   6490.28
	Linear fluid (dielectric constant: 78.4, screening length: 5.74355 Bohr) occupying 0.631768 of unit cell:	Completed after 8 iterations at t[s]:   6491.50
	FillingsUpdate:  mu: -0.156876233  nElectrons: 498.000000
	Linear fluid (dielectric constant: 78.4, screening length: 5.74355 Bohr) occupying 0.631759 of unit cell:	Completed after 18 iterations at t[s]:   6704.52
SCF: Cycle: 21   F: -1915.786813894330407   dF: +2.158e-05   |Residual|: 5.427e-04   |deigs|: 9.283e-05  t[s]:   6707.50
	Linear fluid (dielectric constant: 78.4, screening length: 5.74355 Bohr) occupying 0.631770 of unit cell:	Completed after 18 iterations at t[s]:   6710.07
	FillingsUpdate:  mu: -0.156970033  nElectrons: 498.000000
	Linear fluid (dielectric constant: 78.4, screening length: 5.74355 Bohr) occupying 0.631766 of unit cell:	Completed after 13 iterations at t[s]:   6807.78
SCF: Cycle: 22   F: -1915.786825587637395   dF: -1.169e-05   |Residual|: 3.795e-04   |deigs|: 1.158e-04  t[s]:   6810.64
	Linear fluid (dielectric constant: 78.4, screening length: 5.74355 Bohr) occupying 0.631760 of unit cell:	Completed after 13 iterations at t[s]:   6812.53
	FillingsUpdate:  mu: -0.157120007  nElectrons: 498.000000
	Linear fluid (dielectric constant: 78.4, screening length: 5.74355 Bohr) occupying 0.631774 of unit cell:	Completed after 15 iterations at t[s]:   6910.63
SCF: Cycle: 23   F: -1915.786834696526284   dF: -9.109e-06   |Residual|: 3.239e-04   |deigs|: 1.407e-04  t[s]:   6912.84
	Linear fluid (dielectric constant: 78.4, screening length: 5.74355 Bohr) occupying 0.631747 of unit cell:	Completed after 15 iterations at t[s]:   6915.07
	FillingsUpdate:  mu: -0.156865886  nElectrons: 498.000000
	Linear fluid (dielectric constant: 78.4, screening length: 5.74355 Bohr) occupying 0.631757 of unit cell:	Completed after 18 iterations at t[s]:   7014.11
SCF: Cycle: 24   F: -1915.786792505776248   dF: +4.219e-05   |Residual|: 6.575e-04   |deigs|: 2.597e-04  t[s]:   7016.48
	Linear fluid (dielectric constant: 78.4, screening length: 5.74355 Bohr) occupying 0.631746 of unit cell:	Completed after 18 iterations at t[s]:   7018.86
	FillingsUpdate:  mu: -0.156937241  nElectrons: 498.000000
	Linear fluid (dielectric constant: 78.4, screening length: 5.74355 Bohr) occupying 0.631762 of unit cell:	Completed after 18 iterations at t[s]:   7113.56
SCF: Cycle: 25   F: -1915.786814541158947   dF: -2.204e-05   |Residual|: 5.933e-04   |deigs|: 7.473e-05  t[s]:   7115.78
	Linear fluid (dielectric constant: 78.4, screening length: 5.74355 Bohr) occupying 0.631747 of unit cell:	Completed after 18 iterations at t[s]:   7118.19
	FillingsUpdate:  mu: -0.156946905  nElectrons: 498.000000
	Linear fluid (dielectric constant: 78.4, screening length: 5.74355 Bohr) occupying 0.631762 of unit cell:	Completed after 18 iterations at t[s]:   7206.26
SCF: Cycle: 26   F: -1915.786819548764470   dF: -5.008e-06   |Residual|: 5.544e-04   |deigs|: 9.929e-06  t[s]:   7208.24
	Linear fluid (dielectric constant: 78.4, screening length: 5.74355 Bohr) occupying 0.631744 of unit cell:	Completed after 18 iterations at t[s]:   7210.45
	FillingsUpdate:  mu: -0.156949318  nElectrons: 498.000000
	Linear fluid (dielectric constant: 78.4, screening length: 5.74355 Bohr) occupying 0.631762 of unit cell:	Completed after 19 iterations at t[s]:   7297.64
SCF: Cycle: 27   F: -1915.786817390611304   dF: +2.158e-06   |Residual|: 5.757e-04   |deigs|: 3.087e-06  t[s]:   7299.77
	Linear fluid (dielectric constant: 78.4, screening length: 5.74355 Bohr) occupying 0.631748 of unit cell:	Completed after 17 iterations at t[s]:   7302.28
	FillingsUpdate:  mu: -0.156906600  nElectrons: 498.000000
	Linear fluid (dielectric constant: 78.4, screening length: 5.74355 Bohr) occupying 0.631759 of unit cell:	Completed after 18 iterations at t[s]:   7391.38
SCF: Cycle: 28   F: -1915.786798796491439   dF: +1.859e-05   |Residual|: 7.133e-04   |deigs|: 5.688e-05  t[s]:   7393.44
	Linear fluid (dielectric constant: 78.4, screening length: 5.74355 Bohr) occupying 0.631770 of unit cell:	Completed after 18 iterations at t[s]:   7395.56
	FillingsUpdate:  mu: -0.156958675  nElectrons: 498.000000
	Linear fluid (dielectric constant: 78.4, screening length: 5.74355 Bohr) occupying 0.631764 of unit cell:	Completed after 14 iterations at t[s]:   7482.64
SCF: Cycle: 29   F: -1915.786836187972995   dF: -3.739e-05   |Residual|: 2.626e-04   |deigs|: 6.764e-05  t[s]:   7484.44
	Linear fluid (dielectric constant: 78.4, screening length: 5.74355 Bohr) occupying 0.631780 of unit cell:	Completed after 14 iterations at t[s]:   7486.19
	FillingsUpdate:  mu: -0.157001943  nElectrons: 498.000000
	Linear fluid (dielectric constant: 78.4, screening length: 5.74355 Bohr) occupying 0.631768 of unit cell:	Completed after 8 iterations at t[s]:   7572.74
SCF: Cycle: 30   F: -1915.786838675169975   dF: -2.487e-06   |Residual|: 1.618e-04   |deigs|: 4.726e-05  t[s]:   7574.63
	Linear fluid (dielectric constant: 78.4, screening length: 5.74355 Bohr) occupying 0.631781 of unit cell:	Completed after 8 iterations at t[s]:   7575.87
	FillingsUpdate:  mu: -0.156963038  nElectrons: 498.000000
	Linear fluid (dielectric constant: 78.4, screening length: 5.74355 Bohr) occupying 0.631764 of unit cell:	Completed after 9 iterations at t[s]:   7662.47
SCF: Cycle: 31   F: -1915.786836297627360   dF: +2.378e-06   |Residual|: 1.876e-04   |deigs|: 6.670e-05  t[s]:   7664.34
	Linear fluid (dielectric constant: 78.4, screening length: 5.74355 Bohr) occupying 0.631784 of unit cell:	Completed after 8 iterations at t[s]:   7665.57
	FillingsUpdate:  mu: -0.157064632  nElectrons: 498.000000
	Linear fluid (dielectric constant: 78.4, screening length: 5.74355 Bohr) occupying 0.631772 of unit cell:	Completed after 17 iterations at t[s]:   7752.60
SCF: Cycle: 32   F: -1915.786821611024607   dF: +1.469e-05   |Residual|: 3.871e-04   |deigs|: 1.194e-04  t[s]:   7754.55
	Linear fluid (dielectric constant: 78.4, screening length: 5.74355 Bohr) occupying 0.631786 of unit cell:	Completed after 17 iterations at t[s]:   7756.61
	FillingsUpdate:  mu: -0.156936736  nElectrons: 498.000000
	Linear fluid (dielectric constant: 78.4, screening length: 5.74355 Bohr) occupying 0.631763 of unit cell:	Completed after 9 iterations at t[s]:   7843.27
SCF: Cycle: 33   F: -1915.786834040141230   dF: -1.243e-05   |Residual|: 2.196e-04   |deigs|: 1.502e-04  t[s]:   7845.15
	Linear fluid (dielectric constant: 78.4, screening length: 5.74355 Bohr) occupying 0.631772 of unit cell:	Completed after 9 iterations at t[s]:   7846.53
	FillingsUpdate:  mu: -0.157020000  nElectrons: 498.000000
	Linear fluid (dielectric constant: 78.4, screening length: 5.74355 Bohr) occupying 0.631768 of unit cell:	Completed after 13 iterations at t[s]:   7933.31
SCF: Cycle: 34   F: -1915.786834837745573   dF: -7.976e-07   |Residual|: 2.898e-04   |deigs|: 1.113e-04  t[s]:   7935.06
	Linear fluid (dielectric constant: 78.4, screening length: 5.74355 Bohr) occupying 0.631773 of unit cell:	Completed after 13 iterations at t[s]:   7936.73
	FillingsUpdate:  mu: -0.156909252  nElectrons: 498.000000
	Linear fluid (dielectric constant: 78.4, screening length: 5.74355 Bohr) occupying 0.631760 of unit cell:	Completed after 13 iterations at t[s]:   8023.88
SCF: Cycle: 35   F: -1915.786834895121274   dF: -5.738e-08   |Residual|: 2.258e-04   |deigs|: 1.292e-04  t[s]:   8025.67
	Linear fluid (dielectric constant: 78.4, screening length: 5.74355 Bohr) occupying 0.631774 of unit cell:	Completed after 13 iterations at t[s]:   8027.36
	FillingsUpdate:  mu: -0.157111956  nElectrons: 498.000000
	Linear fluid (dielectric constant: 78.4, screening length: 5.74355 Bohr) occupying 0.631773 of unit cell:	Completed after 18 iterations at t[s]:   8216.21
SCF: Cycle: 36   F: -1915.786823329672643   dF: +1.157e-05   |Residual|: 3.360e-04   |deigs|: 2.053e-04  t[s]:   8218.39
	Linear fluid (dielectric constant: 78.4, screening length: 5.74355 Bohr) occupying 0.631771 of unit cell:	Completed after 18 iterations at t[s]:   8220.67
	FillingsUpdate:  mu: -0.156948248  nElectrons: 498.000000
	Linear fluid (dielectric constant: 78.4, screening length: 5.74355 Bohr) occupying 0.631763 of unit cell:	Completed after 16 iterations at t[s]:   8311.92
SCF: Cycle: 37   F: -1915.786832109133229   dF: -8.779e-06   |Residual|: 2.207e-04   |deigs|: 1.699e-04  t[s]:   8314.05
	Linear fluid (dielectric constant: 78.4, screening length: 5.74355 Bohr) occupying 0.631775 of unit cell:	Completed after 18 iterations at t[s]:   8316.22
	FillingsUpdate:  mu: -0.157001202  nElectrons: 498.000000
	Linear fluid (dielectric constant: 78.4, screening length: 5.74355 Bohr) occupying 0.631766 of unit cell:	Completed after 9 iterations at t[s]:   8407.11
SCF: Cycle: 38   F: -1915.786837403963318   dF: -5.295e-06   |Residual|: 1.535e-04   |deigs|: 5.953e-05  t[s]:   8409.20
	Linear fluid (dielectric constant: 78.4, screening length: 5.74355 Bohr) occupying 0.631775 of unit cell:	Completed after 9 iterations at t[s]:   8410.64
	FillingsUpdate:  mu: -0.156859907  nElectrons: 498.000000
	Linear fluid (dielectric constant: 78.4, screening length: 5.74355 Bohr) occupying 0.631758 of unit cell:	Completed after 16 iterations at t[s]:   8523.60
SCF: Cycle: 39   F: -1915.786824898228588   dF: +1.251e-05   |Residual|: 3.255e-04   |deigs|: 1.402e-04  t[s]:   8525.96
	Linear fluid (dielectric constant: 78.4, screening length: 5.74355 Bohr) occupying 0.631773 of unit cell:	Completed after 16 iterations at t[s]:   8527.98
	FillingsUpdate:  mu: -0.156972071  nElectrons: 498.000000
	Linear fluid (dielectric constant: 78.4, screening length: 5.74355 Bohr) occupying 0.631764 of unit cell:	Completed after 10 iterations at t[s]:   8618.12
SCF: Cycle: 40   F: -1915.786836516592530   dF: -1.162e-05   |Residual|: 1.884e-04   |deigs|: 1.077e-04  t[s]:   8619.88
	Linear fluid (dielectric constant: 78.4, screening length: 5.74355 Bohr) occupying 0.631771 of unit cell:	Completed after 9 iterations at t[s]:   8621.21
	FillingsUpdate:  mu: -0.157116248  nElectrons: 498.000000
	Linear fluid (dielectric constant: 78.4, screening length: 5.74355 Bohr) occupying 0.631774 of unit cell:	Completed after 16 iterations at t[s]:   8763.79
SCF: Cycle: 41   F: -1915.786820338537154   dF: +1.618e-05   |Residual|: 3.614e-04   |deigs|: 1.593e-04  t[s]:   8766.72
	Linear fluid (dielectric constant: 78.4, screening length: 5.74355 Bohr) occupying 0.631776 of unit cell:	Completed after 18 iterations at t[s]:   8769.08
	FillingsUpdate:  mu: -0.156933028  nElectrons: 498.000000
	Linear fluid (dielectric constant: 78.4, screening length: 5.74355 Bohr) occupying 0.631762 of unit cell:	Completed after 13 iterations at t[s]:   8861.26
SCF: Cycle: 42   F: -1915.786834784212715   dF: -1.445e-05   |Residual|: 1.900e-04   |deigs|: 1.975e-04  t[s]:   8863.41
	Linear fluid (dielectric constant: 78.4, screening length: 5.74355 Bohr) occupying 0.631770 of unit cell:	Completed after 13 iterations at t[s]:   8865.19
	FillingsUpdate:  mu: -0.157110441  nElectrons: 498.000000
	Linear fluid (dielectric constant: 78.4, screening length: 5.74355 Bohr) occupying 0.631772 of unit cell:	Completed after 18 iterations at t[s]:   8956.42
SCF: Cycle: 43   F: -1915.786816052241875   dF: +1.873e-05   |Residual|: 3.666e-04   |deigs|: 1.844e-04  t[s]:   8958.30
	Linear fluid (dielectric constant: 78.4, screening length: 5.74355 Bohr) occupying 0.631760 of unit cell:	Completed after 18 iterations at t[s]:   8960.58
	FillingsUpdate:  mu: -0.156940712  nElectrons: 498.000000
	Linear fluid (dielectric constant: 78.4, screening length: 5.74355 Bohr) occupying 0.631761 of unit cell:	Completed after 17 iterations at t[s]:   9073.95
SCF: Cycle: 44   F: -1915.786831606767009   dF: -1.555e-05   |Residual|: 2.596e-04   |deigs|: 1.812e-04  t[s]:   9076.78
	Linear fluid (dielectric constant: 78.4, screening length: 5.74355 Bohr) occupying 0.631761 of unit cell:	Completed after 17 iterations at t[s]:   9079.11
	FillingsUpdate:  mu: -0.156981052  nElectrons: 498.000000
	Linear fluid (dielectric constant: 78.4, screening length: 5.74355 Bohr) occupying 0.631763 of unit cell:	Completed after 8 iterations at t[s]:   9175.80
SCF: Cycle: 45   F: -1915.786837533051312   dF: -5.926e-06   |Residual|: 2.082e-04   |deigs|: 5.731e-05  t[s]:   9178.25
	Linear fluid (dielectric constant: 78.4, screening length: 5.74355 Bohr) occupying 0.631757 of unit cell:	Completed after 8 iterations at t[s]:   9179.59
	FillingsUpdate:  mu: -0.156832264  nElectrons: 498.000000
	Linear fluid (dielectric constant: 78.4, screening length: 5.74355 Bohr) occupying 0.631755 of unit cell:	Completed after 17 iterations at t[s]:   9272.18
SCF: Cycle: 46   F: -1915.786822651719376   dF: +1.488e-05   |Residual|: 3.908e-04   |deigs|: 1.439e-04  t[s]:   9274.07
	Linear fluid (dielectric constant: 78.4, screening length: 5.74355 Bohr) occupying 0.631764 of unit cell:	Completed after 17 iterations at t[s]:   9276.18
	FillingsUpdate:  mu: -0.156987514  nElectrons: 498.000000
	Linear fluid (dielectric constant: 78.4, screening length: 5.74355 Bohr) occupying 0.631765 of unit cell:	Completed after 9 iterations at t[s]:   9391.06
SCF: Cycle: 47   F: -1915.786837272097728   dF: -1.462e-05   |Residual|: 1.655e-04   |deigs|: 1.618e-04  t[s]:   9393.66
	Linear fluid (dielectric constant: 78.4, screening length: 5.74355 Bohr) occupying 0.631765 of unit cell:	Completed after 9 iterations at t[s]:   9395.17
	FillingsUpdate:  mu: -0.156837398  nElectrons: 498.000000
	Linear fluid (dielectric constant: 78.4, screening length: 5.74355 Bohr) occupying 0.631755 of unit cell:	Completed after 13 iterations at t[s]:   9492.17
SCF: Cycle: 48   F: -1915.786827812839192   dF: +9.459e-06   |Residual|: 3.037e-04   |deigs|: 1.717e-04  t[s]:   9494.58
	Linear fluid (dielectric constant: 78.4, screening length: 5.74355 Bohr) occupying 0.631763 of unit cell:	Completed after 15 iterations at t[s]:   9496.67
	FillingsUpdate:  mu: -0.156972408  nElectrons: 498.000000
	Linear fluid (dielectric constant: 78.4, screening length: 5.74355 Bohr) occupying 0.631763 of unit cell:	Completed after 7 iterations at t[s]:   9611.99
SCF: Cycle: 49   F: -1915.786839131322495   dF: -1.132e-05   |Residual|: 8.227e-05   |deigs|: 1.378e-04  t[s]:   9614.64
	Linear fluid (dielectric constant: 78.4, screening length: 5.74355 Bohr) occupying 0.631763 of unit cell:	Completed after 4 iterations at t[s]:   9615.69
	FillingsUpdate:  mu: -0.156965122  nElectrons: 498.000000
	Linear fluid (dielectric constant: 78.4, screening length: 5.74355 Bohr) occupying 0.631764 of unit cell:	Completed after 13 iterations at t[s]:   9718.00
SCF: Cycle: 50   F: -1915.786827309642831   dF: +1.182e-05   |Residual|: 2.948e-04   |deigs|: 5.608e-05  t[s]:   9720.70
	Linear fluid (dielectric constant: 78.4, screening length: 5.74355 Bohr) occupying 0.631761 of unit cell:	Completed after 12 iterations at t[s]:   9722.55
	FillingsUpdate:  mu: -0.156803279  nElectrons: 498.000000
	Linear fluid (dielectric constant: 78.4, screening length: 5.74355 Bohr) occupying 0.631753 of unit cell:	Completed after 17 iterations at t[s]:   9825.89
SCF: Cycle: 51   F: -1915.786813579280988   dF: +1.373e-05   |Residual|: 4.189e-04   |deigs|: 1.970e-04  t[s]:   9828.47
	Linear fluid (dielectric constant: 78.4, screening length: 5.74355 Bohr) occupying 0.631763 of unit cell:	Completed after 17 iterations at t[s]:   9830.84
	FillingsUpdate:  mu: -0.156967720  nElectrons: 498.000000
	Linear fluid (dielectric constant: 78.4, screening length: 5.74355 Bohr) occupying 0.631763 of unit cell:	Completed after 3 iterations at t[s]:   9931.38
SCF: Cycle: 52   F: -1915.786839619510829   dF: -2.604e-05   |Residual|: 9.810e-05   |deigs|: 1.750e-04  t[s]:   9934.33
	Linear fluid (dielectric constant: 78.4, screening length: 5.74355 Bohr) occupying 0.631763 of unit cell:	Completed after 3 iterations at t[s]:   9935.33
	FillingsUpdate:  mu: -0.156986775  nElectrons: 498.000000
	Linear fluid (dielectric constant: 78.4, screening length: 5.74355 Bohr) occupying 0.631765 of unit cell:	Completed after 3 iterations at t[s]:  10035.35
SCF: Cycle: 53   F: -1915.786839090576223   dF: +5.289e-07   |Residual|: 1.409e-04   |deigs|: 2.178e-05  t[s]:  10038.27
	Linear fluid (dielectric constant: 78.4, screening length: 5.74355 Bohr) occupying 0.631763 of unit cell:	Completed after 3 iterations at t[s]:  10039.30
	FillingsUpdate:  mu: -0.156982946  nElectrons: 498.000000
	Linear fluid (dielectric constant: 78.4, screening length: 5.74355 Bohr) occupying 0.631764 of unit cell:	Completed after 16 iterations at t[s]:  10159.51
SCF: Cycle: 54   F: -1915.786832628585444   dF: +6.462e-06   |Residual|: 2.222e-04   |deigs|: 3.388e-05  t[s]:  10162.26
	Linear fluid (dielectric constant: 78.4, screening length: 5.74355 Bohr) occupying 0.631762 of unit cell:	Completed after 17 iterations at t[s]:  10164.81
	FillingsUpdate:  mu: -0.156940044  nElectrons: 498.000000
	Linear fluid (dielectric constant: 78.4, screening length: 5.74355 Bohr) occupying 0.631762 of unit cell:	Completed after 8 iterations at t[s]:  10265.92
SCF: Cycle: 55   F: -1915.786838074343223   dF: -5.446e-06   |Residual|: 1.213e-04   |deigs|: 5.061e-05  t[s]:  10269.17
	Linear fluid (dielectric constant: 78.4, screening length: 5.74355 Bohr) occupying 0.631762 of unit cell:	Completed after 8 iterations at t[s]:  10270.58
	FillingsUpdate:  mu: -0.157028367  nElectrons: 498.000000
	Linear fluid (dielectric constant: 78.4, screening length: 5.74355 Bohr) occupying 0.631766 of unit cell:	Completed after 13 iterations at t[s]:  10375.38
SCF: Cycle: 56   F: -1915.786835210145227   dF: +2.864e-06   |Residual|: 2.126e-04   |deigs|: 8.305e-05  t[s]:  10378.50
	Linear fluid (dielectric constant: 78.4, screening length: 5.74355 Bohr) occupying 0.631762 of unit cell:	Completed after 14 iterations at t[s]:  10380.63
	FillingsUpdate:  mu: -0.156921207  nElectrons: 498.000000
	Linear fluid (dielectric constant: 78.4, screening length: 5.74355 Bohr) occupying 0.631759 of unit cell:	Completed after 9 iterations at t[s]:  10484.42
SCF: Cycle: 57   F: -1915.786838879238076   dF: -3.669e-06   |Residual|: 1.118e-04   |deigs|: 1.107e-04  t[s]:  10487.30
	Linear fluid (dielectric constant: 78.4, screening length: 5.74355 Bohr) occupying 0.631761 of unit cell:	Completed after 7 iterations at t[s]:  10488.70
	FillingsUpdate:  mu: -0.157019220  nElectrons: 498.000000
	Linear fluid (dielectric constant: 78.4, screening length: 5.74355 Bohr) occupying 0.631767 of unit cell:	Completed after 16 iterations at t[s]:  10592.46
SCF: Cycle: 58   F: -1915.786830458667282   dF: +8.421e-06   |Residual|: 2.341e-04   |deigs|: 1.218e-04  t[s]:  10595.00
	Linear fluid (dielectric constant: 78.4, screening length: 5.74355 Bohr) occupying 0.631762 of unit cell:	Completed after 17 iterations at t[s]:  10597.32
	FillingsUpdate:  mu: -0.156916319  nElectrons: 498.000000
	Linear fluid (dielectric constant: 78.4, screening length: 5.74355 Bohr) occupying 0.631760 of unit cell:	Completed after 14 iterations at t[s]:  10702.46
SCF: Cycle: 59   F: -1915.786835771712958   dF: -5.313e-06   |Residual|: 1.677e-04   |deigs|: 1.121e-04  t[s]:  10705.49
	Linear fluid (dielectric constant: 78.4, screening length: 5.74355 Bohr) occupying 0.631762 of unit cell:	Completed after 14 iterations at t[s]:  10707.52
	FillingsUpdate:  mu: -0.157041256  nElectrons: 498.000000
	Linear fluid (dielectric constant: 78.4, screening length: 5.74355 Bohr) occupying 0.631768 of unit cell:	Completed after 18 iterations at t[s]:  10813.20
SCF: Cycle: 60   F: -1915.786824769475515   dF: +1.100e-05   |Residual|: 2.855e-04   |deigs|: 1.354e-04  t[s]:  10816.52
	Linear fluid (dielectric constant: 78.4, screening length: 5.74355 Bohr) occupying 0.631762 of unit cell:	Completed after 18 iterations at t[s]:  10819.09
	FillingsUpdate:  mu: -0.156931798  nElectrons: 498.000000
	Linear fluid (dielectric constant: 78.4, screening length: 5.74355 Bohr) occupying 0.631761 of unit cell:	Completed after 13 iterations at t[s]:  10923.10
SCF: Cycle: 61   F: -1915.786836944442030   dF: -1.217e-05   |Residual|: 1.514e-04   |deigs|: 1.185e-04  t[s]:  10926.71
	Linear fluid (dielectric constant: 78.4, screening length: 5.74355 Bohr) occupying 0.631762 of unit cell:	Completed after 10 iterations at t[s]:  10928.73
	FillingsUpdate:  mu: -0.157131306  nElectrons: 498.000000
	Linear fluid (dielectric constant: 78.4, screening length: 5.74355 Bohr) occupying 0.631774 of unit cell:	Completed after 18 iterations at t[s]:  11033.42
SCF: Cycle: 62   F: -1915.786806690245385   dF: +3.025e-05   |Residual|: 4.461e-04   |deigs|: 2.083e-04  t[s]:  11036.26
	Linear fluid (dielectric constant: 78.4, screening length: 5.74355 Bohr) occupying 0.631763 of unit cell:	Completed after 18 iterations at t[s]:  11038.77
	FillingsUpdate:  mu: -0.156931149  nElectrons: 498.000000
	Linear fluid (dielectric constant: 78.4, screening length: 5.74355 Bohr) occupying 0.631762 of unit cell:	Completed after 10 iterations at t[s]:  11141.96
SCF: Cycle: 63   F: -1915.786836845057678   dF: -3.015e-05   |Residual|: 1.732e-04   |deigs|: 2.061e-04  t[s]:  11145.83
	Linear fluid (dielectric constant: 78.4, screening length: 5.74355 Bohr) occupying 0.631763 of unit cell:	Completed after 9 iterations at t[s]:  11147.82
	FillingsUpdate:  mu: -0.157100140  nElectrons: 498.000000
	Linear fluid (dielectric constant: 78.4, screening length: 5.74355 Bohr) occupying 0.631772 of unit cell:	Completed after 18 iterations at t[s]:  11252.37
SCF: Cycle: 64   F: -1915.786820210423230   dF: +1.663e-05   |Residual|: 3.583e-04   |deigs|: 1.679e-04  t[s]:  11255.13
	Linear fluid (dielectric constant: 78.4, screening length: 5.74355 Bohr) occupying 0.631763 of unit cell:	Completed after 17 iterations at t[s]:  11258.01
	FillingsUpdate:  mu: -0.156938448  nElectrons: 498.000000
	Linear fluid (dielectric constant: 78.4, screening length: 5.74355 Bohr) occupying 0.631762 of unit cell:	Completed after 8 iterations at t[s]:  11361.52
SCF: Cycle: 65   F: -1915.786838824175675   dF: -1.861e-05   |Residual|: 1.069e-04   |deigs|: 1.629e-04  t[s]:  11364.99
	Linear fluid (dielectric constant: 78.4, screening length: 5.74355 Bohr) occupying 0.631763 of unit cell:	Completed after 8 iterations at t[s]:  11366.51
	FillingsUpdate:  mu: -0.157008557  nElectrons: 498.000000
	Linear fluid (dielectric constant: 78.4, screening length: 5.74355 Bohr) occupying 0.631765 of unit cell:	Completed after 13 iterations at t[s]:  11466.20
SCF: Cycle: 66   F: -1915.786837979925849   dF: +8.442e-07   |Residual|: 1.322e-04   |deigs|: 6.548e-05  t[s]:  11468.96
	Linear fluid (dielectric constant: 78.4, screening length: 5.74355 Bohr) occupying 0.631764 of unit cell:	Completed after 13 iterations at t[s]:  11471.00
	FillingsUpdate:  mu: -0.156908666  nElectrons: 498.000000
	Linear fluid (dielectric constant: 78.4, screening length: 5.74355 Bohr) occupying 0.631759 of unit cell:	Completed after 13 iterations at t[s]:  11575.54
SCF: Cycle: 67   F: -1915.786838154091583   dF: -1.742e-07   |Residual|: 1.144e-04   |deigs|: 9.807e-05  t[s]:  11578.49
	Linear fluid (dielectric constant: 78.4, screening length: 5.74355 Bohr) occupying 0.631764 of unit cell:	Completed after 14 iterations at t[s]:  11587.29
	FillingsUpdate:  mu: -0.157011707  nElectrons: 498.000000
	Linear fluid (dielectric constant: 78.4, screening length: 5.74355 Bohr) occupying 0.631766 of unit cell:	Completed after 15 iterations at t[s]:  11827.05
SCF: Cycle: 68   F: -1915.786834735288721   dF: +3.419e-06   |Residual|: 1.799e-04   |deigs|: 1.107e-04  t[s]:  11830.51
	Linear fluid (dielectric constant: 78.4, screening length: 5.74355 Bohr) occupying 0.631764 of unit cell:	Completed after 14 iterations at t[s]:  11832.67
	FillingsUpdate:  mu: -0.156866094  nElectrons: 498.000000
	Linear fluid (dielectric constant: 78.4, screening length: 5.74355 Bohr) occupying 0.631757 of unit cell:	Completed after 17 iterations at t[s]:  11934.72
SCF: Cycle: 69   F: -1915.786826408921797   dF: +8.326e-06   |Residual|: 2.840e-04   |deigs|: 1.501e-04  t[s]:  11937.61
	Linear fluid (dielectric constant: 78.4, screening length: 5.74355 Bohr) occupying 0.631764 of unit cell:	Completed after 18 iterations at t[s]:  11940.06
	FillingsUpdate:  mu: -0.156989436  nElectrons: 498.000000
	Linear fluid (dielectric constant: 78.4, screening length: 5.74355 Bohr) occupying 0.631765 of unit cell:	Completed after 15 iterations at t[s]:  12044.43
SCF: Cycle: 70   F: -1915.786835235683839   dF: -8.827e-06   |Residual|: 1.770e-04   |deigs|: 1.299e-04  t[s]:  12048.04
	Linear fluid (dielectric constant: 78.4, screening length: 5.74355 Bohr) occupying 0.631764 of unit cell:	Completed after 14 iterations at t[s]:  12050.43
	FillingsUpdate:  mu: -0.156845789  nElectrons: 498.000000
	Linear fluid (dielectric constant: 78.4, screening length: 5.74355 Bohr) occupying 0.631756 of unit cell:	Completed after 17 iterations at t[s]:  12153.88
SCF: Cycle: 71   F: -1915.786821429044267   dF: +1.381e-05   |Residual|: 3.294e-04   |deigs|: 1.566e-04  t[s]:  12156.96
	Linear fluid (dielectric constant: 78.4, screening length: 5.74355 Bohr) occupying 0.631763 of unit cell:	Completed after 17 iterations at t[s]:  12159.59
	FillingsUpdate:  mu: -0.156973973  nElectrons: 498.000000
	Linear fluid (dielectric constant: 78.4, screening length: 5.74355 Bohr) occupying 0.631764 of unit cell:	Completed after 11 iterations at t[s]:  12274.36
SCF: Cycle: 72   F: -1915.786835279002844   dF: -1.385e-05   |Residual|: 1.909e-04   |deigs|: 1.419e-04  t[s]:  12277.28
	Linear fluid (dielectric constant: 78.4, screening length: 5.74355 Bohr) occupying 0.631764 of unit cell:	Completed after 10 iterations at t[s]:  12278.91
	FillingsUpdate:  mu: -0.156859891  nElectrons: 498.000000
	Linear fluid (dielectric constant: 78.4, screening length: 5.74355 Bohr) occupying 0.631756 of unit cell:	Completed after 16 iterations at t[s]:  12383.23
SCF: Cycle: 73   F: -1915.786826413490871   dF: +8.866e-06   |Residual|: 3.028e-04   |deigs|: 1.387e-04  t[s]:  12386.54
	Linear fluid (dielectric constant: 78.4, screening length: 5.74355 Bohr) occupying 0.631764 of unit cell:	Completed after 16 iterations at t[s]:  12389.06
	FillingsUpdate:  mu: -0.156978056  nElectrons: 498.000000
	Linear fluid (dielectric constant: 78.4, screening length: 5.74355 Bohr) occupying 0.631764 of unit cell:	Completed after 8 iterations at t[s]:  12492.28
SCF: Cycle: 74   F: -1915.786839148331865   dF: -1.273e-05   |Residual|: 1.098e-04   |deigs|: 1.254e-04  t[s]:  12495.59
	Linear fluid (dielectric constant: 78.4, screening length: 5.74355 Bohr) occupying 0.631764 of unit cell:	Completed after 3 iterations at t[s]:  12496.65
	FillingsUpdate:  mu: -0.157077286  nElectrons: 498.000000
	Linear fluid (dielectric constant: 78.4, screening length: 5.74355 Bohr) occupying 0.631771 of unit cell:	Completed after 19 iterations at t[s]:  12611.20
SCF: Cycle: 75   F: -1915.786801703574156   dF: +3.744e-05   |Residual|: 4.507e-04   |deigs|: 1.392e-04  t[s]:  12614.68
	Linear fluid (dielectric constant: 78.4, screening length: 5.74355 Bohr) occupying 0.631764 of unit cell:	Completed after 19 iterations at t[s]:  12617.31
	FillingsUpdate:  mu: -0.156925989  nElectrons: 498.000000
	Linear fluid (dielectric constant: 78.4, screening length: 5.74355 Bohr) occupying 0.631762 of unit cell:	Completed after 15 iterations at t[s]:  12722.36
SCF: Cycle: 76   F: -1915.786832728474565   dF: -3.102e-05   |Residual|: 2.363e-04   |deigs|: 1.737e-04  t[s]:  12725.35
	Linear fluid (dielectric constant: 78.4, screening length: 5.74355 Bohr) occupying 0.631765 of unit cell:	Completed after 15 iterations at t[s]:  12727.44
	FillingsUpdate:  mu: -0.157044765  nElectrons: 498.000000
	Linear fluid (dielectric constant: 78.4, screening length: 5.74355 Bohr) occupying 0.631768 of unit cell:	Completed after 18 iterations at t[s]:  12831.11
SCF: Cycle: 77   F: -1915.786827057832170   dF: +5.671e-06   |Residual|: 2.808e-04   |deigs|: 1.263e-04  t[s]:  12834.87
	Linear fluid (dielectric constant: 78.4, screening length: 5.74355 Bohr) occupying 0.631764 of unit cell:	Completed after 17 iterations at t[s]:  12837.45
	FillingsUpdate:  mu: -0.156927412  nElectrons: 498.000000
	Linear fluid (dielectric constant: 78.4, screening length: 5.74355 Bohr) occupying 0.631761 of unit cell:	Completed after 14 iterations at t[s]:  12940.65
SCF: Cycle: 78   F: -1915.786835157512769   dF: -8.100e-06   |Residual|: 1.879e-04   |deigs|: 1.261e-04  t[s]:  12944.18
	Linear fluid (dielectric constant: 78.4, screening length: 5.74355 Bohr) occupying 0.631764 of unit cell:	Completed after 14 iterations at t[s]:  12946.27
	FillingsUpdate:  mu: -0.157068463  nElectrons: 498.000000
	Linear fluid (dielectric constant: 78.4, screening length: 5.74355 Bohr) occupying 0.631770 of unit cell:	Completed after 18 iterations at t[s]:  13050.00
SCF: Cycle: 79   F: -1915.786822019463671   dF: +1.314e-05   |Residual|: 3.145e-04   |deigs|: 1.518e-04  t[s]:  13053.08
	Linear fluid (dielectric constant: 78.4, screening length: 5.74355 Bohr) occupying 0.631763 of unit cell:	Completed after 17 iterations at t[s]:  13055.67
	FillingsUpdate:  mu: -0.156932243  nElectrons: 498.000000
	Linear fluid (dielectric constant: 78.4, screening length: 5.74355 Bohr) occupying 0.631762 of unit cell:	Completed after 14 iterations at t[s]:  13159.16
SCF: Cycle: 80   F: -1915.786834640804045   dF: -1.262e-05   |Residual|: 1.919e-04   |deigs|: 1.450e-04  t[s]:  13161.97
	Linear fluid (dielectric constant: 78.4, screening length: 5.74355 Bohr) occupying 0.631763 of unit cell:	Completed after 13 iterations at t[s]:  13164.34
	FillingsUpdate:  mu: -0.157093690  nElectrons: 498.000000
	Linear fluid (dielectric constant: 78.4, screening length: 5.74355 Bohr) occupying 0.631772 of unit cell:	Completed after 18 iterations at t[s]:  13269.98
SCF: Cycle: 81   F: -1915.786817496936919   dF: +1.714e-05   |Residual|: 3.456e-04   |deigs|: 1.691e-04  t[s]:  13272.80
	Linear fluid (dielectric constant: 78.4, screening length: 5.74355 Bohr) occupying 0.631763 of unit cell:	Completed after 18 iterations at t[s]:  13275.19
	FillingsUpdate:  mu: -0.156936833  nElectrons: 498.000000
	Linear fluid (dielectric constant: 78.4, screening length: 5.74355 Bohr) occupying 0.631762 of unit cell:	Completed after 13 iterations at t[s]:  13379.35
SCF: Cycle: 82   F: -1915.786835760067333   dF: -1.826e-05   |Residual|: 1.786e-04   |deigs|: 1.639e-04  t[s]:  13382.45
	Linear fluid (dielectric constant: 78.4, screening length: 5.74355 Bohr) occupying 0.631763 of unit cell:	Completed after 10 iterations at t[s]:  13384.32
	FillingsUpdate:  mu: -0.157136782  nElectrons: 498.000000
	Linear fluid (dielectric constant: 78.4, screening length: 5.74355 Bohr) occupying 0.631774 of unit cell:	Completed after 18 iterations at t[s]:  13489.32
SCF: Cycle: 83   F: -1915.786806287251466   dF: +2.947e-05   |Residual|: 4.468e-04   |deigs|: 2.055e-04  t[s]:  13493.09
	Linear fluid (dielectric constant: 78.4, screening length: 5.74355 Bohr) occupying 0.631763 of unit cell:	Completed after 18 iterations at t[s]:  13495.80
	FillingsUpdate:  mu: -0.156933880  nElectrons: 498.000000
	Linear fluid (dielectric constant: 78.4, screening length: 5.74355 Bohr) occupying 0.631762 of unit cell:	Completed after 10 iterations at t[s]:  13597.58
SCF: Cycle: 84   F: -1915.786836975916231   dF: -3.069e-05   |Residual|: 1.626e-04   |deigs|: 2.082e-04  t[s]:  13600.87
	Linear fluid (dielectric constant: 78.4, screening length: 5.74355 Bohr) occupying 0.631763 of unit cell:	Completed after 9 iterations at t[s]:  13602.55
	FillingsUpdate:  mu: -0.157076044  nElectrons: 498.000000
	Linear fluid (dielectric constant: 78.4, screening length: 5.74355 Bohr) occupying 0.631770 of unit cell:	Completed after 17 iterations at t[s]:  13707.19
SCF: Cycle: 85   F: -1915.786823820879363   dF: +1.316e-05   |Residual|: 3.203e-04   |deigs|: 1.407e-04  t[s]:  13710.75
	Linear fluid (dielectric constant: 78.4, screening length: 5.74355 Bohr) occupying 0.631763 of unit cell:	Completed after 18 iterations at t[s]:  13713.51
	FillingsUpdate:  mu: -0.156943884  nElectrons: 498.000000
	Linear fluid (dielectric constant: 78.4, screening length: 5.74355 Bohr) occupying 0.631762 of unit cell:	Completed after 8 iterations at t[s]:  13815.47
SCF: Cycle: 86   F: -1915.786838448549588   dF: -1.463e-05   |Residual|: 1.183e-04   |deigs|: 1.327e-04  t[s]:  13818.39
	Linear fluid (dielectric constant: 78.4, screening length: 5.74355 Bohr) occupying 0.631763 of unit cell:	Completed after 8 iterations at t[s]:  13819.99
	FillingsUpdate:  mu: -0.156971737  nElectrons: 498.000000
	Linear fluid (dielectric constant: 78.4, screening length: 5.74355 Bohr) occupying 0.631763 of unit cell:	Completed after 5 iterations at t[s]:  13921.57
SCF: Cycle: 87   F: -1915.786839284605094   dF: -8.361e-07   |Residual|: 1.182e-04   |deigs|: 2.790e-05  t[s]:  13924.41
	Linear fluid (dielectric constant: 78.4, screening length: 5.74355 Bohr) occupying 0.631763 of unit cell:	Completed after 3 iterations at t[s]:  13925.44
	FillingsUpdate:  mu: -0.156983095  nElectrons: 498.000000
	Linear fluid (dielectric constant: 78.4, screening length: 5.74355 Bohr) occupying 0.631765 of unit cell:	Completed after 7 iterations at t[s]:  14026.82
SCF: Cycle: 88   F: -1915.786837929584863   dF: +1.355e-06   |Residual|: 1.308e-04   |deigs|: 4.043e-05  t[s]:  14029.53
	Linear fluid (dielectric constant: 78.4, screening length: 5.74355 Bohr) occupying 0.631763 of unit cell:	Completed after 8 iterations at t[s]:  14031.00
	FillingsUpdate:  mu: -0.156926657  nElectrons: 498.000000
	Linear fluid (dielectric constant: 78.4, screening length: 5.74355 Bohr) occupying 0.631760 of unit cell:	Completed after 15 iterations at t[s]:  14135.31
SCF: Cycle: 89   F: -1915.786835731532165   dF: +2.198e-06   |Residual|: 1.996e-04   |deigs|: 7.848e-05  t[s]:  14138.72
	Linear fluid (dielectric constant: 78.4, screening length: 5.74355 Bohr) occupying 0.631763 of unit cell:	Completed after 14 iterations at t[s]:  14140.81
	FillingsUpdate:  mu: -0.157022382  nElectrons: 498.000000
	Linear fluid (dielectric constant: 78.4, screening length: 5.74355 Bohr) occupying 0.631767 of unit cell:	Completed after 8 iterations at t[s]:  14244.13
SCF: Cycle: 90   F: -1915.786838960057139   dF: -3.229e-06   |Residual|: 1.168e-04   |deigs|: 1.024e-04  t[s]:  14246.87
	Linear fluid (dielectric constant: 78.4, screening length: 5.74355 Bohr) occupying 0.631762 of unit cell:	Completed after 4 iterations at t[s]:  14247.90
	FillingsUpdate:  mu: -0.156921457  nElectrons: 498.000000
	Linear fluid (dielectric constant: 78.4, screening length: 5.74355 Bohr) occupying 0.631762 of unit cell:	Completed after 12 iterations at t[s]:  14347.52
SCF: Cycle: 91   F: -1915.786817318750991   dF: +2.164e-05   |Residual|: 3.969e-04   |deigs|: 9.572e-05  t[s]:  14350.17
	Linear fluid (dielectric constant: 78.4, screening length: 5.74355 Bohr) occupying 0.631763 of unit cell:	Completed after 12 iterations at t[s]:  14352.28
	FillingsUpdate:  mu: -0.157012889  nElectrons: 498.000000
	Linear fluid (dielectric constant: 78.4, screening length: 5.74355 Bohr) occupying 0.631766 of unit cell:	Completed after 14 iterations at t[s]:  14458.04
SCF: Cycle: 92   F: -1915.786836781420561   dF: -1.946e-05   |Residual|: 1.777e-04   |deigs|: 8.474e-05  t[s]:  14460.67
	Linear fluid (dielectric constant: 78.4, screening length: 5.74355 Bohr) occupying 0.631762 of unit cell:	Completed after 13 iterations at t[s]:  14462.81
	FillingsUpdate:  mu: -0.156881610  nElectrons: 498.000000
	Linear fluid (dielectric constant: 78.4, screening length: 5.74355 Bohr) occupying 0.631758 of unit cell:	Completed after 13 iterations at t[s]:  14565.72
SCF: Cycle: 93   F: -1915.786835524399976   dF: +1.257e-06   |Residual|: 1.844e-04   |deigs|: 1.256e-04  t[s]:  14569.03
	Linear fluid (dielectric constant: 78.4, screening length: 5.74355 Bohr) occupying 0.631762 of unit cell:	Completed after 14 iterations at t[s]:  14571.28
	FillingsUpdate:  mu: -0.157072667  nElectrons: 498.000000
	Linear fluid (dielectric constant: 78.4, screening length: 5.74355 Bohr) occupying 0.631770 of unit cell:	Completed after 16 iterations at t[s]:  14675.34
SCF: Cycle: 94   F: -1915.786825540979862   dF: +9.983e-06   |Residual|: 2.893e-04   |deigs|: 1.988e-04  t[s]:  14677.64
	Linear fluid (dielectric constant: 78.4, screening length: 5.74355 Bohr) occupying 0.631762 of unit cell:	Completed after 16 iterations at t[s]:  14680.36
	FillingsUpdate:  mu: -0.156918686  nElectrons: 498.000000
	Linear fluid (dielectric constant: 78.4, screening length: 5.74355 Bohr) occupying 0.631761 of unit cell:	Completed after 18 iterations at t[s]:  14787.18
SCF: Cycle: 95   F: -1915.786832064113014   dF: -6.523e-06   |Residual|: 2.326e-04   |deigs|: 1.613e-04  t[s]:  14790.26
	Linear fluid (dielectric constant: 78.4, screening length: 5.74355 Bohr) occupying 0.631762 of unit cell:	Completed after 15 iterations at t[s]:  14792.39
	FillingsUpdate:  mu: -0.157037445  nElectrons: 498.000000
	Linear fluid (dielectric constant: 78.4, screening length: 5.74355 Bohr) occupying 0.631768 of unit cell:	Completed after 18 iterations at t[s]:  14897.93
SCF: Cycle: 96   F: -1915.786821442416340   dF: +1.062e-05   |Residual|: 3.366e-04   |deigs|: 1.342e-04  t[s]:  14901.12
	Linear fluid (dielectric constant: 78.4, screening length: 5.74355 Bohr) occupying 0.631763 of unit cell:	Completed after 18 iterations at t[s]:  14903.67
	FillingsUpdate:  mu: -0.156919955  nElectrons: 498.000000
	Linear fluid (dielectric constant: 78.4, screening length: 5.74355 Bohr) occupying 0.631761 of unit cell:	Completed after 15 iterations at t[s]:  15007.15
SCF: Cycle: 97   F: -1915.786833814806869   dF: -1.237e-05   |Residual|: 2.133e-04   |deigs|: 1.336e-04  t[s]:  15009.79
	Linear fluid (dielectric constant: 78.4, screening length: 5.74355 Bohr) occupying 0.631763 of unit cell:	Completed after 15 iterations at t[s]:  15011.98
	FillingsUpdate:  mu: -0.157031674  nElectrons: 498.000000
	Linear fluid (dielectric constant: 78.4, screening length: 5.74355 Bohr) occupying 0.631767 of unit cell:	Completed after 17 iterations at t[s]:  15118.99
SCF: Cycle: 98   F: -1915.786827627408456   dF: +6.187e-06   |Residual|: 2.689e-04   |deigs|: 1.216e-04  t[s]:  15122.28
	Linear fluid (dielectric constant: 78.4, screening length: 5.74355 Bohr) occupying 0.631763 of unit cell:	Completed after 17 iterations at t[s]:  15124.74
	FillingsUpdate:  mu: -0.156926161  nElectrons: 498.000000
	Linear fluid (dielectric constant: 78.4, screening length: 5.74355 Bohr) occupying 0.631761 of unit cell:	Completed after 13 iterations at t[s]:  15227.85
SCF: Cycle: 99   F: -1915.786834806779325   dF: -7.179e-06   |Residual|: 1.932e-04   |deigs|: 1.147e-04  t[s]:  15231.18
	Linear fluid (dielectric constant: 78.4, screening length: 5.74355 Bohr) occupying 0.631763 of unit cell:	Completed after 13 iterations at t[s]:  15233.44
	FillingsUpdate:  mu: -0.157085127  nElectrons: 498.000000
	Linear fluid (dielectric constant: 78.4, screening length: 5.74355 Bohr) occupying 0.631771 of unit cell:	Completed after 18 iterations at t[s]:  15339.05
SCF: Cycle: 100   F: -1915.786816116576119   dF: +1.869e-05   |Residual|: 3.579e-04   |deigs|: 1.700e-04  t[s]:  15342.21
	Linear fluid (dielectric constant: 78.4, screening length: 5.74355 Bohr) occupying 0.631763 of unit cell:	Completed after 18 iterations at t[s]:  15344.92
	FillingsUpdate:  mu: -0.156930068  nElectrons: 498.000000
	Linear fluid (dielectric constant: 78.4, screening length: 5.74355 Bohr) occupying 0.631762 of unit cell:	Completed after 13 iterations at t[s]:  15450.34
SCF: Cycle: 101   F: -1915.786834923143488   dF: -1.881e-05   |Residual|: 1.948e-04   |deigs|: 1.635e-04  t[s]:  15453.91
	Linear fluid (dielectric constant: 78.4, screening length: 5.74355 Bohr) occupying 0.631763 of unit cell:	Completed after 10 iterations at t[s]:  15455.63
	FillingsUpdate:  mu: -0.157153368  nElectrons: 498.000000
	Linear fluid (dielectric constant: 78.4, screening length: 5.74355 Bohr) occupying 0.631776 of unit cell:	Completed after 18 iterations at t[s]:  15560.46
SCF: Cycle: 102   F: -1915.786800037440344   dF: +3.489e-05   |Residual|: 4.926e-04   |deigs|: 2.284e-04  t[s]:  15563.22
	Linear fluid (dielectric constant: 78.4, screening length: 5.74355 Bohr) occupying 0.631762 of unit cell:	Completed after 19 iterations at t[s]:  15565.83
	FillingsUpdate:  mu: -0.156937346  nElectrons: 498.000000
	Linear fluid (dielectric constant: 78.4, screening length: 5.74355 Bohr) occupying 0.631762 of unit cell:	Completed after 9 iterations at t[s]:  15670.70
SCF: Cycle: 103   F: -1915.786837105588802   dF: -3.707e-05   |Residual|: 1.629e-04   |deigs|: 2.224e-04  t[s]:  15674.48
	Linear fluid (dielectric constant: 78.4, screening length: 5.74355 Bohr) occupying 0.631763 of unit cell:	Completed after 9 iterations at t[s]:  15676.32
	FillingsUpdate:  mu: -0.157067580  nElectrons: 498.000000
	Linear fluid (dielectric constant: 78.4, screening length: 5.74355 Bohr) occupying 0.631769 of unit cell:	Completed after 15 iterations at t[s]:  15780.60
SCF: Cycle: 104   F: -1915.786826414630013   dF: +1.069e-05   |Residual|: 3.036e-04   |deigs|: 1.269e-04  t[s]:  15783.83
	Linear fluid (dielectric constant: 78.4, screening length: 5.74355 Bohr) occupying 0.631763 of unit cell:	Completed after 16 iterations at t[s]:  15786.06
	FillingsUpdate:  mu: -0.156938298  nElectrons: 498.000000
	Linear fluid (dielectric constant: 78.4, screening length: 5.74355 Bohr) occupying 0.631762 of unit cell:	Completed after 8 iterations at t[s]:  15891.42
SCF: Cycle: 105   F: -1915.786839318291413   dF: -1.290e-05   |Residual|: 1.007e-04   |deigs|: 1.289e-04  t[s]:  15893.93
	Linear fluid (dielectric constant: 78.4, screening length: 5.74355 Bohr) occupying 0.631763 of unit cell:	Completed after 7 iterations at t[s]:  15895.48
	FillingsUpdate:  mu: -0.156963619  nElectrons: 498.000000
	Linear fluid (dielectric constant: 78.4, screening length: 5.74355 Bohr) occupying 0.631762 of unit cell:	Completed after 9 iterations at t[s]:  15997.68
SCF: Cycle: 106   F: -1915.786838751404503   dF: +5.669e-07   |Residual|: 8.366e-05   |deigs|: 2.669e-05  t[s]:  16000.45
	Linear fluid (dielectric constant: 78.4, screening length: 5.74355 Bohr) occupying 0.631763 of unit cell:	Completed after 6 iterations at t[s]:  16001.76
	FillingsUpdate:  mu: -0.157092158  nElectrons: 498.000000
	Linear fluid (dielectric constant: 78.4, screening length: 5.74355 Bohr) occupying 0.631772 of unit cell:	Completed after 15 iterations at t[s]:  16140.94
SCF: Cycle: 107   F: -1915.786822296270429   dF: +1.646e-05   |Residual|: 3.403e-04   |deigs|: 1.563e-04  t[s]:  16143.77
	Linear fluid (dielectric constant: 78.4, screening length: 5.74355 Bohr) occupying 0.631763 of unit cell:	Completed after 16 iterations at t[s]:  16146.09
	FillingsUpdate:  mu: -0.156921870  nElectrons: 498.000000
[...]
    |600>  occupation: 2  eigenvalue: -0.812524
    |610>  occupation: 2  eigenvalue: -0.420386
  lMax: 2  lLocal: 3  QijEcut: 5
  6 projectors sampled on a log grid with 747 points:
    l: 0  eig: -0.812524  rCut: 2.5
    l: 0  eig: 0.500000  rCut: 2.5
    l: 1  eig: -0.420386  rCut: 2.5
    l: 1  eig: 1.000000  rCut: 2.5
    l: 2  eig: -1.293263  rCut: 2.3
    l: 2  eig: -0.500000  rCut: 2.3
  Partial core density with radius 1
  Transforming core density to a uniform radial grid of dG=0.02 with 1670 points.
  Transforming local potential to a uniform radial grid of dG=0.02 with 1670 points.
  Transforming nonlocal projectors to a uniform radial grid of dG=0.02 with 432 points.
  Transforming density augmentations to a uniform radial grid of dG=0.02 with 1670 points.
  Transforming atomic orbitals to a uniform radial grid of dG=0.02 with 432 points.
  Core radius for overlap checks: 2.50 bohrs.

Reading pseudopotential file '/home/guoxy/vasp/jdftx-1.5.0/build/pseudopotentials/GBRV/te_pbe.uspp':
  Title: Te.  Created by USPP 7.3.6 on 14-9-2013
  Reference state energy: -13.134220.  6 valence electrons in orbitals:
    |500>  occupation: 2  eigenvalue: -0.555231
    |510>  occupation: 4  eigenvalue: -0.218781
  lMax: 2  lLocal: 2  QijEcut: 5
  5 projectors sampled on a log grid with 723 points:
    l: 0  eig: -0.555229  rCut: 2.1
    l: 0  eig: 1.000000  rCut: 2.1
    l: 1  eig: -0.218780  rCut: 2.1
    l: 1  eig: 1.000000  rCut: 2.1
    l: 2  eig: 1.000000  rCut: 2.6
  Partial core density with radius 1.8
  Transforming core density to a uniform radial grid of dG=0.02 with 1670 points.
  Transforming local potential to a uniform radial grid of dG=0.02 with 1670 points.
  Transforming nonlocal projectors to a uniform radial grid of dG=0.02 with 432 points.
  Transforming density augmentations to a uniform radial grid of dG=0.02 with 1670 points.
  Transforming atomic orbitals to a uniform radial grid of dG=0.02 with 432 points.
  Core radius for overlap checks: 2.60 bohrs.

Initialized 2 species with 47 total atoms.

Folded 1 k-points by 4x4x1 to 16 k-points.

---------- Setting up k-points, bands, fillings ----------
Adding inversion symmetry to k-mesh for non-inversion-symmetric unit cell.
Reduced to 10 k-points under symmetry. 
Computing the number of bands and number of electrons
Reading initial fillings from file NbTe2.fillings.
nElectrons: 498.000000   nBands: 308   nStates: 10

----- Setting up reduced wavefunction bases (one per k-point) -----
average nbasis = 72473.688 , ideal nbasis = 72469.710

---------- Setting up coulomb interaction ----------
Fluid mode embedding: using embedded box, but periodic Coulomb kernel.
(Fluid response is responsible for (approximate) separation between periodic images.)
Setting up double-sized grid for truncated Coulomb potentials:
R = 
[    16.7546   -8.37728          0  ]
[          0    14.5082          0  ]
[          0          0    139.573  ]
unit cell volume = 33927.2
G =
[   0.375014   0.216539         -0  ]
[          0   0.433077          0  ]
[          0         -0  0.0450173  ]
Chosen fftbox size, S = [  80  80  640  ]
Integer grid location selected as the embedding center:
   Grid: [  0  0  160  ]
   Lattice: [  0  0  0.5  ]
   Cartesian: [  0  0  34.8931  ]
Constructing Wigner-Seitz cell: 8 faces (6 quadrilaterals, 2 hexagons)
Range-separation parameter for embedded mesh potentials due to point charges: 0.589142 bohrs.

Initializing van der Waals corrections
	NOTE: vdW corrections apply only for interactions with fluid.
	Bi:  C6:  893.28 Eh-a0^6  R0: 3.555 a0 (WARNING: beyond Grimme's data set)
	Te:  C6:  550.54 Eh-a0^6  R0: 3.575 a0

---------- Setting up ewald sum ----------
Optimum gaussian width for ewald sums = 6.798445 bohr.
Real space sum over 845 unit cells with max indices [  6  6  2  ]
Reciprocal space sum over 8107 terms with max indices [  5  5  33  ]

---------- Allocating electronic variables ----------
Initializing wave functions:  reading from 'NbTe2.wfns'
----- createFluidSolver() ----- (Fluid-side solver setup)
   Initializing fluid molecule 'H2O'
     Initializing site 'O'
       Electron density: proportional to exp(-r/0.36935)*erfc((r-0.51523)/0.36823) with norm 6.826
       Charge density: gaussian nuclear width 0.478731 with net site charge 0.826
       Polarizability: cuspless exponential with width 0.32 and norm 3.73
       Hard sphere radius: 2.57003 bohrs
       Positions in reference frame:
         [ +0.000000 +0.000000 +0.000000 ]
     Initializing site 'H'
       Electron density: proportional to exp(-r/0.34641)*erfc((r-0)/0.390882) with norm 0.587
       Charge density: gaussian nuclear width 0.377945 with net site charge -0.413
       Polarizability: cuspless exponential with width 0.39 and norm 3.3
       Positions in reference frame:
         [ +0.000000 -1.441945 +1.122523 ]
         [ +0.000000 +1.441945 +1.122523 ]
     Net charge: 0   dipole magnitude: 0.927204
     Initializing spherical shell mfKernel with radius 2.61727 Bohr
     deltaS corrections:
       site 'O': -7.54299
       site 'H': -6.83917
   Initializing fluid molecule 'Na+'
     Initializing site 'Na'
       Electron density: proportional to exp(-r/0.19682)*erfc((r-0.71491)/0.41314) with norm 8.1383
       Charge density: gaussian nuclear width 0.365347 with net site charge -1
       Hard sphere radius: 1.86327 bohrs
       Positions in reference frame:
         [ +0.000000 +0.000000 +0.000000 ]
     Net charge: -1   dipole magnitude: 0
     Initializing gaussian mfKernel with width: 1.55004 Bohr
     deltaS corrections:
       site 'Na': -22.3555
   Initializing fluid molecule 'F-'
     Initializing site 'F'
       Electron density: proportional to exp(-r/0.38886)*erfc((r-0)/0.438782) with norm 8
       Charge density: gaussian nuclear width 0.374796 with net site charge 1
       Hard sphere radius: 2.39995 bohrs
       Positions in reference frame:
         [ +0.000000 +0.000000 +0.000000 ]
     Net charge: 1   dipole magnitude: 0
     Initializing gaussian mfKernel with width: 1.59012 Bohr
     deltaS corrections:
       site 'F': -9.04335

Correction to mu due to finite nuclear width = -0.014564
   Cavity determined by nc: 0.00142 and sigma: 0.707107
   Nonlocal vdW cavity from gaussian model electron density with norm = 8 and sigma = 0.993594 bohr
   Charge asymmetry in cavity with sensitivity pCavity = 36.5 e-bohr/Eh
   Electrostatic cavity expanded by eta = 1.46 bohrs
   Weighted density cavitation model constrained by Nbulk: 0.0049383 bohr^-3, Pvap: 3.14029 kPa, Rvdw: 2.61727 bohr and sigmaBulk: 4.62e-05 Eh/bohr^2 at T: 298 K.
   Weighted density dispersion model using vdW pair potentials with single solvent site with sqrtC6eff: 0.77 SI.
Reading fluid state from 'NbTe2.fluidState'


---- Citations for features of the code used in this run ----

   Software package:
      R. Sundararaman, K. Letchworth-Weaver, K.A. Schwarz, D. Gunceler, Y. Ozhabes and T.A. Arias, 'JDFTx: software for joint density-functional theory', SoftwareX 6, 278 (2017)

   gga-PBE exchange-correlation functional:
      J.P. Perdew, K. Burke and M. Ernzerhof, Phys. Rev. Lett. 77, 3865 (1996)

   Pseudopotentials:
      KF Garrity, JW Bennett, KM Rabe and D Vanderbilt, Comput. Mater. Sci. 81, 446 (2014)

   Truncated Coulomb potentials:
      R. Sundararaman and T.A. Arias, Phys. Rev. B 87, 165122 (2013)

   Van der Waals correction pair-potentials:
      S. Grimme, J. Comput. Chem. 27, 1787 (2006)

   Charge-asymmetric nonlocally-determined local-electric (CANDLE) solvation model:
      R. Sundararaman and W.A. Goddard III, J. Chem. Phys. 142, 064107 (2015)

   Total energy minimization with Auxiliary Hamiltonian:
      C. Freysoldt, S. Boeck, and J. Neugebauer, Phys. Rev. B 79, 241103(R) (2009)

This list may not be complete. Please suggest additional citations or
report any other bugs at https://github.com/shankar1729/jdftx/issues

Initialization completed successfully at t[s]:     45.87

	Linear fluid (dielectric constant: 78.4, screening length: 5.74355 Bohr) occupying 0.631763 of unit cell:	Completed after 8 iterations at t[s]:     54.66

-------- Electronic minimization -----------
	Linear fluid (dielectric constant: 78.4, screening length: 5.74355 Bohr) occupying 0.631763 of unit cell:	Completed after 0 iterations at t[s]:     63.54
	FillingsUpdate:  mu: -0.157394239  nElectrons: 498.000000
ElecMinimize: Iter:   0  F: -1915.786836759982180  |grad|_K:  5.398e-07  alpha:  1.000e+00
	Linear fluid (dielectric constant: 78.4, screening length: 5.74355 Bohr) occupying 0.631776 of unit cell:	Completed after 23 iterations at t[s]:     99.39
	Linear fluid (dielectric constant: 78.4, screening length: 5.74355 Bohr) occupying 0.631763 of unit cell:	Completed after 23 iterations at t[s]:    126.79
	FillingsUpdate:  mu: -0.157084588  nElectrons: 498.000000
	SubspaceRotationAdjust: set factor to 0.531
ElecMinimize: Iter:   1  F: -1915.786839857259565  |grad|_K:  8.589e-08  alpha:  4.758e-02  linmin:  3.935e-04  t[s]:    143.44
	Linear fluid (dielectric constant: 78.4, screening length: 5.74355 Bohr) occupying 0.631763 of unit cell:	Completed after 0 iterations at t[s]:    172.94
ElecMinimize: 	Predicted alpha/alphaT>3.000000, increasing alphaT to 1.427262e-01.
	Linear fluid (dielectric constant: 78.4, screening length: 5.74355 Bohr) occupying 0.631764 of unit cell:	Completed after 3 iterations at t[s]:    188.28
	Linear fluid (dielectric constant: 78.4, screening length: 5.74355 Bohr) occupying 0.631764 of unit cell:	Completed after 0 iterations at t[s]:    203.17
	FillingsUpdate:  mu: -0.157035280  nElectrons: 498.000000
	SubspaceRotationAdjust: set factor to 0.244
ElecMinimize: Iter:   2  F: -1915.786840025564288  |grad|_K:  2.900e-08  alpha:  1.045e-01  linmin:  2.824e-03  t[s]:    221.32
	Linear fluid (dielectric constant: 78.4, screening length: 5.74355 Bohr) occupying 0.631764 of unit cell:	Completed after 0 iterations at t[s]:    237.99
ElecMinimize: 	Predicted alpha/alphaT>3.000000, increasing alphaT to 3.134543e-01.
	Linear fluid (dielectric constant: 78.4, screening length: 5.74355 Bohr) occupying 0.631764 of unit cell:	Completed after 2 iterations at t[s]:    252.90
	Linear fluid (dielectric constant: 78.4, screening length: 5.74355 Bohr) occupying 0.631764 of unit cell:	Completed after 0 iterations at t[s]:    266.98
	FillingsUpdate:  mu: -0.157013930  nElectrons: 498.000000
	SubspaceRotationAdjust: set factor to 0.118
	SubspaceRotationAdjust: resetting CG because factor has changed by 0.118163
	Linear fluid (dielectric constant: 78.4, screening length: 5.74355 Bohr) occupying 0.631764 of unit cell:	Completed after 0 iterations at t[s]:    293.91
ElecMinimize: 	State modified externally: resetting search direction.
ElecMinimize: Iter:   3  F: -1915.786840028623601  |grad|_K:  1.012e-08  alpha:  1.530e-01
	Linear fluid (dielectric constant: 78.4, screening length: 5.74355 Bohr) occupying 0.631764 of unit cell:	Completed after 0 iterations at t[s]:    327.83
ElecMinimize: 	Predicted alpha/alphaT>3.000000, increasing alphaT to 4.591019e-01.
	Linear fluid (dielectric constant: 78.4, screening length: 5.74355 Bohr) occupying 0.631764 of unit cell:	Completed after 0 iterations at t[s]:    342.14
ElecMinimize: 	Predicted alpha/alphaT>3.000000, increasing alphaT to 1.377306e+00.
	Linear fluid (dielectric constant: 78.4, screening length: 5.74355 Bohr) occupying 0.631765 of unit cell:	Completed after 1 iterations at t[s]:    357.83
	Linear fluid (dielectric constant: 78.4, screening length: 5.74355 Bohr) occupying 0.631765 of unit cell:	Completed after 0 iterations at t[s]:    372.47
	FillingsUpdate:  mu: -0.156998397  nElectrons: 498.000000
	SubspaceRotationAdjust: set factor to 0.192
ElecMinimize: Iter:   4  F: -1915.786840031561042  |grad|_K:  5.211e-09  alpha:  6.877e-01  linmin: -2.554e-04  t[s]:    390.98
ElecMinimize: Converged (|Delta F|<1.000000e-08 for 2 iters).
Setting wave functions to eigenvectors of Hamiltonian

# Ionic positions in lattice coordinates:
ion Bi   0.168118595450887   0.333192594289291   0.637652498768168 0
ion Bi   0.665066687199559   0.333168622103996   0.637653663284594 0
ion Bi   0.168002783200000   0.835828345638053   0.637601990871643 0
ion Bi   0.666985438805325   0.833832482521201   0.637458319847190 0
ion Bi   0.333042119470115   0.165949588195415   0.362605214679335 0
ion Bi   0.833176911745088   0.166224803600423   0.362505662089445 0
ion Bi   0.333134552471013   0.666181536594055   0.362510203317751 0
ion Bi   0.833062261112778   0.666181528450659   0.362512097926076 0
ion Bi  -0.000258522156768  -0.000603118932214   0.252838387230989 0
ion Bi   0.499755159400547  -0.000522075429243   0.252845284181049 0
ion Bi  -0.000200856450899   0.499400257861816   0.252857437374895 0
ion Bi   0.499682551967384   0.499313468387335   0.252820934235648 0
ion Bi   0.987612107157065   0.994501134165175   0.746333154861433 0
ion Bi   0.507016056687301   0.994500319754874   0.746327727318392 0
ion Bi   0.000589786248912   0.501033755987568   0.747319384951721 0
ion Bi   0.507094726453671   0.513838362460472   0.746362625782501 0
ion Bi   0.333294509821071   0.166639879870066   0.523250707313796 0
ion Bi   0.832961899423284   0.166040305206576   0.523339606501883 0
ion Bi   0.333206179684479   0.666574633731346   0.523487967454916 0
ion Bi   0.832877065947242   0.666970526083527   0.523384389708848 0
ion Bi   0.166580575346427   0.333331827317786   0.477867371401499 0
ion Bi   0.666709579667197   0.333370322391053   0.477859084961405 0
ion Bi   0.166493340973416   0.833167993866078   0.477888165771099 0
ion Bi   0.666049491164774   0.832991841274723   0.477734195371829 0
ion Te   0.168839598495937   0.332478777688659   0.791163228861392 0
ion Te   0.663849298451045   0.332543539042863   0.791177167078318 0
ion Te   0.168807536947332   0.837461615291094   0.791183766093907 0
ion Te   0.332990743368506   0.166010429532558   0.206677217634342 0
ion Te   0.833069987163946   0.166096661351279   0.206695324651801 0
ion Te   0.333063282747327   0.666091640124800   0.206680122843535 0
ion Te   0.833062520723010   0.666050575320489   0.206688880333000 0
ion Te  -0.000322217840061  -0.000496485992556   0.409504487123089 0
ion Te   0.499839966522614  -0.000501137368487   0.409505230134529 0
ion Te  -0.000211830620012   0.499566919358055   0.409531652634725 0
ion Te   0.499771943537614   0.499547581420955   0.409486663372087 0
ion Te   0.000300159478731   0.000549838119626   0.590403053083716 0
ion Te   0.500327104841109   0.000510891762482   0.590395325914411 0
ion Te   0.000197487849204   0.500444378198113   0.590829480483924 0
ion Te   0.500211651105864   0.500391571080168   0.590407498341265 0
ion Te   0.333690575324262   0.167347984674059   0.694174827882877 0
ion Te   0.833513197172773   0.166948450288293   0.690891438827673 0
ion Te   0.333776282993890   0.667301956185211   0.690890838872926 0
ion Te   0.833602427572719   0.667284559721949   0.690885070326017 0
ion Te   0.166280005466398   0.332433021485706   0.308203747102711 0
ion Te   0.666165139589606   0.332469050752038   0.308206182344962 0
ion Te   0.166219547538581   0.832544952041672   0.308213824609390 0
ion Te   0.666244001779715   0.832501789530949   0.308247026243251 0


# Forces in Lattice coordinates:
force Bi   0.001681970684313  -0.004391141976979   0.056091993730804 0
force Bi  -0.002240335175077  -0.003001468546104   0.057617431899580 0
force Bi  -0.000494916262563   0.004323940867577   0.061313522672894 0
force Bi  -0.000642319871943   0.001809629306860   0.048734609772902 0
force Bi  -0.000171555797620   0.001029294027979  -0.067961561959143 0
force Bi   0.000027908228251  -0.000831903942330  -0.058249934314354 0
force Bi   0.000577688773992  -0.000735024774087  -0.057903072405917 0
force Bi   0.000222945540383  -0.000479116623299  -0.057518567485953 0
force Bi   0.000042547130972  -0.000104171441933  -0.085133520296101 0
force Bi  -0.000428759629877  -0.000328639702795  -0.087117647892653 0
force Bi  -0.000386677367177   0.000127900663663  -0.077162440677567 0
force Bi   0.000070537510556   0.000121115919265  -0.083763869379644 0
force Bi   0.016900654130129  -0.001146680331837   0.161710532933212 0
force Bi  -0.016518173461764   0.016173234677398   0.162477420775724 0
force Bi   0.000322865034267  -0.002022172039554   0.069737945002845 0
force Bi  -0.000342988907918  -0.015542162524062   0.158592675988164 0
force Bi   0.000663507705851  -0.000645259816354   0.046465266611134 0
force Bi   0.000275944360617   0.000592858454653   0.038010740524497 0
force Bi   0.001339454410478  -0.000065576056879   0.029843142832087 0
force Bi   0.002842348368632  -0.002939158723210   0.034923074782824 0
force Bi   0.000666499648634  -0.000853614962746  -0.066379874401136 0
force Bi  -0.002638385352093   0.001372041955978  -0.064399675603827 0
force Bi  -0.000915087934243   0.002068679873179  -0.065618966368744 0
force Bi  -0.000887926494858   0.000753720701996  -0.025719200521445 0
force Te   0.008101257658243  -0.008452330569951   0.005703659737208 0
force Te  -0.008368896561640  -0.000781857295598   0.005283402359301 0
force Te  -0.000112088415258   0.008822146424241   0.004163586016295 0
force Te   0.000262607401411  -0.000607542393263  -0.027682495719685 0
force Te  -0.000163713861481  -0.000788396748574  -0.027043106227541 0
force Te   0.000227842800870  -0.000495949789667  -0.024835044511405 0
force Te  -0.000191201269882  -0.000517210233347  -0.026264600303199 0
force Te   0.000113206956666  -0.000675888249037   0.054721846357935 0
force Te  -0.000234539929061  -0.000302115497558   0.052753255362853 0
force Te   0.000003204117056  -0.000418998401606   0.071747120680753 0
force Te  -0.000138886162119  -0.000990588734978   0.053359033233104 0
force Te  -0.003131228214539   0.000206272230333  -0.062332037948154 0
force Te   0.003105596133031  -0.002618003449910  -0.060933744254281 0
force Te  -0.000250162589462   0.000205475828285  -0.033774179870957 0
force Te  -0.000010126515996   0.003441066603563  -0.068338011083657 0
force Te   0.000145062395480  -0.000575601260619   0.120257401581569 0
force Te  -0.000114474509956   0.004491305089681  -0.005527861176978 0
force Te  -0.002627249114982   0.000454263263865  -0.001862991491987 0
force Te   0.002989794504596  -0.002463137690777  -0.002589047827679 0
force Te  -0.000097116512596   0.002333738770284  -0.006951106582355 0
force Te   0.000511388524508   0.001911700203211  -0.008028627216285 0
force Te   0.000567902924206   0.001333906499579  -0.009936730637303 0
force Te   0.000004451422070   0.001927635958736  -0.011265820424350 0

# Energy components:
   A_diel =        0.0043142129574097
   Eewald =    34731.1915793601656333
       EH =    36427.0956614873357466
     Eloc =   -73439.3511880146106705
      Enl =      471.0159587285704674
      Exc =     -941.2153063481914614
 Exc_core =      612.5229365174534450
       KE =      222.9741728055555257
  MuShift =       -0.0000000000009239
-------------------------------------
     Etot =    -1915.7618712507714918
       TS =        0.0249687807894578
-------------------------------------
        F =    -1915.7868400315610415

IonicMinimize: Iter:   0  F: -1915.786840031561042  |grad|_K:  0.000e+00  t[s]:    400.58
IonicMinimize: Converged (|grad|_K<1.000000e-04).

#--- Lowdin population analysis ---
# oxidation-state Bi +0.428 +0.428 +0.428 +0.451 +0.457 +0.457 +0.457 +0.457 +0.499 +0.499 +0.499 +0.499 +0.365 +0.365 +0.492 +0.364 +0.083 +0.084 +0.084 +0.084 +0.076 +0.076 +0.076 +0.073
# oxidation-state Te -0.223 -0.222 -0.223 -0.224 -0.225 -0.225 -0.225 -0.225 -0.224 -0.226 -0.225 -0.218 -0.218 -0.223 -0.217 -0.259 -0.356 -0.356 -0.356 -0.398 -0.398 -0.398 -0.397


Dumping 'NbTe2.fillings' ... done
Dumping 'NbTe2.wfns' ... done
Dumping 'NbTe2.fluidState' ... done
Dumping 'NbTe2.eigenvals' ... done
End date and time: Sat Jul 11 15:32:33 2020  (Duration: 0-0:06:58.46)
Done!
