
*************** JDFTx 1.5.0  ***************

Start date and time: Thu Jul 16 20:44:44 2020
Executable jdftx_gpu with command-line: -i Neutral.in -o Neutral.out
Running on hosts (process indices):  amax (0-5)
Divided in process groups (process indices):  0 (0)  1 (1)  2 (2)  3 (3)  4 (4)  5 (5)
gpuInit: Found compatible cuda device 0 'Tesla K80'
gpuInit: Found compatible cuda device 1 'Tesla K80'
gpuInit: Found compatible cuda device 2 'Tesla K80'
gpuInit: Found compatible cuda device 3 'Tesla K80'
gpuInit: Found compatible cuda device 4 'Tesla K80'
gpuInit: Found compatible cuda device 5 'Tesla K80'
gpuInit: Selected device 0
Resource initialization completed at t[s]:      6.72
Run totals: 6 processes, 24 threads, 6 GPUs


Input parsed successfully to the following command list (including defaults):

basis kpoint-dependent
cache-projectors no
coords-type Lattice
core-overlap-check none
coulomb-interaction Slab 001
coulomb-truncation-embed 0 0 0.5
davidson-band-ratio 1.1
dump End State
dump-name NbTe2.$VAR
elec-cutoff 20 100
elec-eigen-algo Davidson
elec-ex-corr gga-PBE
elec-smearing Gauss 0.0073499
electronic-minimize  \
	dirUpdateScheme      FletcherReeves \
	linminMethod         DirUpdateRecommended \
	nIterations          500 \
	history              15 \
	knormThreshold       0 \
	energyDiffThreshold  1e-08 \
	nEnergyDiff          2 \
	alphaTstart          1 \
	alphaTmin            1e-10 \
	updateTestStepSize   yes \
	alphaTreduceFactor   0.1 \
	alphaTincreaseFactor 3 \
	nAlphaAdjustMax      3 \
	wolfeEnergy          0.0001 \
	wolfeGradient        0.9 \
	fdTest               no
exchange-regularization WignerSeitzTruncated
fluid LinearPCM 298.000000 1.013250
fluid-anion F- 1 MeanFieldLJ \
	epsBulk 1 \
	pMol 0 \
	epsInf 1 \
	Pvap 0 \
	sigmaBulk 0 \
	Rvdw 2.24877 \
	Res 0 \
	tauNuc 343133
fluid-cation Na+ 1 MeanFieldLJ \
	epsBulk 1 \
	pMol 0 \
	epsInf 1 \
	Pvap 0 \
	sigmaBulk 0 \
	Rvdw 2.19208 \
	Res 0 \
	tauNuc 343133
fluid-ex-corr lda-TF lda-PZ
fluid-gummel-loop 10 1.000000e-05
fluid-minimize  \
	dirUpdateScheme      PolakRibiere \
	linminMethod         DirUpdateRecommended \
	nIterations          400 \
	history              15 \
	knormThreshold       1e-11 \
	energyDiffThreshold  0 \
	nEnergyDiff          2 \
	alphaTstart          1 \
	alphaTmin            1e-10 \
	updateTestStepSize   yes \
	alphaTreduceFactor   0.1 \
	alphaTincreaseFactor 3 \
	nAlphaAdjustMax      6 \
	wolfeEnergy          0.0001 \
	wolfeGradient        0.9 \
	fdTest               no
fluid-solvent H2O 55.338 ScalarEOS \
	epsBulk 78.4 \
	pMol 0.92466 \
	epsInf 1.77 \
	Pvap 1.06736e-10 \
	sigmaBulk 4.62e-05 \
	Rvdw 2.61727 \
	Res 1.42 \
	tauNuc 343133 \
	poleEl 15 7 1
forces-output-coords Positions
initial-state NbTe2.$VAR
ion Ta   0.213581265741119   0.713017181539666   0.503485103925054 0
ion Ta   0.546914599074454   0.713017181539666   0.503485103925054 0
ion Ta   0.880247932407790   0.713017181539666   0.503485103925054 0
ion Ta   0.118327970237015   0.284816524772206   0.496559213290441 0
ion Ta   0.451661303570351   0.284816524772206   0.496559213290441 0
ion Ta   0.784994636903679   0.284816524772206   0.496559213290441 0
ion Ta   0.332664436640978   0.998859233128369   0.500013276381867 0
ion Ta   0.665997769974314   0.998859233128369   0.500013276381867 0
ion Ta   0.999331103307650   0.998859233128369   0.500013276381867 0
ion Te   0.183421857680783   0.893533469042336   0.394852166196919 0
ion Te   0.516755191014118   0.893533469042336   0.394852166196919 0
ion Te   0.850088524347454   0.893533469042336   0.394852166196919 0
ion Te   0.148569943645626   0.104260039151055   0.605163898206613 0
ion Te   0.481903276978962   0.104260039151055   0.605163898206613 0
ion Te   0.815236610312290   0.104260039151055   0.605163898206613 0
ion Te   0.073911335904473   0.550317382062583   0.420058795913245 0
ion Te   0.407244669237801   0.550317382062583   0.420058795913245 0
ion Te   0.740578002571137   0.550317382062583   0.420058795913245 0
ion Te   0.034918096803174   0.785249694005489   0.608013393589892 0
ion Te   0.368251430136510   0.785249694005489   0.608013393589892 0
ion Te   0.701584763469846   0.785249694005489   0.608013393589892 0
ion Te   0.296968864399781   0.212521659643903   0.392050361111161 0
ion Te   0.630302197733117   0.212521659643903   0.392050361111161 0
ion Te   0.963635531066453   0.212521659643903   0.392050361111161 0
ion Te   0.258059770179321   0.447530842297486   0.579979681835748 0
ion Te   0.591393103512657   0.447530842297486   0.579979681835748 0
ion Te   0.924726436845985   0.447530842297486   0.579979681835748 0
ion-species GBRV/$ID_pbe.uspp
ion-width Ecut
ionic-minimize  \
	dirUpdateScheme      L-BFGS \
	linminMethod         DirUpdateRecommended \
	nIterations          0 \
	history              15 \
	knormThreshold       0.0001 \
	energyDiffThreshold  1e-06 \
	nEnergyDiff          2 \
	alphaTstart          1 \
	alphaTmin            1e-10 \
	updateTestStepSize   yes \
	alphaTreduceFactor   0.1 \
	alphaTincreaseFactor 3 \
	nAlphaAdjustMax      3 \
	wolfeEnergy          0.0001 \
	wolfeGradient        0.9 \
	fdTest               no
kpoint   0.000000000000   0.000000000000   0.000000000000  1.00000000000000
kpoint-folding 3 3 1 
latt-move-scale 1 1 1
latt-scale 1 1 1 
lattice Triclinic 19.9959 18.365 36.0545 90 90 79.6035
lattice-minimize  \
	dirUpdateScheme      L-BFGS \
	linminMethod         DirUpdateRecommended \
	nIterations          0 \
	history              15 \
	knormThreshold       0 \
	energyDiffThreshold  1e-06 \
	nEnergyDiff          2 \
	alphaTstart          1 \
	alphaTmin            1e-10 \
	updateTestStepSize   yes \
	alphaTreduceFactor   0.1 \
	alphaTincreaseFactor 3 \
	nAlphaAdjustMax      3 \
	wolfeEnergy          0.0001 \
	wolfeGradient        0.9 \
	fdTest               no
lcao-params -1 1e-06 0.0073499
pcm-variant CANDLE
spintype no-spin
subspace-rotation-factor 1 yes
symmetries automatic
symmetry-threshold 0.0001



---------- Setting up symmetries ----------

Found 4 point-group symmetries of the bravais lattice
Found 3 space-group symmetries with basis
Applied RMS atom displacement 3.86331e-14 bohrs to make symmetries exact.

---------- Initializing the Grid ----------
R = 
[    19.9959    3.31413          0  ]
[          0    18.0635          0  ]
[          0          0    36.0545  ]
unit cell volume = 13022.7
G =
[   0.314224  -0.057651          0  ]
[          0   0.347839          0  ]
[          0          0   0.174269  ]
Minimum fftbox size, Smin = [  92  84  164  ]
Chosen fftbox size, S = [  96  84  168  ]

---------- Initializing tighter grid for wavefunction operations ----------
R = 
[    19.9959    3.31413          0  ]
[          0    18.0635          0  ]
[          0          0    36.0545  ]
unit cell volume = 13022.7
G =
[   0.314224  -0.057651          0  ]
[          0   0.347839          0  ]
[          0          0   0.174269  ]
Minimum fftbox size, Smin = [  84  76  148  ]
Chosen fftbox size, S = [  84  80  150  ]

---------- Exchange Correlation functional ----------
Initalized PBE GGA exchange.
Initalized PBE GGA correlation.

---------- Setting up pseudopotentials ----------
Width of ionic core gaussian charges (only for fluid interactions / plotting) set to 0.397384

Reading pseudopotential file '/home/guoxy/vasp/jdftx-1.5.0/build/pseudopotentials/GBRV/ta_pbe.uspp':
  Title: Ta.  Created by USPP 7.3.6 on 14-9-2013
  Reference state energy: -70.583193.  13 valence electrons in orbitals:
    |500>  occupation: 2  eigenvalue: -2.682396
    |510>  occupation: 6  eigenvalue: -1.447928
    |520>  occupation: 3  eigenvalue: -0.131987
    |600>  occupation: 2  eigenvalue: -0.199982
    |610>  occupation: 0  eigenvalue: -0.051129
  lMax: 3  lLocal: 3  QijEcut: 5
  7 projectors sampled on a log grid with 667 points:
    l: 0  eig: -2.682397  rCut: 1.4
    l: 0  eig: -0.199983  rCut: 1.4
    l: 1  eig: -1.447928  rCut: 1.5
    l: 1  eig: -0.051130  rCut: 1.5
    l: 2  eig: -0.131987  rCut: 1.7
    l: 2  eig: 0.150000  rCut: 1.7
    l: 3  eig: 0.250000  rCut: 2.3
  Partial core density with radius 1.2
  Transforming core density to a uniform radial grid of dG=0.02 with 1369 points.
  Transforming local potential to a uniform radial grid of dG=0.02 with 1369 points.
  Transforming nonlocal projectors to a uniform radial grid of dG=0.02 with 432 points.
  Transforming density augmentations to a uniform radial grid of dG=0.02 with 1369 points.
  Transforming atomic orbitals to a uniform radial grid of dG=0.02 with 432 points.
  Core radius for overlap checks: 2.30 bohrs.

Reading pseudopotential file '/home/guoxy/vasp/jdftx-1.5.0/build/pseudopotentials/GBRV/te_pbe.uspp':
  Title: Te.  Created by USPP 7.3.6 on 14-9-2013
  Reference state energy: -13.134220.  6 valence electrons in orbitals:
    |500>  occupation: 2  eigenvalue: -0.555231
    |510>  occupation: 4  eigenvalue: -0.218781
  lMax: 2  lLocal: 2  QijEcut: 5
  5 projectors sampled on a log grid with 723 points:
    l: 0  eig: -0.555229  rCut: 2.1
    l: 0  eig: 1.000000  rCut: 2.1
    l: 1  eig: -0.218780  rCut: 2.1
    l: 1  eig: 1.000000  rCut: 2.1
    l: 2  eig: 1.000000  rCut: 2.6
  Partial core density with radius 1.8
  Transforming core density to a uniform radial grid of dG=0.02 with 1369 points.
  Transforming local potential to a uniform radial grid of dG=0.02 with 1369 points.
  Transforming nonlocal projectors to a uniform radial grid of dG=0.02 with 432 points.
  Transforming density augmentations to a uniform radial grid of dG=0.02 with 1369 points.
  Transforming atomic orbitals to a uniform radial grid of dG=0.02 with 432 points.
  Core radius for overlap checks: 2.60 bohrs.

Initialized 2 species with 27 total atoms.

Folded 1 k-points by 3x3x1 to 9 k-points.

---------- Setting up k-points, bands, fillings ----------
Adding inversion symmetry to k-mesh for non-inversion-symmetric unit cell.
Reduced to 5 k-points under symmetry. 
Computing the number of bands and number of electrons
Calculating initial fillings.
nElectrons: 225.000000   nBands: 189   nStates: 5

----- Setting up reduced wavefunction bases (one per k-point) -----
average nbasis = 55646.778 , ideal nbasis = 55634.015

---------- Setting up coulomb interaction ----------
Fluid mode embedding: using embedded box, but periodic Coulomb kernel.
(Fluid response is responsible for (approximate) separation between periodic images.)
Setting up double-sized grid for truncated Coulomb potentials:
R = 
[    19.9959    3.31413          0  ]
[          0    18.0635          0  ]
[          0          0    72.1089  ]
unit cell volume = 26045.4
G =
[   0.314224  -0.057651          0  ]
[          0   0.347839          0  ]
[          0          0  0.0871346  ]
Chosen fftbox size, S = [  96  84  336  ]
Integer grid location selected as the embedding center:
   Grid: [  0  0  84  ]
   Lattice: [  0  0  0.5  ]
   Cartesian: [  0  0  18.0272  ]
Constructing Wigner-Seitz cell: 8 faces (6 quadrilaterals, 2 hexagons)
Range-separation parameter for embedded mesh potentials due to point charges: 0.589883 bohrs.

Initializing van der Waals corrections
	NOTE: vdW corrections apply only for interactions with fluid.
	Ta:  C6:  815.23 Eh-a0^6  R0: 3.326 a0 (WARNING: beyond Grimme's data set)
	Te:  C6:  550.54 Eh-a0^6  R0: 3.575 a0

---------- Setting up ewald sum ----------
Optimum gaussian width for ewald sums = 6.827472 bohr.
Real space sum over 605 unit cells with max indices [  5  5  2  ]
Reciprocal space sum over 5915 terms with max indices [  6  6  17  ]

---------- Allocating electronic variables ----------
Initializing wave functions:  linear combination of atomic orbitals
Ta pseudo-atom occupations:   s ( 2 2 )  p ( 6 0 )  d ( 3 )
Te pseudo-atom occupations:   s ( 2 )  p ( 4 )
	FillingsUpdate:  mu: -0.031435178  nElectrons: 225.000000
LCAOMinimize: Iter:   0  F: -677.1588927637163806  |grad|_K:  2.822e-03  alpha:  1.000e+00
	FillingsUpdate:  mu: -0.111658374  nElectrons: 225.000000
LCAOMinimize: Iter:   1  F: -677.2470309365622825  |grad|_K:  9.847e-04  alpha:  1.679e-01  linmin:  2.792e-01  cgtest: -7.572e-01  t[s]:     34.78
	FillingsUpdate:  mu: -0.115333050  nElectrons: 225.000000
LCAOMinimize: Iter:   2  F: -677.2481952783911083  |grad|_K:  9.477e-04  alpha:  6.468e-02  linmin: -3.273e-04  cgtest:  9.426e-01  t[s]:     45.62
	FillingsUpdate:  mu: -0.099287867  nElectrons: 225.000000
LCAOMinimize: Iter:   3  F: -677.2586499352401006  |grad|_K:  2.621e-04  alpha:  1.314e-01  linmin:  5.356e-02  cgtest: -1.408e-01  t[s]:     55.53
	FillingsUpdate:  mu: -0.096100176  nElectrons: 225.000000
LCAOMinimize: Iter:   4  F: -677.2597231113436465  |grad|_K:  1.909e-04  alpha:  1.834e-01  linmin:  9.207e-04  cgtest:  1.066e-01  t[s]:     65.96
	FillingsUpdate:  mu: -0.098510116  nElectrons: 225.000000
LCAOMinimize: Iter:   5  F: -677.2608268123856305  |grad|_K:  8.915e-05  alpha:  3.345e-01  linmin: -6.672e-03  cgtest: -6.054e-02  t[s]:     76.76
	FillingsUpdate:  mu: -0.097172582  nElectrons: 225.000000
LCAOMinimize: Iter:   6  F: -677.2609283039181491  |grad|_K:  3.923e-05  alpha:  1.388e-01  linmin: -3.233e-03  cgtest: -1.164e-02  t[s]:     87.05
	FillingsUpdate:  mu: -0.096503521  nElectrons: 225.000000
LCAOMinimize: Iter:   7  F: -677.2609522248581015  |grad|_K:  1.869e-05  alpha:  1.714e-01  linmin:  5.943e-04  cgtest: -6.526e-03  t[s]:     97.33
	FillingsUpdate:  mu: -0.096856099  nElectrons: 225.000000
LCAOMinimize: Iter:   8  F: -677.2609620593609634  |grad|_K:  1.480e-05  alpha:  3.121e-01  linmin: -2.714e-05  cgtest:  5.808e-03  t[s]:    107.53
	FillingsUpdate:  mu: -0.096815124  nElectrons: 225.000000
LCAOMinimize: Iter:   9  F: -677.2609654211639736  |grad|_K:  8.374e-06  alpha:  1.698e-01  linmin: -1.174e-04  cgtest: -9.594e-04  t[s]:    118.76
	FillingsUpdate:  mu: -0.096735558  nElectrons: 225.000000
LCAOMinimize: Iter:  10  F: -677.2609665635517331  |grad|_K:  2.654e-06  alpha:  1.805e-01  linmin:  1.368e-04  cgtest:  3.670e-04  t[s]:    129.70
	FillingsUpdate:  mu: -0.096795733  nElectrons: 225.000000
LCAOMinimize: Iter:  11  F: -677.2609666879084216  |grad|_K:  1.949e-06  alpha:  1.957e-01  linmin:  3.462e-05  cgtest:  1.338e-04  t[s]:    139.36
	FillingsUpdate:  mu: -0.096819788  nElectrons: 225.000000
LCAOMinimize: Iter:  12  F: -677.2609667647245715  |grad|_K:  1.372e-06  alpha:  2.240e-01  linmin:  6.398e-05  cgtest: -2.866e-04  t[s]:    150.18
LCAOMinimize: Converged (|Delta F|<1.000000e-06 for 2 iters).
----- createFluidSolver() ----- (Fluid-side solver setup)
   Initializing fluid molecule 'H2O'
     Initializing site 'O'
       Electron density: proportional to exp(-r/0.36935)*erfc((r-0.51523)/0.36823) with norm 6.826
       Charge density: gaussian nuclear width 0.478731 with net site charge 0.826
       Polarizability: cuspless exponential with width 0.32 and norm 3.73
       Hard sphere radius: 2.57003 bohrs
       Positions in reference frame:
         [ +0.000000 +0.000000 +0.000000 ]
     Initializing site 'H'
       Electron density: proportional to exp(-r/0.34641)*erfc((r-0)/0.390882) with norm 0.587
       Charge density: gaussian nuclear width 0.377945 with net site charge -0.413
       Polarizability: cuspless exponential with width 0.39 and norm 3.3
       Positions in reference frame:
         [ +0.000000 -1.441945 +1.122523 ]
         [ +0.000000 +1.441945 +1.122523 ]
     Net charge: 0   dipole magnitude: 0.927204
     Initializing spherical shell mfKernel with radius 2.61727 Bohr
     deltaS corrections:
       site 'O': -7.54299
       site 'H': -6.83917
   Initializing fluid molecule 'Na+'
     Initializing site 'Na'
       Electron density: proportional to exp(-r/0.19682)*erfc((r-0.71491)/0.41314) with norm 8.1383
       Charge density: gaussian nuclear width 0.365347 with net site charge -1
       Hard sphere radius: 1.86327 bohrs
       Positions in reference frame:
         [ +0.000000 +0.000000 +0.000000 ]
     Net charge: -1   dipole magnitude: 0
     Initializing gaussian mfKernel with width: 1.55004 Bohr
     deltaS corrections:
       site 'Na': -22.3555
   Initializing fluid molecule 'F-'
     Initializing site 'F'
       Electron density: proportional to exp(-r/0.38886)*erfc((r-0)/0.438782) with norm 8
       Charge density: gaussian nuclear width 0.374796 with net site charge 1
       Hard sphere radius: 2.39995 bohrs
       Positions in reference frame:
         [ +0.000000 +0.000000 +0.000000 ]
     Net charge: 1   dipole magnitude: 0
     Initializing gaussian mfKernel with width: 1.59012 Bohr
     deltaS corrections:
       site 'F': -9.04335

Correction to mu due to finite nuclear width = -0.00857138
   Cavity determined by nc: 0.00142 and sigma: 0.707107
   Nonlocal vdW cavity from gaussian model electron density with norm = 8 and sigma = 0.993594 bohr
   Charge asymmetry in cavity with sensitivity pCavity = 36.5 e-bohr/Eh
   Electrostatic cavity expanded by eta = 1.46 bohrs
   Weighted density cavitation model constrained by Nbulk: 0.0049383 bohr^-3, Pvap: 3.14029 kPa, Rvdw: 2.61727 bohr and sigmaBulk: 4.62e-05 Eh/bohr^2 at T: 298 K.
   Weighted density dispersion model using vdW pair potentials with single solvent site with sqrtC6eff: 0.77 SI.


---- Citations for features of the code used in this run ----

   Software package:
      R. Sundararaman, K. Letchworth-Weaver, K.A. Schwarz, D. Gunceler, Y. Ozhabes and T.A. Arias, 'JDFTx: software for joint density-functional theory', SoftwareX 6, 278 (2017)

   gga-PBE exchange-correlation functional:
      J.P. Perdew, K. Burke and M. Ernzerhof, Phys. Rev. Lett. 77, 3865 (1996)

   Pseudopotentials:
      KF Garrity, JW Bennett, KM Rabe and D Vanderbilt, Comput. Mater. Sci. 81, 446 (2014)

   Truncated Coulomb potentials:
      R. Sundararaman and T.A. Arias, Phys. Rev. B 87, 165122 (2013)

   Van der Waals correction pair-potentials:
      S. Grimme, J. Comput. Chem. 27, 1787 (2006)

   Charge-asymmetric nonlocally-determined local-electric (CANDLE) solvation model:
      R. Sundararaman and W.A. Goddard III, J. Chem. Phys. 142, 064107 (2015)

   Total energy minimization with Auxiliary Hamiltonian:
      C. Freysoldt, S. Boeck, and J. Neugebauer, Phys. Rev. B 79, 241103(R) (2009)

This list may not be complete. Please suggest additional citations or
report any other bugs at https://github.com/shankar1729/jdftx/issues

Initialization completed successfully at t[s]:    152.85

Fluid solver invoked on fresh (partially random / LCAO) wavefunctions
Running a vacuum solve first:

-------- Initial electronic minimization -----------
	FillingsUpdate:  mu: -0.096819788  nElectrons: 225.000000
ElecMinimize: Iter:   0  F: -677.260966764711497  |grad|_K:  9.564e-05  alpha:  1.000e+00
	FillingsUpdate:  mu: -0.056185858  nElectrons: 225.000000
	SubspaceRotationAdjust: set factor to 1
ElecMinimize: Iter:   1  F: -677.684050979333279  |grad|_K:  5.393e-05  alpha:  8.789e-01  linmin: -1.501e-04  t[s]:    174.09
	FillingsUpdate:  mu: -0.085382128  nElectrons: 225.000000
	SubspaceRotationAdjust: set factor to 0.713
ElecMinimize: Iter:   2  F: -677.762824683813051  |grad|_K:  5.075e-05  alpha:  5.196e-01  linmin:  1.533e-05  t[s]:    186.66
	FillingsUpdate:  mu: -0.063057526  nElectrons: 225.000000
	SubspaceRotationAdjust: set factor to 0.456
ElecMinimize: Iter:   3  F: -677.795109924135545  |grad|_K:  3.047e-05  alpha:  2.325e-01  linmin: -1.321e-04  t[s]:    200.74
	FillingsUpdate:  mu: -0.061608797  nElectrons: 225.000000
	SubspaceRotationAdjust: set factor to 0.389
ElecMinimize: Iter:   4  F: -677.814294159265046  |grad|_K:  2.227e-05  alpha:  3.883e-01  linmin:  1.058e-04  t[s]:    214.27
	FillingsUpdate:  mu: -0.073324136  nElectrons: 225.000000
	SubspaceRotationAdjust: set factor to 0.411
ElecMinimize: Iter:   5  F: -677.824679153031298  |grad|_K:  1.305e-05  alpha:  4.017e-01  linmin:  4.255e-05  t[s]:    227.38
	FillingsUpdate:  mu: -0.075631085  nElectrons: 225.000000
	SubspaceRotationAdjust: set factor to 0.422
ElecMinimize: Iter:   6  F: -677.828802050336549  |grad|_K:  1.054e-05  alpha:  4.626e-01  linmin:  1.850e-05  t[s]:    240.32
	FillingsUpdate:  mu: -0.071966866  nElectrons: 225.000000
	SubspaceRotationAdjust: set factor to 0.45
ElecMinimize: Iter:   7  F: -677.831395526584174  |grad|_K:  7.119e-06  alpha:  4.442e-01  linmin:  8.981e-06  t[s]:    253.07
	FillingsUpdate:  mu: -0.070261402  nElectrons: 225.000000
	SubspaceRotationAdjust: set factor to 0.527
ElecMinimize: Iter:   8  F: -677.832584495776018  |grad|_K:  5.397e-06  alpha:  4.465e-01  linmin:  5.751e-06  t[s]:    267.16
	FillingsUpdate:  mu: -0.071908898  nElectrons: 225.000000
	SubspaceRotationAdjust: set factor to 0.511
ElecMinimize: Iter:   9  F: -677.833234243893230  |grad|_K:  3.940e-06  alpha:  4.241e-01  linmin:  2.070e-06  t[s]:    280.54
	FillingsUpdate:  mu: -0.073221579  nElectrons: 225.000000
	SubspaceRotationAdjust: set factor to 0.525
ElecMinimize: Iter:  10  F: -677.833563954191504  |grad|_K:  2.810e-06  alpha:  4.035e-01  linmin:  4.211e-06  t[s]:    292.61
	FillingsUpdate:  mu: -0.072299578  nElectrons: 225.000000
	SubspaceRotationAdjust: set factor to 0.569
ElecMinimize: Iter:  11  F: -677.833729532544908  |grad|_K:  1.748e-06  alpha:  3.989e-01  linmin:  3.597e-06  t[s]:    304.65
	FillingsUpdate:  mu: -0.072026434  nElectrons: 225.000000
	SubspaceRotationAdjust: set factor to 0.546
ElecMinimize: Iter:  12  F: -677.833797970910155  |grad|_K:  1.487e-06  alpha:  4.261e-01  linmin:  2.268e-06  t[s]:    317.31
	FillingsUpdate:  mu: -0.072657037  nElectrons: 225.000000
	SubspaceRotationAdjust: set factor to 0.507
ElecMinimize: Iter:  13  F: -677.833840899713664  |grad|_K:  9.489e-07  alpha:  3.689e-01  linmin:  2.484e-06  t[s]:    329.61
	FillingsUpdate:  mu: -0.072785945  nElectrons: 225.000000
	SubspaceRotationAdjust: set factor to 0.606
ElecMinimize: Iter:  14  F: -677.833861101578236  |grad|_K:  7.114e-07  alpha:  4.269e-01  linmin:  2.338e-06  t[s]:    344.49
	FillingsUpdate:  mu: -0.072577685  nElectrons: 225.000000
	SubspaceRotationAdjust: set factor to 0.573
ElecMinimize: Iter:  15  F: -677.833872555826247  |grad|_K:  5.410e-07  alpha:  4.305e-01  linmin:  1.429e-06  t[s]:    356.73
	FillingsUpdate:  mu: -0.072643601  nElectrons: 225.000000
	SubspaceRotationAdjust: set factor to 0.588
ElecMinimize: Iter:  16  F: -677.833878073324399  |grad|_K:  3.859e-07  alpha:  3.582e-01  linmin:  5.141e-07  t[s]:    369.63
	FillingsUpdate:  mu: -0.072733255  nElectrons: 225.000000
	SubspaceRotationAdjust: set factor to 0.628
ElecMinimize: Iter:  17  F: -677.833881482601782  |grad|_K:  2.722e-07  alpha:  4.351e-01  linmin:  1.438e-06  t[s]:    383.24
	FillingsUpdate:  mu: -0.072653802  nElectrons: 225.000000
	SubspaceRotationAdjust: set factor to 0.683
ElecMinimize: Iter:  18  F: -677.833883138612919  |grad|_K:  2.043e-07  alpha:  4.252e-01  linmin:  5.769e-07  t[s]:    397.37
	FillingsUpdate:  mu: -0.072628044  nElectrons: 225.000000
	SubspaceRotationAdjust: set factor to 0.612
ElecMinimize: Iter:  19  F: -677.833883953751069  |grad|_K:  1.521e-07  alpha:  3.712e-01  linmin:  3.172e-07  t[s]:    409.42
	FillingsUpdate:  mu: -0.072636240  nElectrons: 225.000000
	SubspaceRotationAdjust: set factor to 0.544
ElecMinimize: Iter:  20  F: -677.833884350127619  |grad|_K:  1.054e-07  alpha:  3.253e-01  linmin:  1.428e-07  t[s]:    422.24
	FillingsUpdate:  mu: -0.072637108  nElectrons: 225.000000
	SubspaceRotationAdjust: set factor to 0.633
ElecMinimize: Iter:  21  F: -677.833884620555864  |grad|_K:  7.602e-08  alpha:  4.625e-01  linmin:  5.481e-07  t[s]:    435.48
	FillingsUpdate:  mu: -0.072619652  nElectrons: 225.000000
	SubspaceRotationAdjust: set factor to 0.627
ElecMinimize: Iter:  22  F: -677.833884744449961  |grad|_K:  5.848e-08  alpha:  4.076e-01  linmin:  9.636e-08  t[s]:    448.37
	FillingsUpdate:  mu: -0.072619323  nElectrons: 225.000000
	SubspaceRotationAdjust: set factor to 0.588
ElecMinimize: Iter:  23  F: -677.833884813712075  |grad|_K:  4.549e-08  alpha:  3.847e-01  linmin:  1.037e-07  t[s]:    461.14
	FillingsUpdate:  mu: -0.072633630  nElectrons: 225.000000
	SubspaceRotationAdjust: set factor to 0.559
ElecMinimize: Iter:  24  F: -677.833884853639802  |grad|_K:  3.217e-08  alpha:  3.665e-01  linmin:  8.677e-08  t[s]:    474.11
	FillingsUpdate:  mu: -0.072630274  nElectrons: 225.000000
	SubspaceRotationAdjust: set factor to 0.611
ElecMinimize: Iter:  25  F: -677.833884876106708  |grad|_K:  2.251e-08  alpha:  4.124e-01  linmin:  1.215e-07  t[s]:    486.29
	FillingsUpdate:  mu: -0.072625443  nElectrons: 225.000000
	SubspaceRotationAdjust: set factor to 0.541
ElecMinimize: Iter:  26  F: -677.833884886356145  |grad|_K:  1.805e-08  alpha:  3.841e-01  linmin: -1.581e-10  t[s]:    498.80
	FillingsUpdate:  mu: -0.072629481  nElectrons: 225.000000
	SubspaceRotationAdjust: set factor to 0.51
ElecMinimize: Iter:  27  F: -677.833884892679180  |grad|_K:  1.205e-08  alpha:  3.688e-01  linmin: -5.836e-10  t[s]:    513.23
	FillingsUpdate:  mu: -0.072631681  nElectrons: 225.000000
	SubspaceRotationAdjust: set factor to 0.56
ElecMinimize: Iter:  28  F: -677.833884895995993  |grad|_K:  9.055e-09  alpha:  4.336e-01  linmin:  1.899e-07  t[s]:    526.50
ElecMinimize: Converged (|Delta F|<1.000000e-08 for 2 iters).
Setting wave functions to eigenvectors of Hamiltonian
Vacuum energy after initial minimize, F = -677.833884895995993

	Linear fluid (dielectric constant: 78.4, screening length: 5.74355 Bohr) occupying 0.736991 of unit cell:	Completed after 19 iterations at t[s]:    536.16

-------- Electronic minimization -----------
	Linear fluid (dielectric constant: 78.4, screening length: 5.74355 Bohr) occupying 0.736991 of unit cell:	Completed after 0 iterations at t[s]:    545.06
	FillingsUpdate:  mu: -0.162920559  nElectrons: 225.000000
ElecMinimize: Iter:   0  F: -677.830761097530853  |grad|_K:  2.357e-06  alpha:  1.000e+00
	Linear fluid (dielectric constant: 78.4, screening length: 5.74355 Bohr) occupying 0.737627 of unit cell:	Completed after 13 iterations at t[s]:    561.32
	Linear fluid (dielectric constant: 78.4, screening length: 5.74355 Bohr) occupying 0.737417 of unit cell:	Completed after 12 iterations at t[s]:    571.96
	FillingsUpdate:  mu: -0.161161183  nElectrons: 225.000000
	SubspaceRotationAdjust: set factor to 0.37
ElecMinimize: Iter:   1  F: -677.830954995808270  |grad|_K:  2.409e-06  alpha:  6.649e-01  linmin:  5.642e-07  t[s]:    578.10
	Linear fluid (dielectric constant: 78.4, screening length: 5.74355 Bohr) occupying 0.738035 of unit cell:	Completed after 12 iterations at t[s]:    586.81
	Linear fluid (dielectric constant: 78.4, screening length: 5.74355 Bohr) occupying 0.737760 of unit cell:	Completed after 12 iterations at t[s]:    598.30
	FillingsUpdate:  mu: -0.160457876  nElectrons: 225.000000
	SubspaceRotationAdjust: set factor to 0.263
ElecMinimize: Iter:   2  F: -677.831065494133668  |grad|_K:  1.198e-06  alpha:  3.640e-01  linmin:  6.799e-07  t[s]:    604.45
	Linear fluid (dielectric constant: 78.4, screening length: 5.74355 Bohr) occupying 0.737867 of unit cell:	Completed after 4 iterations at t[s]:    610.01
	Linear fluid (dielectric constant: 78.4, screening length: 5.74355 Bohr) occupying 0.737936 of unit cell:	Completed after 3 iterations at t[s]:    617.92
	FillingsUpdate:  mu: -0.160992330  nElectrons: 225.000000
	SubspaceRotationAdjust: set factor to 0.261
ElecMinimize: Iter:   3  F: -677.831110840874658  |grad|_K:  5.359e-07  alpha:  6.000e-01  linmin: -1.804e-06  t[s]:    624.73
	Linear fluid (dielectric constant: 78.4, screening length: 5.74355 Bohr) occupying 0.737980 of unit cell:	Completed after 3 iterations at t[s]:    630.83
	Linear fluid (dielectric constant: 78.4, screening length: 5.74355 Bohr) occupying 0.737989 of unit cell:	Completed after 3 iterations at t[s]:    638.60
	FillingsUpdate:  mu: -0.160723867  nElectrons: 225.000000
	SubspaceRotationAdjust: set factor to 0.245
ElecMinimize: Iter:   4  F: -677.831121764943532  |grad|_K:  3.193e-07  alpha:  7.252e-01  linmin:  1.047e-05  t[s]:    646.01
	Linear fluid (dielectric constant: 78.4, screening length: 5.74355 Bohr) occupying 0.738004 of unit cell:	Completed after 2 iterations at t[s]:    651.53
	Linear fluid (dielectric constant: 78.4, screening length: 5.74355 Bohr) occupying 0.738003 of unit cell:	Completed after 0 iterations at t[s]:    657.80
	FillingsUpdate:  mu: -0.160684691  nElectrons: 225.000000
	SubspaceRotationAdjust: set factor to 0.264
ElecMinimize: Iter:   5  F: -677.831125204223440  |grad|_K:  2.544e-07  alpha:  6.544e-01  linmin:  4.673e-06  t[s]:    664.27
	Linear fluid (dielectric constant: 78.4, screening length: 5.74355 Bohr) occupying 0.738005 of unit cell:	Completed after 3 iterations at t[s]:    671.02
	Linear fluid (dielectric constant: 78.4, screening length: 5.74355 Bohr) occupying 0.738004 of unit cell:	Completed after 0 iterations at t[s]:    677.50
	FillingsUpdate:  mu: -0.160742579  nElectrons: 225.000000
	SubspaceRotationAdjust: set factor to 0.299
ElecMinimize: Iter:   6  F: -677.831126784967864  |grad|_K:  1.773e-07  alpha:  4.611e-01  linmin:  2.446e-05  t[s]:    684.87
	Linear fluid (dielectric constant: 78.4, screening length: 5.74355 Bohr) occupying 0.738002 of unit cell:	Completed after 0 iterations at t[s]:    689.93
	Linear fluid (dielectric constant: 78.4, screening length: 5.74355 Bohr) occupying 0.738001 of unit cell:	Completed after 2 iterations at t[s]:    696.91
	FillingsUpdate:  mu: -0.160751852  nElectrons: 225.000000
	SubspaceRotationAdjust: set factor to 0.335
ElecMinimize: Iter:   7  F: -677.831127668044019  |grad|_K:  1.206e-07  alpha:  6.014e-01  linmin:  7.158e-05  t[s]:    704.13
	Linear fluid (dielectric constant: 78.4, screening length: 5.74355 Bohr) occupying 0.737995 of unit cell:	Completed after 0 iterations at t[s]:    709.03
	Linear fluid (dielectric constant: 78.4, screening length: 5.74355 Bohr) occupying 0.737995 of unit cell:	Completed after 0 iterations at t[s]:    715.85
	FillingsUpdate:  mu: -0.160752315  nElectrons: 225.000000
	SubspaceRotationAdjust: set factor to 0.407
ElecMinimize: Iter:   8  F: -677.831128103281571  |grad|_K:  8.853e-08  alpha:  6.094e-01  linmin:  2.487e-07  t[s]:    723.51
	Linear fluid (dielectric constant: 78.4, screening length: 5.74355 Bohr) occupying 0.737989 of unit cell:	Completed after 1 iterations at t[s]:    728.82
	Linear fluid (dielectric constant: 78.4, screening length: 5.74355 Bohr) occupying 0.737991 of unit cell:	Completed after 0 iterations at t[s]:    735.12
	FillingsUpdate:  mu: -0.160775108  nElectrons: 225.000000
	SubspaceRotationAdjust: set factor to 0.332
ElecMinimize: Iter:   9  F: -677.831128228533771  |grad|_K:  8.409e-08  alpha:  3.578e-01  linmin:  1.180e-05  t[s]:    742.01
	Linear fluid (dielectric constant: 78.4, screening length: 5.74355 Bohr) occupying 0.737987 of unit cell:	Completed after 2 iterations at t[s]:    747.47
	Linear fluid (dielectric constant: 78.4, screening length: 5.74355 Bohr) occupying 0.737988 of unit cell:	Completed after 0 iterations at t[s]:    753.61
	FillingsUpdate:  mu: -0.160789136  nElectrons: 225.000000
	SubspaceRotationAdjust: set factor to 0.273
ElecMinimize: Iter:  10  F: -677.831128300151477  |grad|_K:  5.233e-08  alpha:  2.341e-01  linmin: -2.694e-06  t[s]:    760.80
	Linear fluid (dielectric constant: 78.4, screening length: 5.74355 Bohr) occupying 0.737987 of unit cell:	Completed after 0 iterations at t[s]:    766.34
	Linear fluid (dielectric constant: 78.4, screening length: 5.74355 Bohr) occupying 0.737985 of unit cell:	Completed after 0 iterations at t[s]:    772.55
	FillingsUpdate:  mu: -0.160789200  nElectrons: 225.000000
	SubspaceRotationAdjust: set factor to 0.34
ElecMinimize: Iter:  11  F: -677.831128364746519  |grad|_K:  3.679e-08  alpha:  4.430e-01  linmin:  3.334e-07  t[s]:    778.84
	Linear fluid (dielectric constant: 78.4, screening length: 5.74355 Bohr) occupying 0.737983 of unit cell:	Completed after 0 iterations at t[s]:    783.74
	Linear fluid (dielectric constant: 78.4, screening length: 5.74355 Bohr) occupying 0.737983 of unit cell:	Completed after 0 iterations at t[s]:    789.90
	FillingsUpdate:  mu: -0.160789030  nElectrons: 225.000000
	SubspaceRotationAdjust: set factor to 0.423
ElecMinimize: Iter:  12  F: -677.831128407646588  |grad|_K:  2.921e-08  alpha:  6.034e-01  linmin:  2.162e-07  t[s]:    797.24
	Linear fluid (dielectric constant: 78.4, screening length: 5.74355 Bohr) occupying 0.737981 of unit cell:	Completed after 2 iterations at t[s]:    802.70
	Linear fluid (dielectric constant: 78.4, screening length: 5.74355 Bohr) occupying 0.737982 of unit cell:	Completed after 0 iterations at t[s]:    809.80
ElecMinimize: 	Step increased F by 1.167905e-08, reducing alpha to 1.510267e-02.
	Linear fluid (dielectric constant: 78.4, screening length: 5.74355 Bohr) occupying 0.737983 of unit cell:	Completed after 0 iterations at t[s]:    820.01
ElecMinimize: 	Step increased F by 1.153467e-08, reducing alpha to 1.510267e-03.
	Linear fluid (dielectric constant: 78.4, screening length: 5.74355 Bohr) occupying 0.737983 of unit cell:	Completed after 0 iterations at t[s]:    829.80
ElecMinimize: 	Step increased F by 1.097703e-08, reducing alpha to 1.510267e-04.
ElecMinimize: 	Step failed to reduce F after 3 attempts. Quitting step.
ElecMinimize: 	Undoing step.
	Linear fluid (dielectric constant: 78.4, screening length: 5.74355 Bohr) occupying 0.737983 of unit cell:	Completed after 0 iterations at t[s]:    839.99
ElecMinimize: 	Step failed: resetting search direction.
	FillingsUpdate:  mu: -0.160767225  nElectrons: 225.000000
	SubspaceRotationAdjust: set factor to 0.329
ElecMinimize: Iter:  13  F: -677.831128396662621  |grad|_K:  5.189e-08  alpha:  1.510e-04
	Linear fluid (dielectric constant: 78.4, screening length: 5.74355 Bohr) occupying 0.737982 of unit cell:	Completed after 3 iterations at t[s]:    851.13
	Linear fluid (dielectric constant: 78.4, screening length: 5.74355 Bohr) occupying 0.737982 of unit cell:	Completed after 2 iterations at t[s]:    858.92
ElecMinimize: 	Step increased F by 6.058258e-09, reducing alpha to 1.710727e-02.
	Linear fluid (dielectric constant: 78.4, screening length: 5.74355 Bohr) occupying 0.737983 of unit cell:	Completed after 0 iterations at t[s]:    868.85
	FillingsUpdate:  mu: -0.160799363  nElectrons: 225.000000
	SubspaceRotationAdjust: set factor to 0.177
ElecMinimize: Iter:  14  F: -677.831128398376450  |grad|_K:  3.222e-08  alpha:  1.711e-02  linmin:  4.173e-05  t[s]:    875.94
	Linear fluid (dielectric constant: 78.4, screening length: 5.74355 Bohr) occupying 0.737983 of unit cell:	Completed after 0 iterations at t[s]:    880.84
ElecMinimize: 	Predicted alpha/alphaT>3.000000, increasing alphaT to 5.132182e-02.
	Linear fluid (dielectric constant: 78.4, screening length: 5.74355 Bohr) occupying 0.737983 of unit cell:	Completed after 0 iterations at t[s]:    888.01
ElecMinimize: 	Predicted alpha/alphaT>3.000000, increasing alphaT to 1.539655e-01.
	Linear fluid (dielectric constant: 78.4, screening length: 5.74355 Bohr) occupying 0.737983 of unit cell:	Completed after 0 iterations at t[s]:    894.21
	Linear fluid (dielectric constant: 78.4, screening length: 5.74355 Bohr) occupying 0.737983 of unit cell:	Completed after 0 iterations at t[s]:    900.83
	FillingsUpdate:  mu: -0.160799251  nElectrons: 225.000000
	SubspaceRotationAdjust: set factor to 0.209
ElecMinimize: Iter:  15  F: -677.831128412399266  |grad|_K:  2.250e-08  alpha:  2.869e-01  linmin: -4.377e-07  t[s]:    907.25
	Linear fluid (dielectric constant: 78.4, screening length: 5.74355 Bohr) occupying 0.737983 of unit cell:	Completed after 0 iterations at t[s]:    911.69
	Linear fluid (dielectric constant: 78.4, screening length: 5.74355 Bohr) occupying 0.737983 of unit cell:	Completed after 0 iterations at t[s]:    919.23
	FillingsUpdate:  mu: -0.160798877  nElectrons: 225.000000
	SubspaceRotationAdjust: set factor to 0.27
ElecMinimize: Iter:  16  F: -677.831128435074788  |grad|_K:  2.691e-08  alpha:  8.491e-01  linmin:  1.019e-07  t[s]:    926.20
	Linear fluid (dielectric constant: 78.4, screening length: 5.74355 Bohr) occupying 0.737983 of unit cell:	Completed after 1 iterations at t[s]:    931.16
	Linear fluid (dielectric constant: 78.4, screening length: 5.74355 Bohr) occupying 0.737983 of unit cell:	Completed after 3 iterations at t[s]:    938.49
ElecMinimize: 	Step increased F by 8.503605e-08, reducing alpha to 6.608950e-03.
	Linear fluid (dielectric constant: 78.4, screening length: 5.74355 Bohr) occupying 0.737983 of unit cell:	Completed after 0 iterations at t[s]:    950.13
ElecMinimize: 	Step increased F by 7.364099e-08, reducing alpha to 6.608950e-04.
	Linear fluid (dielectric constant: 78.4, screening length: 5.74355 Bohr) occupying 0.737983 of unit cell:	Completed after 0 iterations at t[s]:    960.97
ElecMinimize: 	Step increased F by 7.255551e-08, reducing alpha to 6.608950e-05.
ElecMinimize: 	Step failed to reduce F after 3 attempts. Quitting step.
ElecMinimize: 	Undoing step.
	Linear fluid (dielectric constant: 78.4, screening length: 5.74355 Bohr) occupying 0.737983 of unit cell:	Completed after 0 iterations at t[s]:    972.71
ElecMinimize: 	Step failed: resetting search direction.
	FillingsUpdate:  mu: -0.160776680  nElectrons: 225.000000
	SubspaceRotationAdjust: set factor to 0.208
ElecMinimize: Iter:  17  F: -677.831128362561230  |grad|_K:  6.477e-08  alpha:  6.609e-05
	Linear fluid (dielectric constant: 78.4, screening length: 5.74355 Bohr) occupying 0.737982 of unit cell:	Completed after 2 iterations at t[s]:    984.95
	Linear fluid (dielectric constant: 78.4, screening length: 5.74355 Bohr) occupying 0.737983 of unit cell:	Completed after 3 iterations at t[s]:    992.67
	FillingsUpdate:  mu: -0.160793077  nElectrons: 225.000000
	SubspaceRotationAdjust: set factor to 0.0824
ElecMinimize: Iter:  18  F: -677.831128406988569  |grad|_K:  1.194e-08  alpha:  2.844e-01  linmin:  2.003e-04  t[s]:    998.82
	Linear fluid (dielectric constant: 78.4, screening length: 5.74355 Bohr) occupying 0.737983 of unit cell:	Completed after 0 iterations at t[s]:   1001.84
	Linear fluid (dielectric constant: 78.4, screening length: 5.74355 Bohr) occupying 0.737983 of unit cell:	Completed after 0 iterations at t[s]:   1005.81
	FillingsUpdate:  mu: -0.160793035  nElectrons: 225.000000
	SubspaceRotationAdjust: set factor to 0.125
ElecMinimize: Iter:  19  F: -677.831128411763189  |grad|_K:  9.480e-09  alpha:  6.966e-01  linmin:  6.933e-07  t[s]:   1009.32
	Linear fluid (dielectric constant: 78.4, screening length: 5.74355 Bohr) occupying 0.737983 of unit cell:	Completed after 0 iterations at t[s]:   1011.77
	Linear fluid (dielectric constant: 78.4, screening length: 5.74355 Bohr) occupying 0.737983 of unit cell:	Completed after 0 iterations at t[s]:   1015.08
	FillingsUpdate:  mu: -0.160792989  nElectrons: 225.000000
	SubspaceRotationAdjust: set factor to 0.149
ElecMinimize: Iter:  20  F: -677.831128414218028  |grad|_K:  9.058e-09  alpha:  5.230e-01  linmin: -1.404e-08  t[s]:   1018.19
ElecMinimize: Converged (|Delta F|<1.000000e-08 for 2 iters).
Setting wave functions to eigenvectors of Hamiltonian
Single-point solvation energy estimate, DeltaF = +0.002756481777965

# Ionic positions in lattice coordinates:
ion Ta   0.213581265741121   0.713017181539666   0.503485103925054 0
ion Ta   0.546914599074454   0.713017181539666   0.503485103925054 0
ion Ta   0.880247932407788   0.713017181539666   0.503485103925054 0
ion Ta   0.118327970237015   0.284816524772206   0.496559213290441 0
ion Ta   0.451661303570348   0.284816524772206   0.496559213290441 0
ion Ta   0.784994636903682   0.284816524772206   0.496559213290441 0
ion Ta   0.332664436640980   0.998859233128369   0.500013276381867 0
ion Ta   0.665997769974314   0.998859233128369   0.500013276381867 0
ion Ta   0.999331103307647   0.998859233128369   0.500013276381867 0
ion Te   0.183421857680785   0.893533469042336   0.394852166196919 0
ion Te   0.516755191014118   0.893533469042336   0.394852166196919 0
ion Te   0.850088524347452   0.893533469042336   0.394852166196919 0
ion Te   0.148569943645626   0.104260039151055   0.605163898206613 0
ion Te   0.481903276978959   0.104260039151055   0.605163898206613 0
ion Te   0.815236610312292   0.104260039151055   0.605163898206613 0
ion Te   0.073911335904470   0.550317382062583   0.420058795913245 0
ion Te   0.407244669237804   0.550317382062583   0.420058795913245 0
ion Te   0.740578002571137   0.550317382062583   0.420058795913245 0
ion Te   0.034918096803177   0.785249694005489   0.608013393589892 0
ion Te   0.368251430136510   0.785249694005489   0.608013393589892 0
ion Te   0.701584763469843   0.785249694005489   0.608013393589892 0
ion Te   0.296968864399784   0.212521659643903   0.392050361111161 0
ion Te   0.630302197733117   0.212521659643903   0.392050361111161 0
ion Te   0.963635531066451   0.212521659643903   0.392050361111161 0
ion Te   0.258059770179321   0.447530842297486   0.579979681835748 0
ion Te   0.591393103512654   0.447530842297486   0.579979681835748 0
ion Te   0.924726436845988   0.447530842297486   0.579979681835748 0


# Forces in Lattice coordinates:
force Ta  -0.001464768529118  -0.031595651163611   0.020673950169526 0
force Ta  -0.001464768529118  -0.031595651163611   0.020673950169526 0
force Ta  -0.001464768529118  -0.031595651163611   0.020673950169526 0
force Ta   0.001801680168064   0.032386832309988  -0.020153953512876 0
force Ta   0.001801680168064   0.032386832309988  -0.020153953512873 0
force Ta   0.001801680168064   0.032386832309988  -0.020153953512876 0
force Ta  -0.000398382697977   0.000556835686678   0.000668226738494 0
force Ta  -0.000398382697977   0.000556835686678   0.000668226738494 0
force Ta  -0.000398382697977   0.000556835686678   0.000668226738494 0
force Te   0.001057543770346   0.007621445159050  -0.070525202132178 0
force Te   0.001057543770346   0.007621445159050  -0.070525202132178 0
force Te   0.001057543770346   0.007621445159048  -0.070525202132178 0
force Te  -0.001614582322918  -0.007900228589553   0.070916300125621 0
force Te  -0.001614582322918  -0.007900228589553   0.070916300125734 0
force Te  -0.001614582322918  -0.007900228589553   0.070916300125848 0
force Te   0.001562540327090  -0.013724461716104  -0.056722442037787 0
force Te   0.001562540327090  -0.013724461716102  -0.056722442037787 0
force Te   0.001562540327090  -0.013724461716104  -0.056722442037787 0
force Te   0.001528142387633  -0.008481440101536   0.092147230852624 0
force Te   0.001528142387633  -0.008481440101536   0.092147230852510 0
force Te   0.001528142387633  -0.008481440101536   0.092147230852510 0
force Te  -0.000115847308198   0.009068129020783  -0.093717935954881 0
force Te  -0.000115847308198   0.009068129020783  -0.093717935954881 0
force Te  -0.000115847308198   0.009068129020783  -0.093717935954881 0
force Te  -0.002443850768376   0.013090281172792   0.056898997724188 0
force Te  -0.002443850768376   0.013090281172792   0.056898997724188 0
force Te  -0.002443850768376   0.013090281172792   0.056898997724188 0

# Energy components:
   A_diel =        0.0023177556402279
   Eewald =     3551.0933601579704373
       EH =     4093.9839452171518133
     Eloc =    -8210.1011308811484923
      Enl =     -216.8115204112205561
      Exc =     -320.2500583139658374
 Exc_core =      199.4502097228873367
       KE =      224.8382972878916632
-------------------------------------
     Etot =     -677.7945794647926050
       TS =        0.0365489494254364
-------------------------------------
        F =     -677.8311284142180284

IonicMinimize: Iter:   0  F: -677.831128414218028  |grad|_K:  0.000e+00  t[s]:   1021.07
IonicMinimize: Converged (|grad|_K<1.000000e-04).

#--- Lowdin population analysis ---
# oxidation-state Ta -0.991 -0.991 -0.991 -0.991 -0.991 -0.991 -0.888 -0.888 -0.888
# oxidation-state Te +0.566 +0.566 +0.566 +0.566 +0.566 +0.566 +0.467 +0.467 +0.467 +0.545 +0.545 +0.545 +0.545 +0.545 +0.545 +0.467 +0.467 +0.467


Dumping 'NbTe2.fillings' ... done
Dumping 'NbTe2.wfns' ... done
Dumping 'NbTe2.fluidState' ... done
Dumping 'NbTe2.eigenvals' ... done
End date and time: Thu Jul 16 21:01:46 2020  (Duration: 0-0:17:02.38)
Done!
