
*************** JDFTx 1.5.0  ***************

Start date and time: Tue Apr  6 21:48:56 2021
Executable jdftx_gpu with command-line: -i Charged.in -o Charged.out
Running on hosts (process indices):  amax (0-6)
Divided in process groups (process indices):  0 (0)  1 (1)  2 (2)  3 (3)  4 (4)  5 (5)  6 (6)
gpuInit: Found compatible cuda device 0 'Tesla K80'
gpuInit: Found compatible cuda device 1 'Tesla K80'
gpuInit: Found compatible cuda device 2 'Tesla K80'
gpuInit: Found compatible cuda device 3 'Tesla K80'
gpuInit: Found compatible cuda device 4 'Tesla K80'
gpuInit: Found compatible cuda device 5 'Tesla K80'
gpuInit: Found compatible cuda device 6 'Tesla K80'
gpuInit: Selected device 0
Resource initialization completed at t[s]:      4.05
Run totals: 7 processes, 24 threads, 7 GPUs


Input parsed successfully to the following command list (including defaults):

basis kpoint-dependent
cache-projectors no
coords-type Lattice
core-overlap-check none
coulomb-interaction Slab 001
coulomb-truncation-embed 0.5 0.5 0.5
davidson-band-ratio 1.1
dump End State
dump-name NbTe2.$VAR
elec-cutoff 20
elec-eigen-algo Davidson
elec-ex-corr gga-PBE
elec-smearing Gauss 0.0073499
electronic-minimize  \
	dirUpdateScheme      FletcherReeves \
	linminMethod         DirUpdateRecommended \
	nIterations          200 \
	history              15 \
	knormThreshold       0 \
	energyDiffThreshold  1e-08 \
	nEnergyDiff          2 \
	alphaTstart          1 \
	alphaTmin            1e-10 \
	updateTestStepSize   yes \
	alphaTreduceFactor   0.1 \
	alphaTincreaseFactor 3 \
	nAlphaAdjustMax      3 \
	wolfeEnergy          0.0001 \
	wolfeGradient        0.9 \
	fdTest               no
exchange-regularization WignerSeitzTruncated
fluid LinearPCM 298.000000 1.013250
fluid-anion F- 1 MeanFieldLJ \
	epsBulk 1 \
	pMol 0 \
	epsInf 1 \
	Pvap 0 \
	sigmaBulk 0 \
	Rvdw 2.24877 \
	Res 0 \
	tauNuc 343133
fluid-cation Na+ 1 MeanFieldLJ \
	epsBulk 1 \
	pMol 0 \
	epsInf 1 \
	Pvap 0 \
	sigmaBulk 0 \
	Rvdw 2.19208 \
	Res 0 \
	tauNuc 343133
fluid-ex-corr lda-TF lda-PZ
fluid-gummel-loop 10 1.000000e-05
fluid-minimize  \
	dirUpdateScheme      PolakRibiere \
	linminMethod         DirUpdateRecommended \
	nIterations          400 \
	history              15 \
	knormThreshold       1e-11 \
	energyDiffThreshold  0 \
	nEnergyDiff          2 \
	alphaTstart          1 \
	alphaTmin            1e-10 \
	updateTestStepSize   yes \
	alphaTreduceFactor   0.1 \
	alphaTincreaseFactor 3 \
	nAlphaAdjustMax      6 \
	wolfeEnergy          0.0001 \
	wolfeGradient        0.9 \
	fdTest               no
fluid-solvent H2O 55.338 ScalarEOS \
	epsBulk 78.4 \
	pMol 0.92466 \
	epsInf 1.77 \
	Pvap 1.06736e-10 \
	sigmaBulk 4.62e-05 \
	Rvdw 2.61727 \
	Res 1.42 \
	tauNuc 343133 \
	poleEl 15 7 1
forces-output-coords Positions
initial-state NbTe2.$VAR
ion V   0.167505476095525   0.082574542730372   0.561171723169963 1
ion V   0.082478415519307   0.167493049185095   0.438558335888024 1
ion V   0.415065745204562   0.082600463105308   0.561177285326434 1
ion V   0.333257863089363   0.166528628395342   0.438389234194721 1
ion V   0.665572227887454   0.083740972478770   0.561219638390719 1
ion V   0.585001506822859   0.167480383696972   0.438559434002130 1
ion V   0.918166342984467   0.083756290014273   0.561216601726510 1
ion V   0.832299897527612   0.164630809070301   0.438335800641710 1
ion V   0.166106713726200   0.331663157483344   0.561250198161651 1
ion V   0.086031975769776   0.418076804356769   0.438411411469889 1
ion V   0.417168860810798   0.334409863446944   0.559978333122220 1
ion V   0.334535321628841   0.416801902646674   0.438911524544359 1
ion V   0.665513059491251   0.331648077952799   0.561259113507691 1
ion V   0.582212094934965   0.416776318546261   0.438922869828623 1
ion V   0.916707737867180   0.333459981224056   0.561705759259024 1
ion V   0.831976333912002   0.418079472482778   0.438431438854260 1
ion V   0.166282549322415   0.584560615605877   0.561243030095147 1
ion V   0.082457272843743   0.664942997088963   0.438589507353318 1
ion V   0.404112615424576   0.577114246737437   0.560333396736773 1
ion V   0.334606679299999   0.667928994386484   0.438860434010547 1
ion V   0.672973108720362   0.577094823679069   0.560374036787581 1
ion V   0.583325467122423   0.666632881530805   0.440590156327430 1
ion V   0.918300411543882   0.584569391363264   0.561246872638870 1
ion V   0.833307986067083   0.667924275617763   0.438880380725282 1
ion V   0.167437259145671   0.834907813930463   0.561179912259209 1
ion V   0.083593526437686   0.916799778033469   0.438377867707814 1
ion V   0.417287005285354   0.833075618392519   0.559918536232374 1
ion V   0.333156623175696   0.916814135709199   0.438384732485297 1
ion V   0.672877886361239   0.845790742591566   0.560134230347016 1
ion V   0.582285533705796   0.915530760883965   0.438818904180732 1
ion V   0.915722689816634   0.833064122847930   0.559932740981767 1
ion V   0.833222102422401   0.915562073901335   0.438834258857974 1
ion C   0.000242228573908   0.000215879915353   0.499787708718161 1
ion C   0.250015176502479   0.000064369665356   0.499720185264894 1
ion C   0.499942760214961   0.000213080233917   0.499788877009402 1
ion C   0.750832825329890   0.001690218500055   0.499431914098293 1
ion C   0.000034283467690   0.250082052055599   0.499882082960806 1
ion C   0.249855449063743   0.249818521307887   0.499824426263663 1
ion C   0.499930879362262   0.249814608280900   0.499833320358323 1
ion C   0.750016700540092   0.250079528494709   0.499887013759722 1
ion C   0.000003453710681   0.500038339775853   0.499896517732422 1
ion C   0.248504047477115   0.499310598896274   0.499531788423212 1
ion C   0.500377297517067   0.500776167867836   0.501279489345869 1
ion C   0.750767429627804   0.499326496566915   0.499553893569358 1
ion C   0.000247612675247   0.750131080842166   0.499821907217493 1
ion C   0.249850099127868   0.750121694687066   0.499814129755518 1
ion C   0.500330878526379   0.749725651686021   0.501185156739722 1
ion C   0.749356964650156   0.749724632616109   0.501204105949228 1
ion O   0.083160302405493   0.166840991477425   0.614286695030607 1
ion O   0.166742868295499   0.083357160308015   0.385825857698571 1
ion O   0.333370190546407   0.166764600239277   0.613978557773085 1
ion O   0.416578978536679   0.083363035934544   0.385828533683171 1
ion O   0.583667769014391   0.166849723835574   0.614297938041630 1
ion O   0.666267177433188   0.083509378610112   0.385511770121174 1
ion O   0.833423470851849   0.166868844631388   0.613831680420704 1
ion O   0.917215861640279   0.083534775376538   0.385507280586357 1
ion O   0.083193494503273   0.416639388086280   0.613859178052352 1
ion O   0.166603066514123   0.332893188817839   0.385539372111945 1
ion O   0.333070485440278   0.416698727996614   0.614930091054872 1
ion O   0.417131557593382   0.334274594770238   0.385620254512023 1
ion O   0.583580882384408   0.416707085295585   0.614943137460836 1
ion O   0.666219985828469   0.332884864399098   0.385552721021591 1
ion O   0.833415588571741   0.416647222031574   0.613865083456897 1
ion O   0.916699620004373   0.333464949862939   0.386900033517500 1
ion O   0.083181357978161   0.666386801208208   0.614321084529659 1
ion O   0.166621551065979   0.583830193521342   0.385519649631170 1
ion O   0.333115446266950   0.666536713284735   0.614927495712447 1
ion O   0.417388136490315   0.583732627442900   0.386441451590416 1
ion O   0.583418802702867   0.666987568611849   0.618573468536591 1
ion O   0.666324591100590   0.583702020774172   0.386444576768459 1
ion O   0.833386606193573   0.666550212271845   0.614935290707892 1
ion O   0.917184772633915   0.583841278144032   0.385535040098930 1
ion O   0.083250256329750   0.916662548763445   0.613955549115438 1
ion O   0.166713635808804   0.833462208839275   0.385820220714249 1
ion O   0.333397320611958   0.916661337758607   0.613955700185812 1
ion O   0.417067681909189   0.832974825604057   0.385591239624518 1
ion O   0.583631658977095   0.917016696219962   0.614903356800465 1
ion O   0.666279082803309   0.832614949656015   0.386397248725194 1
ion O   0.833361351074648   0.917015899953820   0.614896520894305 1
ion O   0.915834683740243   0.832946879848787   0.385593802231111 1
ion H   0.583724790414383   0.668141157915702   0.668688765608814 1
ion-species GBRV/$ID_pbe.uspp
ion-width Ecut
ionic-minimize  \
	dirUpdateScheme      L-BFGS \
	linminMethod         DirUpdateRecommended \
	nIterations          500 \
	history              15 \
	knormThreshold       0.0001 \
	energyDiffThreshold  1e-06 \
	nEnergyDiff          2 \
	alphaTstart          1 \
	alphaTmin            1e-10 \
	updateTestStepSize   yes \
	alphaTreduceFactor   0.1 \
	alphaTincreaseFactor 3 \
	nAlphaAdjustMax      3 \
	wolfeEnergy          0.0001 \
	wolfeGradient        0.9 \
	fdTest               no
kpoint   0.000000000000   0.000000000000   0.000000000000  1.00000000000000
kpoint-folding 3 3 1 
latt-move-scale 1 1 1
latt-scale 1.88973 1.88973 1.88973 
lattice Triclinic 11.4836 11.4836 19.4677 90 90 120
lattice-minimize  \
	dirUpdateScheme      L-BFGS \
	linminMethod         DirUpdateRecommended \
	nIterations          0 \
	history              15 \
	knormThreshold       0 \
	energyDiffThreshold  1e-06 \
	nEnergyDiff          2 \
	alphaTstart          1 \
	alphaTmin            1e-10 \
	updateTestStepSize   yes \
	alphaTreduceFactor   0.1 \
	alphaTincreaseFactor 3 \
	nAlphaAdjustMax      3 \
	wolfeEnergy          0.0001 \
	wolfeGradient        0.9 \
	fdTest               no
lcao-params -1 1e-06 0.0073499
pcm-variant CANDLE
spintype no-spin
subspace-rotation-factor 1 yes
symmetries automatic
symmetry-threshold 0.0005
target-mu -0.171252 no




---------- Setting up symmetries ----------

Found 24 point-group symmetries of the bravais lattice
Found 1 space-group symmetries with basis
Applied RMS atom displacement 0 bohrs to make symmetries exact.

---------- Initializing the Grid ----------
R = 
[    21.7009   -10.8504          0  ]
[          0    18.7935          0  ]
[          0          0    36.7886  ]
unit cell volume = 15003.7
G =
[   0.289536   0.167163         -0  ]
[          0   0.334327          0  ]
[          0         -0   0.170792  ]
Minimum fftbox size, Smin = [  88  88  152  ]
Chosen fftbox size, S = [  90  90  160  ]

---------- Exchange Correlation functional ----------
Initalized PBE GGA exchange.
Initalized PBE GGA correlation.

---------- Setting up pseudopotentials ----------
Width of ionic core gaussian charges (only for fluid interactions / plotting) set to 0.397384

Reading pseudopotential file '/home/guoxy/vasp/jdftx-1.5.0/build/pseudopotentials/GBRV/v_pbe.uspp':
  Title: V.  Created by USPP 7.3.6 on 31-3-15
  Reference state energy: -72.228583.  13 valence electrons in orbitals:
    |300>  occupation: 2  eigenvalue: -2.581040
    |310>  occupation: 6  eigenvalue: -1.618497
    |400>  occupation: 2  eigenvalue: -0.172800
    |320>  occupation: 3  eigenvalue: -0.189802
  lMax: 2  lLocal: 3  QijEcut: 6
  6 projectors sampled on a log grid with 593 points:
    l: 0  eig: -2.581041  rCut: 1.5
    l: 0  eig: -0.172801  rCut: 1.5
    l: 1  eig: -1.618497  rCut: 1.6
    l: 1  eig: 0.150000  rCut: 1.6
    l: 2  eig: -0.189802  rCut: 1.7
    l: 2  eig: 0.150000  rCut: 1.7
  Partial core density with radius 0.8
  Transforming core density to a uniform radial grid of dG=0.02 with 1477 points.
  Transforming local potential to a uniform radial grid of dG=0.02 with 1477 points.
  Transforming nonlocal projectors to a uniform radial grid of dG=0.02 with 432 points.
  Transforming density augmentations to a uniform radial grid of dG=0.02 with 1477 points.
  Transforming atomic orbitals to a uniform radial grid of dG=0.02 with 432 points.
  Core radius for overlap checks: 1.80 bohrs.

Reading pseudopotential file '/home/guoxy/vasp/jdftx-1.5.0/build/pseudopotentials/GBRV/c_pbe.uspp':
  Title: C.  Created by USPP 7.3.6 on 3-2-2014
  Reference state energy: -5.406344.  4 valence electrons in orbitals:
    |200>  occupation: 2  eigenvalue: -0.504890
    |210>  occupation: 2  eigenvalue: -0.194356
  lMax: 1  lLocal: 2  QijEcut: 5
  4 projectors sampled on a log grid with 503 points:
    l: 0  eig: -0.504890  rCut: 1.3
    l: 0  eig: 0.000000  rCut: 1.3
    l: 1  eig: -0.194357  rCut: 1.3
    l: 1  eig: 0.000000  rCut: 1.3
  Partial core density with radius 1.1
  Transforming core density to a uniform radial grid of dG=0.02 with 1477 points.
  Transforming local potential to a uniform radial grid of dG=0.02 with 1477 points.
  Transforming nonlocal projectors to a uniform radial grid of dG=0.02 with 432 points.
  Transforming density augmentations to a uniform radial grid of dG=0.02 with 1477 points.
  Transforming atomic orbitals to a uniform radial grid of dG=0.02 with 432 points.
  Core radius for overlap checks: 1.30 bohrs.

Reading pseudopotential file '/home/guoxy/vasp/jdftx-1.5.0/build/pseudopotentials/GBRV/o_pbe.uspp':
  Title: O.  Created by USPP 7.3.6 on 3-2-2014
  Reference state energy: -15.894388.  6 valence electrons in orbitals:
    |200>  occupation: 2  eigenvalue: -0.878823
    |210>  occupation: 4  eigenvalue: -0.332131
  lMax: 2  lLocal: 2  QijEcut: 6
  5 projectors sampled on a log grid with 511 points:
    l: 0  eig: -0.878823  rCut: 1.25
    l: 0  eig: 0.000000  rCut: 1.25
    l: 1  eig: -0.332132  rCut: 1.25
    l: 1  eig: 0.000000  rCut: 1.25
    l: 2  eig: 1.000000  rCut: 1.25
  Partial core density with radius 0.7
  Transforming core density to a uniform radial grid of dG=0.02 with 1477 points.
  Transforming local potential to a uniform radial grid of dG=0.02 with 1477 points.
  Transforming nonlocal projectors to a uniform radial grid of dG=0.02 with 432 points.
  Transforming density augmentations to a uniform radial grid of dG=0.02 with 1477 points.
  Transforming atomic orbitals to a uniform radial grid of dG=0.02 with 432 points.
  Core radius for overlap checks: 1.25 bohrs.

Reading pseudopotential file '/home/guoxy/vasp/jdftx-1.5.0/build/pseudopotentials/GBRV/h_pbe.uspp':
  Title: H.  Created by USPP 7.3.6 on 2-4-15
  Reference state energy: -0.458849.  1 valence electrons in orbitals:
    |100>  occupation: 1  eigenvalue: -0.238595
  lMax: 0  lLocal: 1  QijEcut: 6
  2 projectors sampled on a log grid with 395 points:
    l: 0  eig: -0.238595  rCut: 1.2
    l: 0  eig: 1.000000  rCut: 1.2
  Transforming local potential to a uniform radial grid of dG=0.02 with 1477 points.
  Transforming nonlocal projectors to a uniform radial grid of dG=0.02 with 432 points.
  Transforming density augmentations to a uniform radial grid of dG=0.02 with 1477 points.
  Transforming atomic orbitals to a uniform radial grid of dG=0.02 with 432 points.
  Core radius for overlap checks: 1.20 bohrs.

Initialized 4 species with 81 total atoms.

Folded 1 k-points by 3x3x1 to 9 k-points.

---------- Setting up k-points, bands, fillings ----------
Adding inversion symmetry to k-mesh for non-inversion-symmetric unit cell.
Reduced to 5 k-points under symmetry. 
Computing the number of bands and number of electrons
Calculating initial fillings.
nElectrons: 673.000000   nBands: 513   nStates: 5

----- Setting up reduced wavefunction bases (one per k-point) -----
average nbasis = 64091.000 , ideal nbasis = 64096.946

---------- Setting up coulomb interaction ----------
Fluid mode embedding: using embedded box, but periodic Coulomb kernel.
(Fluid response is responsible for (approximate) separation between periodic images.)
Setting up double-sized grid for truncated Coulomb potentials:
R = 
[    21.7009   -10.8504          0  ]
[          0    18.7935          0  ]
[          0          0    73.5772  ]
unit cell volume = 30007.4
G =
[   0.289536   0.167163         -0  ]
[          0   0.334327          0  ]
[          0         -0  0.0853958  ]
Chosen fftbox size, S = [  90  90  320  ]
Integer grid location selected as the embedding center:
   Grid: [  45  45  80  ]
   Lattice: [  0.5  0.5  0.5  ]
   Cartesian: [  5.42523  9.39676  18.3943  ]
Constructing Wigner-Seitz cell: 8 faces (6 quadrilaterals, 2 hexagons)
Range-separation parameter for embedded mesh potentials due to point charges: 0.61948 bohrs.

Initializing van der Waals corrections
	NOTE: vdW corrections apply only for interactions with fluid.
	 V:  C6:  187.33 Eh-a0^6  R0: 2.952 a0
	 C:  C6:   30.35 Eh-a0^6  R0: 2.744 a0
	 O:  C6:   12.14 Eh-a0^6  R0: 2.536 a0
	 H:  C6:    2.43 Eh-a0^6  R0: 1.892 a0

---------- Setting up ewald sum ----------
Optimum gaussian width for ewald sums = 5.959896 bohr.
Real space sum over 605 unit cells with max indices [  5  5  2  ]
Reciprocal space sum over 9225 terms with max indices [  7  7  20  ]

---------- Allocating electronic variables ----------
Initializing wave functions:  linear combination of atomic orbitals
V pseudo-atom occupations:   s ( 2 0 )  p ( 6 )  d ( 5 )
C pseudo-atom occupations:   s ( 2 )  p ( 2 )
O pseudo-atom occupations:   s ( 2 )  p ( 4 )
H pseudo-atom occupations:   s ( 1 )
	FillingsUpdate:  mu: -0.171251800  nElectrons: 673.000000
LCAOMinimize: Iter:   0  G: -2718.6522547971267159  |grad|_K:  1.398e-02  alpha:  1.000e+00
	FillingsUpdate:  mu: -0.171251800  nElectrons: 673.000000
LCAOMinimize: Iter:   1  G: -2757.4312441161591778  |grad|_K:  8.713e-03  alpha:  1.724e-01  linmin: -2.413e-01  cgtest:  9.368e-01  t[s]:    100.91
LCAOMinimize: Encountered beta<0, resetting CG.
LCAOMinimize: 	Predicted alpha/alphaT>3.000000, increasing alphaT to 5.173484e-01.
	FillingsUpdate:  mu: -0.171251800  nElectrons: 673.000000
LCAOMinimize: Iter:   2  G: -2762.0456722867138524  |grad|_K:  8.184e-03  alpha:  4.660e-02  linmin: -2.962e-01  cgtest:  8.285e-01  t[s]:    149.53
LCAOMinimize: 	Wrong curvature in test step, increasing alphaT to 1.398029e-01.
	FillingsUpdate:  mu: -0.171251800  nElectrons: 673.000000
LCAOMinimize: Iter:   3  G: -2766.8737191931004418  |grad|_K:  8.015e-03  alpha: -4.572e-01  linmin: -3.230e-01  cgtest:  8.872e-01  t[s]:    188.27
	FillingsUpdate:  mu: -0.171251800  nElectrons: 673.000000
LCAOMinimize: Iter:   4  G: -2775.9643582905600852  |grad|_K:  6.958e-03  alpha:  9.022e-02  linmin: -3.657e-01  cgtest:  7.866e-01  t[s]:    227.15
LCAOMinimize: 	Predicted alpha/alphaT>3.000000, increasing alphaT to 2.706474e-01.
	FillingsUpdate:  mu: -0.171251800  nElectrons: 673.000000
LCAOMinimize: Iter:   5  G: -2782.7032789996378597  |grad|_K:  4.636e-03  alpha:  1.039e-01  linmin: -3.335e-01  cgtest:  7.252e-01  t[s]:    275.37
LCAOMinimize: Encountered beta<0, resetting CG.
	FillingsUpdate:  mu: -0.171251800  nElectrons: 673.000000
LCAOMinimize: Iter:   6  G: -2784.4259399489183124  |grad|_K:  6.899e-03  alpha:  1.276e-01  linmin:  2.731e-02  cgtest: -1.053e-01  t[s]:    313.83
	FillingsUpdate:  mu: -0.171251800  nElectrons: 673.000000
LCAOMinimize: Iter:   7  G: -2784.9933789600318050  |grad|_K:  5.578e-03  alpha:  1.427e-02  linmin: -7.205e-02  cgtest:  9.590e-01  t[s]:    352.41
LCAOMinimize: Encountered beta<0, resetting CG.
	FillingsUpdate:  mu: -0.171251800  nElectrons: 673.000000
LCAOMinimize: Iter:   8  G: -2785.5082952842803934  |grad|_K:  1.249e-03  alpha:  2.533e-02  linmin:  4.840e-02  cgtest: -9.627e-02  t[s]:    391.80
LCAOMinimize: 	Predicted alpha/alphaT>3.000000, increasing alphaT to 7.599888e-02.
	FillingsUpdate:  mu: -0.171251800  nElectrons: 673.000000
LCAOMinimize: Iter:   9  G: -2785.6851314951941276  |grad|_K:  4.661e-04  alpha:  1.781e-01  linmin:  7.567e-03  cgtest:  8.964e-02  t[s]:    441.33
	FillingsUpdate:  mu: -0.171251800  nElectrons: 673.000000
LCAOMinimize: Iter:  10  G: -2785.6919495063921204  |grad|_K:  3.974e-04  alpha:  5.427e-02  linmin: -2.286e-02  cgtest:  1.092e-01  t[s]:    479.61
	FillingsUpdate:  mu: -0.171251800  nElectrons: 673.000000
LCAOMinimize: Iter:  11  G: -2785.6968093815739849  |grad|_K:  1.817e-04  alpha:  4.576e-02  linmin: -1.441e-01  cgtest:  4.560e-01  t[s]:    517.99
	FillingsUpdate:  mu: -0.171251800  nElectrons: 673.000000
LCAOMinimize: Iter:  12  G: -2785.6977533835633949  |grad|_K:  1.367e-04  alpha:  4.409e-02  linmin: -2.571e-01  cgtest:  6.763e-01  t[s]:    557.54
	FillingsUpdate:  mu: -0.171251800  nElectrons: 673.000000
LCAOMinimize: Iter:  13  G: -2785.6984539968257195  |grad|_K:  1.239e-04  alpha:  4.938e-02  linmin: -3.491e-01  cgtest:  9.443e-01  t[s]:    596.21
LCAOMinimize: Encountered beta<0, resetting CG.
	FillingsUpdate:  mu: -0.171251800  nElectrons: 673.000000
LCAOMinimize: Iter:  14  G: -2785.6990358446182654  |grad|_K:  1.165e-04  alpha:  5.362e-02  linmin: -3.349e-01  cgtest:  9.498e-01  t[s]:    634.84
LCAOMinimize: Encountered beta<0, resetting CG.
	FillingsUpdate:  mu: -0.171251800  nElectrons: 673.000000
LCAOMinimize: Iter:  15  G: -2785.6995522569095556  |grad|_K:  1.114e-04  alpha:  5.578e-02  linmin: -2.870e-01  cgtest:  8.941e-01  t[s]:    674.96
	FillingsUpdate:  mu: -0.171251800  nElectrons: 673.000000
LCAOMinimize: Iter:  16  G: -2785.6999753614977635  |grad|_K:  1.068e-04  alpha:  5.196e-02  linmin: -2.437e-01  cgtest:  8.073e-01  t[s]:    713.78
	FillingsUpdate:  mu: -0.171251800  nElectrons: 673.000000
LCAOMinimize: Iter:  17  G: -2785.7003470151648798  |grad|_K:  9.896e-05  alpha:  4.724e-02  linmin: -2.600e-01  cgtest:  7.843e-01  t[s]:    752.34
	FillingsUpdate:  mu: -0.171251800  nElectrons: 673.000000
LCAOMinimize: Iter:  18  G: -2785.7006195692274559  |grad|_K:  9.071e-05  alpha:  4.172e-02  linmin: -3.257e-01  cgtest:  8.678e-01  t[s]:    791.26
	FillingsUpdate:  mu: -0.171251800  nElectrons: 673.000000
LCAOMinimize: Iter:  19  G: -2785.7008076291226644  |grad|_K:  8.551e-05  alpha:  3.711e-02  linmin: -3.745e-01  cgtest:  9.503e-01  t[s]:    829.44
LCAOMinimize: Encountered beta<0, resetting CG.
	FillingsUpdate:  mu: -0.171251800  nElectrons: 673.000000
LCAOMinimize: Iter:  20  G: -2785.7009374017852679  |grad|_K:  8.201e-05  alpha:  3.185e-02  linmin: -3.984e-01  cgtest:  9.866e-01  t[s]:    868.36
LCAOMinimize: Encountered beta<0, resetting CG.
	FillingsUpdate:  mu: -0.171251800  nElectrons: 673.000000
LCAOMinimize: Iter:  21  G: -2785.7010348905550927  |grad|_K:  7.945e-05  alpha:  2.681e-02  linmin: -4.050e-01  cgtest:  9.981e-01  t[s]:    906.89
LCAOMinimize: Encountered beta<0, resetting CG.
	FillingsUpdate:  mu: -0.171251800  nElectrons: 673.000000
LCAOMinimize: Iter:  22  G: -2785.7011065601409427  |grad|_K:  7.750e-05  alpha:  2.194e-02  linmin: -4.055e-01  cgtest:  9.998e-01  t[s]:    946.20
LCAOMinimize: Encountered beta<0, resetting CG.
	FillingsUpdate:  mu: -0.171251800  nElectrons: 673.000000
LCAOMinimize: Iter:  23  G: -2785.7011593986308071  |grad|_K:  7.597e-05  alpha:  1.758e-02  linmin: -4.054e-01  cgtest:  9.999e-01  t[s]:    985.43
LCAOMinimize: Encountered beta<0, resetting CG.
	FillingsUpdate:  mu: -0.171251800  nElectrons: 673.000000
LCAOMinimize: Iter:  24  G: -2785.7011982966187134  |grad|_K:  7.479e-05  alpha:  1.386e-02  linmin: -4.054e-01  cgtest:  9.999e-01  t[s]:   1024.19
LCAOMinimize: Encountered beta<0, resetting CG.
	FillingsUpdate:  mu: -0.171251800  nElectrons: 673.000000
LCAOMinimize: Iter:  25  G: -2785.7012269577526240  |grad|_K:  7.388e-05  alpha:  1.079e-02  linmin: -4.053e-01  cgtest:  9.999e-01  t[s]:   1062.03
LCAOMinimize: Encountered beta<0, resetting CG.
	FillingsUpdate:  mu: -0.171251800  nElectrons: 673.000000
LCAOMinimize: Iter:  26  G: -2785.7012481135634516  |grad|_K:  7.319e-05  alpha:  8.318e-03  linmin: -4.053e-01  cgtest:  9.999e-01  t[s]:   1100.17
LCAOMinimize: Encountered beta<0, resetting CG.
	FillingsUpdate:  mu: -0.171251800  nElectrons: 673.000000
LCAOMinimize: Iter:  27  G: -2785.7012637614816413  |grad|_K:  7.267e-05  alpha:  6.363e-03  linmin: -4.053e-01  cgtest:  1.000e+00  t[s]:   1138.69
LCAOMinimize: Encountered beta<0, resetting CG.
	FillingsUpdate:  mu: -0.171251800  nElectrons: 673.000000
LCAOMinimize: Iter:  28  G: -2785.7012753581830111  |grad|_K:  7.228e-05  alpha:  4.840e-03  linmin: -4.053e-01  cgtest:  1.000e+00  t[s]:   1176.68
LCAOMinimize: Encountered beta<0, resetting CG.
	FillingsUpdate:  mu: -0.171251800  nElectrons: 673.000000
LCAOMinimize: Iter:  29  G: -2785.7012839677026932  |grad|_K:  7.198e-05  alpha:  3.665e-03  linmin: -4.053e-01  cgtest:  1.000e+00  t[s]:   1215.40
LCAOMinimize: Encountered beta<0, resetting CG.
	FillingsUpdate:  mu: -0.171251800  nElectrons: 673.000000
LCAOMinimize: Iter:  30  G: -2785.7012903688373626  |grad|_K:  7.176e-05  alpha:  2.766e-03  linmin: -4.053e-01  cgtest:  1.000e+00  t[s]:   1253.56
LCAOMinimize: Encountered beta<0, resetting CG.
LCAOMinimize: None of the convergence criteria satisfied after 30 iterations.
----- createFluidSolver() ----- (Fluid-side solver setup)
   Initializing fluid molecule 'H2O'
     Initializing site 'O'
       Electron density: proportional to exp(-r/0.36935)*erfc((r-0.51523)/0.36823) with norm 6.826
       Charge density: gaussian nuclear width 0.478731 with net site charge 0.826
       Polarizability: cuspless exponential with width 0.32 and norm 3.73
       Hard sphere radius: 2.57003 bohrs
       Positions in reference frame:
         [ +0.000000 +0.000000 +0.000000 ]
     Initializing site 'H'
       Electron density: proportional to exp(-r/0.34641)*erfc((r-0)/0.390882) with norm 0.587
       Charge density: gaussian nuclear width 0.377945 with net site charge -0.413
       Polarizability: cuspless exponential with width 0.39 and norm 3.3
       Positions in reference frame:
         [ +0.000000 -1.441945 +1.122523 ]
         [ +0.000000 +1.441945 +1.122523 ]
     Net charge: 0   dipole magnitude: 0.927204
     Initializing spherical shell mfKernel with radius 2.61727 Bohr
     deltaS corrections:
       site 'O': -7.54299
       site 'H': -6.83917
   Initializing fluid molecule 'Na+'
     Initializing site 'Na'
       Electron density: proportional to exp(-r/0.19682)*erfc((r-0.71491)/0.41314) with norm 8.1383
       Charge density: gaussian nuclear width 0.365347 with net site charge -1
       Hard sphere radius: 1.86327 bohrs
       Positions in reference frame:
         [ +0.000000 +0.000000 +0.000000 ]
     Net charge: -1   dipole magnitude: 0
     Initializing gaussian mfKernel with width: 1.55004 Bohr
     deltaS corrections:
       site 'Na': -22.3555
   Initializing fluid molecule 'F-'
     Initializing site 'F'
       Electron density: proportional to exp(-r/0.38886)*erfc((r-0)/0.438782) with norm 8
       Charge density: gaussian nuclear width 0.374796 with net site charge 1
       Hard sphere radius: 2.39995 bohrs
       Positions in reference frame:
         [ +0.000000 +0.000000 +0.000000 ]
     Net charge: 1   dipole magnitude: 0
     Initializing gaussian mfKernel with width: 1.59012 Bohr
     deltaS corrections:
       site 'F': -9.04335

Correction to mu due to finite nuclear width = -0.0222529
   Cavity determined by nc: 0.00142 and sigma: 0.707107
   Nonlocal vdW cavity from gaussian model electron density with norm = 8 and sigma = 0.993594 bohr
   Charge asymmetry in cavity with sensitivity pCavity = 36.5 e-bohr/Eh
   Electrostatic cavity expanded by eta = 1.46 bohrs
   Weighted density cavitation model constrained by Nbulk: 0.0049383 bohr^-3, Pvap: 3.14029 kPa, Rvdw: 2.61727 bohr and sigmaBulk: 4.62e-05 Eh/bohr^2 at T: 298 K.
   Weighted density dispersion model using vdW pair potentials with single solvent site with sqrtC6eff: 0.77 SI.


---- Citations for features of the code used in this run ----

   Software package:
      R. Sundararaman, K. Letchworth-Weaver, K.A. Schwarz, D. Gunceler, Y. Ozhabes and T.A. Arias, 'JDFTx: software for joint density-functional theory', SoftwareX 6, 278 (2017)

   gga-PBE exchange-correlation functional:
      J.P. Perdew, K. Burke and M. Ernzerhof, Phys. Rev. Lett. 77, 3865 (1996)

   Pseudopotentials:
      KF Garrity, JW Bennett, KM Rabe and D Vanderbilt, Comput. Mater. Sci. 81, 446 (2014)

   Truncated Coulomb potentials:
      R. Sundararaman and T.A. Arias, Phys. Rev. B 87, 165122 (2013)

   Van der Waals correction pair-potentials:
      S. Grimme, J. Comput. Chem. 27, 1787 (2006)

   Charge-asymmetric nonlocally-determined local-electric (CANDLE) solvation model:
      R. Sundararaman and W.A. Goddard III, J. Chem. Phys. 142, 064107 (2015)

   Total energy minimization with Auxiliary Hamiltonian:
      C. Freysoldt, S. Boeck, and J. Neugebauer, Phys. Rev. B 79, 241103(R) (2009)

   Grand-canonical (fixed-potential) DFT:
      R. Sundararaman, W. A. Goddard III and T. A. Arias, J. Chem. Phys. 146, 114104 (2017)

This list may not be complete. Please suggest additional citations or
report any other bugs at https://github.com/shankar1729/jdftx/issues

Initialization completed successfully at t[s]:   1262.07

Fluid solver invoked on fresh (partially random / LCAO) wavefunctions
Running a vacuum solve first:

-------- Initial electronic minimization -----------
	FillingsUpdate:  mu: -0.118004933  nElectrons: 673.000000
ElecMinimize: Iter:   0  G: -2785.815018101223359  |grad|_K:  1.607e-04  alpha:  1.000e+00
	FillingsUpdate:  mu: -0.074003101  nElectrons: 673.000000
	SubspaceRotationAdjust: set factor to 0.939
ElecMinimize: Iter:   1  G: -2787.829057880303026  |grad|_K:  1.093e-04  alpha:  4.714e-01  linmin:  1.280e-06  t[s]:   1358.31
	FillingsUpdate:  mu: -0.163744193  nElectrons: 673.000000
	SubspaceRotationAdjust: set factor to 0.601
ElecMinimize: Iter:   2  G: -2788.297609416478281  |grad|_K:  8.130e-05  alpha:  2.656e-01  linmin:  4.216e-05  t[s]:   1417.13
	FillingsUpdate:  mu: -0.147490124  nElectrons: 673.000000
	SubspaceRotationAdjust: set factor to 0.358
ElecMinimize: Iter:   3  G: -2788.478204931347136  |grad|_K:  8.277e-05  alpha:  1.692e-01  linmin: -2.012e-06  t[s]:   1475.50
	FillingsUpdate:  mu: -0.109310096  nElectrons: 673.000000
	SubspaceRotationAdjust: set factor to 0.275
ElecMinimize: Iter:   4  G: -2788.566172173336781  |grad|_K:  3.668e-05  alpha:  7.616e-02  linmin: -1.815e-05  t[s]:   1534.55
	FillingsUpdate:  mu: -0.104905193  nElectrons: 673.000000
	SubspaceRotationAdjust: set factor to 0.193
ElecMinimize: Iter:   5  G: -2788.605167480990531  |grad|_K:  3.115e-05  alpha:  1.756e-01  linmin:  4.262e-05  t[s]:   1593.08
	FillingsUpdate:  mu: -0.107296609  nElectrons: 673.000000
	SubspaceRotationAdjust: set factor to 0.187
ElecMinimize: Iter:   6  G: -2788.644704798219209  |grad|_K:  1.846e-05  alpha:  2.529e-01  linmin:  3.884e-07  t[s]:   1651.46
	FillingsUpdate:  mu: -0.108158746  nElectrons: 673.000000
	SubspaceRotationAdjust: set factor to 0.145
ElecMinimize: Iter:   7  G: -2788.655012262841410  |grad|_K:  1.253e-05  alpha:  1.837e-01  linmin: -2.755e-06  t[s]:   1710.05
	FillingsUpdate:  mu: -0.109957253  nElectrons: 673.000000
	SubspaceRotationAdjust: set factor to 0.182
ElecMinimize: Iter:   8  G: -2788.663058238367739  |grad|_K:  8.112e-06  alpha:  3.104e-01  linmin:  1.201e-05  t[s]:   1768.44
	FillingsUpdate:  mu: -0.110598782  nElectrons: 673.000000
	SubspaceRotationAdjust: set factor to 0.161
ElecMinimize: Iter:   9  G: -2788.665908652968028  |grad|_K:  6.235e-06  alpha:  2.627e-01  linmin:  9.726e-06  t[s]:   1826.91
	FillingsUpdate:  mu: -0.111539303  nElectrons: 673.000000
	SubspaceRotationAdjust: set factor to 0.176
ElecMinimize: Iter:  10  G: -2788.667865016424912  |grad|_K:  4.718e-06  alpha:  3.053e-01  linmin:  5.394e-06  t[s]:   1885.19
	FillingsUpdate:  mu: -0.111295340  nElectrons: 673.000000
	SubspaceRotationAdjust: set factor to 0.193
ElecMinimize: Iter:  11  G: -2788.669079154718929  |grad|_K:  3.930e-06  alpha:  3.309e-01  linmin:  2.999e-06  t[s]:   1943.77
	FillingsUpdate:  mu: -0.110544447  nElectrons: 673.000000
	SubspaceRotationAdjust: set factor to 0.2
ElecMinimize: Iter:  12  G: -2788.669962811832647  |grad|_K:  3.736e-06  alpha:  3.471e-01  linmin:  3.343e-06  t[s]:   2001.67
	FillingsUpdate:  mu: -0.110259305  nElectrons: 673.000000
	SubspaceRotationAdjust: set factor to 0.196
ElecMinimize: Iter:  13  G: -2788.670563823579869  |grad|_K:  2.913e-06  alpha:  2.612e-01  linmin:  5.915e-07  t[s]:   2059.97
	FillingsUpdate:  mu: -0.111057047  nElectrons: 673.000000
	SubspaceRotationAdjust: set factor to 0.227
ElecMinimize: Iter:  14  G: -2788.671127465334848  |grad|_K:  2.676e-06  alpha:  4.031e-01  linmin:  2.592e-06  t[s]:   2118.10
	FillingsUpdate:  mu: -0.111529412  nElectrons: 673.000000
	SubspaceRotationAdjust: set factor to 0.204
ElecMinimize: Iter:  15  G: -2788.671456460224363  |grad|_K:  2.375e-06  alpha:  2.788e-01  linmin:  1.207e-07  t[s]:   2176.51
	FillingsUpdate:  mu: -0.111425915  nElectrons: 673.000000
	SubspaceRotationAdjust: set factor to 0.185
ElecMinimize: Iter:  16  G: -2788.671687663747434  |grad|_K:  1.774e-06  alpha:  2.483e-01  linmin:  9.207e-07  t[s]:   2234.71
	FillingsUpdate:  mu: -0.110926263  nElectrons: 673.000000
	SubspaceRotationAdjust: set factor to 0.222
ElecMinimize: Iter:  17  G: -2788.671868014152096  |grad|_K:  1.283e-06  alpha:  3.481e-01  linmin:  2.472e-06  t[s]:   2293.27
	FillingsUpdate:  mu: -0.110839229  nElectrons: 673.000000
	SubspaceRotationAdjust: set factor to 0.194
ElecMinimize: Iter:  18  G: -2788.671937456682372  |grad|_K:  1.016e-06  alpha:  2.562e-01  linmin: -8.311e-08  t[s]:   2351.45
	FillingsUpdate:  mu: -0.110940347  nElectrons: 673.000000
	SubspaceRotationAdjust: set factor to 0.193
ElecMinimize: Iter:  19  G: -2788.671985917293114  |grad|_K:  7.867e-07  alpha:  2.843e-01  linmin:  3.815e-08  t[s]:   2409.90
	FillingsUpdate:  mu: -0.110998942  nElectrons: 673.000000
	SubspaceRotationAdjust: set factor to 0.177
ElecMinimize: Iter:  20  G: -2788.672013177785175  |grad|_K:  5.220e-07  alpha:  2.669e-01  linmin: -1.119e-07  t[s]:   2468.19
	FillingsUpdate:  mu: -0.110947667  nElectrons: 673.000000
	SubspaceRotationAdjust: set factor to 0.21
ElecMinimize: Iter:  21  G: -2788.672029734822900  |grad|_K:  4.122e-07  alpha:  3.681e-01  linmin: -1.151e-07  t[s]:   2525.98
	FillingsUpdate:  mu: -0.110942073  nElectrons: 673.000000
	SubspaceRotationAdjust: set factor to 0.172
ElecMinimize: Iter:  22  G: -2788.672036692819347  |grad|_K:  3.079e-07  alpha:  2.481e-01  linmin: -1.902e-08  t[s]:   2584.54
	FillingsUpdate:  mu: -0.110980074  nElectrons: 673.000000
	SubspaceRotationAdjust: set factor to 0.21
ElecMinimize: Iter:  23  G: -2788.672041923770394  |grad|_K:  2.102e-07  alpha:  3.343e-01  linmin: -1.827e-08  t[s]:   2642.84
	FillingsUpdate:  mu: -0.110977571  nElectrons: 673.000000
	SubspaceRotationAdjust: set factor to 0.219
ElecMinimize: Iter:  24  G: -2788.672044465396084  |grad|_K:  1.662e-07  alpha:  3.487e-01  linmin: -5.021e-09  t[s]:   2701.17
	FillingsUpdate:  mu: -0.110938332  nElectrons: 673.000000
	SubspaceRotationAdjust: set factor to 0.24
ElecMinimize: Iter:  25  G: -2788.672046131158822  |grad|_K:  1.480e-07  alpha:  3.653e-01  linmin:  1.837e-08  t[s]:   2759.12
	FillingsUpdate:  mu: -0.110926020  nElectrons: 673.000000
	SubspaceRotationAdjust: set factor to 0.22
ElecMinimize: Iter:  26  G: -2788.672047223546997  |grad|_K:  1.421e-07  alpha:  3.023e-01  linmin:  1.773e-08  t[s]:   2816.95
	FillingsUpdate:  mu: -0.110945539  nElectrons: 673.000000
	SubspaceRotationAdjust: set factor to 0.213
ElecMinimize: Iter:  27  G: -2788.672048123278273  |grad|_K:  1.103e-07  alpha:  2.700e-01  linmin:  7.412e-08  t[s]:   2875.26
	FillingsUpdate:  mu: -0.110986457  nElectrons: 673.000000
	SubspaceRotationAdjust: set factor to 0.242
ElecMinimize: Iter:  28  G: -2788.672048969395746  |grad|_K:  9.116e-08  alpha:  4.222e-01  linmin:  2.626e-07  t[s]:   2932.73
	FillingsUpdate:  mu: -0.110985538  nElectrons: 673.000000
	SubspaceRotationAdjust: set factor to 0.257
ElecMinimize: Iter:  29  G: -2788.672049521229837  |grad|_K:  7.799e-08  alpha:  4.032e-01  linmin:  6.264e-08  t[s]:   2990.81
	FillingsUpdate:  mu: -0.110973400  nElectrons: 673.000000
	SubspaceRotationAdjust: set factor to 0.205
ElecMinimize: Iter:  30  G: -2788.672049785570835  |grad|_K:  6.719e-08  alpha:  2.635e-01  linmin:  6.161e-09  t[s]:   3049.33
	FillingsUpdate:  mu: -0.110965497  nElectrons: 673.000000
	SubspaceRotationAdjust: set factor to 0.166
ElecMinimize: Iter:  31  G: -2788.672049973871253  |grad|_K:  5.195e-08  alpha:  2.528e-01  linmin:  4.154e-08  t[s]:   3107.39
	FillingsUpdate:  mu: -0.110966108  nElectrons: 673.000000
	SubspaceRotationAdjust: set factor to 0.15
ElecMinimize: Iter:  32  G: -2788.672050095485702  |grad|_K:  3.306e-08  alpha:  2.733e-01  linmin:  1.370e-08  t[s]:   3165.34
	FillingsUpdate:  mu: -0.110968297  nElectrons: 673.000000
	SubspaceRotationAdjust: set factor to 0.173
ElecMinimize: Iter:  33  G: -2788.672050161117568  |grad|_K:  2.488e-08  alpha:  3.636e-01  linmin: -1.189e-07  t[s]:   3223.78
	FillingsUpdate:  mu: -0.110966601  nElectrons: 673.000000
	SubspaceRotationAdjust: set factor to 0.157
ElecMinimize: Iter:  34  G: -2788.672050192303232  |grad|_K:  1.879e-08  alpha:  3.049e-01  linmin: -4.303e-08  t[s]:   3281.90
	FillingsUpdate:  mu: -0.110964616  nElectrons: 673.000000
	SubspaceRotationAdjust: set factor to 0.177
ElecMinimize: Iter:  35  G: -2788.672050210315319  |grad|_K:  1.312e-08  alpha:  3.087e-01  linmin:  1.922e-08  t[s]:   3339.81
	FillingsUpdate:  mu: -0.110965125  nElectrons: 673.000000
	SubspaceRotationAdjust: set factor to 0.22
ElecMinimize: Iter:  36  G: -2788.672050222285634  |grad|_K:  1.094e-08  alpha:  4.228e-01  linmin: -1.194e-07  t[s]:   3398.34
	FillingsUpdate:  mu: -0.110964861  nElectrons: 673.000000
	SubspaceRotationAdjust: set factor to 0.231
ElecMinimize: Iter:  37  G: -2788.672050229191427  |grad|_K:  1.072e-08  alpha:  3.478e-01  linmin: -1.735e-08  t[s]:   3456.95
	FillingsUpdate:  mu: -0.110963005  nElectrons: 673.000000
	SubspaceRotationAdjust: set factor to 0.228
ElecMinimize: Iter:  38  G: -2788.672050235265942  |grad|_K:  1.011e-08  alpha:  3.201e-01  linmin:  1.132e-07  t[s]:   3515.37
ElecMinimize: Converged (|Delta G|<1.000000e-08 for 2 iters).
Setting wave functions to eigenvectors of Hamiltonian
Vacuum energy after initial minimize, F = -2788.672050235265942

Shifting auxilliary hamiltonian by -0.060289 to set nElectrons=673.000000
	Linear fluid (dielectric constant: 78.4, screening length: 5.74355 Bohr) occupying 0.755779 of unit cell:	Completed after 22 iterations at t[s]:   3530.04

-------- Electronic minimization -----------
	Linear fluid (dielectric constant: 78.4, screening length: 5.74355 Bohr) occupying 0.755779 of unit cell:	Completed after 0 iterations at t[s]:   3545.98
	FillingsUpdate:  mu: -0.171251800  nElectrons: 673.000000
ElecMinimize: Iter:   0  G: -2788.675539660924187  |grad|_K:  5.073e-05  alpha:  1.000e+00
	Linear fluid (dielectric constant: 78.4, screening length: 5.74355 Bohr) occupying 0.798920 of unit cell:	Completed after 25 iterations at t[s]:   3597.25
	Linear fluid (dielectric constant: 78.4, screening length: 5.74355 Bohr) occupying 0.758687 of unit cell:	Completed after 23 iterations at t[s]:   3622.86
	FillingsUpdate:  mu: -0.171251800  nElectrons: 673.713937
	SubspaceRotationAdjust: set factor to 0.137
ElecMinimize: Iter:   1  G: -2788.704037871221772  |grad|_K:  1.927e-05  alpha:  5.135e-02  linmin: -2.864e-02  t[s]:   3651.96
	Linear fluid (dielectric constant: 78.4, screening length: 5.74355 Bohr) occupying 0.761962 of unit cell:	Completed after 17 iterations at t[s]:   3673.59
	Linear fluid (dielectric constant: 78.4, screening length: 5.74355 Bohr) occupying 0.765923 of unit cell:	Completed after 18 iterations at t[s]:   3697.48
	FillingsUpdate:  mu: -0.171251800  nElectrons: 674.360455
	SubspaceRotationAdjust: set factor to 0.127
ElecMinimize: Iter:   2  G: -2788.712389390823773  |grad|_K:  1.640e-05  alpha:  1.004e-01  linmin: -1.113e-03  t[s]:   3725.65
	Linear fluid (dielectric constant: 78.4, screening length: 5.74355 Bohr) occupying 0.770761 of unit cell:	Completed after 18 iterations at t[s]:   3747.44
ElecMinimize: 	Predicted alpha/alphaT>3.000000, increasing alphaT to 3.012302e-01.
	Linear fluid (dielectric constant: 78.4, screening length: 5.74355 Bohr) occupying 0.779757 of unit cell:	Completed after 22 iterations at t[s]:   3771.51
	Linear fluid (dielectric constant: 78.4, screening length: 5.74355 Bohr) occupying 0.780212 of unit cell:	Completed after 14 iterations at t[s]:   3795.17
	FillingsUpdate:  mu: -0.171251800  nElectrons: 675.483923
	SubspaceRotationAdjust: set factor to 0.08
ElecMinimize: Iter:   3  G: -2788.727181590552846  |grad|_K:  2.517e-05  alpha:  3.128e-01  linmin:  1.222e-03  t[s]:   3823.16
	Linear fluid (dielectric constant: 78.4, screening length: 5.74355 Bohr) occupying 0.789945 of unit cell:	Completed after 26 iterations at t[s]:   3846.18
	Linear fluid (dielectric constant: 78.4, screening length: 5.74355 Bohr) occupying 0.784706 of unit cell:	Completed after 20 iterations at t[s]:   3871.41
	FillingsUpdate:  mu: -0.171251800  nElectrons: 675.976578
	SubspaceRotationAdjust: set factor to 0.0721
ElecMinimize: Iter:   4  G: -2788.738335917981203  |grad|_K:  1.728e-05  alpha:  1.148e-01  linmin: -1.442e-04  t[s]:   3900.62
	Linear fluid (dielectric constant: 78.4, screening length: 5.74355 Bohr) occupying 0.784518 of unit cell:	Completed after 18 iterations at t[s]:   3922.53
	Linear fluid (dielectric constant: 78.4, screening length: 5.74355 Bohr) occupying 0.784468 of unit cell:	Completed after 16 iterations at t[s]:   3945.65
	FillingsUpdate:  mu: -0.171251800  nElectrons: 675.982716
	SubspaceRotationAdjust: set factor to 0.0856
ElecMinimize: Iter:   5  G: -2788.745562840632829  |grad|_K:  1.363e-05  alpha:  1.449e-01  linmin:  7.386e-06  t[s]:   3974.02
	Linear fluid (dielectric constant: 78.4, screening length: 5.74355 Bohr) occupying 0.783943 of unit cell:	Completed after 17 iterations at t[s]:   3995.86
	Linear fluid (dielectric constant: 78.4, screening length: 5.74355 Bohr) occupying 0.783801 of unit cell:	Completed after 14 iterations at t[s]:   4018.99
	FillingsUpdate:  mu: -0.171251800  nElectrons: 675.940486
	SubspaceRotationAdjust: set factor to 0.0842
ElecMinimize: Iter:   6  G: -2788.751187683811622  |grad|_K:  1.287e-05  alpha:  1.837e-01  linmin:  1.074e-05  t[s]:   4046.89
	Linear fluid (dielectric constant: 78.4, screening length: 5.74355 Bohr) occupying 0.784503 of unit cell:	Completed after 15 iterations at t[s]:   4068.35
	Linear fluid (dielectric constant: 78.4, screening length: 5.74355 Bohr) occupying 0.784443 of unit cell:	Completed after 6 iterations at t[s]:   4089.71
	FillingsUpdate:  mu: -0.171251800  nElectrons: 676.046637
	SubspaceRotationAdjust: set factor to 0.0997
ElecMinimize: Iter:   7  G: -2788.755751881771630  |grad|_K:  1.078e-05  alpha:  1.672e-01  linmin:  2.608e-06  t[s]:   4116.72
	Linear fluid (dielectric constant: 78.4, screening length: 5.74355 Bohr) occupying 0.785615 of unit cell:	Completed after 20 iterations at t[s]:   4138.22
	Linear fluid (dielectric constant: 78.4, screening length: 5.74355 Bohr) occupying 0.785617 of unit cell:	Completed after 0 iterations at t[s]:   4159.73
	FillingsUpdate:  mu: -0.171251800  nElectrons: 676.215755
	SubspaceRotationAdjust: set factor to 0.0968
ElecMinimize: Iter:   8  G: -2788.758963334223154  |grad|_K:  9.852e-06  alpha:  1.674e-01  linmin:  1.458e-05  t[s]:   4185.48
	Linear fluid (dielectric constant: 78.4, screening length: 5.74355 Bohr) occupying 0.786031 of unit cell:	Completed after 17 iterations at t[s]:   4207.36
	Linear fluid (dielectric constant: 78.4, screening length: 5.74355 Bohr) occupying 0.786084 of unit cell:	Completed after 13 iterations at t[s]:   4229.98
	FillingsUpdate:  mu: -0.171251800  nElectrons: 676.299330
	SubspaceRotationAdjust: set factor to 0.118
ElecMinimize: Iter:   9  G: -2788.761992391147487  |grad|_K:  9.269e-06  alpha:  1.895e-01  linmin: -4.196e-06  t[s]:   4257.66
	Linear fluid (dielectric constant: 78.4, screening length: 5.74355 Bohr) occupying 0.785159 of unit cell:	Completed after 18 iterations at t[s]:   4279.63
	Linear fluid (dielectric constant: 78.4, screening length: 5.74355 Bohr) occupying 0.785352 of unit cell:	Completed after 14 iterations at t[s]:   4303.45
	FillingsUpdate:  mu: -0.171251800  nElectrons: 676.217479
	SubspaceRotationAdjust: set factor to 0.152
ElecMinimize: Iter:  10  G: -2788.764128165053535  |grad|_K:  7.246e-06  alpha:  1.507e-01  linmin: -8.421e-06  t[s]:   4331.46
	Linear fluid (dielectric constant: 78.4, screening length: 5.74355 Bohr) occupying 0.784374 of unit cell:	Completed after 18 iterations at t[s]:   4353.40
	Linear fluid (dielectric constant: 78.4, screening length: 5.74355 Bohr) occupying 0.784317 of unit cell:	Completed after 10 iterations at t[s]:   4376.07
	FillingsUpdate:  mu: -0.171251800  nElectrons: 676.095686
	SubspaceRotationAdjust: set factor to 0.144
ElecMinimize: Iter:  11  G: -2788.765510900408117  |grad|_K:  7.305e-06  alpha:  1.594e-01  linmin: -2.595e-05  t[s]:   4403.81
	Linear fluid (dielectric constant: 78.4, screening length: 5.74355 Bohr) occupying 0.784167 of unit cell:	Completed after 14 iterations at t[s]:   4424.93
	Linear fluid (dielectric constant: 78.4, screening length: 5.74355 Bohr) occupying 0.784127 of unit cell:	Completed after 9 iterations at t[s]:   4446.72
	FillingsUpdate:  mu: -0.171251800  nElectrons: 676.078203
	SubspaceRotationAdjust: set factor to 0.165
ElecMinimize: Iter:  12  G: -2788.767288769499373  |grad|_K:  6.844e-06  alpha:  2.012e-01  linmin:  1.321e-06  t[s]:   4474.37
	Linear fluid (dielectric constant: 78.4, screening length: 5.74355 Bohr) occupying 0.785420 of unit cell:	Completed after 18 iterations at t[s]:   4496.51
	Linear fluid (dielectric constant: 78.4, screening length: 5.74355 Bohr) occupying 0.784956 of unit cell:	Completed after 14 iterations at t[s]:   4519.42
	FillingsUpdate:  mu: -0.171251800  nElectrons: 676.180026
	SubspaceRotationAdjust: set factor to 0.185
ElecMinimize: Iter:  13  G: -2788.768275445260770  |grad|_K:  5.042e-06  alpha:  1.273e-01  linmin: -7.448e-08  t[s]:   4547.52
	Linear fluid (dielectric constant: 78.4, screening length: 5.74355 Bohr) occupying 0.785362 of unit cell:	Completed after 14 iterations at t[s]:   4568.72
	Linear fluid (dielectric constant: 78.4, screening length: 5.74355 Bohr) occupying 0.785592 of unit cell:	Completed after 14 iterations at t[s]:   4591.21
	FillingsUpdate:  mu: -0.171251800  nElectrons: 676.261055
	SubspaceRotationAdjust: set factor to 0.193
ElecMinimize: Iter:  14  G: -2788.769116758043310  |grad|_K:  6.209e-06  alpha:  2.008e-01  linmin:  1.381e-05  t[s]:   4619.21
	Linear fluid (dielectric constant: 78.4, screening length: 5.74355 Bohr) occupying 0.784950 of unit cell:	Completed after 17 iterations at t[s]:   4640.28
	Linear fluid (dielectric constant: 78.4, screening length: 5.74355 Bohr) occupying 0.785126 of unit cell:	Completed after 14 iterations at t[s]:   4663.38
	FillingsUpdate:  mu: -0.171251800  nElectrons: 676.203667
	SubspaceRotationAdjust: set factor to 0.259
ElecMinimize: Iter:  15  G: -2788.770048665423928  |grad|_K:  4.706e-06  alpha:  1.470e-01  linmin: -4.257e-07  t[s]:   4691.12
	Linear fluid (dielectric constant: 78.4, screening length: 5.74355 Bohr) occupying 0.784452 of unit cell:	Completed after 17 iterations at t[s]:   4712.83
	Linear fluid (dielectric constant: 78.4, screening length: 5.74355 Bohr) occupying 0.784495 of unit cell:	Completed after 9 iterations at t[s]:   4734.84
	FillingsUpdate:  mu: -0.171251800  nElectrons: 676.128861
	SubspaceRotationAdjust: set factor to 0.245
ElecMinimize: Iter:  16  G: -2788.770552134059926  |grad|_K:  5.027e-06  alpha:  1.378e-01  linmin: -7.907e-07  t[s]:   4762.37
	Linear fluid (dielectric constant: 78.4, screening length: 5.74355 Bohr) occupying 0.784787 of unit cell:	Completed after 14 iterations at t[s]:   4783.27
	Linear fluid (dielectric constant: 78.4, screening length: 5.74355 Bohr) occupying 0.784841 of unit cell:	Completed after 9 iterations at t[s]:   4805.11
	FillingsUpdate:  mu: -0.171251800  nElectrons: 676.177259
	SubspaceRotationAdjust: set factor to 0.367
ElecMinimize: Iter:  17  G: -2788.771235840493773  |grad|_K:  4.064e-06  alpha:  1.639e-01  linmin:  3.175e-07  t[s]:   4832.28
	Linear fluid (dielectric constant: 78.4, screening length: 5.74355 Bohr) occupying 0.785627 of unit cell:	Completed after 17 iterations at t[s]:   4853.83
	Linear fluid (dielectric constant: 78.4, screening length: 5.74355 Bohr) occupying 0.785484 of unit cell:	Completed after 14 iterations at t[s]:   4876.99
	FillingsUpdate:  mu: -0.171251800  nElectrons: 676.263841
	SubspaceRotationAdjust: set factor to 0.318
ElecMinimize: Iter:  18  G: -2788.771599512074772  |grad|_K:  4.636e-06  alpha:  1.334e-01  linmin:  1.333e-06  t[s]:   4905.21
	Linear fluid (dielectric constant: 78.4, screening length: 5.74355 Bohr) occupying 0.785196 of unit cell:	Completed after 14 iterations at t[s]:   4926.85
	Linear fluid (dielectric constant: 78.4, screening length: 5.74355 Bohr) occupying 0.785153 of unit cell:	Completed after 9 iterations at t[s]:   4948.86
	FillingsUpdate:  mu: -0.171251800  nElectrons: 676.233172
	SubspaceRotationAdjust: set factor to 0.381
ElecMinimize: Iter:  19  G: -2788.772141581590859  |grad|_K:  3.130e-06  alpha:  1.530e-01  linmin:  3.739e-06  t[s]:   4976.01
	Linear fluid (dielectric constant: 78.4, screening length: 5.74355 Bohr) occupying 0.784805 of unit cell:	Completed after 14 iterations at t[s]:   4997.19
	Linear fluid (dielectric constant: 78.4, screening length: 5.74355 Bohr) occupying 0.784742 of unit cell:	Completed after 10 iterations at t[s]:   5019.03
	FillingsUpdate:  mu: -0.171251800  nElectrons: 676.190079
	SubspaceRotationAdjust: set factor to 0.354
ElecMinimize: Iter:  20  G: -2788.772432428078901  |grad|_K:  3.380e-06  alpha:  1.800e-01  linmin: -7.346e-06  t[s]:   5046.33
	Linear fluid (dielectric constant: 78.4, screening length: 5.74355 Bohr) occupying 0.785460 of unit cell:	Completed after 17 iterations at t[s]:   5068.11
	Linear fluid (dielectric constant: 78.4, screening length: 5.74355 Bohr) occupying 0.785088 of unit cell:	Completed after 14 iterations at t[s]:   5091.53
	FillingsUpdate:  mu: -0.171251800  nElectrons: 676.238319
	SubspaceRotationAdjust: set factor to 0.265
ElecMinimize: Iter:  21  G: -2788.772594952090913  |grad|_K:  2.278e-06  alpha:  8.554e-02  linmin: -4.999e-06  t[s]:   5119.16
	Linear fluid (dielectric constant: 78.4, screening length: 5.74355 Bohr) occupying 0.785100 of unit cell:	Completed after 3 iterations at t[s]:   5138.80
	Linear fluid (dielectric constant: 78.4, screening length: 5.74355 Bohr) occupying 0.785120 of unit cell:	Completed after 3 iterations at t[s]:   5158.07
	FillingsUpdate:  mu: -0.171251800  nElectrons: 676.249276
	SubspaceRotationAdjust: set factor to 0.321
ElecMinimize: Iter:  22  G: -2788.772787968275225  |grad|_K:  1.978e-06  alpha:  2.253e-01  linmin:  6.098e-06  t[s]:   5184.75
	Linear fluid (dielectric constant: 78.4, screening length: 5.74355 Bohr) occupying 0.784739 of unit cell:	Completed after 14 iterations at t[s]:   5206.44
	Linear fluid (dielectric constant: 78.4, screening length: 5.74355 Bohr) occupying 0.784898 of unit cell:	Completed after 14 iterations at t[s]:   5229.04
	FillingsUpdate:  mu: -0.171251800  nElectrons: 676.224403
	SubspaceRotationAdjust: set factor to 0.268
ElecMinimize: Iter:  23  G: -2788.772872551168348  |grad|_K:  1.777e-06  alpha:  1.317e-01  linmin:  5.415e-07  t[s]:   5257.18
	Linear fluid (dielectric constant: 78.4, screening length: 5.74355 Bohr) occupying 0.785086 of unit cell:	Completed after 14 iterations at t[s]:   5278.68
	Linear fluid (dielectric constant: 78.4, screening length: 5.74355 Bohr) occupying 0.785104 of unit cell:	Completed after 2 iterations at t[s]:   5299.18
	FillingsUpdate:  mu: -0.171251800  nElectrons: 676.252731
	SubspaceRotationAdjust: set factor to 0.285
ElecMinimize: Iter:  24  G: -2788.772947479464619  |grad|_K:  1.157e-06  alpha:  1.439e-01  linmin: -1.555e-05  t[s]:   5325.63
	Linear fluid (dielectric constant: 78.4, screening length: 5.74355 Bohr) occupying 0.785175 of unit cell:	Completed after 11 iterations at t[s]:   5346.18
	Linear fluid (dielectric constant: 78.4, screening length: 5.74355 Bohr) occupying 0.785220 of unit cell:	Completed after 8 iterations at t[s]:   5367.52
	FillingsUpdate:  mu: -0.171251800  nElectrons: 676.268935
	SubspaceRotationAdjust: set factor to 0.317
ElecMinimize: Iter:  25  G: -2788.772999870125204  |grad|_K:  1.127e-06  alpha:  2.346e-01  linmin: -5.779e-05  t[s]:   5394.65
	Linear fluid (dielectric constant: 78.4, screening length: 5.74355 Bohr) occupying 0.785007 of unit cell:	Completed after 14 iterations at t[s]:   5415.77
	Linear fluid (dielectric constant: 78.4, screening length: 5.74355 Bohr) occupying 0.785093 of unit cell:	Completed after 12 iterations at t[s]:   5438.53
	FillingsUpdate:  mu: -0.171251800  nElectrons: 676.253205
	SubspaceRotationAdjust: set factor to 0.269
ElecMinimize: Iter:  26  G: -2788.773029939490243  |grad|_K:  1.014e-06  alpha:  1.407e-01  linmin:  1.375e-05  t[s]:   5466.45
	Linear fluid (dielectric constant: 78.4, screening length: 5.74355 Bohr) occupying 0.785164 of unit cell:	Completed after 10 iterations at t[s]:   5486.98
	Linear fluid (dielectric constant: 78.4, screening length: 5.74355 Bohr) occupying 0.785177 of unit cell:	Completed after 3 iterations at t[s]:   5507.22
	FillingsUpdate:  mu: -0.171251800  nElectrons: 676.263961
	SubspaceRotationAdjust: set factor to 0.299
ElecMinimize: Iter:  27  G: -2788.773058005103849  |grad|_K:  7.270e-07  alpha:  1.658e-01  linmin: -2.430e-05  t[s]:   5533.73
	Linear fluid (dielectric constant: 78.4, screening length: 5.74355 Bohr) occupying 0.785198 of unit cell:	Completed after 3 iterations at t[s]:   5553.47
	Linear fluid (dielectric constant: 78.4, screening length: 5.74355 Bohr) occupying 0.785210 of unit cell:	Completed after 2 iterations at t[s]:   5572.75
	FillingsUpdate:  mu: -0.171251800  nElectrons: 676.267586
	SubspaceRotationAdjust: set factor to 0.35
ElecMinimize: Iter:  28  G: -2788.773080383677552  |grad|_K:  7.270e-07  alpha:  2.550e-01  linmin: -8.210e-06  t[s]:   5599.37
	Linear fluid (dielectric constant: 78.4, screening length: 5.74355 Bohr) occupying 0.785080 of unit cell:	Completed after 14 iterations at t[s]:   5620.77
	Linear fluid (dielectric constant: 78.4, screening length: 5.74355 Bohr) occupying 0.785122 of unit cell:	Completed after 8 iterations at t[s]:   5642.53
	FillingsUpdate:  mu: -0.171251800  nElectrons: 676.255527
	SubspaceRotationAdjust: set factor to 0.323
ElecMinimize: Iter:  29  G: -2788.773095634327547  |grad|_K:  7.800e-07  alpha:  1.727e-01  linmin:  3.286e-05  t[s]:   5669.65
	Linear fluid (dielectric constant: 78.4, screening length: 5.74355 Bohr) occupying 0.785245 of unit cell:	Completed after 12 iterations at t[s]:   5690.21
	Linear fluid (dielectric constant: 78.4, screening length: 5.74355 Bohr) occupying 0.785216 of unit cell:	Completed after 6 iterations at t[s]:   5711.62
	FillingsUpdate:  mu: -0.171251800  nElectrons: 676.266263
	SubspaceRotationAdjust: set factor to 0.285
ElecMinimize: Iter:  30  G: -2788.773108687111289  |grad|_K:  5.704e-07  alpha:  1.319e-01  linmin:  7.216e-06  t[s]:   5738.81
	Linear fluid (dielectric constant: 78.4, screening length: 5.74355 Bohr) occupying 0.785207 of unit cell:	Completed after 2 iterations at t[s]:   5758.23
	Linear fluid (dielectric constant: 78.4, screening length: 5.74355 Bohr) occupying 0.785202 of unit cell:	Completed after 3 iterations at t[s]:   5777.46
	FillingsUpdate:  mu: -0.171251800  nElectrons: 676.262988
	SubspaceRotationAdjust: set factor to 0.296
ElecMinimize: Iter:  31  G: -2788.773119788067561  |grad|_K:  4.675e-07  alpha:  2.071e-01  linmin: -1.472e-05  t[s]:   5803.78
	Linear fluid (dielectric constant: 78.4, screening length: 5.74355 Bohr) occupying 0.785206 of unit cell:	Completed after 2 iterations at t[s]:   5823.12
	Linear fluid (dielectric constant: 78.4, screening length: 5.74355 Bohr) occupying 0.785208 of unit cell:	Completed after 2 iterations at t[s]:   5842.33
	FillingsUpdate:  mu: -0.171251800  nElectrons: 676.261858
	SubspaceRotationAdjust: set factor to 0.321
ElecMinimize: Iter:  32  G: -2788.773129392546252  |grad|_K:  4.208e-07  alpha:  2.652e-01  linmin:  2.131e-06  t[s]:   5868.46
	Linear fluid (dielectric constant: 78.4, screening length: 5.74355 Bohr) occupying 0.785224 of unit cell:	Completed after 8 iterations at t[s]:   5888.93
	Linear fluid (dielectric constant: 78.4, screening length: 5.74355 Bohr) occupying 0.785221 of unit cell:	Completed after 2 iterations at t[s]:   5909.08
	FillingsUpdate:  mu: -0.171251800  nElectrons: 676.262117
	SubspaceRotationAdjust: set factor to 0.332
ElecMinimize: Iter:  33  G: -2788.773135707440815  |grad|_K:  4.015e-07  alpha:  2.172e-01  linmin:  1.177e-05  t[s]:   5935.59
	Linear fluid (dielectric constant: 78.4, screening length: 5.74355 Bohr) occupying 0.785098 of unit cell:	Completed after 12 iterations at t[s]:   5956.44
	Linear fluid (dielectric constant: 78.4, screening length: 5.74355 Bohr) occupying 0.785155 of unit cell:	Completed after 9 iterations at t[s]:   5978.41
	FillingsUpdate:  mu: -0.171251800  nElectrons: 676.252948
	SubspaceRotationAdjust: set factor to 0.26
ElecMinimize: Iter:  34  G: -2788.773138806272982  |grad|_K:  3.449e-07  alpha:  1.169e-01  linmin:  2.620e-05  t[s]:   6005.96
	Linear fluid (dielectric constant: 78.4, screening length: 5.74355 Bohr) occupying 0.785158 of unit cell:	Completed after 3 iterations at t[s]:   6025.69
	Linear fluid (dielectric constant: 78.4, screening length: 5.74355 Bohr) occupying 0.785159 of unit cell:	Completed after 2 iterations at t[s]:   6045.14
	FillingsUpdate:  mu: -0.171251800  nElectrons: 676.252581
	SubspaceRotationAdjust: set factor to 0.277
ElecMinimize: Iter:  35  G: -2788.773142017593273  |grad|_K:  2.624e-07  alpha:  1.667e-01  linmin: -4.115e-06  t[s]:   6071.23
	Linear fluid (dielectric constant: 78.4, screening length: 5.74355 Bohr) occupying 0.785161 of unit cell:	Completed after 3 iterations at t[s]:   6090.62
	Linear fluid (dielectric constant: 78.4, screening length: 5.74355 Bohr) occupying 0.785161 of unit cell:	Completed after 0 iterations at t[s]:   6109.54
	FillingsUpdate:  mu: -0.171251800  nElectrons: 676.252044
	SubspaceRotationAdjust: set factor to 0.285
ElecMinimize: Iter:  36  G: -2788.773144597957071  |grad|_K:  2.289e-07  alpha:  2.229e-01  linmin: -7.497e-05  t[s]:   6135.62
	Linear fluid (dielectric constant: 78.4, screening length: 5.74355 Bohr) occupying 0.785115 of unit cell:	Completed after 4 iterations at t[s]:   6155.69
	Linear fluid (dielectric constant: 78.4, screening length: 5.74355 Bohr) occupying 0.785125 of unit cell:	Completed after 0 iterations at t[s]:   6174.68
	FillingsUpdate:  mu: -0.171251800  nElectrons: 676.246986
	SubspaceRotationAdjust: set factor to 0.239
ElecMinimize: Iter:  37  G: -2788.773146237674155  |grad|_K:  1.923e-07  alpha:  1.739e-01  linmin:  1.140e-04  t[s]:   6200.72
	Linear fluid (dielectric constant: 78.4, screening length: 5.74355 Bohr) occupying 0.785137 of unit cell:	Completed after 2 iterations at t[s]:   6219.92
	Linear fluid (dielectric constant: 78.4, screening length: 5.74355 Bohr) occupying 0.785136 of unit cell:	Completed after 0 iterations at t[s]:   6238.65
	FillingsUpdate:  mu: -0.171251800  nElectrons: 676.247996
	SubspaceRotationAdjust: set factor to 0.219
ElecMinimize: Iter:  38  G: -2788.773147121084548  |grad|_K:  1.504e-07  alpha:  1.631e-01  linmin: -6.003e-05  t[s]:   6264.53
	Linear fluid (dielectric constant: 78.4, screening length: 5.74355 Bohr) occupying 0.785128 of unit cell:	Completed after 2 iterations at t[s]:   6283.77
	Linear fluid (dielectric constant: 78.4, screening length: 5.74355 Bohr) occupying 0.785125 of unit cell:	Completed after 0 iterations at t[s]:   6302.44
	FillingsUpdate:  mu: -0.171251800  nElectrons: 676.246318
	SubspaceRotationAdjust: set factor to 0.258
ElecMinimize: Iter:  39  G: -2788.773148103426138  |grad|_K:  1.187e-07  alpha:  2.347e-01  linmin: -8.551e-05  t[s]:   6328.47
	Linear fluid (dielectric constant: 78.4, screening length: 5.74355 Bohr) occupying 0.785105 of unit cell:	Completed after 2 iterations at t[s]:   6347.98
	Linear fluid (dielectric constant: 78.4, screening length: 5.74355 Bohr) occupying 0.785107 of unit cell:	Completed after 0 iterations at t[s]:   6366.89
	FillingsUpdate:  mu: -0.171251800  nElectrons: 676.244070
	SubspaceRotationAdjust: set factor to 0.262
ElecMinimize: Iter:  40  G: -2788.773148637329996  |grad|_K:  1.083e-07  alpha:  2.091e-01  linmin: -3.027e-05  t[s]:   6392.69
	Linear fluid (dielectric constant: 78.4, screening length: 5.74355 Bohr) occupying 0.785113 of unit cell:	Completed after 2 iterations at t[s]:   6412.14
	Linear fluid (dielectric constant: 78.4, screening length: 5.74355 Bohr) occupying 0.785113 of unit cell:	Completed after 0 iterations at t[s]:   6430.56
	FillingsUpdate:  mu: -0.171251800  nElectrons: 676.244737
	SubspaceRotationAdjust: set factor to 0.3
ElecMinimize: Iter:  41  G: -2788.773149024019403  |grad|_K:  8.697e-08  alpha:  1.922e-01  linmin: -1.651e-05  t[s]:   6456.29
	Linear fluid (dielectric constant: 78.4, screening length: 5.74355 Bohr) occupying 0.785113 of unit cell:	Completed after 2 iterations at t[s]:   6475.50
	Linear fluid (dielectric constant: 78.4, screening length: 5.74355 Bohr) occupying 0.785113 of unit cell:	Completed after 0 iterations at t[s]:   6494.11
	FillingsUpdate:  mu: -0.171251800  nElectrons: 676.244880
	SubspaceRotationAdjust: set factor to 0.351
ElecMinimize: Iter:  42  G: -2788.773149306815867  |grad|_K:  7.725e-08  alpha:  2.153e-01  linmin: -3.552e-05  t[s]:   6520.15
	Linear fluid (dielectric constant: 78.4, screening length: 5.74355 Bohr) occupying 0.785107 of unit cell:	Completed after 3 iterations at t[s]:   6539.63
	Linear fluid (dielectric constant: 78.4, screening length: 5.74355 Bohr) occupying 0.785108 of unit cell:	Completed after 0 iterations at t[s]:   6558.52
	FillingsUpdate:  mu: -0.171251800  nElectrons: 676.244387
	SubspaceRotationAdjust: set factor to 0.383
ElecMinimize: Iter:  43  G: -2788.773149495180860  |grad|_K:  7.734e-08  alpha:  1.788e-01  linmin: -8.945e-06  t[s]:   6584.65
	Linear fluid (dielectric constant: 78.4, screening length: 5.74355 Bohr) occupying 0.785113 of unit cell:	Completed after 0 iterations at t[s]:   6603.35
	Linear fluid (dielectric constant: 78.4, screening length: 5.74355 Bohr) occupying 0.785114 of unit cell:	Completed after 0 iterations at t[s]:   6621.49
	FillingsUpdate:  mu: -0.171251800  nElectrons: 676.245355
	SubspaceRotationAdjust: set factor to 0.512
ElecMinimize: Iter:  44  G: -2788.773149713495059  |grad|_K:  7.453e-08  alpha:  2.132e-01  linmin:  4.080e-08  t[s]:   6647.39
	Linear fluid (dielectric constant: 78.4, screening length: 5.74355 Bohr) occupying 0.785133 of unit cell:	Completed after 3 iterations at t[s]:   6666.67
	Linear fluid (dielectric constant: 78.4, screening length: 5.74355 Bohr) occupying 0.785120 of unit cell:	Completed after 2 iterations at t[s]:   6685.79
ElecMinimize: 	Step increased G by 5.780294e-09, reducing alpha to 6.834961e-03.
	Linear fluid (dielectric constant: 78.4, screening length: 5.74355 Bohr) occupying 0.785114 of unit cell:	Completed after 0 iterations at t[s]:   6726.87
	FillingsUpdate:  mu: -0.171251800  nElectrons: 676.245445
	SubspaceRotationAdjust: set factor to 0.4
ElecMinimize: Iter:  45  G: -2788.773149720670517  |grad|_K:  1.103e-07  alpha:  6.835e-03  linmin: -2.894e-06  t[s]:   6752.60
	Linear fluid (dielectric constant: 78.4, screening length: 5.74355 Bohr) occupying 0.785114 of unit cell:	Completed after 0 iterations at t[s]:   6771.88
ElecMinimize: 	Predicted alpha/alphaT>3.000000, increasing alphaT to 2.050488e-02.
	Linear fluid (dielectric constant: 78.4, screening length: 5.74355 Bohr) occupying 0.785115 of unit cell:	Completed after 0 iterations at t[s]:   6789.69
ElecMinimize: 	Predicted alpha/alphaT>3.000000, increasing alphaT to 6.151465e-02.
	Linear fluid (dielectric constant: 78.4, screening length: 5.74355 Bohr) occupying 0.785115 of unit cell:	Completed after 0 iterations at t[s]:   6807.80
	Linear fluid (dielectric constant: 78.4, screening length: 5.74355 Bohr) occupying 0.785115 of unit cell:	Completed after 0 iterations at t[s]:   6825.93
	FillingsUpdate:  mu: -0.171251800  nElectrons: 676.245841
	SubspaceRotationAdjust: set factor to 0.323
ElecMinimize: Iter:  46  G: -2788.773149889383149  |grad|_K:  9.765e-08  alpha:  8.227e-02  linmin: -4.696e-11  t[s]:   6851.60
	Linear fluid (dielectric constant: 78.4, screening length: 5.74355 Bohr) occupying 0.785104 of unit cell:	Completed after 3 iterations at t[s]:   6871.32
	Linear fluid (dielectric constant: 78.4, screening length: 5.74355 Bohr) occupying 0.785112 of unit cell:	Completed after 2 iterations at t[s]:   6890.42
ElecMinimize: 	Step increased G by 6.016853e-08, reducing alpha to 2.234444e-03.
	Linear fluid (dielectric constant: 78.4, screening length: 5.74355 Bohr) occupying 0.785115 of unit cell:	Completed after 0 iterations at t[s]:   6931.55
ElecMinimize: 	Step increased G by 4.393587e-08, reducing alpha to 2.234444e-04.
	Linear fluid (dielectric constant: 78.4, screening length: 5.74355 Bohr) occupying 0.785115 of unit cell:	Completed after 0 iterations at t[s]:   6972.22
ElecMinimize: 	Step increased G by 4.291405e-08, reducing alpha to 2.234444e-05.
ElecMinimize: 	Step failed to reduce G after 3 attempts. Quitting step.
ElecMinimize: 	Undoing step.
	Linear fluid (dielectric constant: 78.4, screening length: 5.74355 Bohr) occupying 0.785115 of unit cell:	Completed after 0 iterations at t[s]:   7012.95
ElecMinimize: 	Step failed: resetting search direction.
	FillingsUpdate:  mu: -0.171251800  nElectrons: 676.245838
	SubspaceRotationAdjust: set factor to 0.235
ElecMinimize: Iter:  47  G: -2788.773149846525939  |grad|_K:  7.774e-08  alpha:  2.234e-05
	Linear fluid (dielectric constant: 78.4, screening length: 5.74355 Bohr) occupying 0.785125 of unit cell:	Completed after 2 iterations at t[s]:   7058.10
	Linear fluid (dielectric constant: 78.4, screening length: 5.74355 Bohr) occupying 0.785123 of unit cell:	Completed after 0 iterations at t[s]:   7076.57
	FillingsUpdate:  mu: -0.171251800  nElectrons: 676.246844
	SubspaceRotationAdjust: set factor to 0.164
ElecMinimize: Iter:  48  G: -2788.773149905323862  |grad|_K:  5.906e-08  alpha:  6.784e-02  linmin: -2.081e-04  t[s]:   7102.54
	Linear fluid (dielectric constant: 78.4, screening length: 5.74355 Bohr) occupying 0.785123 of unit cell:	Completed after 0 iterations at t[s]:   7121.36
ElecMinimize: 	Predicted alpha/alphaT>3.000000, increasing alphaT to 2.035222e-01.
	Linear fluid (dielectric constant: 78.4, screening length: 5.74355 Bohr) occupying 0.785123 of unit cell:	Completed after 0 iterations at t[s]:   7139.50
	Linear fluid (dielectric constant: 78.4, screening length: 5.74355 Bohr) occupying 0.785123 of unit cell:	Completed after 2 iterations at t[s]:   7158.08
	FillingsUpdate:  mu: -0.171251800  nElectrons: 676.246907
	SubspaceRotationAdjust: set factor to 0.204
ElecMinimize: Iter:  49  G: -2788.773150040007295  |grad|_K:  5.419e-08  alpha:  3.408e-01  linmin:  2.090e-04  t[s]:   7184.30
	Linear fluid (dielectric constant: 78.4, screening length: 5.74355 Bohr) occupying 0.785111 of unit cell:	Completed after 2 iterations at t[s]:   7203.92
	Linear fluid (dielectric constant: 78.4, screening length: 5.74355 Bohr) occupying 0.785117 of unit cell:	Completed after 0 iterations at t[s]:   7222.58
	FillingsUpdate:  mu: -0.171251800  nElectrons: 676.246168
	SubspaceRotationAdjust: set factor to 0.199
ElecMinimize: Iter:  50  G: -2788.773150095905748  |grad|_K:  5.805e-08  alpha:  1.710e-01  linmin:  6.853e-05  t[s]:   7248.75
	Linear fluid (dielectric constant: 78.4, screening length: 5.74355 Bohr) occupying 0.785121 of unit cell:	Completed after 0 iterations at t[s]:   7267.70
	Linear fluid (dielectric constant: 78.4, screening length: 5.74355 Bohr) occupying 0.785125 of unit cell:	Completed after 2 iterations at t[s]:   7286.12
ElecMinimize: 	Step increased G by 3.865352e-11, reducing alpha to 3.276816e-02.
	Linear fluid (dielectric constant: 78.4, screening length: 5.74355 Bohr) occupying 0.785118 of unit cell:	Completed after 3 iterations at t[s]:   7327.87
	FillingsUpdate:  mu: -0.171251800  nElectrons: 676.246287
	SubspaceRotationAdjust: set factor to 0.294
ElecMinimize: Iter:  51  G: -2788.773150108425398  |grad|_K:  4.300e-08  alpha:  3.277e-02  linmin: -1.343e-04  t[s]:   7354.13
	Linear fluid (dielectric constant: 78.4, screening length: 5.74355 Bohr) occupying 0.785119 of unit cell:	Completed after 0 iterations at t[s]:   7372.82
ElecMinimize: 	Predicted alpha/alphaT>3.000000, increasing alphaT to 9.830449e-02.
	Linear fluid (dielectric constant: 78.4, screening length: 5.74355 Bohr) occupying 0.785121 of unit cell:	Completed after 0 iterations at t[s]:   7390.85
ElecMinimize: 	Predicted alpha/alphaT>3.000000, increasing alphaT to 2.949135e-01.
	Linear fluid (dielectric constant: 78.4, screening length: 5.74355 Bohr) occupying 0.785127 of unit cell:	Completed after 1 iterations at t[s]:   7409.25
	Linear fluid (dielectric constant: 78.4, screening length: 5.74355 Bohr) occupying 0.785123 of unit cell:	Completed after 0 iterations at t[s]:   7428.11
	FillingsUpdate:  mu: -0.171251800  nElectrons: 676.247045
	SubspaceRotationAdjust: set factor to 0.215
ElecMinimize: Iter:  52  G: -2788.773150210910444  |grad|_K:  4.471e-08  alpha:  1.758e-01  linmin:  1.407e-04  t[s]:   7453.81
	Linear fluid (dielectric constant: 78.4, screening length: 5.74355 Bohr) occupying 0.785118 of unit cell:	Completed after 1 iterations at t[s]:   7473.21
	Linear fluid (dielectric constant: 78.4, screening length: 5.74355 Bohr) occupying 0.785122 of unit cell:	Completed after 0 iterations at t[s]:   7491.65
ElecMinimize: 	Step increased G by 7.579274e-09, reducing alpha to 5.363715e-03.
	Linear fluid (dielectric constant: 78.4, screening length: 5.74355 Bohr) occupying 0.785123 of unit cell:	Completed after 0 iterations at t[s]:   7532.33
ElecMinimize: 	Step increased G by 9.892574e-09, reducing alpha to 5.363715e-04.
	Linear fluid (dielectric constant: 78.4, screening length: 5.74355 Bohr) occupying 0.785123 of unit cell:	Completed after 0 iterations at t[s]:   7572.67
ElecMinimize: 	Step increased G by 1.057060e-08, reducing alpha to 5.363715e-05.
ElecMinimize: 	Step failed to reduce G after 3 attempts. Quitting step.
ElecMinimize: 	Undoing step.
	Linear fluid (dielectric constant: 78.4, screening length: 5.74355 Bohr) occupying 0.785123 of unit cell:	Completed after 0 iterations at t[s]:   7613.57
ElecMinimize: 	Step failed: resetting search direction.
	FillingsUpdate:  mu: -0.171251800  nElectrons: 676.247043
	SubspaceRotationAdjust: set factor to 0.294
ElecMinimize: Iter:  53  G: -2788.773150200349392  |grad|_K:  3.152e-08  alpha:  5.364e-05
	Linear fluid (dielectric constant: 78.4, screening length: 5.74355 Bohr) occupying 0.785124 of unit cell:	Completed after 0 iterations at t[s]:   7657.97
ElecMinimize: 	Predicted alpha/alphaT>3.000000, increasing alphaT to 5.272755e-01.
	Linear fluid (dielectric constant: 78.4, screening length: 5.74355 Bohr) occupying 0.785126 of unit cell:	Completed after 3 iterations at t[s]:   7676.52
	Linear fluid (dielectric constant: 78.4, screening length: 5.74355 Bohr) occupying 0.785124 of unit cell:	Completed after 0 iterations at t[s]:   7695.19
	FillingsUpdate:  mu: -0.171251800  nElectrons: 676.247171
	SubspaceRotationAdjust: set factor to 0.177
ElecMinimize: Iter:  54  G: -2788.773150272372277  |grad|_K:  7.459e-08  alpha:  1.724e-01  linmin:  4.141e-04  t[s]:   7720.87
ElecMinimize: 	Bad step direction: g.d > 0.
ElecMinimize: 	Undoing step.
	Linear fluid (dielectric constant: 78.4, screening length: 5.74355 Bohr) occupying 0.785124 of unit cell:	Completed after 0 iterations at t[s]:   7739.78
ElecMinimize: 	Step failed: resetting search direction.
	FillingsUpdate:  mu: -0.171251800  nElectrons: 676.247171
	SubspaceRotationAdjust: set factor to 0.118
ElecMinimize: Iter:  55  G: -2788.773150272401381  |grad|_K:  6.096e-08  alpha:  0.000e+00
	Linear fluid (dielectric constant: 78.4, screening length: 5.74355 Bohr) occupying 0.785116 of unit cell:	Completed after 2 iterations at t[s]:   7785.07
	Linear fluid (dielectric constant: 78.4, screening length: 5.74355 Bohr) occupying 0.785121 of unit cell:	Completed after 0 iterations at t[s]:   7803.68
ElecMinimize: 	Step increased G by 1.042190e-08, reducing alpha to 5.856410e-03.
	Linear fluid (dielectric constant: 78.4, screening length: 5.74355 Bohr) occupying 0.785124 of unit cell:	Completed after 1 iterations at t[s]:   7844.88
ElecMinimize: 	Step increased G by 3.970035e-08, reducing alpha to 5.856410e-04.
	Linear fluid (dielectric constant: 78.4, screening length: 5.74355 Bohr) occupying 0.785124 of unit cell:	Completed after 0 iterations at t[s]:   7885.52
ElecMinimize: 	Step increased G by 3.940295e-08, reducing alpha to 5.856410e-05.
ElecMinimize: 	Step failed to reduce G after 3 attempts. Quitting step.
ElecMinimize: 	Undoing step.
	Linear fluid (dielectric constant: 78.4, screening length: 5.74355 Bohr) occupying 0.785124 of unit cell:	Completed after 0 iterations at t[s]:   7926.53
ElecMinimize: 	Step failed along negative gradient direction.
ElecMinimize: Probably at roundoff error limit. (Stopping)
Setting wave functions to eigenvectors of Hamiltonian
Single-point solvation energy estimate, DeltaG = -0.101099997705660

# Ionic positions in lattice coordinates:
ion V   0.167505476095525   0.082574542730372   0.561171723169963 1
ion V   0.082478415519307   0.167493049185095   0.438558335888024 1
ion V   0.415065745204562   0.082600463105308   0.561177285326434 1
ion V   0.333257863089363   0.166528628395342   0.438389234194721 1
ion V   0.665572227887454   0.083740972478770   0.561219638390719 1
ion V   0.585001506822859   0.167480383696972   0.438559434002130 1
ion V   0.918166342984467   0.083756290014273   0.561216601726510 1
ion V   0.832299897527612   0.164630809070301   0.438335800641710 1
ion V   0.166106713726200   0.331663157483344   0.561250198161651 1
ion V   0.086031975769776   0.418076804356769   0.438411411469889 1
ion V   0.417168860810798   0.334409863446944   0.559978333122220 1
ion V   0.334535321628841   0.416801902646674   0.438911524544359 1
ion V   0.665513059491251   0.331648077952799   0.561259113507691 1
ion V   0.582212094934965   0.416776318546261   0.438922869828623 1
ion V   0.916707737867180   0.333459981224056   0.561705759259024 1
ion V   0.831976333912002   0.418079472482778   0.438431438854260 1
ion V   0.166282549322415   0.584560615605877   0.561243030095147 1
ion V   0.082457272843743   0.664942997088963   0.438589507353318 1
ion V   0.404112615424576   0.577114246737437   0.560333396736773 1
ion V   0.334606679299999   0.667928994386484   0.438860434010547 1
ion V   0.672973108720362   0.577094823679069   0.560374036787581 1
ion V   0.583325467122423   0.666632881530805   0.440590156327430 1
ion V   0.918300411543882   0.584569391363264   0.561246872638870 1
ion V   0.833307986067083   0.667924275617763   0.438880380725282 1
ion V   0.167437259145671   0.834907813930463   0.561179912259209 1
ion V   0.083593526437686   0.916799778033469   0.438377867707814 1
ion V   0.417287005285354   0.833075618392519   0.559918536232374 1
ion V   0.333156623175696   0.916814135709199   0.438384732485297 1
ion V   0.672877886361239   0.845790742591566   0.560134230347016 1
ion V   0.582285533705796   0.915530760883965   0.438818904180732 1
ion V   0.915722689816634   0.833064122847930   0.559932740981767 1
ion V   0.833222102422401   0.915562073901335   0.438834258857974 1
ion C   0.000242228573908   0.000215879915353   0.499787708718161 1
ion C   0.250015176502479   0.000064369665356   0.499720185264894 1
ion C   0.499942760214961   0.000213080233917   0.499788877009402 1
ion C   0.750832825329890   0.001690218500055   0.499431914098293 1
ion C   0.000034283467690   0.250082052055599   0.499882082960806 1
ion C   0.249855449063743   0.249818521307887   0.499824426263663 1
ion C   0.499930879362262   0.249814608280900   0.499833320358323 1
ion C   0.750016700540092   0.250079528494709   0.499887013759722 1
ion C   0.000003453710681   0.500038339775853   0.499896517732422 1
ion C   0.248504047477115   0.499310598896274   0.499531788423212 1
ion C   0.500377297517067   0.500776167867836   0.501279489345869 1
ion C   0.750767429627804   0.499326496566915   0.499553893569358 1
ion C   0.000247612675247   0.750131080842166   0.499821907217493 1
ion C   0.249850099127868   0.750121694687066   0.499814129755518 1
ion C   0.500330878526379   0.749725651686021   0.501185156739722 1
ion C   0.749356964650156   0.749724632616109   0.501204105949228 1
ion O   0.083160302405493   0.166840991477425   0.614286695030607 1
ion O   0.166742868295499   0.083357160308015   0.385825857698571 1
ion O   0.333370190546407   0.166764600239277   0.613978557773085 1
ion O   0.416578978536679   0.083363035934544   0.385828533683171 1
ion O   0.583667769014391   0.166849723835574   0.614297938041630 1
ion O   0.666267177433188   0.083509378610112   0.385511770121174 1
ion O   0.833423470851849   0.166868844631388   0.613831680420704 1
ion O   0.917215861640279   0.083534775376538   0.385507280586357 1
ion O   0.083193494503273   0.416639388086280   0.613859178052352 1
ion O   0.166603066514123   0.332893188817839   0.385539372111945 1
ion O   0.333070485440278   0.416698727996614   0.614930091054872 1
ion O   0.417131557593382   0.334274594770238   0.385620254512023 1
ion O   0.583580882384408   0.416707085295585   0.614943137460836 1
ion O   0.666219985828469   0.332884864399098   0.385552721021591 1
ion O   0.833415588571741   0.416647222031574   0.613865083456897 1
ion O   0.916699620004373   0.333464949862939   0.386900033517500 1
ion O   0.083181357978161   0.666386801208208   0.614321084529659 1
ion O   0.166621551065979   0.583830193521342   0.385519649631170 1
ion O   0.333115446266950   0.666536713284735   0.614927495712447 1
ion O   0.417388136490315   0.583732627442900   0.386441451590416 1
ion O   0.583418802702867   0.666987568611849   0.618573468536591 1
ion O   0.666324591100590   0.583702020774172   0.386444576768459 1
ion O   0.833386606193573   0.666550212271845   0.614935290707892 1
ion O   0.917184772633915   0.583841278144032   0.385535040098930 1
ion O   0.083250256329750   0.916662548763445   0.613955549115438 1
ion O   0.166713635808804   0.833462208839275   0.385820220714249 1
ion O   0.333397320611958   0.916661337758607   0.613955700185812 1
ion O   0.417067681909189   0.832974825604057   0.385591239624518 1
ion O   0.583631658977095   0.917016696219962   0.614903356800465 1
ion O   0.666279082803309   0.832614949656015   0.386397248725194 1
ion O   0.833361351074648   0.917015899953820   0.614896520894305 1
ion O   0.915834683740243   0.832946879848787   0.385593802231111 1
ion H   0.583724790414383   0.668141157915702   0.668688765608814 1


# Forces in Lattice coordinates:
force V  -0.020378679070957   0.015018575653067  -0.453486063243190 1
force V   0.002143088867969  -0.009220474676062   0.484452096962813 1
force V   0.019643498999314  -0.005475704751105  -0.454179697706291 1
force V  -0.000041748901256   0.008144933324398   0.488005695710785 1
force V  -0.002081552187988  -0.003176607255788  -0.439119622257515 1
force V  -0.002302309633280  -0.007075080242303   0.486348642308187 1
force V   0.002431398334093  -0.004735875928780  -0.439662592445526 1
force V   0.000571916581604   0.000962370383302   0.493968393962217 1
force V   0.009827859948467   0.009377704369627  -0.436445950564845 1
force V   0.005614183143856   0.010353831615158   0.492650141619271 1
force V  -0.000320014334877   0.011697983423916  -0.408175016694268 1
force V   0.006743492869707  -0.012712768523207   0.462566213072554 1
force V  -0.009843822816957   0.019615649933020  -0.436821817463970 1
[...]
ElecMinimize: 	Predicted alpha/alphaT>3.000000, increasing alphaT to 3.032495e-01.
	Linear fluid (dielectric constant: 78.4, screening length: 5.74355 Bohr) occupying 0.786826 of unit cell:	Completed after 0 iterations at t[s]:  27099.50
	Linear fluid (dielectric constant: 78.4, screening length: 5.74355 Bohr) occupying 0.786826 of unit cell:	Completed after 0 iterations at t[s]:  27117.78
	FillingsUpdate:  mu: -0.171251800  nElectrons: 676.711991
	SubspaceRotationAdjust: set factor to 0.111
ElecMinimize: Iter:  19  G: -2788.788230442156873  |grad|_K:  1.569e-08  alpha:  3.265e-01  linmin: -9.335e-03  t[s]:  27143.62
	Linear fluid (dielectric constant: 78.4, screening length: 5.74355 Bohr) occupying 0.786826 of unit cell:	Completed after 0 iterations at t[s]:  27162.39
	Linear fluid (dielectric constant: 78.4, screening length: 5.74355 Bohr) occupying 0.786826 of unit cell:	Completed after 0 iterations at t[s]:  27180.57
	FillingsUpdate:  mu: -0.171251800  nElectrons: 676.711986
	SubspaceRotationAdjust: set factor to 0.125
ElecMinimize: Iter:  20  G: -2788.788230477447541  |grad|_K:  1.473e-08  alpha:  6.743e-01  linmin:  1.392e-05  t[s]:  27206.79
	Linear fluid (dielectric constant: 78.4, screening length: 5.74355 Bohr) occupying 0.786826 of unit cell:	Completed after 0 iterations at t[s]:  27225.73
	Linear fluid (dielectric constant: 78.4, screening length: 5.74355 Bohr) occupying 0.786826 of unit cell:	Completed after 0 iterations at t[s]:  27243.88
	FillingsUpdate:  mu: -0.171251800  nElectrons: 676.711973
	SubspaceRotationAdjust: set factor to 0.15
ElecMinimize: Iter:  21  G: -2788.788230488298268  |grad|_K:  1.129e-08  alpha:  4.234e-01  linmin: -8.844e-04  t[s]:  27269.87
	Linear fluid (dielectric constant: 78.4, screening length: 5.74355 Bohr) occupying 0.786826 of unit cell:	Completed after 0 iterations at t[s]:  27288.96
	Linear fluid (dielectric constant: 78.4, screening length: 5.74355 Bohr) occupying 0.786826 of unit cell:	Completed after 0 iterations at t[s]:  27307.31
	FillingsUpdate:  mu: -0.171251800  nElectrons: 676.711906
	SubspaceRotationAdjust: set factor to 0.185
ElecMinimize: Iter:  22  G: -2788.788230501194448  |grad|_K:  9.841e-09  alpha:  5.254e-01  linmin:  2.468e-05  t[s]:  27333.22
	Linear fluid (dielectric constant: 78.4, screening length: 5.74355 Bohr) occupying 0.786825 of unit cell:	Completed after 0 iterations at t[s]:  27352.17
	Linear fluid (dielectric constant: 78.4, screening length: 5.74355 Bohr) occupying 0.786825 of unit cell:	Completed after 0 iterations at t[s]:  27370.57
	FillingsUpdate:  mu: -0.171251800  nElectrons: 676.711801
	SubspaceRotationAdjust: set factor to 0.223
ElecMinimize: Iter:  23  G: -2788.788230509402638  |grad|_K:  9.984e-09  alpha:  5.191e-01  linmin:  3.741e-06  t[s]:  27396.70
	Linear fluid (dielectric constant: 78.4, screening length: 5.74355 Bohr) occupying 0.786824 of unit cell:	Completed after 1 iterations at t[s]:  27415.79
	Linear fluid (dielectric constant: 78.4, screening length: 5.74355 Bohr) occupying 0.786825 of unit cell:	Completed after 0 iterations at t[s]:  27434.16
ElecMinimize: 	Step increased G by 2.396609e-08, reducing alpha to 7.375179e-03.
	Linear fluid (dielectric constant: 78.4, screening length: 5.74355 Bohr) occupying 0.786825 of unit cell:	Completed after 0 iterations at t[s]:  27475.45
ElecMinimize: 	Step increased G by 2.231218e-08, reducing alpha to 7.375179e-04.
	Linear fluid (dielectric constant: 78.4, screening length: 5.74355 Bohr) occupying 0.786825 of unit cell:	Completed after 0 iterations at t[s]:  27516.27
ElecMinimize: 	Step increased G by 2.211618e-08, reducing alpha to 7.375179e-05.
ElecMinimize: 	Step failed to reduce G after 3 attempts. Quitting step.
ElecMinimize: 	Undoing step.
	Linear fluid (dielectric constant: 78.4, screening length: 5.74355 Bohr) occupying 0.786825 of unit cell:	Completed after 0 iterations at t[s]:  27556.89
ElecMinimize: 	Step failed: resetting search direction.
	FillingsUpdate:  mu: -0.171251800  nElectrons: 676.711800
	SubspaceRotationAdjust: set factor to 0.153
ElecMinimize: Iter:  24  G: -2788.788230487273267  |grad|_K:  3.059e-08  alpha:  7.375e-05
	Linear fluid (dielectric constant: 78.4, screening length: 5.74355 Bohr) occupying 0.786834 of unit cell:	Completed after 3 iterations at t[s]:  27602.27
	Linear fluid (dielectric constant: 78.4, screening length: 5.74355 Bohr) occupying 0.786828 of unit cell:	Completed after 1 iterations at t[s]:  27621.36
	FillingsUpdate:  mu: -0.171251800  nElectrons: 676.712231
	SubspaceRotationAdjust: set factor to 0.0815
ElecMinimize: Iter:  25  G: -2788.788230511115671  |grad|_K:  2.337e-08  alpha:  1.412e-01  linmin:  1.154e-02  t[s]:  27647.62
	Linear fluid (dielectric constant: 78.4, screening length: 5.74355 Bohr) occupying 0.786826 of unit cell:	Completed after 0 iterations at t[s]:  27666.39
ElecMinimize: 	Predicted alpha/alphaT>3.000000, increasing alphaT to 4.236237e-01.
	Linear fluid (dielectric constant: 78.4, screening length: 5.74355 Bohr) occupying 0.786822 of unit cell:	Completed after 1 iterations at t[s]:  27684.61
	Linear fluid (dielectric constant: 78.4, screening length: 5.74355 Bohr) occupying 0.786825 of unit cell:	Completed after 0 iterations at t[s]:  27703.13
	FillingsUpdate:  mu: -0.171251800  nElectrons: 676.711758
	SubspaceRotationAdjust: set factor to 0.0775
ElecMinimize: Iter:  26  G: -2788.788230512629980  |grad|_K:  1.197e-08  alpha:  2.231e-01  linmin: -1.010e-03  t[s]:  27729.19
	Linear fluid (dielectric constant: 78.4, screening length: 5.74355 Bohr) occupying 0.786823 of unit cell:	Completed after 0 iterations at t[s]:  27748.06
ElecMinimize: 	Predicted alpha/alphaT>3.000000, increasing alphaT to 6.692093e-01.
	Linear fluid (dielectric constant: 78.4, screening length: 5.74355 Bohr) occupying 0.786819 of unit cell:	Completed after 0 iterations at t[s]:  27766.08
	Linear fluid (dielectric constant: 78.4, screening length: 5.74355 Bohr) occupying 0.786816 of unit cell:	Completed after 2 iterations at t[s]:  27785.68
ElecMinimize: 	Step increased G by 9.893665e-08, reducing alpha to 1.028649e-01.
	Linear fluid (dielectric constant: 78.4, screening length: 5.74355 Bohr) occupying 0.786824 of unit cell:	Completed after 2 iterations at t[s]:  27827.39
ElecMinimize: 	Step increased G by 1.444278e-09, reducing alpha to 1.028649e-02.
	Linear fluid (dielectric constant: 78.4, screening length: 5.74355 Bohr) occupying 0.786824 of unit cell:	Completed after 0 iterations at t[s]:  27868.89
	FillingsUpdate:  mu: -0.171251800  nElectrons: 676.711745
	SubspaceRotationAdjust: set factor to 0.0606
ElecMinimize: Iter:  27  G: -2788.788230515252508  |grad|_K:  1.743e-08  alpha:  1.029e-02  linmin:  5.579e-03  t[s]:  27895.02
ElecMinimize: Converged (|Delta G|<1.000000e-08 for 2 iters).
Setting wave functions to eigenvectors of Hamiltonian

# Ionic positions in lattice coordinates:
ion V   0.167060541964890   0.082919642950304   0.560392347241414 1
ion V   0.082527621049121   0.167143262962216   0.439346452238503 1
ion V   0.415842153992001   0.082940044129207   0.560388573823358 1
ion V   0.333276706353725   0.166565324544958   0.439358569718032 1
ion V   0.665859210674972   0.083751831552491   0.560457848439982 1
ion V   0.584627079896233   0.167143417082813   0.439349629395326 1
ion V   0.917903181338589   0.083780380187851   0.560448864978758 1
ion V   0.832367722382337   0.164752464321435   0.439260898774134 1
ion V   0.166344435673116   0.332266492702926   0.560540503313999 1
ion V   0.086153265379440   0.418351617307047   0.439294516411114 1
ion V   0.416999891806812   0.334082636127836   0.559634359914948 1
ion V   0.334278148945478   0.416383695956190   0.439646451940981 1
ion V   0.665876205185663   0.332259094497074   0.560547735951121 1
ion V   0.582018799465763   0.416339302158592   0.439657866742512 1
ion V   0.916687620181780   0.333440275336083   0.560667697704174 1
ion V   0.832147061549622   0.418345306984259   0.439297930402282 1
ion V   0.166462467098100   0.584622601834564   0.560473500174181 1
ion V   0.082813167130881   0.665686639465423   0.439427700153787 1
ion V   0.405177250262558   0.577688695901991   0.559724442454830 1
ion V   0.334260659044995   0.667687168590105   0.439575559510923 1
ion V   0.672500736832188   0.577665495703330   0.559757035349733 1
ion V   0.583321534719094   0.666613216740472   0.441242358837653 1
ion V   0.918186155537650   0.584642343940533   0.560480951259268 1
ion V   0.833393631097783   0.667687506857040   0.439589446317342 1
ion V   0.166956546804531   0.833946418308759   0.560396753004537 1
ion V   0.083630573489984   0.916842828902844   0.439350997593825 1
ion V   0.417264843991360   0.833184871693773   0.559614834840065 1
ion V   0.333172363663353   0.916871025134045   0.439348497616671 1
ion V   0.672359151758105   0.844784988646011   0.559585765946159 1
ion V   0.582087984716083   0.915506032257265   0.439572057957122 1
ion V   0.915836317682119   0.833179319367667   0.559624418177342 1
ion V   0.833368866971945   0.915536832080722   0.439571623134522 1
ion C   0.000157730957344   0.000158416881689   0.499805303589701 1
ion C   0.249985909230169   0.000011108934003   0.499796155663667 1
ion C   0.499964575884379   0.000155648833817   0.499809151212515 1
ion C   0.750800835452076   0.001638664571709   0.499438174783445 1
ion C   0.000065987938548   0.250194243971040   0.499760393390453 1
ion C   0.249834406403362   0.249785222348910   0.499845783888354 1
ion C   0.499914905182385   0.249780365459891   0.499853051035589 1
ion C   0.750097434421053   0.250189820936027   0.499767702146725 1
ion C   0.000057325468518   0.500147577358304   0.499781117471321 1
ion C   0.248549285507543   0.499348840327754   0.499544195275039 1
ion C   0.500308543956556   0.500638499063454   0.501297340431020 1
ion C   0.750763889360461   0.499348456396595   0.499558128443353 1
ion C   0.000203180329414   0.750210759331412   0.499827497512673 1
ion C   0.249966338123237   0.750208712644264   0.499819696193747 1
ion C   0.500302080032930   0.749680580974670   0.501226629731001 1
ion C   0.749327879810048   0.749673475209588   0.501239617204559 1
ion O   0.083141871290826   0.166906248385307   0.615676285358887 1
ion O   0.166747894720219   0.083310618143751   0.384249923328602 1
ion O   0.333242980098633   0.166520400462922   0.615475837572991 1
ion O   0.416536802649539   0.083316120671974   0.384250555374317 1
ion O   0.583732561952681   0.166893406929711   0.615679350793604 1
ion O   0.666391507648765   0.083407065135826   0.383950600855836 1
ion O   0.833523536115561   0.167077190039127   0.615315833915575 1
ion O   0.916981743738865   0.083403480832329   0.383948475450548 1
ion O   0.083061971033534   0.416615252434921   0.615312996840903 1
ion O   0.166686468020340   0.333100645093863   0.383990804130232 1
ion O   0.332594228855009   0.416362070171738   0.616280803009150 1
ion O   0.417084465772078   0.334197771043649   0.384116013560823 1
ion O   0.583723845208932   0.416351593818883   0.616287301144687 1
ion O   0.666380610024082   0.333100529875160   0.383999911581483 1
ion O   0.833523481093626   0.416615396810331   0.615316220576137 1
ion O   0.916739285495476   0.333521200522049   0.385367737405036 1
ion O   0.083175090377171   0.666363743636444   0.615798877808103 1
ion O   0.166703690553924   0.583718007105888   0.383915517372551 1
ion O   0.332638886220600   0.666415553062785   0.616276065837597 1
ion O   0.417315730410351   0.583647983650930   0.385029957784593 1
ion O   0.583394226692228   0.666914754177080   0.618720663183661 1
ion O   0.666308385660178   0.583642804179152   0.385039353976613 1
ion O   0.833740711319215   0.666416220730075   0.616286509585424 1
ion O   0.916968862111269   0.583718146495342   0.383922492969605 1
ion O   0.083404802581119   0.916735493372107   0.615451875760254 1
ion O   0.166753047600169   0.833553131334821   0.384217628617212 1
ion O   0.333292313775181   0.916730890941949   0.615454029718180 1
ion O   0.417047268166853   0.832938027062018   0.384124442902118 1
ion O   0.583750487105096   0.917477816543964   0.616250734506102 1
ion O   0.666280393944006   0.832589182805458   0.384971828233423 1
ion O   0.833687758833141   0.917484399990052   0.616243437538858 1
ion O   0.915846118205226   0.832931076914463   0.384131328551618 1
ion H   0.583616170027838   0.667771972156954   0.669369340463445 1


# Forces in Lattice coordinates:
force V   0.000277154814941   0.000944380413070   0.003177394529104 1
force V  -0.000706520697299   0.000481007196907  -0.004532144778547 1
force V  -0.000373173577276   0.001173794838575   0.003324278170502 1
force V  -0.000098740116621  -0.002093608213847   0.000945112371288 1
force V  -0.001237652064284   0.001387256707771  -0.001672077753739 1
force V   0.001083930664943  -0.000566884156551  -0.003915375839526 1
force V   0.001284442858488   0.000259873489627  -0.001992808948181 1
force V   0.000168588044394  -0.001204101260029  -0.003409389672969 1
force V  -0.000157511283317  -0.001225000130127  -0.002850353618032 1
force V   0.000598233222513   0.000592498043708  -0.003403798121068 1
force V  -0.000280911628326  -0.003349797371977   0.000066180431171 1
force V   0.001617753184478  -0.003971925867451   0.001853325014054 1
force V   0.000139644589457  -0.001443230274481  -0.003332285344019 1
force V  -0.001938102967963  -0.002480185795082   0.002314871811313 1
force V   0.000023114374918  -0.000636868242929  -0.012470181281063 1
force V  -0.000190367555866   0.000968124163323  -0.003142839454299 1
force V  -0.001398383074184   0.002176254731005  -0.003328584853564 1
force V   0.000180364309058   0.002196760401266  -0.001523885304445 1
force V   0.003586324776260   0.000119776705734  -0.001477423480519 1
force V  -0.000565910072064   0.002416402599158   0.002077023007927 1
force V  -0.003647433056417   0.003641773155837  -0.002229501259434 1
force V  -0.000107355747526   0.000844565178718   0.004818211422334 1
force V   0.001656140211574   0.000676793571786  -0.004118716529663 1
force V   0.000555172295333   0.001980242859778   0.002300355298221 1
force V   0.000175603526950   0.003113556485252   0.004414618952377 1
force V   0.000875413710204   0.001322524521560   0.002163952514158 1
force V  -0.002889928620024   0.003134095980891   0.000844458940347 1
force V  -0.000908852765951   0.002176315872728   0.002323768372831 1
force V  -0.000155340466968  -0.002426495448963   0.003206979505205 1
force V  -0.003038746992831   0.001399587911130   0.002135077581491 1
force V   0.002526844237033   0.000539169121431  -0.000157064480618 1
force V   0.002883048396584  -0.001475678675276   0.001598404666112 1
force C  -0.001027007002371  -0.000113043022929   0.004496190749037 1
force C   0.000031860614829   0.000446340212326   0.004039759279277 1
force C   0.000998826040266  -0.000836504771003   0.003388348564014 1
force C  -0.000021049645896   0.001751429272446  -0.002575527166619 1
force C  -0.000033470990886   0.001037530087311   0.004593196815076 1
force C  -0.000433254552314   0.001780637079355   0.006165737174055 1
force C   0.000610300631653   0.001274040478014   0.005600892015969 1
force C  -0.000094859732239   0.001015944170014   0.004008735958445 1
force C  -0.000045340953372   0.000401279627911   0.003841118204271 1
force C  -0.001159654356803   0.000322191085469  -0.000267909529110 1
force C   0.000058852850636   0.001597998492207   0.002310132135156 1
force C   0.001166673046901  -0.000873736608099  -0.000212942301501 1
force C  -0.001688957291109   0.000582644938069   0.003502725722494 1
force C   0.001488213549745  -0.000996683605067   0.002975675620004 1
force C   0.001556874021931  -0.001608219860786   0.001334170974560 1
force C  -0.001286074083603  -0.000135947539308   0.001759198374919 1
force O  -0.001534395355565   0.002090186621930  -0.001134891926753 1
force O   0.000083139515540   0.000078708562522   0.005154447158326 1
force O  -0.000021896157923   0.001494846268813   0.001247021706071 1
force O  -0.000042118653666   0.000165207399923   0.004932102656340 1
force O   0.001493663821213   0.000642081542637  -0.001165252885691 1
force O  -0.001207556588160   0.000582376038708   0.003167249267221 1
force O  -0.000005339654444   0.001431230736515   0.001138544909463 1
force O   0.001215496914586  -0.000588378512112   0.003329449284479 1
force O  -0.000107889748834   0.000781787123094   0.001248222531895 1
force O   0.000449866773084  -0.000637969008813   0.003206436804120 1
force O   0.000112896218310   0.000723438180025   0.001473821051242 1
force O   0.000030955014794  -0.001186209878124   0.002818675763066 1
force O  -0.000022866939940   0.000750841009450   0.001627114055125 1
force O  -0.000474896314420  -0.000261427865958   0.002613653805859 1
force O   0.000067552046534   0.000701719034270   0.001441787422824 1
force O   0.000061724510902   0.000606548587188  -0.000047726777485 1
force O  -0.000098574298084  -0.000390840111770  -0.000731029795958 1
force O  -0.000336969813401   0.001891350036354   0.002264907784934 1
force O   0.001087569879828  -0.000977841637403   0.000268175916233 1
force O   0.000440779833999  -0.000254723690962  -0.000571700987539 1
force O   0.000344549023397  -0.000703008798786  -0.021180870155558 1
force O  -0.000509562569429   0.000165598652775  -0.001042265209485 1
force O  -0.001071511920443   0.000148964989258   0.000797606263014 1
force O   0.000334258256542   0.001565469149074   0.001752714295122 1
force O  -0.002089787706783   0.000738912263551   0.000264518241394 1
force O  -0.000026574283408   0.001529794981199   0.003560236985649 1
force O   0.001888366484808  -0.001219181560908  -0.000094017016487 1
force O  -0.000451899147279   0.000775809368954   0.003994765072591 1
force O   0.001010464885971   0.000091439609979   0.000044911384911 1
force O  -0.000046704248767  -0.000875837360128  -0.000848174475660 1
force O  -0.001004952301844   0.001069140441720   0.000250501197314 1
force O   0.000351166674001   0.000286633803642   0.004055317817393 1
force H   0.000939268944245  -0.003878242534921   0.031258266908150 1

# Energy components:
   A_diel =       -1.0775684061997792
   Eewald =    29605.1056686845222430
       EH =    32304.1156447563153051
     Eloc =   -65388.3955101039100555
      Enl =      130.4185673560666601
      Exc =     -461.0686625206035387
 Exc_core =       28.5835536760783171
       KE =      877.8316924684351079
  MuShift =       -0.0825970386353717
-------------------------------------
     Etot =    -2904.5692111279267920
       TS =        0.1071238326050004
-------------------------------------
        F =    -2904.6763349605316762
      muN =     -115.8881044452790690
-------------------------------------
        G =    -2788.7882305152525078

IonicMinimize: Iter:   8  G: -2788.788230515252508  |grad|_K:  9.563e-05  alpha:  1.000e+00  linmin: -1.673e-01  t[s]:  27912.54
IonicMinimize: Converged (|grad|_K<1.000000e-04).

#--- Lowdin population analysis ---
# oxidation-state V +1.026 +1.027 +1.026 +1.026 +1.021 +1.027 +1.021 +1.033 +1.022 +1.032 +1.012 +1.022 +1.022 +1.022 +1.034 +1.032 +1.021 +1.026 +1.007 +1.022 +1.007 +1.022 +1.021 +1.022 +1.025 +1.026 +1.012 +1.026 +1.006 +1.022 +1.012 +1.023
# oxidation-state C -0.823 -0.814 -0.823 -0.808 -0.821 -0.824 -0.824 -0.821 -0.821 -0.807 -0.829 -0.807 -0.824 -0.824 -0.828 -0.828
# oxidation-state O -0.659 -0.669 -0.669 -0.669 -0.659 -0.666 -0.668 -0.666 -0.669 -0.666 -0.664 -0.659 -0.664 -0.666 -0.669 -0.682 -0.658 -0.666 -0.664 -0.668 -0.721 -0.668 -0.664 -0.665 -0.669 -0.669 -0.669 -0.660 -0.664 -0.667 -0.664 -0.660
# oxidation-state H +0.466


Dumping 'NbTe2.fillings' ... done
Dumping 'NbTe2.wfns' ... done
Dumping 'NbTe2.fluidState' ... done
Dumping 'NbTe2.ionpos' ... done
Dumping 'NbTe2.eigenvals' ... done
End date and time: Wed Apr  7 05:34:16 2021  (Duration: 0-7:45:20.25)
Done!
