
*************** JDFTx 1.5.0  ***************

Start date and time: Thu Feb  4 13:17:46 2021
Executable jdftx_gpu with command-line: -i Charged.in -o Charged.out
Running on hosts (process indices):  amax (0-6)
Divided in process groups (process indices):  0 (0)  1 (1)  2 (2)  3 (3)  4 (4)  5 (5)  6 (6)
gpuInit: Found compatible cuda device 0 'Tesla K80'
gpuInit: Found compatible cuda device 1 'Tesla K80'
gpuInit: Found compatible cuda device 2 'Tesla K80'
gpuInit: Found compatible cuda device 3 'Tesla K80'
gpuInit: Found compatible cuda device 4 'Tesla K80'
gpuInit: Found compatible cuda device 5 'Tesla K80'
gpuInit: Found compatible cuda device 6 'Tesla K80'
gpuInit: Selected device 0
Resource initialization completed at t[s]:      3.64
Run totals: 7 processes, 24 threads, 7 GPUs


Input parsed successfully to the following command list (including defaults):

basis kpoint-dependent
cache-projectors no
coords-type Lattice
core-overlap-check none
coulomb-interaction Slab 001
coulomb-truncation-embed 0.5 0.5 0.5
davidson-band-ratio 1.1
dump End State
dump-name NbTe2.$VAR
elec-cutoff 20
elec-eigen-algo Davidson
elec-ex-corr gga-PBE
elec-initial-charge -0.500000
elec-initial-magnetization 20.000000 no
elec-smearing Gauss 0.0073499
electronic-minimize  \
	dirUpdateScheme      FletcherReeves \
	linminMethod         DirUpdateRecommended \
	nIterations          200 \
	history              15 \
	knormThreshold       0 \
	energyDiffThreshold  1e-08 \
	nEnergyDiff          2 \
	alphaTstart          1 \
	alphaTmin            1e-10 \
	updateTestStepSize   yes \
	alphaTreduceFactor   0.1 \
	alphaTincreaseFactor 3 \
	nAlphaAdjustMax      3 \
	wolfeEnergy          0.0001 \
	wolfeGradient        0.9 \
	fdTest               no
exchange-regularization WignerSeitzTruncated
fluid LinearPCM 298.000000 1.013250
fluid-anion F- 1 MeanFieldLJ \
	epsBulk 1 \
	pMol 0 \
	epsInf 1 \
	Pvap 0 \
	sigmaBulk 0 \
	Rvdw 2.24877 \
	Res 0 \
	tauNuc 343133
fluid-cation Na+ 1 MeanFieldLJ \
	epsBulk 1 \
	pMol 0 \
	epsInf 1 \
	Pvap 0 \
	sigmaBulk 0 \
	Rvdw 2.19208 \
	Res 0 \
	tauNuc 343133
fluid-ex-corr lda-TF lda-PZ
fluid-gummel-loop 10 1.000000e-05
fluid-minimize  \
	dirUpdateScheme      PolakRibiere \
	linminMethod         DirUpdateRecommended \
	nIterations          400 \
	history              15 \
	knormThreshold       1e-11 \
	energyDiffThreshold  0 \
	nEnergyDiff          2 \
	alphaTstart          1 \
	alphaTmin            1e-10 \
	updateTestStepSize   yes \
	alphaTreduceFactor   0.1 \
	alphaTincreaseFactor 3 \
	nAlphaAdjustMax      6 \
	wolfeEnergy          0.0001 \
	wolfeGradient        0.9 \
	fdTest               no
fluid-solvent H2O 55.338 ScalarEOS \
	epsBulk 78.4 \
	pMol 0.92466 \
	epsInf 1.77 \
	Pvap 1.06736e-10 \
	sigmaBulk 4.62e-05 \
	Rvdw 2.61727 \
	Res 1.42 \
	tauNuc 343133 \
	poleEl 15 7 1
forces-output-coords Positions
initial-state NbTe2.$VAR
ion V   0.000000007187500   0.000000004916667   0.499999995675510 1
ion V   0.250000007187500   0.000000004916667   0.499999995675510 1
ion V   0.500000007187500   0.000000004916667   0.499999995675510 1
ion V   0.750000007187500   0.000000004916667   0.499999995675510 1
ion V   0.000000007187500   0.250000004916667   0.499999995675510 1
ion V   0.250000007187500   0.250000004916667   0.499999995675510 1
ion V   0.500000007187500   0.250000004916667   0.499999995675510 1
ion V   0.750000007187500   0.250000004916667   0.499999995675510 1
ion V   0.000000007187500   0.500000004916667   0.499999995675510 1
ion V   0.250000007187500   0.500000004916667   0.499999995675510 1
ion V   0.500000007187500   0.500000004916667   0.499999995675510 1
ion V   0.750000007187500   0.500000004916667   0.499999995675510 1
ion V   1.000000007187500   0.750000004916667   0.499999995675510 1
ion V   0.250000007187500   0.750000004916667   0.499999995675510 1
ion V   0.500000007187500   0.750000004916667   0.499999995675510 1
ion V   0.750000007187500   0.750000004916667   0.499999995675510 1
ion Se   0.166666673854167   0.083333338250000   0.587361484715034 1
ion Se   0.083333340520833   0.166666671583333   0.412638506635987 1
ion Se   0.416666673854167   0.083333338250000   0.587361484715034 1
ion Se   0.333333340520833   0.166666671583333   0.412638506635987 1
ion Se   0.666666673854167   0.083333338250000   0.587361484715034 1
ion Se   0.583333340520833   0.166666671583333   0.412638506635987 1
ion Se   0.916666673854167   0.083333338250000   0.587361484715034 1
ion Se   0.833333340520833   0.166666671583333   0.412638506635987 1
ion Se   0.166666673854167   0.333333338250000   0.587361484715034 1
ion Se   0.083333340520833   0.416666671583333   0.412638506635987 1
ion Se   0.416666673854167   0.333333338250000   0.587361484715034 1
ion Se   0.333333340520833   0.416666671583333   0.412638506635987 1
ion Se   0.666666673854167   0.333333338250000   0.587361484715034 1
ion Se   0.583333340520833   0.416666671583333   0.412638506635987 1
ion Se   0.916666673854167   0.333333338250000   0.587361484715034 1
ion Se   0.833333340520833   0.416666671583333   0.412638506635987 1
ion Se   0.166666673854167   0.583333338250000   0.587361484715034 1
ion Se   0.083333340520833   0.666666671583333   0.412638506635987 1
ion Se   0.416666673854167   0.583333338250000   0.587361484715034 1
ion Se   0.333333340520833   0.666666671583333   0.412638506635987 1
ion Se   0.666666673854167   0.583333338250000   0.587361484715034 1
ion Se   0.583333340520833   0.666666671583333   0.412638506635987 1
ion Se   0.916666673854167   0.583333338250000   0.587361484715034 1
ion Se   0.833333340520833   0.666666671583333   0.412638506635987 1
ion Se   0.166666673854167   0.833333338250000   0.587361484715034 1
ion Se   0.083333340520833   0.916666671583333   0.412638506635987 1
ion Se   0.416666673854167   0.833333338250000   0.587361484715034 1
ion Se   0.333333340520833   0.916666671583333   0.412638506635987 1
ion Se   0.666666673854167   0.833333338250000   0.587361484715034 1
ion Se   0.583333340520833   0.916666671583333   0.412638506635987 1
ion Se   0.916666673854167   0.833333338250000   0.587361484715034 1
ion Se   0.833333340520833   0.916666671583333   0.412638506635987 1
ion-species GBRV/$ID_pbe.uspp
ion-width Ecut
ionic-minimize  \
	dirUpdateScheme      L-BFGS \
	linminMethod         DirUpdateRecommended \
	nIterations          500 \
	history              15 \
	knormThreshold       0.0001 \
	energyDiffThreshold  1e-06 \
	nEnergyDiff          2 \
	alphaTstart          1 \
	alphaTmin            1e-10 \
	updateTestStepSize   yes \
	alphaTreduceFactor   0.1 \
	alphaTincreaseFactor 3 \
	nAlphaAdjustMax      3 \
	wolfeEnergy          0.0001 \
	wolfeGradient        0.9 \
	fdTest               no
kpoint   0.000000000000   0.000000000000   0.000000000000  1.00000000000000
kpoint-folding 4 4 1 
latt-move-scale 1 1 1
latt-scale 1.88973 1.88973 1.88973 
lattice Triclinic 13.253 13.2529 18.1801 90 90 120
lattice-minimize  \
	dirUpdateScheme      L-BFGS \
	linminMethod         DirUpdateRecommended \
	nIterations          0 \
	history              15 \
	knormThreshold       0 \
	energyDiffThreshold  1e-06 \
	nEnergyDiff          2 \
	alphaTstart          1 \
	alphaTmin            1e-10 \
	updateTestStepSize   yes \
	alphaTreduceFactor   0.1 \
	alphaTincreaseFactor 3 \
	nAlphaAdjustMax      3 \
	wolfeEnergy          0.0001 \
	wolfeGradient        0.9 \
	fdTest               no
lcao-params -1 1e-06 0.0073499
pcm-variant CANDLE
spintype z-spin
subspace-rotation-factor 1 yes
symmetries automatic
symmetry-threshold 0.0001



---------- Setting up symmetries ----------

Found 24 point-group symmetries of the bravais lattice
Found 192 space-group symmetries with basis
Applied RMS atom displacement 1.19408e-14 bohrs to make symmetries exact.

---------- Initializing the Grid ----------
R = 
[    25.0445   -12.5222          0  ]
[          0     21.689          0  ]
[          0          0    34.3554  ]
unit cell volume = 18661.6
G =
[    0.25088   0.144846         -0  ]
[          0   0.289694          0  ]
[          0         -0   0.182888  ]
Minimum fftbox size, Smin = [  104  104  140  ]
Chosen fftbox size, S = [  108  108  140  ]

---------- Exchange Correlation functional ----------
Initalized PBE GGA exchange.
Initalized PBE GGA correlation.

---------- Setting up pseudopotentials ----------
Width of ionic core gaussian charges (only for fluid interactions / plotting) set to 0.397384

Reading pseudopotential file '/home/guoxy/vasp/jdftx-1.5.0/build/pseudopotentials/GBRV/v_pbe.uspp':
  Title: V.  Created by USPP 7.3.6 on 31-3-15
  Reference state energy: -72.228583.  13 valence electrons in orbitals:
    |300>  occupation: 2  eigenvalue: -2.581040
    |310>  occupation: 6  eigenvalue: -1.618497
    |400>  occupation: 2  eigenvalue: -0.172800
    |320>  occupation: 3  eigenvalue: -0.189802
  lMax: 2  lLocal: 3  QijEcut: 6
  6 projectors sampled on a log grid with 593 points:
    l: 0  eig: -2.581041  rCut: 1.5
    l: 0  eig: -0.172801  rCut: 1.5
    l: 1  eig: -1.618497  rCut: 1.6
    l: 1  eig: 0.150000  rCut: 1.6
    l: 2  eig: -0.189802  rCut: 1.7
    l: 2  eig: 0.150000  rCut: 1.7
  Partial core density with radius 0.8
  Transforming core density to a uniform radial grid of dG=0.02 with 1504 points.
  Transforming local potential to a uniform radial grid of dG=0.02 with 1504 points.
  Transforming nonlocal projectors to a uniform radial grid of dG=0.02 with 432 points.
  Transforming density augmentations to a uniform radial grid of dG=0.02 with 1504 points.
  Transforming atomic orbitals to a uniform radial grid of dG=0.02 with 432 points.
  Core radius for overlap checks: 1.80 bohrs.

Reading pseudopotential file '/home/guoxy/vasp/jdftx-1.5.0/build/pseudopotentials/GBRV/se_pbe.uspp':
  Title: Se.  Created by USPP 7.3.6 on 14-9-2013
  Reference state energy: -21.672887.  6 valence electrons in orbitals:
    |400>  occupation: 2  eigenvalue: -0.635284
    |410>  occupation: 4  eigenvalue: -0.239295
  lMax: 2  lLocal: 3  QijEcut: 5
  6 projectors sampled on a log grid with 625 points:
    l: 0  eig: -0.635278  rCut: 1.5
    l: 0  eig: 0.500000  rCut: 1.5
    l: 1  eig: -0.239295  rCut: 1.5
    l: 1  eig: 0.500000  rCut: 1.5
    l: 2  eig: 0.000000  rCut: 1.8
    l: 2  eig: 1.000000  rCut: 1.8
  Partial core density with radius 1.2
  Transforming core density to a uniform radial grid of dG=0.02 with 1504 points.
  Transforming local potential to a uniform radial grid of dG=0.02 with 1504 points.
  Transforming nonlocal projectors to a uniform radial grid of dG=0.02 with 432 points.
  Transforming density augmentations to a uniform radial grid of dG=0.02 with 1504 points.
  Transforming atomic orbitals to a uniform radial grid of dG=0.02 with 432 points.
  Core radius for overlap checks: 1.80 bohrs.

Initialized 2 species with 48 total atoms.

Folded 1 k-points by 4x4x1 to 16 k-points.

---------- Setting up k-points, bands, fillings ----------
Adding inversion symmetry to k-mesh for non-inversion-symmetric unit cell.
Reduced to 4 k-points under symmetry. 
Computing the number of bands and number of electrons
Calculating initial fillings.
nElectrons: 399.500000   nBands: 288   nStates: 8

----- Setting up reduced wavefunction bases (one per k-point) -----
average nbasis = 79737.188 , ideal nbasis = 79723.758

---------- Setting up coulomb interaction ----------
Fluid mode embedding: using embedded box, but periodic Coulomb kernel.
(Fluid response is responsible for (approximate) separation between periodic images.)
Setting up double-sized grid for truncated Coulomb potentials:
R = 
[    25.0445   -12.5222          0  ]
[          0     21.689          0  ]
[          0          0    68.7109  ]
unit cell volume = 37323.2
G =
[    0.25088   0.144846         -0  ]
[          0   0.289694          0  ]
[          0         -0  0.0914439  ]
Chosen fftbox size, S = [  108  108  280  ]
Integer grid location selected as the embedding center:
   Grid: [  54  54  70  ]
   Lattice: [  0.5  0.5  0.5  ]
   Cartesian: [  6.26118  10.8445  17.1777  ]
Constructing Wigner-Seitz cell: 8 faces (6 quadrilaterals, 2 hexagons)
Range-separation parameter for embedded mesh potentials due to point charges: 0.624948 bohrs.

Initializing van der Waals corrections
	NOTE: vdW corrections apply only for interactions with fluid.
	 V:  C6:  187.33 Eh-a0^6  R0: 2.952 a0
	Se:  C6:  219.24 Eh-a0^6  R0: 3.347 a0

---------- Setting up ewald sum ----------
Optimum gaussian width for ewald sums = 6.993525 bohr.
Real space sum over 605 unit cells with max indices [  5  5  2  ]
Reciprocal space sum over 7425 terms with max indices [  7  7  16  ]

---------- Allocating electronic variables ----------
Initializing wave functions:  linear combination of atomic orbitals
V pseudo-atom occupations:   s ( 2 0 )  p ( 6 )  d ( 5 )
Se pseudo-atom occupations:   s ( 2 )  p ( 4 )
	FillingsUpdate:  mu: +3.528557906  nElectrons: 399.500000  magneticMoment: [ Abs: 1.12841  Tot: +1.12826 ]
LCAOMinimize: Iter:   0  F: -1205.2143833038164757  |grad|_K:  1.378e-02  alpha:  1.000e+00
LCAOMinimize: 	Wrong curvature in test step, increasing alphaT to 3.000000e+00.
	FillingsUpdate:  mu: -0.857736080  nElectrons: 399.500000  magneticMoment: [ Abs: 0.13438  Tot: +0.06068 ]
LCAOMinimize: Iter:   1  F: -1335.5494009503665893  |grad|_K:  3.707e-03  alpha: -1.787e+01  linmin:  2.314e-02  cgtest: -4.127e+00  t[s]:    119.79
LCAOMinimize: 	Bad step direction: g.d > 0.
LCAOMinimize: 	Undoing step.
LCAOMinimize: 	Step failed: resetting search direction.
	FillingsUpdate:  mu: -0.857736080  nElectrons: 399.500000  magneticMoment: [ Abs: 0.13438  Tot: +0.06068 ]
LCAOMinimize: Iter:   2  F: -1335.5494009503665893  |grad|_K:  3.707e-03  alpha:  0.000e+00
	FillingsUpdate:  mu: -0.857459337  nElectrons: 399.500000  magneticMoment: [ Abs: 0.13698  Tot: +0.06331 ]
LCAOMinimize: Iter:   3  F: -1335.8721992329349177  |grad|_K:  4.199e-03  alpha:  3.072e-02  linmin: -2.251e-02  cgtest:  8.550e-01  t[s]:    181.67
LCAOMinimize: 	Wrong curvature in test step, increasing alphaT to 9.215183e-02.
	FillingsUpdate:  mu: -0.856991694  nElectrons: 399.500000  magneticMoment: [ Abs: 0.13923  Tot: +0.06559 ]
LCAOMinimize: Iter:   4  F: -1336.4989976851752544  |grad|_K:  5.422e-03  alpha: -5.004e-02  linmin: -2.451e-02  cgtest:  7.423e-01  t[s]:    218.55
	FillingsUpdate:  mu: -0.836744577  nElectrons: 399.500000  magneticMoment: [ Abs: 0.10424  Tot: +0.03079 ]
LCAOMinimize: Iter:   5  F: -1379.1236979290229101  |grad|_K:  1.161e-02  alpha:  9.935e-02  linmin: -7.360e-02  cgtest:  3.452e-01  t[s]:    255.04
	FillingsUpdate:  mu: -0.826327168  nElectrons: 399.500000  magneticMoment: [ Abs: 0.11331  Tot: +0.03987 ]
LCAOMinimize: Iter:   6  F: -1388.7132783428123730  |grad|_K:  6.337e-03  alpha:  1.756e-02  linmin: -8.584e-02  cgtest:  1.422e+00  t[s]:    291.43
LCAOMinimize: Encountered beta<0, resetting CG.
LCAOMinimize: 	Wrong curvature in test step, increasing alphaT to 5.268426e-02.
	FillingsUpdate:  mu: -0.825323787  nElectrons: 399.500000  magneticMoment: [ Abs: 0.11432  Tot: +0.04085 ]
LCAOMinimize: Iter:   7  F: -1389.1853244928283857  |grad|_K:  6.292e-03  alpha: -5.127e+00  linmin: -1.231e-01  cgtest:  9.880e-01  t[s]:    327.63
	FillingsUpdate:  mu: -0.821159557  nElectrons: 399.500000  magneticMoment: [ Abs: 0.11911  Tot: +0.04546 ]
LCAOMinimize: Iter:   8  F: -1390.8695925752713265  |grad|_K:  6.339e-03  alpha:  6.129e-02  linmin: -1.239e-01  cgtest:  9.258e-01  t[s]:    364.07
LCAOMinimize: 	Wrong curvature in test step, increasing alphaT to 1.838703e-01.
	FillingsUpdate:  mu: -0.815103046  nElectrons: 399.500000  magneticMoment: [ Abs: 0.12877  Tot: +0.05466 ]
LCAOMinimize: Iter:   9  F: -1392.8441128048191331  |grad|_K:  6.798e-03  alpha: -2.999e-01  linmin: -1.235e-01  cgtest:  8.630e-01  t[s]:    400.94
	FillingsUpdate:  mu: -0.795284968  nElectrons: 399.500000  magneticMoment: [ Abs: 0.15815  Tot: +0.08159 ]
LCAOMinimize: Iter:  10  F: -1397.4286735997966389  |grad|_K:  9.970e-03  alpha:  8.109e-02  linmin: -1.113e-01  cgtest:  5.970e-01  t[s]:    437.69
LCAOMinimize: 	Wrong curvature in test step, increasing alphaT to 2.432596e-01.
	FillingsUpdate:  mu: -0.535993558  nElectrons: 399.500000  magneticMoment: [ Abs: 0.07622  Tot: +0.07409 ]
LCAOMinimize: Iter:  11  F: -1436.6168076077908609  |grad|_K:  1.208e-02  alpha: -2.596e-02  linmin: -3.246e-01  cgtest:  3.868e-01  t[s]:    473.91
LCAOMinimize: 	Step increased F by 2.474774e+02, reducing alpha to 3.638143e-02.
LCAOMinimize: 	Step increased F by 3.977002e+01, reducing alpha to 3.638143e-03.
	FillingsUpdate:  mu: -0.517752294  nElectrons: 399.500000  magneticMoment: [ Abs: 0.07674  Tot: +0.07385 ]
LCAOMinimize: Iter:  12  F: -1439.2717064146054327  |grad|_K:  1.219e-02  alpha:  3.638e-03  linmin: -3.471e-01  cgtest:  8.958e-01  t[s]:    560.18
LCAOMinimize: 	Wrong curvature in test step, increasing alphaT to 1.091443e-02.
	FillingsUpdate:  mu: -0.512713921  nElectrons: 399.500000  magneticMoment: [ Abs: 0.07702  Tot: +0.07393 ]
LCAOMinimize: Iter:  13  F: -1439.9648689725113400  |grad|_K:  1.218e-02  alpha: -1.293e-01  linmin: -3.376e-01  cgtest:  9.720e-01  t[s]:    596.58
	FillingsUpdate:  mu: +0.247825463  nElectrons: 399.500000  magneticMoment: [ Abs: 0.11683  Tot: +0.10715 ]
LCAOMinimize: Iter:  14  F: -1449.4259652492075929  |grad|_K:  1.258e-02  alpha:  1.631e-01  linmin:  3.946e-01  cgtest: -4.727e-01  t[s]:    633.40
LCAOMinimize: 	Bad step direction: g.d > 0.
LCAOMinimize: 	Undoing step.
LCAOMinimize: 	Step failed: resetting search direction.
	FillingsUpdate:  mu: +0.247825463  nElectrons: 399.500000  magneticMoment: [ Abs: 0.11683  Tot: +0.10715 ]
LCAOMinimize: Iter:  15  F: -1449.4259652492075929  |grad|_K:  1.258e-02  alpha:  0.000e+00
	FillingsUpdate:  mu: -0.240954221  nElectrons: 399.500000  magneticMoment: [ Abs: 0.08573  Tot: +0.07807 ]
LCAOMinimize: Iter:  16  F: -1452.8322900639373074  |grad|_K:  1.131e-03  alpha:  8.557e-02  linmin:  4.241e-01  cgtest: -1.123e+00  t[s]:    694.61
	FillingsUpdate:  mu: -0.243734527  nElectrons: 399.500000  magneticMoment: [ Abs: 0.07185  Tot: +0.06599 ]
LCAOMinimize: Iter:  17  F: -1452.8352602409947849  |grad|_K:  1.281e-03  alpha:  2.178e-01  linmin: -7.653e-04  cgtest:  9.900e-01  t[s]:    731.10
	FillingsUpdate:  mu: -0.197714437  nElectrons: 399.500000  magneticMoment: [ Abs: 0.06758  Tot: +0.06225 ]
LCAOMinimize: Iter:  18  F: -1452.8867535241688529  |grad|_K:  1.999e-04  alpha:  8.970e-02  linmin: -1.255e-01  cgtest:  1.392e-01  t[s]:    767.77
LCAOMinimize: 	Predicted alpha/alphaT>3.000000, increasing alphaT to 2.691077e-01.
	FillingsUpdate:  mu: -0.191057814  nElectrons: 399.500000  magneticMoment: [ Abs: 0.03426  Tot: +0.03301 ]
LCAOMinimize: Iter:  19  F: -1452.8973452439213361  |grad|_K:  3.798e-05  alpha:  8.066e-01  linmin:  4.953e-02  cgtest: -1.161e-01  t[s]:    816.34
	FillingsUpdate:  mu: -0.192629067  nElectrons: 399.500000  magneticMoment: [ Abs: 0.03253  Tot: +0.03150 ]
LCAOMinimize: Iter:  20  F: -1452.8973928930408874  |grad|_K:  1.756e-05  alpha:  1.057e-01  linmin:  4.215e-03  cgtest:  9.948e-02  t[s]:    853.07
LCAOMinimize: 	Predicted alpha/alphaT>3.000000, increasing alphaT to 3.170873e-01.
	FillingsUpdate:  mu: -0.192704978  nElectrons: 399.500000  magneticMoment: [ Abs: 0.02231  Tot: +0.02215 ]
LCAOMinimize: Iter:  21  F: -1452.8974650959025894  |grad|_K:  3.214e-06  alpha:  7.042e-01  linmin:  3.900e-03  cgtest: -2.746e-01  t[s]:    902.10
	FillingsUpdate:  mu: -0.192851133  nElectrons: 399.500000  magneticMoment: [ Abs: 0.02181  Tot: +0.02164 ]
LCAOMinimize: Iter:  22  F: -1452.8974655056888423  |grad|_K:  1.680e-06  alpha:  1.195e-01  linmin:  1.544e-04  cgtest:  9.919e-03  t[s]:    939.06
LCAOMinimize: 	Predicted alpha/alphaT>3.000000, increasing alphaT to 3.584314e-01.
	FillingsUpdate:  mu: -0.192822211  nElectrons: 399.500000  magneticMoment: [ Abs: 0.02186  Tot: +0.01984 ]
LCAOMinimize: Iter:  23  F: -1452.8974659466136927  |grad|_K:  3.082e-07  alpha:  4.676e-01  linmin:  8.066e-05  cgtest: -3.222e-02  t[s]:    987.33
LCAOMinimize: Converged (|Delta F|<1.000000e-06 for 2 iters).
----- createFluidSolver() ----- (Fluid-side solver setup)
   Initializing fluid molecule 'H2O'
     Initializing site 'O'
       Electron density: proportional to exp(-r/0.36935)*erfc((r-0.51523)/0.36823) with norm 6.826
       Charge density: gaussian nuclear width 0.478731 with net site charge 0.826
       Polarizability: cuspless exponential with width 0.32 and norm 3.73
       Hard sphere radius: 2.57003 bohrs
       Positions in reference frame:
         [ +0.000000 +0.000000 +0.000000 ]
     Initializing site 'H'
       Electron density: proportional to exp(-r/0.34641)*erfc((r-0)/0.390882) with norm 0.587
       Charge density: gaussian nuclear width 0.377945 with net site charge -0.413
       Polarizability: cuspless exponential with width 0.39 and norm 3.3
       Positions in reference frame:
         [ +0.000000 -1.441945 +1.122523 ]
         [ +0.000000 +1.441945 +1.122523 ]
     Net charge: 0   dipole magnitude: 0.927204
     Initializing spherical shell mfKernel with radius 2.61727 Bohr
     deltaS corrections:
       site 'O': -7.54299
       site 'H': -6.83917
   Initializing fluid molecule 'Na+'
     Initializing site 'Na'
       Electron density: proportional to exp(-r/0.19682)*erfc((r-0.71491)/0.41314) with norm 8.1383
       Charge density: gaussian nuclear width 0.365347 with net site charge -1
       Hard sphere radius: 1.86327 bohrs
       Positions in reference frame:
         [ +0.000000 +0.000000 +0.000000 ]
     Net charge: -1   dipole magnitude: 0
     Initializing gaussian mfKernel with width: 1.55004 Bohr
     deltaS corrections:
       site 'Na': -22.3555
   Initializing fluid molecule 'F-'
     Initializing site 'F'
       Electron density: proportional to exp(-r/0.38886)*erfc((r-0)/0.438782) with norm 8
       Charge density: gaussian nuclear width 0.374796 with net site charge 1
       Hard sphere radius: 2.39995 bohrs
       Positions in reference frame:
         [ +0.000000 +0.000000 +0.000000 ]
     Net charge: 1   dipole magnitude: 0
     Initializing gaussian mfKernel with width: 1.59012 Bohr
     deltaS corrections:
       site 'F': -9.04335

Correction to mu due to finite nuclear width = -0.0106336
   Cavity determined by nc: 0.00142 and sigma: 0.707107
   Nonlocal vdW cavity from gaussian model electron density with norm = 8 and sigma = 0.993594 bohr
   Charge asymmetry in cavity with sensitivity pCavity = 36.5 e-bohr/Eh
   Electrostatic cavity expanded by eta = 1.46 bohrs
   Weighted density cavitation model constrained by Nbulk: 0.0049383 bohr^-3, Pvap: 3.14029 kPa, Rvdw: 2.61727 bohr and sigmaBulk: 4.62e-05 Eh/bohr^2 at T: 298 K.
   Weighted density dispersion model using vdW pair potentials with single solvent site with sqrtC6eff: 0.77 SI.


---- Citations for features of the code used in this run ----

   Software package:
      R. Sundararaman, K. Letchworth-Weaver, K.A. Schwarz, D. Gunceler, Y. Ozhabes and T.A. Arias, 'JDFTx: software for joint density-functional theory', SoftwareX 6, 278 (2017)

   gga-PBE exchange-correlation functional:
      J.P. Perdew, K. Burke and M. Ernzerhof, Phys. Rev. Lett. 77, 3865 (1996)

   Pseudopotentials:
      KF Garrity, JW Bennett, KM Rabe and D Vanderbilt, Comput. Mater. Sci. 81, 446 (2014)

   Truncated Coulomb potentials:
      R. Sundararaman and T.A. Arias, Phys. Rev. B 87, 165122 (2013)

   Van der Waals correction pair-potentials:
      S. Grimme, J. Comput. Chem. 27, 1787 (2006)

   Charge-asymmetric nonlocally-determined local-electric (CANDLE) solvation model:
      R. Sundararaman and W.A. Goddard III, J. Chem. Phys. 142, 064107 (2015)

   Total energy minimization with Auxiliary Hamiltonian:
      C. Freysoldt, S. Boeck, and J. Neugebauer, Phys. Rev. B 79, 241103(R) (2009)

This list may not be complete. Please suggest additional citations or
report any other bugs at https://github.com/shankar1729/jdftx/issues

Initialization completed successfully at t[s]:    992.76

Fluid solver invoked on fresh (partially random / LCAO) wavefunctions
Running a vacuum solve first:

-------- Initial electronic minimization -----------
	FillingsUpdate:  mu: -0.192822211  nElectrons: 399.500000  magneticMoment: [ Abs: 0.02186  Tot: +0.01984 ]
ElecMinimize: Iter:   0  F: -1452.897465946621878  |grad|_K:  1.127e-04  alpha:  1.000e+00
	FillingsUpdate:  mu: -0.151094768  nElectrons: 399.500000  magneticMoment: [ Abs: 0.02296  Tot: +0.01923 ]
	SubspaceRotationAdjust: set factor to 1
ElecMinimize: Iter:   1  F: -1454.314346726826670  |grad|_K:  7.733e-05  alpha:  6.077e-01  linmin:  4.163e-07  t[s]:   1071.31
	FillingsUpdate:  mu: -0.052643253  nElectrons: 399.500000  magneticMoment: [ Abs: 0.02414  Tot: +0.01879 ]
	SubspaceRotationAdjust: set factor to 0.57
ElecMinimize: Iter:   2  F: -1454.746462366978676  |grad|_K:  9.100e-05  alpha:  3.861e-01  linmin: -1.413e-06  t[s]:   1119.08
	FillingsUpdate:  mu: -0.141707439  nElectrons: 399.500000  magneticMoment: [ Abs: 0.02462  Tot: +0.01846 ]
	SubspaceRotationAdjust: set factor to 0.27
ElecMinimize: Iter:   3  F: -1454.999358590412612  |grad|_K:  2.888e-05  alpha:  1.819e-01  linmin:  1.477e-05  t[s]:   1166.87
ElecMinimize: 	Predicted alpha/alphaT>3.000000, increasing alphaT to 5.457591e-01.
	FillingsUpdate:  mu: -0.137046344  nElectrons: 399.500000  magneticMoment: [ Abs: 0.02490  Tot: +0.01785 ]
	SubspaceRotationAdjust: set factor to 0.304
ElecMinimize: Iter:   4  F: -1455.118991957811659  |grad|_K:  1.477e-05  alpha:  8.177e-01  linmin:  1.379e-05  t[s]:   1229.13
	FillingsUpdate:  mu: -0.131404459  nElectrons: 399.500000  magneticMoment: [ Abs: 0.02480  Tot: +0.01753 ]
	SubspaceRotationAdjust: set factor to 0.305
ElecMinimize: Iter:   5  F: -1455.145456212557519  |grad|_K:  1.039e-05  alpha:  6.616e-01  linmin: -1.077e-07  t[s]:   1276.25
	FillingsUpdate:  mu: -0.139234855  nElectrons: 399.500000  magneticMoment: [ Abs: 0.02450  Tot: +0.01722 ]
	SubspaceRotationAdjust: set factor to 0.303
ElecMinimize: Iter:   6  F: -1455.155408122901008  |grad|_K:  6.374e-06  alpha:  5.004e-01  linmin:  4.619e-08  t[s]:   1323.96
	FillingsUpdate:  mu: -0.133225370  nElectrons: 399.500000  magneticMoment: [ Abs: 0.02414  Tot: +0.01688 ]
	SubspaceRotationAdjust: set factor to 0.299
ElecMinimize: Iter:   7  F: -1455.159851511520628  |grad|_K:  4.549e-06  alpha:  5.944e-01  linmin:  2.413e-07  t[s]:   1371.80
	FillingsUpdate:  mu: -0.136878808  nElectrons: 399.500000  magneticMoment: [ Abs: 0.02363  Tot: +0.01648 ]
	SubspaceRotationAdjust: set factor to 0.311
ElecMinimize: Iter:   8  F: -1455.162178653516321  |grad|_K:  2.802e-06  alpha:  6.119e-01  linmin:  8.107e-09  t[s]:   1419.93
	FillingsUpdate:  mu: -0.135284672  nElectrons: 399.500000  magneticMoment: [ Abs: 0.02318  Tot: +0.01613 ]
	SubspaceRotationAdjust: set factor to 0.329
ElecMinimize: Iter:   9  F: -1455.163057687746232  |grad|_K:  1.997e-06  alpha:  6.081e-01  linmin:  1.345e-07  t[s]:   1467.66
	FillingsUpdate:  mu: -0.136654924  nElectrons: 399.500000  magneticMoment: [ Abs: 0.02270  Tot: +0.01578 ]
	SubspaceRotationAdjust: set factor to 0.333
ElecMinimize: Iter:  10  F: -1455.163467765292353  |grad|_K:  1.391e-06  alpha:  5.589e-01  linmin:  8.734e-08  t[s]:   1515.77
	FillingsUpdate:  mu: -0.135690006  nElectrons: 399.500000  magneticMoment: [ Abs: 0.02215  Tot: +0.01538 ]
	SubspaceRotationAdjust: set factor to 0.317
ElecMinimize: Iter:  11  F: -1455.163688176005962  |grad|_K:  8.701e-07  alpha:  6.195e-01  linmin:  2.635e-07  t[s]:   1563.36
	FillingsUpdate:  mu: -0.136240127  nElectrons: 399.500000  magneticMoment: [ Abs: 0.02159  Tot: +0.01497 ]
	SubspaceRotationAdjust: set factor to 0.306
ElecMinimize: Iter:  12  F: -1455.163784147356637  |grad|_K:  6.030e-07  alpha:  6.900e-01  linmin:  3.864e-07  t[s]:   1611.33
	FillingsUpdate:  mu: -0.135920936  nElectrons: 399.500000  magneticMoment: [ Abs: 0.02105  Tot: +0.01458 ]
	SubspaceRotationAdjust: set factor to 0.295
ElecMinimize: Iter:  13  F: -1455.163827914637295  |grad|_K:  4.569e-07  alpha:  6.550e-01  linmin:  2.308e-07  t[s]:   1659.14
	FillingsUpdate:  mu: -0.136349102  nElectrons: 399.500000  magneticMoment: [ Abs: 0.02048  Tot: +0.01418 ]
	SubspaceRotationAdjust: set factor to 0.273
ElecMinimize: Iter:  14  F: -1455.163852022059928  |grad|_K:  3.769e-07  alpha:  6.276e-01  linmin:  7.948e-07  t[s]:   1706.73
	FillingsUpdate:  mu: -0.135985623  nElectrons: 399.500000  magneticMoment: [ Abs: 0.01979  Tot: +0.01370 ]
	SubspaceRotationAdjust: set factor to 0.254
ElecMinimize: Iter:  15  F: -1455.163870010071832  |grad|_K:  2.979e-07  alpha:  6.884e-01  linmin:  5.532e-08  t[s]:   1754.90
	FillingsUpdate:  mu: -0.136184243  nElectrons: 399.500000  magneticMoment: [ Abs: 0.01904  Tot: +0.01318 ]
	SubspaceRotationAdjust: set factor to 0.261
ElecMinimize: Iter:  16  F: -1455.163882529225020  |grad|_K:  2.552e-07  alpha:  7.665e-01  linmin:  6.734e-08  t[s]:   1803.03
	FillingsUpdate:  mu: -0.136143788  nElectrons: 399.500000  magneticMoment: [ Abs: 0.01826  Tot: +0.01263 ]
	SubspaceRotationAdjust: set factor to 0.277
ElecMinimize: Iter:  17  F: -1455.163891602316198  |grad|_K:  2.044e-07  alpha:  7.571e-01  linmin:  2.917e-08  t[s]:   1850.69
	FillingsUpdate:  mu: -0.136119654  nElectrons: 399.500000  magneticMoment: [ Abs: 0.01757  Tot: +0.01216 ]
	SubspaceRotationAdjust: set factor to 0.292
ElecMinimize: Iter:  18  F: -1455.163897051767663  |grad|_K:  1.572e-07  alpha:  7.087e-01  linmin:  4.873e-08  t[s]:   1898.65
	FillingsUpdate:  mu: -0.136153557  nElectrons: 399.500000  magneticMoment: [ Abs: 0.01702  Tot: +0.01178 ]
	SubspaceRotationAdjust: set factor to 0.307
ElecMinimize: Iter:  19  F: -1455.163899843588752  |grad|_K:  1.132e-07  alpha:  6.137e-01  linmin:  6.221e-08  t[s]:   1946.99
	FillingsUpdate:  mu: -0.136097856  nElectrons: 399.500000  magneticMoment: [ Abs: 0.01653  Tot: +0.01144 ]
	SubspaceRotationAdjust: set factor to 0.316
ElecMinimize: Iter:  20  F: -1455.163901312305143  |grad|_K:  7.933e-08  alpha:  6.232e-01  linmin:  2.160e-07  t[s]:   1994.94
	FillingsUpdate:  mu: -0.136152248  nElectrons: 399.500000  magneticMoment: [ Abs: 0.01610  Tot: +0.01114 ]
	SubspaceRotationAdjust: set factor to 0.311
ElecMinimize: Iter:  21  F: -1455.163902016847715  |grad|_K:  5.464e-08  alpha:  6.083e-01  linmin:  1.433e-07  t[s]:   2042.75
	FillingsUpdate:  mu: -0.136096591  nElectrons: 399.500000  magneticMoment: [ Abs: 0.01572  Tot: +0.01088 ]
	SubspaceRotationAdjust: set factor to 0.292
ElecMinimize: Iter:  22  F: -1455.163902327083406  |grad|_K:  3.837e-08  alpha:  5.645e-01  linmin: -4.881e-09  t[s]:   2090.24
	FillingsUpdate:  mu: -0.136121752  nElectrons: 399.500000  magneticMoment: [ Abs: 0.01535  Tot: +0.01062 ]
	SubspaceRotationAdjust: set factor to 0.294
ElecMinimize: Iter:  23  F: -1455.163902480286197  |grad|_K:  2.565e-08  alpha:  5.652e-01  linmin: -4.269e-08  t[s]:   2138.00
	FillingsUpdate:  mu: -0.136110984  nElectrons: 399.500000  magneticMoment: [ Abs: 0.01501  Tot: +0.01039 ]
	SubspaceRotationAdjust: set factor to 0.314
ElecMinimize: Iter:  24  F: -1455.163902551644242  |grad|_K:  1.703e-08  alpha:  5.896e-01  linmin:  2.871e-08  t[s]:   2186.22
	FillingsUpdate:  mu: -0.136113228  nElectrons: 399.500000  magneticMoment: [ Abs: 0.01466  Tot: +0.01014 ]
	SubspaceRotationAdjust: set factor to 0.339
ElecMinimize: Iter:  25  F: -1455.163902586614086  |grad|_K:  1.169e-08  alpha:  6.539e-01  linmin: -7.369e-08  t[s]:   2233.92
	FillingsUpdate:  mu: -0.136114449  nElectrons: 399.500000  magneticMoment: [ Abs: 0.01430  Tot: +0.00989 ]
	SubspaceRotationAdjust: set factor to 0.361
ElecMinimize: Iter:  26  F: -1455.163902602861526  |grad|_K:  8.514e-09  alpha:  6.474e-01  linmin: -3.106e-07  t[s]:   2281.72
	FillingsUpdate:  mu: -0.136110141  nElectrons: 399.500000  magneticMoment: [ Abs: 0.01390  Tot: +0.00962 ]
	SubspaceRotationAdjust: set factor to 0.365
ElecMinimize: Iter:  27  F: -1455.163902611656795  |grad|_K:  6.684e-09  alpha:  6.572e-01  linmin:  2.401e-07  t[s]:   2329.66
	FillingsUpdate:  mu: -0.136117594  nElectrons: 399.500000  magneticMoment: [ Abs: 0.01349  Tot: +0.00933 ]
	SubspaceRotationAdjust: set factor to 0.326
ElecMinimize: Iter:  28  F: -1455.163902616449832  |grad|_K:  5.566e-09  alpha:  5.889e-01  linmin:  1.223e-06  t[s]:   2377.71
ElecMinimize: Converged (|Delta F|<1.000000e-08 for 2 iters).
Setting wave functions to eigenvectors of Hamiltonian
Vacuum energy after initial minimize, F = -1455.163902616449832

	Linear fluid (dielectric constant: 78.4, screening length: 5.74355 Bohr) occupying 0.750610 of unit cell:	Completed after 16 iterations at t[s]:   2391.50

-------- Electronic minimization -----------
	Linear fluid (dielectric constant: 78.4, screening length: 5.74355 Bohr) occupying 0.750610 of unit cell:	Completed after 0 iterations at t[s]:   2407.69
	FillingsUpdate:  mu: -0.189368794  nElectrons: 399.500000  magneticMoment: [ Abs: 0.01267  Tot: +0.00873 ]
ElecMinimize: Iter:   0  F: -1455.120085730007077  |grad|_K:  1.081e-06  alpha:  1.000e+00
	Linear fluid (dielectric constant: 78.4, screening length: 5.74355 Bohr) occupying 0.750947 of unit cell:	Completed after 10 iterations at t[s]:   2447.42
	Linear fluid (dielectric constant: 78.4, screening length: 5.74355 Bohr) occupying 0.750810 of unit cell:	Completed after 10 iterations at t[s]:   2469.27
	FillingsUpdate:  mu: -0.186241971  nElectrons: 399.500000  magneticMoment: [ Abs: 0.01250  Tot: +0.00863 ]
	SubspaceRotationAdjust: set factor to 0.249
ElecMinimize: Iter:   1  F: -1455.120213179042821  |grad|_K:  9.688e-07  alpha:  5.933e-01  linmin:  1.571e-07  t[s]:   2493.54
	Linear fluid (dielectric constant: 78.4, screening length: 5.74355 Bohr) occupying 0.751077 of unit cell:	Completed after 9 iterations at t[s]:   2508.80
	Linear fluid (dielectric constant: 78.4, screening length: 5.74355 Bohr) occupying 0.751028 of unit cell:	Completed after 2 iterations at t[s]:   2528.97
	FillingsUpdate:  mu: -0.186250389  nElectrons: 399.500000  magneticMoment: [ Abs: 0.01225  Tot: +0.00847 ]
	SubspaceRotationAdjust: set factor to 0.288
ElecMinimize: Iter:   2  F: -1455.120296574545591  |grad|_K:  5.619e-07  alpha:  4.831e-01  linmin:  8.267e-07  t[s]:   2552.11
	Linear fluid (dielectric constant: 78.4, screening length: 5.74355 Bohr) occupying 0.751135 of unit cell:	Completed after 3 iterations at t[s]:   2566.28
	Linear fluid (dielectric constant: 78.4, screening length: 5.74355 Bohr) occupying 0.751151 of unit cell:	Completed after 2 iterations at t[s]:   2585.12
	FillingsUpdate:  mu: -0.186321892  nElectrons: 399.500000  magneticMoment: [ Abs: 0.01205  Tot: +0.00833 ]
	SubspaceRotationAdjust: set factor to 0.307
ElecMinimize: Iter:   3  F: -1455.120328582945149  |grad|_K:  2.507e-07  alpha:  5.539e-01  linmin:  1.144e-06  t[s]:   2607.92
	Linear fluid (dielectric constant: 78.4, screening length: 5.74355 Bohr) occupying 0.751189 of unit cell:	Completed after 2 iterations at t[s]:   2621.97
	Linear fluid (dielectric constant: 78.4, screening length: 5.74355 Bohr) occupying 0.751215 of unit cell:	Completed after 2 iterations at t[s]:   2640.59
	FillingsUpdate:  mu: -0.186316207  nElectrons: 399.500000  magneticMoment: [ Abs: 0.01176  Tot: +0.00814 ]
	SubspaceRotationAdjust: set factor to 0.334
ElecMinimize: Iter:   4  F: -1455.120339580807922  |grad|_K:  1.493e-07  alpha:  9.521e-01  linmin: -1.057e-06  t[s]:   2663.86
	Linear fluid (dielectric constant: 78.4, screening length: 5.74355 Bohr) occupying 0.751240 of unit cell:	Completed after 0 iterations at t[s]:   2677.36
	Linear fluid (dielectric constant: 78.4, screening length: 5.74355 Bohr) occupying 0.751235 of unit cell:	Completed after 0 iterations at t[s]:   2694.88
	FillingsUpdate:  mu: -0.186316768  nElectrons: 399.500000  magneticMoment: [ Abs: 0.01150  Tot: +0.00796 ]
	SubspaceRotationAdjust: set factor to 0.348
ElecMinimize: Iter:   5  F: -1455.120342796553814  |grad|_K:  1.093e-07  alpha:  7.797e-01  linmin: -1.797e-09  t[s]:   2717.38
	Linear fluid (dielectric constant: 78.4, screening length: 5.74355 Bohr) occupying 0.751245 of unit cell:	Completed after 2 iterations at t[s]:   2731.42
	Linear fluid (dielectric constant: 78.4, screening length: 5.74355 Bohr) occupying 0.751241 of unit cell:	Completed after 0 iterations at t[s]:   2749.64
	FillingsUpdate:  mu: -0.186209243  nElectrons: 399.500000  magneticMoment: [ Abs: 0.01131  Tot: +0.00783 ]
	SubspaceRotationAdjust: set factor to 0.353
ElecMinimize: Iter:   6  F: -1455.120343694982921  |grad|_K:  7.609e-08  alpha:  4.332e-01  linmin:  9.547e-07  t[s]:   2771.99
	Linear fluid (dielectric constant: 78.4, screening length: 5.74355 Bohr) occupying 0.751242 of unit cell:	Completed after 2 iterations at t[s]:   2786.03
	Linear fluid (dielectric constant: 78.4, screening length: 5.74355 Bohr) occupying 0.751242 of unit cell:	Completed after 0 iterations at t[s]:   2804.21
	FillingsUpdate:  mu: -0.186304749  nElectrons: 399.500000  magneticMoment: [ Abs: 0.01117  Tot: +0.00773 ]
	SubspaceRotationAdjust: set factor to 0.272
ElecMinimize: Iter:   7  F: -1455.120344015957926  |grad|_K:  6.510e-08  alpha:  3.184e-01  linmin:  4.255e-06  t[s]:   2826.81
	Linear fluid (dielectric constant: 78.4, screening length: 5.74355 Bohr) occupying 0.751243 of unit cell:	Completed after 1 iterations at t[s]:   2840.69
	Linear fluid (dielectric constant: 78.4, screening length: 5.74355 Bohr) occupying 0.751243 of unit cell:	Completed after 0 iterations at t[s]:   2858.51
	FillingsUpdate:  mu: -0.186289547  nElectrons: 399.500000  magneticMoment: [ Abs: 0.01097  Tot: +0.00759 ]
	SubspaceRotationAdjust: set factor to 0.412
ElecMinimize: Iter:   8  F: -1455.120344271556405  |grad|_K:  3.837e-08  alpha:  3.362e-01  linmin: -2.007e-05  t[s]:   2880.69
	Linear fluid (dielectric constant: 78.4, screening length: 5.74355 Bohr) occupying 0.751243 of unit cell:	Completed after 2 iterations at t[s]:   2894.55
	Linear fluid (dielectric constant: 78.4, screening length: 5.74355 Bohr) occupying 0.751243 of unit cell:	Completed after 0 iterations at t[s]:   2912.69
	FillingsUpdate:  mu: -0.186219150  nElectrons: 399.500000  magneticMoment: [ Abs: 0.01090  Tot: +0.00754 ]
	SubspaceRotationAdjust: set factor to 0.344
ElecMinimize: Iter:   9  F: -1455.120344296573194  |grad|_K:  4.210e-08  alpha:  1.760e-01  linmin:  3.951e-06  t[s]:   2934.68
	Linear fluid (dielectric constant: 78.4, screening length: 5.74355 Bohr) occupying 0.751243 of unit cell:	Completed after 0 iterations at t[s]:   2948.13
	Linear fluid (dielectric constant: 78.4, screening length: 5.74355 Bohr) occupying 0.751243 of unit cell:	Completed after 0 iterations at t[s]:   2965.86
	FillingsUpdate:  mu: -0.186218965  nElectrons: 399.500000  magneticMoment: [ Abs: 0.01069  Tot: +0.00740 ]
	SubspaceRotationAdjust: set factor to 0.497
ElecMinimize: Iter:  10  F: -1455.120344379005701  |grad|_K:  3.873e-08  alpha:  2.629e-01  linmin:  2.591e-08  t[s]:   2988.29
	Linear fluid (dielectric constant: 78.4, screening length: 5.74355 Bohr) occupying 0.751244 of unit cell:	Completed after 2 iterations at t[s]:   3002.22
	Linear fluid (dielectric constant: 78.4, screening length: 5.74355 Bohr) occupying 0.751243 of unit cell:	Completed after 0 iterations at t[s]:   3019.88
	FillingsUpdate:  mu: -0.186280383  nElectrons: 399.500000  magneticMoment: [ Abs: 0.01061  Tot: +0.00734 ]
	SubspaceRotationAdjust: set factor to 0.361
ElecMinimize: Iter:  11  F: -1455.120344392058541  |grad|_K:  3.836e-08  alpha:  9.076e-02  linmin:  6.237e-05  t[s]:   3042.02
	Linear fluid (dielectric constant: 78.4, screening length: 5.74355 Bohr) occupying 0.751244 of unit cell:	Completed after 0 iterations at t[s]:   3055.44
	Linear fluid (dielectric constant: 78.4, screening length: 5.74355 Bohr) occupying 0.751244 of unit cell:	Completed after 0 iterations at t[s]:   3072.79
	FillingsUpdate:  mu: -0.186280467  nElectrons: 399.500000  magneticMoment: [ Abs: 0.01040  Tot: +0.00719 ]
	SubspaceRotationAdjust: set factor to 0.405
ElecMinimize: Iter:  12  F: -1455.120344411594715  |grad|_K:  3.395e-08  alpha:  1.806e-01  linmin: -5.009e-07  t[s]:   3094.87
	Linear fluid (dielectric constant: 78.4, screening length: 5.74355 Bohr) occupying 0.751244 of unit cell:	Completed after 1 iterations at t[s]:   3108.56
	Linear fluid (dielectric constant: 78.4, screening length: 5.74355 Bohr) occupying 0.751244 of unit cell:	Completed after 0 iterations at t[s]:   3126.38
ElecMinimize: 	Step increased F by 2.821253e-09, reducing alpha to 9.083515e-03.
	Linear fluid (dielectric constant: 78.4, screening length: 5.74355 Bohr) occupying 0.751244 of unit cell:	Completed after 0 iterations at t[s]:   3159.64
ElecMinimize: 	Step increased F by 1.378999e-08, reducing alpha to 9.083515e-04.
	Linear fluid (dielectric constant: 78.4, screening length: 5.74355 Bohr) occupying 0.751244 of unit cell:	Completed after 0 iterations at t[s]:   3192.85
ElecMinimize: 	Step increased F by 1.541798e-08, reducing alpha to 9.083515e-05.
ElecMinimize: 	Step failed to reduce F after 3 attempts. Quitting step.
ElecMinimize: 	Undoing step.
	Linear fluid (dielectric constant: 78.4, screening length: 5.74355 Bohr) occupying 0.751244 of unit cell:	Completed after 0 iterations at t[s]:   3226.58
ElecMinimize: 	Step failed: resetting search direction.
	FillingsUpdate:  mu: -0.186251791  nElectrons: 399.500000  magneticMoment: [ Abs: 0.01040  Tot: +0.00719 ]
	SubspaceRotationAdjust: set factor to 0.474
ElecMinimize: Iter:  13  F: -1455.120344396187193  |grad|_K:  1.969e-08  alpha:  9.084e-05
	Linear fluid (dielectric constant: 78.4, screening length: 5.74355 Bohr) occupying 0.751244 of unit cell:	Completed after 0 iterations at t[s]:   3262.07
	Linear fluid (dielectric constant: 78.4, screening length: 5.74355 Bohr) occupying 0.751244 of unit cell:	Completed after 0 iterations at t[s]:   3279.47
	FillingsUpdate:  mu: -0.186251980  nElectrons: 399.500000  magneticMoment: [ Abs: 0.01028  Tot: +0.00711 ]
	SubspaceRotationAdjust: set factor to 0.529
ElecMinimize: Iter:  14  F: -1455.120344427507234  |grad|_K:  1.062e-08  alpha:  4.447e-01  linmin:  1.178e-05  t[s]:   3301.45
	Linear fluid (dielectric constant: 78.4, screening length: 5.74355 Bohr) occupying 0.751244 of unit cell:	Completed after 0 iterations at t[s]:   3314.92
	Linear fluid (dielectric constant: 78.4, screening length: 5.74355 Bohr) occupying 0.751244 of unit cell:	Completed after 0 iterations at t[s]:   3332.40
	FillingsUpdate:  mu: -0.186252319  nElectrons: 399.500000  magneticMoment: [ Abs: 0.01004  Tot: +0.00694 ]
	SubspaceRotationAdjust: set factor to 0.617
ElecMinimize: Iter:  15  F: -1455.120344439869314  |grad|_K:  8.116e-09  alpha:  5.988e-01  linmin: -2.068e-07  t[s]:   3354.63
	Linear fluid (dielectric constant: 78.4, screening length: 5.74355 Bohr) occupying 0.751243 of unit cell:	Completed after 0 iterations at t[s]:   3368.15
	Linear fluid (dielectric constant: 78.4, screening length: 5.74355 Bohr) occupying 0.751243 of unit cell:	Completed after 0 iterations at t[s]:   3385.61
	FillingsUpdate:  mu: -0.186252820  nElectrons: 399.500000  magneticMoment: [ Abs: 0.00968  Tot: +0.00669 ]
	SubspaceRotationAdjust: set factor to 0.735
ElecMinimize: Iter:  16  F: -1455.120344447942216  |grad|_K:  5.766e-09  alpha:  6.544e-01  linmin: -2.796e-06  t[s]:   3407.65
	Linear fluid (dielectric constant: 78.4, screening length: 5.74355 Bohr) occupying 0.751243 of unit cell:	Completed after 1 iterations at t[s]:   3421.26
	Linear fluid (dielectric constant: 78.4, screening length: 5.74355 Bohr) occupying 0.751243 of unit cell:	Completed after 0 iterations at t[s]:   3439.22
ElecMinimize: 	Step increased F by 4.499725e-08, reducing alpha to 3.607291e-03.
	Linear fluid (dielectric constant: 78.4, screening length: 5.74355 Bohr) occupying 0.751243 of unit cell:	Completed after 0 iterations at t[s]:   3472.25
ElecMinimize: 	Step increased F by 4.405410e-08, reducing alpha to 3.607291e-04.
	Linear fluid (dielectric constant: 78.4, screening length: 5.74355 Bohr) occupying 0.751243 of unit cell:	Completed after 0 iterations at t[s]:   3505.48
ElecMinimize: 	Step increased F by 4.394451e-08, reducing alpha to 3.607291e-05.
ElecMinimize: 	Step failed to reduce F after 3 attempts. Quitting step.
ElecMinimize: 	Undoing step.
	Linear fluid (dielectric constant: 78.4, screening length: 5.74355 Bohr) occupying 0.751243 of unit cell:	Completed after 0 iterations at t[s]:   3539.06
ElecMinimize: 	Step failed: resetting search direction.
	FillingsUpdate:  mu: -0.186217240  nElectrons: 399.500000  magneticMoment: [ Abs: 0.00968  Tot: +0.00669 ]
	SubspaceRotationAdjust: set factor to 0.469
ElecMinimize: Iter:  17  F: -1455.120344404037269  |grad|_K:  3.215e-08  alpha:  3.607e-05
	Linear fluid (dielectric constant: 78.4, screening length: 5.74355 Bohr) occupying 0.751242 of unit cell:	Completed after 3 iterations at t[s]:   3575.10
	Linear fluid (dielectric constant: 78.4, screening length: 5.74355 Bohr) occupying 0.751243 of unit cell:	Completed after 1 iterations at t[s]:   3593.77
	FillingsUpdate:  mu: -0.186253990  nElectrons: 399.500000  magneticMoment: [ Abs: 0.00962  Tot: +0.00664 ]
	SubspaceRotationAdjust: set factor to 0.861
ElecMinimize: Iter:  18  F: -1455.120344437543508  |grad|_K:  6.105e-09  alpha:  1.383e-01  linmin: -5.285e-04  t[s]:   3616.39
	Linear fluid (dielectric constant: 78.4, screening length: 5.74355 Bohr) occupying 0.751243 of unit cell:	Completed after 0 iterations at t[s]:   3629.91
ElecMinimize: 	Predicted alpha/alphaT>3.000000, increasing alphaT to 4.150252e-01.
	Linear fluid (dielectric constant: 78.4, screening length: 5.74355 Bohr) occupying 0.751243 of unit cell:	Completed after 0 iterations at t[s]:   3647.38
	Linear fluid (dielectric constant: 78.4, screening length: 5.74355 Bohr) occupying 0.751243 of unit cell:	Completed after 0 iterations at t[s]:   3664.84
	FillingsUpdate:  mu: -0.186253737  nElectrons: 399.500000  magneticMoment: [ Abs: 0.00941  Tot: +0.00650 ]
	SubspaceRotationAdjust: set factor to 0.926
ElecMinimize: Iter:  19  F: -1455.120344442553460  |grad|_K:  4.100e-09  alpha:  6.772e-01  linmin:  8.054e-06  t[s]:   3687.16
	Linear fluid (dielectric constant: 78.4, screening length: 5.74355 Bohr) occupying 0.751243 of unit cell:	Completed after 0 iterations at t[s]:   3700.47
	Linear fluid (dielectric constant: 78.4, screening length: 5.74355 Bohr) occupying 0.751243 of unit cell:	Completed after 0 iterations at t[s]:   3717.62
	FillingsUpdate:  mu: -0.186253512  nElectrons: 399.500000  magneticMoment: [ Abs: 0.00900  Tot: +0.00621 ]
	SubspaceRotationAdjust: set factor to 1.04
ElecMinimize: Iter:  20  F: -1455.120344444540933  |grad|_K:  3.281e-09  alpha:  6.399e-01  linmin:  1.630e-06  t[s]:   3739.85
ElecMinimize: Converged (|Delta F|<1.000000e-08 for 2 iters).
Setting wave functions to eigenvectors of Hamiltonian
Single-point solvation energy estimate, DeltaF = +0.043558171908899

# Ionic positions in lattice coordinates:
ion V   0.000000007187500   0.000000004916667   0.499999995675510 1
ion V   0.250000007187500   0.000000004916667   0.499999995675510 1
ion V   0.500000007187500   0.000000004916667   0.499999995675510 1
ion V   0.750000007187500   0.000000004916667   0.499999995675510 1
ion V   0.000000007187500   0.250000004916667   0.499999995675510 1
ion V   0.250000007187500   0.250000004916667   0.499999995675510 1
ion V   0.500000007187500   0.250000004916667   0.499999995675510 1
ion V   0.750000007187500   0.250000004916667   0.499999995675510 1
ion V   0.000000007187500   0.500000004916667   0.499999995675510 1
ion V   0.250000007187500   0.500000004916667   0.499999995675510 1
ion V   0.500000007187500   0.500000004916667   0.499999995675510 1
ion V   0.750000007187500   0.500000004916667   0.499999995675510 1
ion V   1.000000007187500   0.750000004916667   0.499999995675510 1
ion V   0.250000007187500   0.750000004916667   0.499999995675510 1
ion V   0.500000007187500   0.750000004916667   0.499999995675510 1
ion V   0.750000007187500   0.750000004916667   0.499999995675510 1
ion Se   0.166666673854167   0.083333338250000   0.587361484715034 1
ion Se   0.083333340520833   0.166666671583333   0.412638506635987 1
ion Se   0.416666673854167   0.083333338250000   0.587361484715034 1
ion Se   0.333333340520833   0.166666671583333   0.412638506635987 1
ion Se   0.666666673854167   0.083333338250000   0.587361484715034 1
ion Se   0.583333340520833   0.166666671583333   0.412638506635987 1
ion Se   0.916666673854167   0.083333338250000   0.587361484715034 1
ion Se   0.833333340520833   0.166666671583333   0.412638506635987 1
ion Se   0.166666673854167   0.333333338250000   0.587361484715034 1
ion Se   0.083333340520833   0.416666671583333   0.412638506635987 1
ion Se   0.416666673854167   0.333333338250000   0.587361484715034 1
ion Se   0.333333340520833   0.416666671583333   0.412638506635987 1
ion Se   0.666666673854167   0.333333338250000   0.587361484715034 1
ion Se   0.583333340520833   0.416666671583333   0.412638506635987 1
ion Se   0.916666673854167   0.333333338250000   0.587361484715034 1
ion Se   0.833333340520833   0.416666671583333   0.412638506635987 1
ion Se   0.166666673854167   0.583333338250000   0.587361484715034 1
ion Se   0.083333340520833   0.666666671583333   0.412638506635987 1
ion Se   0.416666673854167   0.583333338250000   0.587361484715034 1
ion Se   0.333333340520833   0.666666671583333   0.412638506635987 1
ion Se   0.666666673854167   0.583333338250000   0.587361484715034 1
ion Se   0.583333340520833   0.666666671583333   0.412638506635987 1
ion Se   0.916666673854167   0.583333338250000   0.587361484715034 1
ion Se   0.833333340520833   0.666666671583333   0.412638506635987 1
ion Se   0.166666673854167   0.833333338250000   0.587361484715034 1
ion Se   0.083333340520833   0.916666671583333   0.412638506635987 1
ion Se   0.416666673854167   0.833333338250000   0.587361484715034 1
ion Se   0.333333340520833   0.916666671583333   0.412638506635987 1
ion Se   0.666666673854167   0.833333338250000   0.587361484715034 1
ion Se   0.583333340520833   0.916666671583333   0.412638506635987 1
ion Se   0.916666673854167   0.833333338250000   0.587361484715034 1
ion Se   0.833333340520833   0.916666671583333   0.412638506635987 1


# Forces in Lattice coordinates:
force V   0.000000000000000  -0.000000000000000  -0.000000000000000 1
force V   0.000000000000000  -0.000000000000000  -0.000000000000000 1
force V  -0.000000000000000  -0.000000000000000   0.000000000000000 1
force V  -0.000000000000000   0.000000000000000   0.000000000000000 1
force V   0.000000000000000  -0.000000000000000  -0.000000000000000 1
force V  -0.000000000000000  -0.000000000000000  -0.000000000000000 1
force V   0.000000000000000  -0.000000000000000   0.000000000000000 1
force V   0.000000000000000  -0.000000000000000  -0.000000000000000 1
force V  -0.000000000000000   0.000000000000000   0.000000000000000 1
force V  -0.000000000000000   0.000000000000000   0.000000000000000 1
force V  -0.000000000000000   0.000000000000000  -0.000000000000000 1
force V  -0.000000000000000   0.000000000000000  -0.000000000000000 1
force V   0.000000000000000   0.000000000000000  -0.000000000000000 1
force V   0.000000000000000  -0.000000000000000   0.000000000000000 1
force V   0.000000000000000  -0.000000000000000  -0.000000000000000 1
force V  -0.000000000000000   0.000000000000000  -0.000000000000000 1
force Se  -0.000000000000000  -0.000000000000000  -0.003418022394079 1
force Se   0.000000000000000   0.000000000000000   0.003418022394987 1
force Se  -0.000000000000000  -0.000000000000000  -0.003418022393966 1
force Se   0.000000000000000   0.000000000000000   0.003418022394986 1
force Se   0.000000000000000  -0.000000000000000  -0.003418022394079 1
force Se  -0.000000000000000   0.000000000000000   0.003418022394987 1
force Se   0.000000000000000  -0.000000000000000  -0.003418022394081 1
force Se  -0.000000000000000   0.000000000000000   0.003418022394987 1
force Se   0.000000000000000  -0.000000000000000  -0.003418022393967 1
force Se  -0.000000000000000   0.000000000000000   0.003418022394987 1
force Se  -0.000000000000000   0.000000000000000  -0.003418022394079 1
force Se  -0.000000000000000   0.000000000000000   0.003418022394986 1
force Se   0.000000000000000  -0.000000000000000  -0.003418022393965 1
force Se  -0.000000000000000   0.000000000000000   0.003418022394987 1
force Se  -0.000000000000000  -0.000000000000000  -0.003418022393966 1
force Se  -0.000000000000000   0.000000000000000   0.003418022394987 1
force Se  -0.000000000000000  -0.000000000000000  -0.003418022394079 1
force Se  -0.000000000000000  -0.000000000000000   0.003418022394987 1
force Se  -0.000000000000000  -0.000000000000000  -0.003418022394080 1
force Se   0.000000000000000  -0.000000000000000   0.003418022394988 1
force Se  -0.000000000000000   0.000000000000000  -0.003418022393966 1
force Se  -0.000000000000000  -0.000000000000000   0.003418022394987 1
force Se   0.000000000000000   0.000000000000000  -0.003418022393851 1
force Se   0.000000000000000  -0.000000000000000   0.003418022394987 1
force Se   0.000000000000000  -0.000000000000000  -0.003418022393965 1
force Se  -0.000000000000000   0.000000000000000   0.003418022394987 1
force Se  -0.000000000000000  -0.000000000000000  -0.003418022393965 1
force Se  -0.000000000000000   0.000000000000000   0.003418022394987 1
force Se   0.000000000000000  -0.000000000000000  -0.003418022394080 1
force Se   0.000000000000000   0.000000000000000   0.003418022394874 1
force Se   0.000000000000000   0.000000000000000  -0.003418022394079 1
force Se  -0.000000000000000  -0.000000000000000   0.003418022394986 1

# Energy components:
   A_diel =        0.0379808414151024
   Eewald =     7355.3611886338539989
       EH =     8548.5371457091205230
     Eloc =   -17628.9863540808619291
      Enl =      104.3451151209476535
      Exc =     -632.1918222792783126
 Exc_core =      404.2865653872538587
       KE =      393.5799204583661322
  MuShift =        0.0053168061209681
-------------------------------------
     Etot =    -1455.0249434030617977
       TS =        0.0954010414791937
-------------------------------------
        F =    -1455.1203444445409332

IonicMinimize: Iter:   0  F: -1455.120344444540933  |grad|_K:  4.690e-05  t[s]:   3753.98
IonicMinimize: Converged (|grad|_K<1.000000e-04).

#--- Lowdin population analysis ---
# oxidation-state V +0.557 +0.557 +0.557 +0.557 +0.557 +0.557 +0.557 +0.557 +0.557 +0.557 +0.557 +0.557 +0.557 +0.557 +0.557 +0.557
# magnetic-moments V +0.000 +0.000 +0.000 +0.000 +0.000 +0.000 +0.000 +0.000 +0.000 +0.000 +0.000 +0.000 +0.000 +0.000 +0.000 +0.000
# oxidation-state Se -0.169 -0.169 -0.169 -0.169 -0.169 -0.169 -0.169 -0.169 -0.169 -0.169 -0.169 -0.169 -0.169 -0.169 -0.169 -0.169 -0.169 -0.169 -0.169 -0.169 -0.169 -0.169 -0.169 -0.169 -0.169 -0.169 -0.169 -0.169 -0.169 -0.169 -0.169 -0.169
# magnetic-moments Se -0.000 -0.000 -0.000 -0.000 -0.000 -0.000 -0.000 -0.000 -0.000 -0.000 -0.000 -0.000 -0.000 -0.000 -0.000 -0.000 -0.000 -0.000 -0.000 -0.000 -0.000 -0.000 -0.000 -0.000 -0.000 -0.000 -0.000 -0.000 -0.000 -0.000 -0.000 -0.000


Dumping 'NbTe2.fillings' ... done
Dumping 'NbTe2.wfns' ... done
Dumping 'NbTe2.fluidState' ... done
Dumping 'NbTe2.ionpos' ... done
Dumping 'NbTe2.eigenvals' ... done
End date and time: Thu Feb  4 14:20:25 2021  (Duration: 0-1:02:39.70)
Done!
