
*************** JDFTx 1.5.0  ***************

Start date and time: Fri Jul  3 22:30:44 2020
Executable jdftx_gpu with command-line: -i Neutral.in -o Neutral.out
Running on hosts (process indices):  amax (0)
Divided in process groups (process indices):  0 (0)
gpuInit: Found compatible cuda device 0 'Tesla K80'
gpuInit: Selected device 0
Resource initialization completed at t[s]:      8.51
Run totals: 1 processes, 24 threads, 1 GPUs


Input parsed successfully to the following command list (including defaults):

basis kpoint-dependent
cache-projectors no
coords-type Lattice
core-overlap-check none
coulomb-interaction Slab 001
coulomb-truncation-embed 0 0 0.5
davidson-band-ratio 1.1
dump End State
dump-name NbTe2.$VAR
elec-cutoff 20 100
elec-eigen-algo Davidson
elec-ex-corr gga-PBE
elec-smearing Gauss 0.0073499
electronic-minimize  \
	dirUpdateScheme      FletcherReeves \
	linminMethod         DirUpdateRecommended \
	nIterations          100 \
	history              15 \
	knormThreshold       0 \
	energyDiffThreshold  1e-08 \
	nEnergyDiff          2 \
	alphaTstart          1 \
	alphaTmin            1e-10 \
	updateTestStepSize   yes \
	alphaTreduceFactor   0.1 \
	alphaTincreaseFactor 3 \
	nAlphaAdjustMax      3 \
	wolfeEnergy          0.0001 \
	wolfeGradient        0.9 \
	fdTest               no
electronic-scf  \
	nIterations	500 \
	energyDiffThreshold	1e-08 \
	residualThreshold	1e-07 \
	mixFraction	0.5 \
	qMetric	0.8 \
	history	10 \
	nEigSteps	2 \
	eigDiffThreshold	1e-08 \
	mixedVariable	Density \
	qKerker	0.8 \
	qKappa	-1 \
	verbose	no \
	mixFractionMag	1.5
exchange-regularization WignerSeitzTruncated
fluid LinearPCM 298.000000 1.013250
fluid-anion F- 1 MeanFieldLJ \
	epsBulk 1 \
	pMol 0 \
	epsInf 1 \
	Pvap 0 \
	sigmaBulk 0 \
	Rvdw 2.24877 \
	Res 0 \
	tauNuc 343133
fluid-cation Na+ 1 MeanFieldLJ \
	epsBulk 1 \
	pMol 0 \
	epsInf 1 \
	Pvap 0 \
	sigmaBulk 0 \
	Rvdw 2.19208 \
	Res 0 \
	tauNuc 343133
fluid-ex-corr lda-TF lda-PZ
fluid-gummel-loop 10 1.000000e-05
fluid-minimize  \
	dirUpdateScheme      PolakRibiere \
	linminMethod         DirUpdateRecommended \
	nIterations          400 \
	history              15 \
	knormThreshold       1e-11 \
	energyDiffThreshold  0 \
	nEnergyDiff          2 \
	alphaTstart          1 \
	alphaTmin            1e-10 \
	updateTestStepSize   yes \
	alphaTreduceFactor   0.1 \
	alphaTincreaseFactor 3 \
	nAlphaAdjustMax      6 \
	wolfeEnergy          0.0001 \
	wolfeGradient        0.9 \
	fdTest               no
fluid-solvent H2O 55.338 ScalarEOS \
	epsBulk 78.4 \
	pMol 0.92466 \
	epsInf 1.77 \
	Pvap 1.06736e-10 \
	sigmaBulk 4.62e-05 \
	Rvdw 2.61727 \
	Res 1.42 \
	tauNuc 343133 \
	poleEl 15 7 1
forces-output-coords Positions
initial-state NbTe2.$VAR
ion Ni   0.082332499968437   0.082332492968440   0.537577342960231 0
ion Ni  -0.000858591618158  -0.000858591618158   0.465599058143562 0
ion Ni   0.335325006063117   0.082332492968440   0.537577342960231 0
ion Ni   0.248600395239317   0.002799209521366   0.464406785341277 0
ion Ni   0.581502861560250   0.088156287815939   0.538139928735602 0
ion Ni   0.501717183236316  -0.000858591618158   0.465599058143562 0
ion Ni   0.830330817623809   0.088156287815939   0.538139928735602 0
ion Ni   0.749942733866315   0.000114468267364   0.465182599243594 0
ion Ni   0.082332479968442   0.335325000063123   0.537577342960231 0
ion Ni   0.002799211521367   0.248600369239315   0.464406785341277 0
ion Ni   0.332004613822084   0.332004627822086   0.535831799193832 0
ion Ni   0.248600389239316   0.248600369239315   0.464406785341277 0
ion Ni   0.580577717808171   0.338834398383662   0.530503930256892 0
ion Ni   0.497897221939211   0.252671032655287   0.462050791828587 0
ion Ni   0.835980687355839   0.332004627822086   0.535831799193832 0
ion Ni   0.749431738405498   0.252671032655287   0.462050791828587 0
ion Ni   0.088156277815939   0.581502843560248   0.538139928735602 0
ion Ni  -0.000858588618161   0.501717130236315   0.465599058143562 0
ion Ni   0.338834387383658   0.580577750808170   0.530503930256892 0
ion Ni   0.252671077655287   0.497897143939211   0.462050791828587 0
ion Ni   0.580577751808174   0.580577750808170   0.530503930256892 0
ion Ni   0.499999987000002   0.499999946999999   0.459072333229185 0
ion Ni   0.830330737623809   0.581502843560248   0.538139928735602 0
ion Ni   0.749431700405502   0.497897143939211   0.462050791828587 0
ion Ni   0.088156275815938   0.830330795623814   0.538139928735602 0
ion Ni   0.000114453267367   0.749942741866316   0.465182599243594 0
ion Ni   0.332004614822081   0.835980716355838   0.535831799193832 0
ion Ni   0.252671075655287   0.749431720405497   0.462050791828587 0
ion Ni   0.581502842560252   0.830330795623814   0.538139928735602 0
ion Ni   0.497897118939213   0.749431720405497   0.462050791828587 0
ion Ni   0.833329982999999   0.833329980000002   0.538256269745407 0
ion Ni   0.749942719866321   0.749942741866316   0.465182599243594 0
ion Te   0.082073279771015   0.082073272771018   0.399673698308951 0
ion Te  -0.001224394969014  -0.001224394969014   0.601965625122032 0
ion Te   0.335843446457960   0.082073272771018   0.399673698308951 0
ion Te   0.249453176906974   0.001093646186051   0.602003654089030 0
ion Te   0.583193362299249   0.083920776466938   0.400699565980811 0
ion Te   0.502448789938028  -0.001224394969014   0.601965625122032 0
ion Te   0.832875828233810   0.083920776466938   0.400699565980811 0
ion Te   0.749434523913112   0.001130888173769   0.602023468409915 0
ion Te   0.082073259771020   0.335843440457967   0.399673698308951 0
ion Te   0.001093648186052   0.249453150906972   0.602003654089030 0
ion Te   0.330921948144960   0.330921962144962   0.397841811769758 0
ion Te   0.249453170906974   0.249453150906972   0.602003654089030 0
ion Te   0.583112272665700   0.333765288668604   0.396159495329480 0
ion Te   0.499356135548295   0.258548205455387   0.599861063205005 0
ion Te   0.838146018710087   0.330921962144962   0.397841811769758 0
ion Te   0.742095651996314   0.258548205455387   0.599861063205005 0
ion Te   0.083920766466937   0.583193344299247   0.400699565980811 0
ion Te  -0.001224391969017   0.502448736938027   0.601965625122032 0
ion Te   0.333765277668599   0.583112305665699   0.396159495329480 0
ion Te   0.258548250455388   0.499356057548295   0.599861063205005 0
ion Te   0.583112306665703   0.583112305665699   0.396159495329480 0
ion Te   0.832875748233811   0.583193344299247   0.400699565980811 0
ion Te   0.742095613996318   0.499356057548295   0.599861063205005 0
ion Te   0.083920764466937   0.832875806233816   0.400699565980811 0
ion Te   0.001130873173771   0.749434531913113   0.602023468409915 0
ion Te   0.330921949144957   0.838146047710086   0.397841811769758 0
ion Te   0.258548248455387   0.742095633996312   0.599861063205005 0
ion Te   0.583193343299251   0.832875806233816   0.400699565980811 0
ion Te   0.499356032548297   0.742095633996312   0.599861063205005 0
ion Te   0.833329982999999   0.833329980000002   0.400750728019668 0
ion Te   0.749434509913118   0.749434531913113   0.602023468409915 0
ion-species GBRV/$ID_pbe.uspp
ion-width Ecut
ionic-minimize  \
	dirUpdateScheme      L-BFGS \
	linminMethod         DirUpdateRecommended \
	nIterations          0 \
	history              15 \
	knormThreshold       0.0001 \
	energyDiffThreshold  1e-06 \
	nEnergyDiff          2 \
	alphaTstart          1 \
	alphaTmin            1e-10 \
	updateTestStepSize   yes \
	alphaTreduceFactor   0.1 \
	alphaTincreaseFactor 3 \
	nAlphaAdjustMax      3 \
	wolfeEnergy          0.0001 \
	wolfeGradient        0.9 \
	fdTest               no
kpoint   0.000000000000   0.000000000000   0.000000000000  1.00000000000000
kpoint-folding 3 3 1 
latt-move-scale 1 1 1
latt-scale 1 1 1 
lattice Triclinic 28.5693 28.5693 35.2978 90 90 60.0001
lattice-minimize  \
	dirUpdateScheme      L-BFGS \
	linminMethod         DirUpdateRecommended \
	nIterations          0 \
	history              15 \
	knormThreshold       0 \
	energyDiffThreshold  1e-06 \
	nEnergyDiff          2 \
	alphaTstart          1 \
	alphaTmin            1e-10 \
	updateTestStepSize   yes \
	alphaTreduceFactor   0.1 \
	alphaTincreaseFactor 3 \
	nAlphaAdjustMax      3 \
	wolfeEnergy          0.0001 \
	wolfeGradient        0.9 \
	fdTest               no
lcao-params -1 1e-06 0.0073499
pcm-variant CANDLE
spintype no-spin
subspace-rotation-factor 1 yes
symmetries automatic
symmetry-threshold 0.0001



---------- Setting up symmetries ----------

Found 24 point-group symmetries of the bravais lattice
Found 6 space-group symmetries with basis
Applied RMS atom displacement 8.26063e-05 bohrs to make symmetries exact.

---------- Initializing the Grid ----------
R = 
[    28.5693    14.2846          0  ]
[          0    24.7417          0  ]
[          0          0    35.2978  ]
unit cell volume = 24950.4
G =
[   0.219928  -0.126975          0  ]
[          0   0.253951          0  ]
[          0          0   0.178005  ]
Minimum fftbox size, Smin = [  132  132  160  ]
Chosen fftbox size, S = [  140  140  160  ]

---------- Initializing tighter grid for wavefunction operations ----------
R = 
[    28.5693    14.2846          0  ]
[          0    24.7417          0  ]
[          0          0    35.2978  ]
unit cell volume = 24950.4
G =
[   0.219928  -0.126975          0  ]
[          0   0.253951          0  ]
[          0          0   0.178005  ]
Minimum fftbox size, Smin = [  116  116  144  ]
Chosen fftbox size, S = [  120  120  144  ]

---------- Exchange Correlation functional ----------
Initalized PBE GGA exchange.
Initalized PBE GGA correlation.

---------- Setting up pseudopotentials ----------
Width of ionic core gaussian charges (only for fluid interactions / plotting) set to 0.397384

Reading pseudopotential file '/home/guoxy/vasp/jdftx-1.5.0/build/pseudopotentials/GBRV/ni_pbe.uspp':
  Title: Ni.  Created by USPP 7.3.6 on 1-4-15
  Reference state energy: -170.398381.  18 valence electrons in orbitals:
    |300>  occupation: 2  eigenvalue: -4.804705
    |310>  occupation: 6  eigenvalue: -3.347751
    |320>  occupation: 8  eigenvalue: -1.042415
    |400>  occupation: 0  eigenvalue: -0.795539
    |410>  occupation: 0  eigenvalue: -0.551375
  lMax: 2  lLocal: 3  QijEcut: 6.5
  6 projectors sampled on a log grid with 611 points:
    l: 0  eig: -4.804708  rCut: 1.44
    l: 0  eig: -0.795541  rCut: 1.44
    l: 1  eig: -3.347753  rCut: 1.55
    l: 1  eig: 0.500000  rCut: 1.55
    l: 2  eig: -1.042418  rCut: 1.5
    l: 2  eig: -0.450000  rCut: 1.5
  Partial core density with radius 0.65
  Transforming core density to a uniform radial grid of dG=0.02 with 1702 points.
  Transforming local potential to a uniform radial grid of dG=0.02 with 1702 points.
  Transforming nonlocal projectors to a uniform radial grid of dG=0.02 with 432 points.
  Transforming density augmentations to a uniform radial grid of dG=0.02 with 1702 points.
  Transforming atomic orbitals to a uniform radial grid of dG=0.02 with 432 points.
  Core radius for overlap checks: 1.55 bohrs.

Reading pseudopotential file '/home/guoxy/vasp/jdftx-1.5.0/build/pseudopotentials/GBRV/te_pbe.uspp':
  Title: Te.  Created by USPP 7.3.6 on 14-9-2013
  Reference state energy: -13.134220.  6 valence electrons in orbitals:
    |500>  occupation: 2  eigenvalue: -0.555231
    |510>  occupation: 4  eigenvalue: -0.218781
  lMax: 2  lLocal: 2  QijEcut: 5
  5 projectors sampled on a log grid with 723 points:
    l: 0  eig: -0.555229  rCut: 2.1
    l: 0  eig: 1.000000  rCut: 2.1
    l: 1  eig: -0.218780  rCut: 2.1
    l: 1  eig: 1.000000  rCut: 2.1
    l: 2  eig: 1.000000  rCut: 2.6
  Partial core density with radius 1.8
  Transforming core density to a uniform radial grid of dG=0.02 with 1702 points.
  Transforming local potential to a uniform radial grid of dG=0.02 with 1702 points.
  Transforming nonlocal projectors to a uniform radial grid of dG=0.02 with 432 points.
  Transforming density augmentations to a uniform radial grid of dG=0.02 with 1702 points.
  Transforming atomic orbitals to a uniform radial grid of dG=0.02 with 432 points.
  Core radius for overlap checks: 2.60 bohrs.

Initialized 2 species with 63 total atoms.

Folded 1 k-points by 3x3x1 to 9 k-points.

---------- Setting up k-points, bands, fillings ----------
Adding inversion symmetry to k-mesh for non-inversion-symmetric unit cell.
Reduced to 3 k-points under symmetry. 
Computing the number of bands and number of electrons
Calculating initial fillings.
nElectrons: 762.000000   nBands: 540   nStates: 3

----- Setting up reduced wavefunction bases (one per k-point) -----
average nbasis = 106596.556 , ideal nbasis = 106589.816

---------- Setting up coulomb interaction ----------
Fluid mode embedding: using embedded box, but periodic Coulomb kernel.
(Fluid response is responsible for (approximate) separation between periodic images.)
Setting up double-sized grid for truncated Coulomb potentials:
R = 
[    28.5693    14.2846          0  ]
[          0    24.7417          0  ]
[          0          0    70.5956  ]
unit cell volume = 49900.7
G =
[   0.219928  -0.126975          0  ]
[          0   0.253951          0  ]
[          0          0  0.0890025  ]
Chosen fftbox size, S = [  140  140  320  ]
Integer grid location selected as the embedding center:
   Grid: [  0  0  80  ]
   Lattice: [  0  0  0.5  ]
   Cartesian: [  0  0  17.6489  ]
Constructing Wigner-Seitz cell: 8 faces (6 quadrilaterals, 2 hexagons)
Range-separation parameter for embedded mesh potentials due to point charges: 0.592549 bohrs.

Initializing van der Waals corrections
	NOTE: vdW corrections apply only for interactions with fluid.
	Ni:  C6:  187.33 Eh-a0^6  R0: 2.952 a0
	Te:  C6:  550.54 Eh-a0^6  R0: 3.575 a0

---------- Setting up ewald sum ----------
Optimum gaussian width for ewald sums = 7.363013 bohr.
Real space sum over 405 unit cells with max indices [  4  4  2  ]
Reciprocal space sum over 7425 terms with max indices [  7  7  16  ]

---------- Allocating electronic variables ----------
Initializing wave functions:  linear combination of atomic orbitals
Ni pseudo-atom occupations:   s ( 2 0 )  p ( 6 0 )  d ( 10 )
Te pseudo-atom occupations:   s ( 2 )  p ( 4 )
	FillingsUpdate:  mu: -1.812135662  nElectrons: 762.000000
LCAOMinimize: Iter:   0  F: -5245.4457562421548573  |grad|_K:  3.607e-02  alpha:  1.000e+00
	FillingsUpdate:  mu: +3.405171896  nElectrons: 762.000000
LCAOMinimize: Iter:   1  F: -5466.4324011713861182  |grad|_K:  2.657e-02  alpha:  5.733e-01  linmin:  4.329e-02  cgtest: -1.053e+00  t[s]:    123.85
	FillingsUpdate:  mu: +3.295630793  nElectrons: 762.000000
LCAOMinimize: Iter:   2  F: -5474.3156440124657820  |grad|_K:  2.627e-02  alpha:  1.788e-01  linmin:  2.440e-03  cgtest:  7.159e-01  t[s]:    169.15
LCAOMinimize: 	Wrong curvature in test step, increasing alphaT to 5.363666e-01.
	FillingsUpdate:  mu: +2.484172813  nElectrons: 762.000000
LCAOMinimize: Iter:   3  F: -5603.6244538123919483  |grad|_K:  2.407e-02  alpha: -4.339e-01  linmin: -1.232e-01  cgtest:  5.435e-01  t[s]:    212.75
	FillingsUpdate:  mu: -0.356282865  nElectrons: 762.000000
LCAOMinimize: Iter:   4  F: -5644.8071516731315569  |grad|_K:  8.430e-02  alpha:  3.262e-01  linmin:  1.388e-02  cgtest: -2.483e-01  t[s]:    257.95
LCAOMinimize: 	Bad step direction: g.d > 0.
LCAOMinimize: 	Undoing step.
LCAOMinimize: 	Step failed: resetting search direction.
	FillingsUpdate:  mu: -0.356282865  nElectrons: 762.000000
LCAOMinimize: Iter:   5  F: -5644.8071516731315569  |grad|_K:  8.430e-02  alpha:  0.000e+00
LCAOMinimize: 	Step increased F by 1.744972e+02, reducing alpha to 1.366561e-02.
	FillingsUpdate:  mu: -0.555503594  nElectrons: 762.000000
LCAOMinimize: Iter:   6  F: -5675.6486406930671365  |grad|_K:  6.705e-02  alpha:  1.367e-02  linmin:  4.173e-02  cgtest: -7.025e-01  t[s]:    368.06
	FillingsUpdate:  mu: -0.608947525  nElectrons: 762.000000
LCAOMinimize: Iter:   7  F: -5681.5763175342126488  |grad|_K:  5.585e-02  alpha:  3.465e-03  linmin: -5.195e-03  cgtest:  8.987e-01  t[s]:    413.60
LCAOMinimize: Encountered beta<0, resetting CG.
	FillingsUpdate:  mu: -0.650893582  nElectrons: 762.000000
LCAOMinimize: Iter:   8  F: -5692.3571682819301714  |grad|_K:  3.160e-02  alpha:  1.024e-02  linmin:  1.444e-01  cgtest: -7.017e-01  t[s]:    458.81
	FillingsUpdate:  mu: -0.610976688  nElectrons: 762.000000
LCAOMinimize: Iter:   9  F: -5692.5836193967670624  |grad|_K:  3.324e-02  alpha:  2.016e-03  linmin: -3.329e-03  cgtest:  9.779e-01  t[s]:    504.05
LCAOMinimize: 	Predicted alpha/alphaT>3.000000, increasing alphaT to 6.049322e-03.
	FillingsUpdate:  mu: -0.714853511  nElectrons: 762.000000
LCAOMinimize: Iter:  10  F: -5696.7156118964312554  |grad|_K:  1.921e-02  alpha:  8.937e-03  linmin:  4.186e-02  cgtest: -2.989e-01  t[s]:    563.48
LCAOMinimize: 	Step increased F by 3.124531e+00, reducing alpha to 2.046859e-03.
	FillingsUpdate:  mu: -0.708201685  nElectrons: 762.000000
LCAOMinimize: Iter:  11  F: -5697.2645333524123998  |grad|_K:  1.932e-02  alpha:  2.047e-03  linmin: -7.985e-02  cgtest:  9.654e-01  t[s]:    662.90
LCAOMinimize: 	Predicted alpha/alphaT>3.000000, increasing alphaT to 6.140576e-03.
	FillingsUpdate:  mu: -0.709883008  nElectrons: 762.000000
LCAOMinimize: Iter:  12  F: -5698.9325415338253151  |grad|_K:  1.729e-02  alpha:  1.073e-02  linmin:  3.050e-02  cgtest: -1.874e-01  t[s]:    720.44
LCAOMinimize: 	Predicted alpha/alphaT>3.000000, increasing alphaT to 3.217625e-02.
	FillingsUpdate:  mu: -0.558432906  nElectrons: 762.000000
LCAOMinimize: Iter:  13  F: -5703.0791291536315839  |grad|_K:  4.774e-02  alpha:  3.767e-02  linmin: -6.249e-03  cgtest:  5.567e-01  t[s]:    778.68
	FillingsUpdate:  mu: +0.159977012  nElectrons: 762.000000
LCAOMinimize: Iter:  14  F: -5720.4762713341888229  |grad|_K:  1.307e-02  alpha:  1.211e-02  linmin:  6.161e-02  cgtest:  4.912e-01  t[s]:    824.70
LCAOMinimize: Encountered beta<0, resetting CG.
LCAOMinimize: 	Predicted alpha/alphaT>3.000000, increasing alphaT to 3.632362e-02.
	FillingsUpdate:  mu: +0.022980102  nElectrons: 762.000000
LCAOMinimize: Iter:  15  F: -5724.9939902878832072  |grad|_K:  9.431e-03  alpha:  6.090e-02  linmin:  1.236e-02  cgtest:  2.481e-02  t[s]:    883.67
	FillingsUpdate:  mu: -0.106057317  nElectrons: 762.000000
LCAOMinimize: Iter:  16  F: -5727.5361156957351341  |grad|_K:  1.191e-02  alpha:  7.299e-02  linmin:  2.906e-02  cgtest: -1.185e-01  t[s]:    928.81
	FillingsUpdate:  mu: -0.111906403  nElectrons: 762.000000
LCAOMinimize: Iter:  17  F: -5728.1285408581707088  |grad|_K:  1.106e-02  alpha:  1.465e-02  linmin:  5.352e-03  cgtest:  6.369e-01  t[s]:    973.45
	FillingsUpdate:  mu: -0.144672310  nElectrons: 762.000000
LCAOMinimize: Iter:  18  F: -5730.0843696605534205  |grad|_K:  6.936e-03  alpha:  3.922e-02  linmin:  3.201e-02  cgtest: -2.551e-01  t[s]:   1019.59
	FillingsUpdate:  mu: -0.122240246  nElectrons: 762.000000
LCAOMinimize: Iter:  19  F: -5730.8514734953896550  |grad|_K:  8.168e-03  alpha:  4.248e-02  linmin: -4.363e-03  cgtest:  2.253e-01  t[s]:   1065.35
	FillingsUpdate:  mu: -0.061686346  nElectrons: 762.000000
LCAOMinimize: Iter:  20  F: -5732.4389699422345075  |grad|_K:  5.189e-03  alpha:  5.129e-02  linmin: -1.897e-02  cgtest: -1.077e-02  t[s]:   1111.57
	FillingsUpdate:  mu: -0.040227339  nElectrons: 762.000000
LCAOMinimize: Iter:  21  F: -5732.7469209823339042  |grad|_K:  2.987e-03  alpha:  2.741e-02  linmin:  1.346e-02  cgtest: -3.531e-01  t[s]:   1156.85
	FillingsUpdate:  mu: -0.041695329  nElectrons: 762.000000
LCAOMinimize: Iter:  22  F: -5732.8815588726665737  |grad|_K:  2.253e-03  alpha:  3.780e-02  linmin:  2.804e-04  cgtest:  3.088e-01  t[s]:   1202.78
	FillingsUpdate:  mu: -0.049294323  nElectrons: 762.000000
LCAOMinimize: Iter:  23  F: -5732.9521902472879447  |grad|_K:  1.485e-03  alpha:  3.101e-02  linmin:  7.365e-03  cgtest: -2.587e-02  t[s]:   1248.90
	FillingsUpdate:  mu: -0.059353033  nElectrons: 762.000000
LCAOMinimize: Iter:  24  F: -5732.9844287764808541  |grad|_K:  1.103e-03  alpha:  3.443e-02  linmin:  4.027e-03  cgtest:  4.993e-02  t[s]:   1294.65
	FillingsUpdate:  mu: -0.068512671  nElectrons: 762.000000
LCAOMinimize: Iter:  25  F: -5733.0109245931662372  |grad|_K:  9.462e-04  alpha:  5.038e-02  linmin: -9.677e-04  cgtest: -1.211e-02  t[s]:   1367.43
	FillingsUpdate:  mu: -0.074253315  nElectrons: 762.000000
LCAOMinimize: Iter:  26  F: -5733.0246752452694636  |grad|_K:  7.373e-04  alpha:  3.445e-02  linmin:  1.103e-04  cgtest: -4.052e-03  t[s]:   1418.29
	FillingsUpdate:  mu: -0.079414921  nElectrons: 762.000000
LCAOMinimize: Iter:  27  F: -5733.0328203942926848  |grad|_K:  4.851e-04  alpha:  3.415e-02  linmin:  3.237e-03  cgtest:  5.219e-02  t[s]:   1466.07
	FillingsUpdate:  mu: -0.077869163  nElectrons: 762.000000
LCAOMinimize: Iter:  28  F: -5733.0367185759514541  |grad|_K:  4.685e-04  alpha:  3.827e-02  linmin: -5.248e-04  cgtest:  2.762e-02  t[s]:   1514.33
	FillingsUpdate:  mu: -0.075397914  nElectrons: 762.000000
LCAOMinimize: Iter:  29  F: -5733.0405707450545378  |grad|_K:  3.307e-04  alpha:  3.983e-02  linmin: -1.351e-03  cgtest: -6.359e-02  t[s]:   1562.36
	FillingsUpdate:  mu: -0.072408296  nElectrons: 762.000000
LCAOMinimize: Iter:  30  F: -5733.0432002048246432  |grad|_K:  2.916e-04  alpha:  5.457e-02  linmin:  1.552e-03  cgtest: -1.818e-02  t[s]:   1610.13
LCAOMinimize: None of the convergence criteria satisfied after 30 iterations.
----- createFluidSolver() ----- (Fluid-side solver setup)
   Initializing fluid molecule 'H2O'
     Initializing site 'O'
       Electron density: proportional to exp(-r/0.36935)*erfc((r-0.51523)/0.36823) with norm 6.826
       Charge density: gaussian nuclear width 0.478731 with net site charge 0.826
       Polarizability: cuspless exponential with width 0.32 and norm 3.73
       Hard sphere radius: 2.57003 bohrs
       Positions in reference frame:
         [ +0.000000 +0.000000 +0.000000 ]
     Initializing site 'H'
       Electron density: proportional to exp(-r/0.34641)*erfc((r-0)/0.390882) with norm 0.587
       Charge density: gaussian nuclear width 0.377945 with net site charge -0.413
       Polarizability: cuspless exponential with width 0.39 and norm 3.3
       Positions in reference frame:
         [ +0.000000 -1.441945 +1.122523 ]
         [ +0.000000 +1.441945 +1.122523 ]
     Net charge: 0   dipole magnitude: 0.927204
     Initializing spherical shell mfKernel with radius 2.61727 Bohr
     deltaS corrections:
       site 'O': -7.54299
       site 'H': -6.83917
   Initializing fluid molecule 'Na+'
     Initializing site 'Na'
       Electron density: proportional to exp(-r/0.19682)*erfc((r-0.71491)/0.41314) with norm 8.1383
       Charge density: gaussian nuclear width 0.365347 with net site charge -1
       Hard sphere radius: 1.86327 bohrs
       Positions in reference frame:
         [ +0.000000 +0.000000 +0.000000 ]
     Net charge: -1   dipole magnitude: 0
     Initializing gaussian mfKernel with width: 1.55004 Bohr
     deltaS corrections:
       site 'Na': -22.3555
   Initializing fluid molecule 'F-'
     Initializing site 'F'
       Electron density: proportional to exp(-r/0.38886)*erfc((r-0)/0.438782) with norm 8
       Charge density: gaussian nuclear width 0.374796 with net site charge 1
       Hard sphere radius: 2.39995 bohrs
       Positions in reference frame:
         [ +0.000000 +0.000000 +0.000000 ]
     Net charge: 1   dipole magnitude: 0
     Initializing gaussian mfKernel with width: 1.59012 Bohr
     deltaS corrections:
       site 'F': -9.04335

Correction to mu due to finite nuclear width = -0.0151512
   Cavity determined by nc: 0.00142 and sigma: 0.707107
   Nonlocal vdW cavity from gaussian model electron density with norm = 8 and sigma = 0.993594 bohr
   Charge asymmetry in cavity with sensitivity pCavity = 36.5 e-bohr/Eh
   Electrostatic cavity expanded by eta = 1.46 bohrs
   Weighted density cavitation model constrained by Nbulk: 0.0049383 bohr^-3, Pvap: 3.14029 kPa, Rvdw: 2.61727 bohr and sigmaBulk: 4.62e-05 Eh/bohr^2 at T: 298 K.
   Weighted density dispersion model using vdW pair potentials with single solvent site with sqrtC6eff: 0.77 SI.


---- Citations for features of the code used in this run ----

   Software package:
      R. Sundararaman, K. Letchworth-Weaver, K.A. Schwarz, D. Gunceler, Y. Ozhabes and T.A. Arias, 'JDFTx: software for joint density-functional theory', SoftwareX 6, 278 (2017)

   gga-PBE exchange-correlation functional:
      J.P. Perdew, K. Burke and M. Ernzerhof, Phys. Rev. Lett. 77, 3865 (1996)

   Pseudopotentials:
      KF Garrity, JW Bennett, KM Rabe and D Vanderbilt, Comput. Mater. Sci. 81, 446 (2014)

   Truncated Coulomb potentials:
      R. Sundararaman and T.A. Arias, Phys. Rev. B 87, 165122 (2013)

   Van der Waals correction pair-potentials:
      S. Grimme, J. Comput. Chem. 27, 1787 (2006)

   Charge-asymmetric nonlocally-determined local-electric (CANDLE) solvation model:
      R. Sundararaman and W.A. Goddard III, J. Chem. Phys. 142, 064107 (2015)

This list may not be complete. Please suggest additional citations or
report any other bugs at https://github.com/shankar1729/jdftx/issues

Initialization completed successfully at t[s]:   1621.89

Fluid solver invoked on fresh (partially random / LCAO) wavefunctions
Running a vacuum solve first:

-------- Initial electronic minimization -----------
Will mix electronic density at each iteration.
	FillingsUpdate:  mu: -0.072408275  nElectrons: 762.000000
	FillingsUpdate:  mu: -0.081690805  nElectrons: 762.000000
SCF: Cycle:  0   F: -5727.231483849438519   dF: +5.812e+00   |Residual|: 2.930e+00   |deigs|: 7.336e-02  t[s]:   1790.24
	FillingsUpdate:  mu: -0.158998239  nElectrons: 762.000000
SCF: Cycle:  1   F: -5701.392021337886035   dF: +2.584e+01   |Residual|: 4.627e+00   |deigs|: 1.525e-01  t[s]:   1922.96
	FillingsUpdate:  mu: -0.115697188  nElectrons: 762.000000
SCF: Cycle:  2   F: -5734.832461623097515   dF: -3.344e+01   |Residual|: 7.886e-01   |deigs|: 1.135e-01  t[s]:   2055.39
	FillingsUpdate:  mu: -0.114675374  nElectrons: 762.000000
SCF: Cycle:  3   F: -5735.741064726483273   dF: -9.086e-01   |Residual|: 6.147e-01   |deigs|: 5.740e-03  t[s]:   2190.91
	FillingsUpdate:  mu: -0.101307606  nElectrons: 762.000000
SCF: Cycle:  4   F: -5735.483033076754509   dF: +2.580e-01   |Residual|: 7.730e-01   |deigs|: 1.483e-02  t[s]:   2325.94
	FillingsUpdate:  mu: -0.102174362  nElectrons: 762.000000
SCF: Cycle:  5   F: -5735.541428382392041   dF: -5.840e-02   |Residual|: 7.099e-01   |deigs|: 2.352e-03  t[s]:   2460.12
	FillingsUpdate:  mu: -0.105046419  nElectrons: 762.000000
SCF: Cycle:  6   F: -5736.618728613252642   dF: -1.077e+00   |Residual|: 3.310e-01   |deigs|: 4.774e-03  t[s]:   2593.43
	FillingsUpdate:  mu: -0.104533026  nElectrons: 762.000000
SCF: Cycle:  7   F: -5736.819906303749121   dF: -2.012e-01   |Residual|: 1.854e-01   |deigs|: 1.684e-03  t[s]:   2750.26
	FillingsUpdate:  mu: -0.099604254  nElectrons: 762.000000
SCF: Cycle:  8   F: -5736.885304780106708   dF: -6.540e-02   |Residual|: 1.294e-01   |deigs|: 5.135e-03  t[s]:   2881.55
	FillingsUpdate:  mu: -0.098453145  nElectrons: 762.000000
SCF: Cycle:  9   F: -5736.917699089385678   dF: -3.239e-02   |Residual|: 8.481e-02   |deigs|: 1.287e-03  t[s]:   3012.01
	FillingsUpdate:  mu: -0.094867492  nElectrons: 762.000000
SCF: Cycle: 10   F: -5736.928811864469935   dF: -1.111e-02   |Residual|: 5.836e-02   |deigs|: 3.509e-03  t[s]:   3142.66
	FillingsUpdate:  mu: -0.094494739  nElectrons: 762.000000
SCF: Cycle: 11   F: -5736.936673150737079   dF: -7.861e-03   |Residual|: 3.342e-02   |deigs|: 4.117e-04  t[s]:   3273.10
	FillingsUpdate:  mu: -0.090593978  nElectrons: 762.000000
SCF: Cycle: 12   F: -5736.937260936731946   dF: -5.878e-04   |Residual|: 3.829e-02   |deigs|: 3.657e-03  t[s]:   3402.54
	FillingsUpdate:  mu: -0.091033678  nElectrons: 762.000000
SCF: Cycle: 13   F: -5736.937407094877926   dF: -1.462e-04   |Residual|: 3.631e-02   |deigs|: 4.789e-04  t[s]:   3531.80
	FillingsUpdate:  mu: -0.087671746  nElectrons: 762.000000
SCF: Cycle: 14   F: -5736.940488684161210   dF: -3.082e-03   |Residual|: 1.754e-02   |deigs|: 3.177e-03  t[s]:   3661.58
	FillingsUpdate:  mu: -0.087294164  nElectrons: 762.000000
SCF: Cycle: 15   F: -5736.938975682311138   dF: +1.513e-03   |Residual|: 3.001e-02   |deigs|: 4.165e-04  t[s]:   3792.77
	FillingsUpdate:  mu: -0.086145924  nElectrons: 762.000000
SCF: Cycle: 16   F: -5736.940999251406538   dF: -2.024e-03   |Residual|: 1.135e-02   |deigs|: 1.119e-03  t[s]:   3922.46
	FillingsUpdate:  mu: -0.083746613  nElectrons: 762.000000
SCF: Cycle: 17   F: -5736.940694703484041   dF: +3.045e-04   |Residual|: 1.821e-02   |deigs|: 2.365e-03  t[s]:   4053.49
	FillingsUpdate:  mu: -0.082974307  nElectrons: 762.000000
SCF: Cycle: 18   F: -5736.941259110691135   dF: -5.644e-04   |Residual|: 9.010e-03   |deigs|: 7.960e-04  t[s]:   4182.67
	FillingsUpdate:  mu: -0.082762236  nElectrons: 762.000000
SCF: Cycle: 19   F: -5736.940168422922397   dF: +1.091e-03   |Residual|: 2.317e-02   |deigs|: 2.412e-04  t[s]:   4312.38
	FillingsUpdate:  mu: -0.081461877  nElectrons: 762.000000
SCF: Cycle: 20   F: -5736.941227048119799   dF: -1.059e-03   |Residual|: 1.025e-02   |deigs|: 1.383e-03  t[s]:   4442.75
	FillingsUpdate:  mu: -0.080958822  nElectrons: 762.000000
SCF: Cycle: 21   F: -5736.941332544236502   dF: -1.055e-04   |Residual|: 5.902e-03   |deigs|: 6.742e-04  t[s]:   4575.28
	FillingsUpdate:  mu: -0.079452218  nElectrons: 762.000000
SCF: Cycle: 22   F: -5736.941229174026375   dF: +1.034e-04   |Residual|: 9.324e-03   |deigs|: 1.724e-03  t[s]:   4719.18
	FillingsUpdate:  mu: -0.078652370  nElectrons: 762.000000
SCF: Cycle: 23   F: -5736.941045661214957   dF: +1.835e-04   |Residual|: 1.183e-02   |deigs|: 8.894e-04  t[s]:   4851.68
	FillingsUpdate:  mu: -0.077529565  nElectrons: 762.000000
SCF: Cycle: 24   F: -5736.941341255446787   dF: -2.956e-04   |Residual|: 6.982e-03   |deigs|: 1.213e-03  t[s]:   4982.11
	FillingsUpdate:  mu: -0.076785442  nElectrons: 762.000000
SCF: Cycle: 25   F: -5736.941224612332917   dF: +1.166e-04   |Residual|: 1.064e-02   |deigs|: 7.664e-04  t[s]:   5111.67
	FillingsUpdate:  mu: -0.076244356  nElectrons: 762.000000
SCF: Cycle: 26   F: -5736.941430470137675   dF: -2.059e-04   |Residual|: 6.234e-03   |deigs|: 5.855e-04  t[s]:   5244.35
	FillingsUpdate:  mu: -0.076196058  nElectrons: 762.000000
SCF: Cycle: 27   F: -5736.941288003136833   dF: +1.425e-04   |Residual|: 8.471e-03   |deigs|: 1.498e-04  t[s]:   5392.43
	FillingsUpdate:  mu: -0.075445734  nElectrons: 762.000000
SCF: Cycle: 28   F: -5736.941437442696042   dF: -1.494e-04   |Residual|: 6.046e-03   |deigs|: 7.828e-04  t[s]:   5522.75
	FillingsUpdate:  mu: -0.074966645  nElectrons: 762.000000
SCF: Cycle: 29   F: -5736.941482211033872   dF: -4.477e-05   |Residual|: 4.024e-03   |deigs|: 5.090e-04  t[s]:   5654.81
	FillingsUpdate:  mu: -0.074253804  nElectrons: 762.000000
SCF: Cycle: 30   F: -5736.941417205128346   dF: +6.501e-05   |Residual|: 7.022e-03   |deigs|: 7.865e-04  t[s]:   5784.94
	FillingsUpdate:  mu: -0.074066188  nElectrons: 762.000000
SCF: Cycle: 31   F: -5736.941484879729614   dF: -6.767e-05   |Residual|: 4.875e-03   |deigs|: 2.039e-04  t[s]:   5913.81
	FillingsUpdate:  mu: -0.073812656  nElectrons: 762.000000
SCF: Cycle: 32   F: -5736.941511791850644   dF: -2.691e-05   |Residual|: 3.031e-03   |deigs|: 2.822e-04  t[s]:   6043.63
	FillingsUpdate:  mu: -0.073380074  nElectrons: 762.000000
SCF: Cycle: 33   F: -5736.941524777502309   dF: -1.299e-05   |Residual|: 2.641e-03   |deigs|: 4.886e-04  t[s]:   6172.51
	FillingsUpdate:  mu: -0.073216048  nElectrons: 762.000000
SCF: Cycle: 34   F: -5736.941527493535432   dF: -2.716e-06   |Residual|: 2.315e-03   |deigs|: 2.011e-04  t[s]:   6301.66
	FillingsUpdate:  mu: -0.073166357  nElectrons: 762.000000
SCF: Cycle: 35   F: -5736.941540751054163   dF: -1.326e-05   |Residual|: 1.525e-03   |deigs|: 1.094e-04  t[s]:   6434.08
	FillingsUpdate:  mu: -0.073088468  nElectrons: 762.000000
SCF: Cycle: 36   F: -5736.941528777521853   dF: +1.197e-05   |Residual|: 2.819e-03   |deigs|: 1.432e-04  t[s]:   6563.85
	FillingsUpdate:  mu: -0.072877253  nElectrons: 762.000000
SCF: Cycle: 37   F: -5736.941538463296638   dF: -9.686e-06   |Residual|: 1.975e-03   |deigs|: 2.931e-04  t[s]:   6693.92
	FillingsUpdate:  mu: -0.072897044  nElectrons: 762.000000
SCF: Cycle: 38   F: -5736.941529350937344   dF: +9.112e-06   |Residual|: 2.534e-03   |deigs|: 4.292e-05  t[s]:   6821.31
	FillingsUpdate:  mu: -0.072835520  nElectrons: 762.000000
SCF: Cycle: 39   F: -5736.941543466870826   dF: -1.412e-05   |Residual|: 1.658e-03   |deigs|: 1.499e-04  t[s]:   6952.51
	FillingsUpdate:  mu: -0.072818639  nElectrons: 762.000000
SCF: Cycle: 40   F: -5736.941547465077747   dF: -3.998e-06   |Residual|: 1.017e-03   |deigs|: 7.810e-05  t[s]:   7103.56
	FillingsUpdate:  mu: -0.072759278  nElectrons: 762.000000
SCF: Cycle: 41   F: -5736.941546321660098   dF: +1.143e-06   |Residual|: 1.498e-03   |deigs|: 3.375e-04  t[s]:   7232.83
	FillingsUpdate:  mu: -0.072766534  nElectrons: 762.000000
SCF: Cycle: 42   F: -5736.941549814673635   dF: -3.493e-06   |Residual|: 9.571e-04   |deigs|: 2.066e-05  t[s]:   7361.96
	FillingsUpdate:  mu: -0.072766628  nElectrons: 762.000000
SCF: Cycle: 43   F: -5736.941550910069964   dF: -1.095e-06   |Residual|: 6.635e-04   |deigs|: 8.212e-05  t[s]:   7487.96
	FillingsUpdate:  mu: -0.072773890  nElectrons: 762.000000
SCF: Cycle: 44   F: -5736.941551757149682   dF: -8.471e-07   |Residual|: 7.187e-04   |deigs|: 2.345e-04  t[s]:   7616.14
	FillingsUpdate:  mu: -0.072795520  nElectrons: 762.000000
SCF: Cycle: 45   F: -5736.941551184540913   dF: +5.726e-07   |Residual|: 9.064e-04   |deigs|: 4.949e-05  t[s]:   7745.81
	FillingsUpdate:  mu: -0.072776138  nElectrons: 762.000000
SCF: Cycle: 46   F: -5736.941552784332998   dF: -1.600e-06   |Residual|: 7.775e-04   |deigs|: 7.059e-05  t[s]:   7874.25
	FillingsUpdate:  mu: -0.072801991  nElectrons: 762.000000
SCF: Cycle: 47   F: -5736.941553369174471   dF: -5.848e-07   |Residual|: 8.230e-04   |deigs|: 8.387e-05  t[s]:   8004.34
	FillingsUpdate:  mu: -0.072838519  nElectrons: 762.000000
SCF: Cycle: 48   F: -5736.941554210252434   dF: -8.411e-07   |Residual|: 6.080e-04   |deigs|: 5.897e-05  t[s]:   8133.32
	FillingsUpdate:  mu: -0.072858521  nElectrons: 762.000000
SCF: Cycle: 49   F: -5736.941552045632307   dF: +2.165e-06   |Residual|: 1.007e-03   |deigs|: 3.902e-05  t[s]:   8261.83
	FillingsUpdate:  mu: -0.072878918  nElectrons: 762.000000
SCF: Cycle: 50   F: -5736.941554257661664   dF: -2.212e-06   |Residual|: 7.074e-04   |deigs|: 8.031e-05  t[s]:   8390.71
	FillingsUpdate:  mu: -0.072892574  nElectrons: 762.000000
SCF: Cycle: 51   F: -5736.941554751469994   dF: -4.938e-07   |Residual|: 5.262e-04   |deigs|: 4.955e-05  t[s]:   8518.43
	FillingsUpdate:  mu: -0.072998059  nElectrons: 762.000000
SCF: Cycle: 52   F: -5736.941554406605974   dF: +3.449e-07   |Residual|: 7.731e-04   |deigs|: 1.666e-04  t[s]:   8647.66
	FillingsUpdate:  mu: -0.072995194  nElectrons: 762.000000
SCF: Cycle: 53   F: -5736.941554594043737   dF: -1.874e-07   |Residual|: 7.637e-04   |deigs|: 9.188e-06  t[s]:   8776.96
	FillingsUpdate:  mu: -0.073014764  nElectrons: 762.000000
SCF: Cycle: 54   F: -5736.941554557750351   dF: +3.629e-08   |Residual|: 6.687e-04   |deigs|: 4.970e-05  t[s]:   8906.05
	FillingsUpdate:  mu: -0.073117248  nElectrons: 762.000000
SCF: Cycle: 55   F: -5736.941555205115947   dF: -6.474e-07   |Residual|: 5.562e-04   |deigs|: 1.529e-04  t[s]:   9036.23
	FillingsUpdate:  mu: -0.073159052  nElectrons: 762.000000
SCF: Cycle: 56   F: -5736.941555314322613   dF: -1.092e-07   |Residual|: 4.786e-04   |deigs|: 6.337e-05  t[s]:   9166.79
	FillingsUpdate:  mu: -0.073198708  nElectrons: 762.000000
SCF: Cycle: 57   F: -5736.941555748377141   dF: -4.341e-07   |Residual|: 3.568e-04   |deigs|: 3.709e-05  t[s]:   9318.86
	FillingsUpdate:  mu: -0.073267709  nElectrons: 762.000000
SCF: Cycle: 58   F: -5736.941555278497617   dF: +4.699e-07   |Residual|: 6.006e-04   |deigs|: 6.838e-05  t[s]:   9447.46
	FillingsUpdate:  mu: -0.073317107  nElectrons: 762.000000
SCF: Cycle: 59   F: -5736.941555391691509   dF: -1.132e-07   |Residual|: 5.380e-04   |deigs|: 7.136e-05  t[s]:   9576.01
	FillingsUpdate:  mu: -0.073351692  nElectrons: 762.000000
SCF: Cycle: 60   F: -5736.941553982486766   dF: +1.409e-06   |Residual|: 8.620e-04   |deigs|: 3.266e-05  t[s]:   9706.12
	FillingsUpdate:  mu: -0.073396553  nElectrons: 762.000000
SCF: Cycle: 61   F: -5736.941555221285853   dF: -1.239e-06   |Residual|: 6.146e-04   |deigs|: 5.184e-05  t[s]:   9835.07
	FillingsUpdate:  mu: -0.073421155  nElectrons: 762.000000
SCF: Cycle: 62   F: -5736.941555590819917   dF: -3.695e-07   |Residual|: 4.360e-04   |deigs|: 2.613e-05  t[s]:   9964.99
	FillingsUpdate:  mu: -0.073527172  nElectrons: 762.000000
SCF: Cycle: 63   F: -5736.941555613317178   dF: -2.250e-08   |Residual|: 4.578e-04   |deigs|: 1.028e-04  t[s]:  10093.99
	FillingsUpdate:  mu: -0.073532177  nElectrons: 762.000000
SCF: Cycle: 64   F: -5736.941555644161781   dF: -3.084e-08   |Residual|: 4.673e-04   |deigs|: 8.330e-06  t[s]:  10221.64
	FillingsUpdate:  mu: -0.073547956  nElectrons: 762.000000
SCF: Cycle: 65   F: -5736.941555744702782   dF: -1.005e-07   |Residual|: 3.442e-04   |deigs|: 1.816e-05  t[s]:  10350.06
	FillingsUpdate:  mu: -0.073593068  nElectrons: 762.000000
SCF: Cycle: 66   F: -5736.941555941267325   dF: -1.966e-07   |Residual|: 2.331e-04   |deigs|: 4.416e-05  t[s]:  10481.18
	FillingsUpdate:  mu: -0.073612401  nElectrons: 762.000000
SCF: Cycle: 67   F: -5736.941555894477460   dF: +4.679e-08   |Residual|: 2.889e-04   |deigs|: 1.996e-05  t[s]:  10615.57
	FillingsUpdate:  mu: -0.073641923  nElectrons: 762.000000
SCF: Cycle: 68   F: -5736.941555977680764   dF: -8.320e-08   |Residual|: 2.491e-04   |deigs|: 3.727e-05  t[s]:  10748.04
	FillingsUpdate:  mu: -0.073662078  nElectrons: 762.000000
SCF: Cycle: 69   F: -5736.941555928825437   dF: +4.886e-08   |Residual|: 3.087e-04   |deigs|: 3.181e-05  t[s]:  10875.15
	FillingsUpdate:  mu: -0.073673709  nElectrons: 762.000000
SCF: Cycle: 70   F: -5736.941556029144522   dF: -1.003e-07   |Residual|: 2.123e-04   |deigs|: 3.013e-05  t[s]:  11010.24
	FillingsUpdate:  mu: -0.073680760  nElectrons: 762.000000
SCF: Cycle: 71   F: -5736.941555795842760   dF: +2.333e-07   |Residual|: 3.447e-04   |deigs|: 3.992e-05  t[s]:  11143.36
	FillingsUpdate:  mu: -0.073686816  nElectrons: 762.000000
SCF: Cycle: 72   F: -5736.941556032479639   dF: -2.366e-07   |Residual|: 2.375e-04   |deigs|: 4.386e-05  t[s]:  11275.85
	FillingsUpdate:  mu: -0.073692662  nElectrons: 762.000000
SCF: Cycle: 73   F: -5736.941556104715346   dF: -7.224e-08   |Residual|: 1.549e-04   |deigs|: 4.716e-05  t[s]:  11410.31
	FillingsUpdate:  mu: -0.073696162  nElectrons: 762.000000
SCF: Cycle: 74   F: -5736.941556144362039   dF: -3.965e-08   |Residual|: 1.337e-04   |deigs|: 1.450e-04  t[s]:  11541.99
	FillingsUpdate:  mu: -0.073695618  nElectrons: 762.000000
SCF: Cycle: 75   F: -5736.941556108972691   dF: +3.539e-08   |Residual|: 1.920e-04   |deigs|: 1.279e-05  t[s]:  11671.26
	FillingsUpdate:  mu: -0.073696522  nElectrons: 762.000000
SCF: Cycle: 76   F: -5736.941556102331560   dF: +6.641e-09   |Residual|: 1.699e-04   |deigs|: 2.527e-05  t[s]:  11801.75
	FillingsUpdate:  mu: -0.073697848  nElectrons: 762.000000
SCF: Cycle: 77   F: -5736.941556163523273   dF: -6.119e-08   |Residual|: 1.087e-04   |deigs|: 8.728e-05  t[s]:  11935.06
	FillingsUpdate:  mu: -0.073701170  nElectrons: 762.000000
SCF: Cycle: 78   F: -5736.941556175152982   dF: -1.163e-08   |Residual|: 1.188e-04   |deigs|: 5.203e-05  t[s]:  12065.55
	FillingsUpdate:  mu: -0.073696714  nElectrons: 762.000000
SCF: Cycle: 79   F: -5736.941556218333062   dF: -4.318e-08   |Residual|: 6.976e-05   |deigs|: 5.994e-06  t[s]:  12188.80
	FillingsUpdate:  mu: -0.073693787  nElectrons: 762.000000
SCF: Cycle: 80   F: -5736.941556215389028   dF: +2.944e-09   |Residual|: 9.426e-05   |deigs|: 7.016e-06  t[s]:  12312.09
	FillingsUpdate:  mu: -0.073691926  nElectrons: 762.000000
SCF: Cycle: 81   F: -5736.941556220834173   dF: -5.445e-09   |Residual|: 6.998e-05   |deigs|: 1.690e-05  t[s]:  12435.04
	FillingsUpdate:  mu: -0.073686770  nElectrons: 762.000000
SCF: Cycle: 82   F: -5736.941556195591147   dF: +2.524e-08   |Residual|: 1.172e-04   |deigs|: 6.276e-06  t[s]:  12559.22
	FillingsUpdate:  mu: -0.073684619  nElectrons: 762.000000
SCF: Cycle: 83   F: -5736.941556206060341   dF: -1.047e-08   |Residual|: 1.113e-04   |deigs|: 4.802e-06  t[s]:  12681.34
	FillingsUpdate:  mu: -0.073681343  nElectrons: 762.000000
SCF: Cycle: 84   F: -5736.941556219764607   dF: -1.370e-08   |Residual|: 9.492e-05   |deigs|: 5.081e-06  t[s]:  12800.96
	FillingsUpdate:  mu: -0.073665764  nElectrons: 762.000000
SCF: Cycle: 85   F: -5736.941556233136907   dF: -1.337e-08   |Residual|: 8.965e-05   |deigs|: 1.838e-05  t[s]:  12927.57
	FillingsUpdate:  mu: -0.073663623  nElectrons: 762.000000
SCF: Cycle: 86   F: -5736.941556214278535   dF: +1.886e-08   |Residual|: 1.323e-04   |deigs|: 5.042e-06  t[s]:  13050.33
	FillingsUpdate:  mu: -0.073663647  nElectrons: 762.000000
SCF: Cycle: 87   F: -5736.941556211518218   dF: +2.760e-09   |Residual|: 1.119e-04   |deigs|: 3.373e-06  t[s]:  13175.35
	FillingsUpdate:  mu: -0.073651883  nElectrons: 762.000000
SCF: Cycle: 88   F: -5736.941556248971210   dF: -3.745e-08   |Residual|: 5.197e-05   |deigs|: 2.047e-05  t[s]:  13301.26
	FillingsUpdate:  mu: -0.073642933  nElectrons: 762.000000
SCF: Cycle: 89   F: -5736.941556245382344   dF: +3.589e-09   |Residual|: 7.297e-05   |deigs|: 1.997e-05  t[s]:  13419.18
	FillingsUpdate:  mu: -0.073635957  nElectrons: 762.000000
SCF: Cycle: 90   F: -5736.941556251140355   dF: -5.758e-09   |Residual|: 6.755e-05   |deigs|: 1.313e-05  t[s]:  13538.15
	FillingsUpdate:  mu: -0.073628262  nElectrons: 762.000000
SCF: Cycle: 91   F: -5736.941556248365487   dF: +2.775e-09   |Residual|: 9.321e-05   |deigs|: 1.977e-05  t[s]:  13659.45
	FillingsUpdate:  mu: -0.073618307  nElectrons: 762.000000
SCF: Cycle: 92   F: -5736.941556253166709   dF: -4.801e-09   |Residual|: 6.253e-05   |deigs|: 2.891e-05  t[s]:  13779.18
	FillingsUpdate:  mu: -0.073608571  nElectrons: 762.000000
SCF: Cycle: 93   F: -5736.941556234234667   dF: +1.893e-08   |Residual|: 1.078e-04   |deigs|: 3.570e-05  t[s]:  13898.49
	FillingsUpdate:  mu: -0.073604230  nElectrons: 762.000000
SCF: Cycle: 94   F: -5736.941556255035721   dF: -2.080e-08   |Residual|: 9.894e-05   |deigs|: 1.239e-05  t[s]:  14017.25
	FillingsUpdate:  mu: -0.073600727  nElectrons: 762.000000
SCF: Cycle: 95   F: -5736.941556269021930   dF: -1.399e-08   |Residual|: 7.300e-05   |deigs|: 8.278e-06  t[s]:  14137.56
	FillingsUpdate:  mu: -0.073585632  nElectrons: 762.000000
SCF: Cycle: 96   F: -5736.941556284806211   dF: -1.578e-08   |Residual|: 4.620e-05   |deigs|: 6.712e-05  t[s]:  14255.21
	FillingsUpdate:  mu: -0.073584306  nElectrons: 762.000000
SCF: Cycle: 97   F: -5736.941556274109644   dF: +1.070e-08   |Residual|: 8.336e-05   |deigs|: 1.265e-05  t[s]:  14378.45
	FillingsUpdate:  mu: -0.073584967  nElectrons: 762.000000
SCF: Cycle: 98   F: -5736.941556269839566   dF: +4.270e-09   |Residual|: 8.528e-05   |deigs|: 1.665e-06  t[s]:  14496.96
	FillingsUpdate:  mu: -0.073575539  nElectrons: 762.000000
SCF: Cycle: 99   F: -5736.941556289101754   dF: -1.926e-08   |Residual|: 4.261e-05   |deigs|: 5.446e-05  t[s]:  14612.86
	FillingsUpdate:  mu: -0.073568878  nElectrons: 762.000000
SCF: Cycle: 100   F: -5736.941556290524204   dF: -1.422e-09   |Residual|: 4.821e-05   |deigs|: 4.159e-05  t[s]:  14731.28
	FillingsUpdate:  mu: -0.073567066  nElectrons: 762.000000
SCF: Cycle: 101   F: -5736.941556289603795   dF: +9.204e-10   |Residual|: 3.104e-05   |deigs|: 2.367e-05  t[s]:  14842.18
	FillingsUpdate:  mu: -0.073565307  nElectrons: 762.000000
SCF: Cycle: 102   F: -5736.941556294354996   dF: -4.751e-09   |Residual|: 4.676e-05   |deigs|: 2.617e-05  t[s]:  14953.82
	FillingsUpdate:  mu: -0.073561753  nElectrons: 762.000000
SCF: Cycle: 103   F: -5736.941556294868860   dF: -5.139e-10   |Residual|: 2.784e-05   |deigs|: 3.975e-05  t[s]:  15062.00
SCF: Converged (|Delta E|<1.000000e-08 for 2 iters).

Vacuum energy after initial minimize, F = -5736.941556294868860

	FillingsUpdate:  mu: -0.073561753  nElectrons: 762.000000
	Linear fluid (dielectric constant: 78.4, screening length: 5.74355 Bohr) occupying 0.734803 of unit cell:	Completed after 18 iterations at t[s]:  15078.63

-------- Electronic minimization -----------
Will mix electronic density at each iteration.
	FillingsUpdate:  mu: -0.073561753  nElectrons: 762.000000
	Linear fluid (dielectric constant: 78.4, screening length: 5.74355 Bohr) occupying 0.734803 of unit cell:	Completed after 0 iterations at t[s]:  15091.99
	FillingsUpdate:  mu: -0.159167225  nElectrons: 762.000000
	Linear fluid (dielectric constant: 78.4, screening length: 5.74355 Bohr) occupying 0.735976 of unit cell:	Completed after 17 iterations at t[s]:  15241.64
SCF: Cycle:  0   F: -5736.930150752945337   dF: +2.217e-03   |Residual|: 2.345e-02   |deigs|: 1.054e-04  t[s]:  15243.17
	Linear fluid (dielectric constant: 78.4, screening length: 5.74355 Bohr) occupying 0.734698 of unit cell:	Completed after 16 iterations at t[s]:  15246.11
	FillingsUpdate:  mu: -0.158102237  nElectrons: 762.000000
	Linear fluid (dielectric constant: 78.4, screening length: 5.74355 Bohr) occupying 0.735821 of unit cell:	Completed after 19 iterations at t[s]:  15377.72
SCF: Cycle:  1   F: -5736.834286605310808   dF: +9.586e-02   |Residual|: 1.876e-01   |deigs|: 1.605e-03  t[s]:  15379.10
	Linear fluid (dielectric constant: 78.4, screening length: 5.74355 Bohr) occupying 0.734710 of unit cell:	Completed after 19 iterations at t[s]:  15382.47
	FillingsUpdate:  mu: -0.158408124  nElectrons: 762.000000
	Linear fluid (dielectric constant: 78.4, screening length: 5.74355 Bohr) occupying 0.735882 of unit cell:	Completed after 16 iterations at t[s]:  15514.88
SCF: Cycle:  2   F: -5736.931501118525375   dF: -9.721e-02   |Residual|: 2.315e-02   |deigs|: 1.219e-03  t[s]:  15516.39
	Linear fluid (dielectric constant: 78.4, screening length: 5.74355 Bohr) occupying 0.734724 of unit cell:	Completed after 15 iterations at t[s]:  15519.21
	FillingsUpdate:  mu: -0.158503631  nElectrons: 762.000000
	Linear fluid (dielectric constant: 78.4, screening length: 5.74355 Bohr) occupying 0.735891 of unit cell:	Completed after 14 iterations at t[s]:  15649.75
SCF: Cycle:  3   F: -5736.932084880745606   dF: -5.838e-04   |Residual|: 1.657e-02   |deigs|: 2.303e-04  t[s]:  15651.38
	Linear fluid (dielectric constant: 78.4, screening length: 5.74355 Bohr) occupying 0.734749 of unit cell:	Completed after 14 iterations at t[s]:  15653.98
	FillingsUpdate:  mu: -0.158488566  nElectrons: 762.000000
	Linear fluid (dielectric constant: 78.4, screening length: 5.74355 Bohr) occupying 0.735897 of unit cell:	Completed after 14 iterations at t[s]:  15787.15
SCF: Cycle:  4   F: -5736.932505176842824   dF: -4.203e-04   |Residual|: 1.037e-02   |deigs|: 1.553e-04  t[s]:  15788.62
	Linear fluid (dielectric constant: 78.4, screening length: 5.74355 Bohr) occupying 0.734789 of unit cell:	Completed after 12 iterations at t[s]:  15791.01
	FillingsUpdate:  mu: -0.158117875  nElectrons: 762.000000
	Linear fluid (dielectric constant: 78.4, screening length: 5.74355 Bohr) occupying 0.735862 of unit cell:	Completed after 12 iterations at t[s]:  15947.90
SCF: Cycle:  5   F: -5736.932553006957278   dF: -4.783e-05   |Residual|: 1.008e-02   |deigs|: 3.867e-04  t[s]:  15949.57
	Linear fluid (dielectric constant: 78.4, screening length: 5.74355 Bohr) occupying 0.734811 of unit cell:	Completed after 12 iterations at t[s]:  15951.94
	FillingsUpdate:  mu: -0.158023299  nElectrons: 762.000000
	Linear fluid (dielectric constant: 78.4, screening length: 5.74355 Bohr) occupying 0.735854 of unit cell:	Completed after 12 iterations at t[s]:  16083.05
SCF: Cycle:  6   F: -5736.932752838499255   dF: -1.998e-04   |Residual|: 4.186e-03   |deigs|: 1.158e-04  t[s]:  16084.60
	Linear fluid (dielectric constant: 78.4, screening length: 5.74355 Bohr) occupying 0.734865 of unit cell:	Completed after 11 iterations at t[s]:  16086.87
	FillingsUpdate:  mu: -0.157909902  nElectrons: 762.000000
	Linear fluid (dielectric constant: 78.4, screening length: 5.74355 Bohr) occupying 0.735846 of unit cell:	Completed after 12 iterations at t[s]:  16216.86
SCF: Cycle:  7   F: -5736.932661537606691   dF: +9.130e-05   |Residual|: 7.361e-03   |deigs|: 1.282e-04  t[s]:  16218.41
	Linear fluid (dielectric constant: 78.4, screening length: 5.74355 Bohr) occupying 0.735029 of unit cell:	Completed after 12 iterations at t[s]:  16220.94
	FillingsUpdate:  mu: -0.157576738  nElectrons: 762.000000
	Linear fluid (dielectric constant: 78.4, screening length: 5.74355 Bohr) occupying 0.735826 of unit cell:	Completed after 12 iterations at t[s]:  16351.58
SCF: Cycle:  8   F: -5736.932734342267395   dF: -7.280e-05   |Residual|: 4.243e-03   |deigs|: 3.334e-04  t[s]:  16353.14
	Linear fluid (dielectric constant: 78.4, screening length: 5.74355 Bohr) occupying 0.735109 of unit cell:	Completed after 12 iterations at t[s]:  16355.58
	FillingsUpdate:  mu: -0.157474355  nElectrons: 762.000000
	Linear fluid (dielectric constant: 78.4, screening length: 5.74355 Bohr) occupying 0.735821 of unit cell:	Completed after 10 iterations at t[s]:  16486.46
SCF: Cycle:  9   F: -5736.932772469669544   dF: -3.813e-05   |Residual|: 4.495e-03   |deigs|: 1.087e-04  t[s]:  16488.00
	Linear fluid (dielectric constant: 78.4, screening length: 5.74355 Bohr) occupying 0.735191 of unit cell:	Completed after 10 iterations at t[s]:  16490.20
	FillingsUpdate:  mu: -0.157381004  nElectrons: 762.000000
	Linear fluid (dielectric constant: 78.4, screening length: 5.74355 Bohr) occupying 0.735817 of unit cell:	Completed after 10 iterations at t[s]:  16620.16
SCF: Cycle: 10   F: -5736.932790944119006   dF: -1.847e-05   |Residual|: 2.861e-03   |deigs|: 9.862e-05  t[s]:  16621.58
	Linear fluid (dielectric constant: 78.4, screening length: 5.74355 Bohr) occupying 0.735293 of unit cell:	Completed after 10 iterations at t[s]:  16623.69
	FillingsUpdate:  mu: -0.157277624  nElectrons: 762.000000
	Linear fluid (dielectric constant: 78.4, screening length: 5.74355 Bohr) occupying 0.735811 of unit cell:	Completed after 9 iterations at t[s]:  16753.51
SCF: Cycle: 11   F: -5736.932789281697296   dF: +1.662e-06   |Residual|: 3.927e-03   |deigs|: 1.071e-04  t[s]:  16755.10
	Linear fluid (dielectric constant: 78.4, screening length: 5.74355 Bohr) occupying 0.735538 of unit cell:	Completed after 8 iterations at t[s]:  16757.07
	FillingsUpdate:  mu: -0.157105060  nElectrons: 762.000000
	Linear fluid (dielectric constant: 78.4, screening length: 5.74355 Bohr) occupying 0.735805 of unit cell:	Completed after 9 iterations at t[s]:  16892.55
SCF: Cycle: 12   F: -5736.932396469415835   dF: +3.928e-04   |Residual|: 1.051e-02   |deigs|: 1.889e-04  t[s]:  16894.14
	Linear fluid (dielectric constant: 78.4, screening length: 5.74355 Bohr) occupying 0.735460 of unit cell:	Completed after 10 iterations at t[s]:  16896.33
	FillingsUpdate:  mu: -0.157146255  nElectrons: 762.000000
	Linear fluid (dielectric constant: 78.4, screening length: 5.74355 Bohr) occupying 0.735805 of unit cell:	Completed after 8 iterations at t[s]:  17026.61
SCF: Cycle: 13   F: -5736.932787416716565   dF: -3.909e-04   |Residual|: 2.662e-03   |deigs|: 7.738e-05  t[s]:  17028.34
	Linear fluid (dielectric constant: 78.4, screening length: 5.74355 Bohr) occupying 0.735509 of unit cell:	Completed after 8 iterations at t[s]:  17030.32
	FillingsUpdate:  mu: -0.157103979  nElectrons: 762.000000
	Linear fluid (dielectric constant: 78.4, screening length: 5.74355 Bohr) occupying 0.735804 of unit cell:	Completed after 7 iterations at t[s]:  17161.03
SCF: Cycle: 14   F: -5736.932803850467280   dF: -1.643e-05   |Residual|: 2.110e-03   |deigs|: 4.548e-05  t[s]:  17162.53
	Linear fluid (dielectric constant: 78.4, screening length: 5.74355 Bohr) occupying 0.735542 of unit cell:	Completed after 7 iterations at t[s]:  17164.26
	FillingsUpdate:  mu: -0.157090406  nElectrons: 762.000000
	Linear fluid (dielectric constant: 78.4, screening length: 5.74355 Bohr) occupying 0.735804 of unit cell:	Completed after 8 iterations at t[s]:  17300.29
SCF: Cycle: 15   F: -5736.932812978162474   dF: -9.128e-06   |Residual|: 2.079e-03   |deigs|: 2.479e-05  t[s]:  17301.78
	Linear fluid (dielectric constant: 78.4, screening length: 5.74355 Bohr) occupying 0.735647 of unit cell:	Completed after 7 iterations at t[s]:  17303.53
	FillingsUpdate:  mu: -0.157056383  nElectrons: 762.000000
	Linear fluid (dielectric constant: 78.4, screening length: 5.74355 Bohr) occupying 0.735805 of unit cell:	Completed after 6 iterations at t[s]:  17435.45
SCF: Cycle: 16   F: -5736.932822006869173   dF: -9.029e-06   |Residual|: 1.410e-03   |deigs|: 4.734e-05  t[s]:  17437.14
	Linear fluid (dielectric constant: 78.4, screening length: 5.74355 Bohr) occupying 0.735763 of unit cell:	Completed after 3 iterations at t[s]:  17438.39
	FillingsUpdate:  mu: -0.156976773  nElectrons: 762.000000
	Linear fluid (dielectric constant: 78.4, screening length: 5.74355 Bohr) occupying 0.735802 of unit cell:	Completed after 4 iterations at t[s]:  17569.12
SCF: Cycle: 17   F: -5736.932822341766041   dF: -3.349e-07   |Residual|: 1.466e-03   |deigs|: 8.207e-05  t[s]:  17570.65
	Linear fluid (dielectric constant: 78.4, screening length: 5.74355 Bohr) occupying 0.735884 of unit cell:	Completed after 2 iterations at t[s]:  17571.69
	FillingsUpdate:  mu: -0.156967989  nElectrons: 762.000000
	Linear fluid (dielectric constant: 78.4, screening length: 5.74355 Bohr) occupying 0.735810 of unit cell:	Completed after 8 iterations at t[s]:  17701.77
SCF: Cycle: 18   F: -5736.932798405550784   dF: +2.394e-05   |Residual|: 2.425e-03   |deigs|: 4.000e-05  t[s]:  17703.29
	Linear fluid (dielectric constant: 78.4, screening length: 5.74355 Bohr) occupying 0.735936 of unit cell:	Completed after 7 iterations at t[s]:  17705.12
	FillingsUpdate:  mu: -0.156933785  nElectrons: 762.000000
	Linear fluid (dielectric constant: 78.4, screening length: 5.74355 Bohr) occupying 0.735806 of unit cell:	Completed after 7 iterations at t[s]:  17834.34
SCF: Cycle: 19   F: -5736.932815706194560   dF: -1.730e-05   |Residual|: 1.551e-03   |deigs|: 4.823e-05  t[s]:  17835.97
	Linear fluid (dielectric constant: 78.4, screening length: 5.74355 Bohr) occupying 0.735953 of unit cell:	Completed after 4 iterations at t[s]:  17837.37
	FillingsUpdate:  mu: -0.156931964  nElectrons: 762.000000
	Linear fluid (dielectric constant: 78.4, screening length: 5.74355 Bohr) occupying 0.735806 of unit cell:	Completed after 4 iterations at t[s]:  17965.97
SCF: Cycle: 20   F: -5736.932818489003694   dF: -2.783e-06   |Residual|: 1.463e-03   |deigs|: 1.870e-05  t[s]:  17967.56
	Linear fluid (dielectric constant: 78.4, screening length: 5.74355 Bohr) occupying 0.735957 of unit cell:	Completed after 4 iterations at t[s]:  17968.96
	FillingsUpdate:  mu: -0.156936493  nElectrons: 762.000000
	Linear fluid (dielectric constant: 78.4, screening length: 5.74355 Bohr) occupying 0.735805 of unit cell:	Completed after 7 iterations at t[s]:  18101.59
SCF: Cycle: 21   F: -5736.932769641456616   dF: +4.885e-05   |Residual|: 3.097e-03   |deigs|: 3.488e-05  t[s]:  18103.11
	Linear fluid (dielectric constant: 78.4, screening length: 5.74355 Bohr) occupying 0.735996 of unit cell:	Completed after 7 iterations at t[s]:  18104.92
	FillingsUpdate:  mu: -0.156924242  nElectrons: 762.000000
	Linear fluid (dielectric constant: 78.4, screening length: 5.74355 Bohr) occupying 0.735807 of unit cell:	Completed after 3 iterations at t[s]:  18234.51
SCF: Cycle: 22   F: -5736.932823559099234   dF: -5.392e-05   |Residual|: 9.527e-04   |deigs|: 3.514e-05  t[s]:  18236.25
	Linear fluid (dielectric constant: 78.4, screening length: 5.74355 Bohr) occupying 0.736034 of unit cell:	Completed after 3 iterations at t[s]:  18237.49
	FillingsUpdate:  mu: -0.156908522  nElectrons: 762.000000
	Linear fluid (dielectric constant: 78.4, screening length: 5.74355 Bohr) occupying 0.735807 of unit cell:	Completed after 6 iterations at t[s]:  18368.56
SCF: Cycle: 23   F: -5736.932812407309029   dF: +1.115e-05   |Residual|: 2.108e-03   |deigs|: 6.105e-05  t[s]:  18370.21
	Linear fluid (dielectric constant: 78.4, screening length: 5.74355 Bohr) occupying 0.736044 of unit cell:	Completed after 4 iterations at t[s]:  18371.69
	FillingsUpdate:  mu: -0.156921094  nElectrons: 762.000000
	Linear fluid (dielectric constant: 78.4, screening length: 5.74355 Bohr) occupying 0.735808 of unit cell:	Completed after 7 iterations at t[s]:  18500.87
SCF: Cycle: 24   F: -5736.932786931976807   dF: +2.548e-05   |Residual|: 2.127e-03   |deigs|: 2.984e-05  t[s]:  18502.53
	Linear fluid (dielectric constant: 78.4, screening length: 5.74355 Bohr) occupying 0.736054 of unit cell:	Completed after 7 iterations at t[s]:  18504.35
	FillingsUpdate:  mu: -0.156898151  nElectrons: 762.000000
	Linear fluid (dielectric constant: 78.4, screening length: 5.74355 Bohr) occupying 0.735806 of unit cell:	Completed after 3 iterations at t[s]:  18636.03
SCF: Cycle: 25   F: -5736.932814696435344   dF: -2.776e-05   |Residual|: 2.143e-03   |deigs|: 4.433e-05  t[s]:  18637.58
	Linear fluid (dielectric constant: 78.4, screening length: 5.74355 Bohr) occupying 0.736017 of unit cell:	Completed after 3 iterations at t[s]:  18638.86
	FillingsUpdate:  mu: -0.156907088  nElectrons: 762.000000
	Linear fluid (dielectric constant: 78.4, screening length: 5.74355 Bohr) occupying 0.735805 of unit cell:	Completed after 6 iterations at t[s]:  18771.00
SCF: Cycle: 26   F: -5736.932809261752482   dF: +5.435e-06   |Residual|: 1.890e-03   |deigs|: 2.414e-05  t[s]:  18772.63
	Linear fluid (dielectric constant: 78.4, screening length: 5.74355 Bohr) occupying 0.736033 of unit cell:	Completed after 6 iterations at t[s]:  18774.24
	FillingsUpdate:  mu: -0.156912216  nElectrons: 762.000000
	Linear fluid (dielectric constant: 78.4, screening length: 5.74355 Bohr) occupying 0.735806 of unit cell:	Completed after 5 iterations at t[s]:  18906.23
SCF: Cycle: 27   F: -5736.932820325017019   dF: -1.106e-05   |Residual|: 1.195e-03   |deigs|: 6.164e-05  t[s]:  18907.78
	Linear fluid (dielectric constant: 78.4, screening length: 5.74355 Bohr) occupying 0.736031 of unit cell:	Completed after 4 iterations at t[s]:  18909.18
	FillingsUpdate:  mu: -0.156916384  nElectrons: 762.000000
	Linear fluid (dielectric constant: 78.4, screening length: 5.74355 Bohr) occupying 0.735805 of unit cell:	Completed after 3 iterations at t[s]:  19040.05
SCF: Cycle: 28   F: -5736.932824748528219   dF: -4.424e-06   |Residual|: 9.318e-04   |deigs|: 1.455e-04  t[s]:  19041.90
	Linear fluid (dielectric constant: 78.4, screening length: 5.74355 Bohr) occupying 0.736026 of unit cell:	Completed after 3 iterations at t[s]:  19043.21
	FillingsUpdate:  mu: -0.156921964  nElectrons: 762.000000
	Linear fluid (dielectric constant: 78.4, screening length: 5.74355 Bohr) occupying 0.735805 of unit cell:	Completed after 6 iterations at t[s]:  19174.47
SCF: Cycle: 29   F: -5736.932802951780104   dF: +2.180e-05   |Residual|: 2.121e-03   |deigs|: 2.086e-05  t[s]:  19175.96
	Linear fluid (dielectric constant: 78.4, screening length: 5.74355 Bohr) occupying 0.736003 of unit cell:	Completed after 6 iterations at t[s]:  19177.61
	FillingsUpdate:  mu: -0.156919893  nElectrons: 762.000000
	Linear fluid (dielectric constant: 78.4, screening length: 5.74355 Bohr) occupying 0.735804 of unit cell:	Completed after 3 iterations at t[s]:  19305.45
SCF: Cycle: 30   F: -5736.932822767646030   dF: -1.982e-05   |Residual|: 1.243e-03   |deigs|: 7.417e-05  t[s]:  19306.95
	Linear fluid (dielectric constant: 78.4, screening length: 5.74355 Bohr) occupying 0.736006 of unit cell:	Completed after 3 iterations at t[s]:  19308.16
	FillingsUpdate:  mu: -0.156926684  nElectrons: 762.000000
	Linear fluid (dielectric constant: 78.4, screening length: 5.74355 Bohr) occupying 0.735805 of unit cell:	Completed after 5 iterations at t[s]:  19442.70
SCF: Cycle: 31   F: -5736.932820338242891   dF: +2.429e-06   |Residual|: 1.216e-03   |deigs|: 9.796e-05  t[s]:  19444.54
	Linear fluid (dielectric constant: 78.4, screening length: 5.74355 Bohr) occupying 0.735998 of unit cell:	Completed after 4 iterations at t[s]:  19445.98
	FillingsUpdate:  mu: -0.156930283  nElectrons: 762.000000
	Linear fluid (dielectric constant: 78.4, screening length: 5.74355 Bohr) occupying 0.735804 of unit cell:	Completed after 6 iterations at t[s]:  19576.82
SCF: Cycle: 32   F: -5736.932805269811979   dF: +1.507e-05   |Residual|: 1.686e-03   |deigs|: 3.721e-05  t[s]:  19578.45
	Linear fluid (dielectric constant: 78.4, screening length: 5.74355 Bohr) occupying 0.735989 of unit cell:	Completed after 6 iterations at t[s]:  19580.14
	FillingsUpdate:  mu: -0.156920792  nElectrons: 762.000000
	Linear fluid (dielectric constant: 78.4, screening length: 5.74355 Bohr) occupying 0.735803 of unit cell:	Completed after 3 iterations at t[s]:  19709.65
SCF: Cycle: 33   F: -5736.932821602216791   dF: -1.633e-05   |Residual|: 1.322e-03   |deigs|: 3.230e-05  t[s]:  19711.20
	Linear fluid (dielectric constant: 78.4, screening length: 5.74355 Bohr) occupying 0.735961 of unit cell:	Completed after 3 iterations at t[s]:  19712.55
	FillingsUpdate:  mu: -0.156934457  nElectrons: 762.000000
	Linear fluid (dielectric constant: 78.4, screening length: 5.74355 Bohr) occupying 0.735803 of unit cell:	Completed after 6 iterations at t[s]:  19847.03
SCF: Cycle: 34   F: -5736.932817386618808   dF: +4.216e-06   |Residual|: 1.684e-03   |deigs|: 1.973e-04  t[s]:  19848.55
	Linear fluid (dielectric constant: 78.4, screening length: 5.74355 Bohr) occupying 0.735967 of unit cell:	Completed after 3 iterations at t[s]:  19849.78
	FillingsUpdate:  mu: -0.156942474  nElectrons: 762.000000
	Linear fluid (dielectric constant: 78.4, screening length: 5.74355 Bohr) occupying 0.735804 of unit cell:	Completed after 6 iterations at t[s]:  19981.84
SCF: Cycle: 35   F: -5736.932771358540776   dF: +4.603e-05   |Residual|: 3.028e-03   |deigs|: 4.183e-05  t[s]:  19983.41
	Linear fluid (dielectric constant: 78.4, screening length: 5.74355 Bohr) occupying 0.735965 of unit cell:	Completed after 6 iterations at t[s]:  19985.15
	FillingsUpdate:  mu: -0.156929429  nElectrons: 762.000000
	Linear fluid (dielectric constant: 78.4, screening length: 5.74355 Bohr) occupying 0.735801 of unit cell:	Completed after 3 iterations at t[s]:  20116.68
SCF: Cycle: 36   F: -5736.932824940318824   dF: -5.358e-05   |Residual|: 7.581e-04   |deigs|: 2.496e-05  t[s]:  20118.30
	Linear fluid (dielectric constant: 78.4, screening length: 5.74355 Bohr) occupying 0.735952 of unit cell:	Completed after 3 iterations at t[s]:  20119.56
	FillingsUpdate:  mu: -0.156940647  nElectrons: 762.000000
	Linear fluid (dielectric constant: 78.4, screening length: 5.74355 Bohr) occupying 0.735802 of unit cell:	Completed after 3 iterations at t[s]:  20249.83
SCF: Cycle: 37   F: -5736.932823606239253   dF: +1.334e-06   |Residual|: 1.052e-03   |deigs|: 3.620e-05  t[s]:  20251.51
	Linear fluid (dielectric constant: 78.4, screening length: 5.74355 Bohr) occupying 0.735961 of unit cell:	Completed after 3 iterations at t[s]:  20252.75
	FillingsUpdate:  mu: -0.156940366  nElectrons: 762.000000
	Linear fluid (dielectric constant: 78.4, screening length: 5.74355 Bohr) occupying 0.735802 of unit cell:	Completed after 5 iterations at t[s]:  20384.00
SCF: Cycle: 38   F: -5736.932797602263236   dF: +2.600e-05   |Residual|: 2.215e-03   |deigs|: 7.204e-05  t[s]:  20385.51
	Linear fluid (dielectric constant: 78.4, screening length: 5.74355 Bohr) occupying 0.735939 of unit cell:	Completed after 7 iterations at t[s]:  20387.31
	FillingsUpdate:  mu: -0.156936356  nElectrons: 762.000000
	Linear fluid (dielectric constant: 78.4, screening length: 5.74355 Bohr) occupying 0.735800 of unit cell:	Completed after 2 iterations at t[s]:  20520.81
SCF: Cycle: 39   F: -5736.932824991113193   dF: -2.739e-05   |Residual|: 7.689e-04   |deigs|: 8.192e-05  t[s]:  20522.37
	Linear fluid (dielectric constant: 78.4, screening length: 5.74355 Bohr) occupying 0.735927 of unit cell:	Completed after 3 iterations at t[s]:  20523.57
	FillingsUpdate:  mu: -0.156942981  nElectrons: 762.000000
	Linear fluid (dielectric constant: 78.4, screening length: 5.74355 Bohr) occupying 0.735800 of unit cell:	Completed after 3 iterations at t[s]:  20653.81
SCF: Cycle: 40   F: -5736.932823323976663   dF: +1.667e-06   |Residual|: 1.108e-03   |deigs|: 3.746e-05  t[s]:  20655.43
	Linear fluid (dielectric constant: 78.4, screening length: 5.74355 Bohr) occupying 0.735916 of unit cell:	Completed after 3 iterations at t[s]:  20656.71
	FillingsUpdate:  mu: -0.156947792  nElectrons: 762.000000
	Linear fluid (dielectric constant: 78.4, screening length: 5.74355 Bohr) occupying 0.735799 of unit cell:	Completed after 6 iterations at t[s]:  20790.77
SCF: Cycle: 41   F: -5736.932798764873951   dF: +2.456e-05   |Residual|: 2.147e-03   |deigs|: 3.551e-05  t[s]:  20792.35
	Linear fluid (dielectric constant: 78.4, screening length: 5.74355 Bohr) occupying 0.735912 of unit cell:	Completed after 6 iterations at t[s]:  20793.96
	FillingsUpdate:  mu: -0.156945534  nElectrons: 762.000000
	Linear fluid (dielectric constant: 78.4, screening length: 5.74355 Bohr) occupying 0.735799 of unit cell:	Completed after 3 iterations at t[s]:  20921.38
SCF: Cycle: 42   F: -5736.932825262610095   dF: -2.650e-05   |Residual|: 7.478e-04   |deigs|: 4.444e-05  t[s]:  20922.93
	Linear fluid (dielectric constant: 78.4, screening length: 5.74355 Bohr) occupying 0.735906 of unit cell:	Completed after 3 iterations at t[s]:  20924.17
	FillingsUpdate:  mu: -0.156945046  nElectrons: 762.000000
	Linear fluid (dielectric constant: 78.4, screening length: 5.74355 Bohr) occupying 0.735799 of unit cell:	Completed after 3 iterations at t[s]:  21053.25
SCF: Cycle: 43   F: -5736.932822961068268   dF: +2.302e-06   |Residual|: 1.107e-03   |deigs|: 1.424e-05  t[s]:  21054.80
	Linear fluid (dielectric constant: 78.4, screening length: 5.74355 Bohr) occupying 0.735906 of unit cell:	Completed after 3 iterations at t[s]:  21056.05
	FillingsUpdate:  mu: -0.156950746  nElectrons: 762.000000
	Linear fluid (dielectric constant: 78.4, screening length: 5.74355 Bohr) occupying 0.735799 of unit cell:	Completed after 5 iterations at t[s]:  21187.26
SCF: Cycle: 44   F: -5736.932801879469480   dF: +2.108e-05   |Residual|: 2.097e-03   |deigs|: 2.300e-05  t[s]:  21188.72
	Linear fluid (dielectric constant: 78.4, screening length: 5.74355 Bohr) occupying 0.735883 of unit cell:	Completed after 6 iterations at t[s]:  21190.33
	FillingsUpdate:  mu: -0.156948600  nElectrons: 762.000000
	Linear fluid (dielectric constant: 78.4, screening length: 5.74355 Bohr) occupying 0.735797 of unit cell:	Completed after 3 iterations at t[s]:  21318.96
SCF: Cycle: 45   F: -5736.932823557254778   dF: -2.168e-05   |Residual|: 9.405e-04   |deigs|: 9.801e-05  t[s]:  21320.56
	Linear fluid (dielectric constant: 78.4, screening length: 5.74355 Bohr) occupying 0.735912 of unit cell:	Completed after 3 iterations at t[s]:  21321.82
	FillingsUpdate:  mu: -0.156944463  nElectrons: 762.000000
	Linear fluid (dielectric constant: 78.4, screening length: 5.74355 Bohr) occupying 0.735800 of unit cell:	Completed after 6 iterations at t[s]:  21455.53
SCF: Cycle: 46   F: -5736.932816971477223   dF: +6.586e-06   |Residual|: 1.415e-03   |deigs|: 1.222e-04  t[s]:  21457.07
	Linear fluid (dielectric constant: 78.4, screening length: 5.74355 Bohr) occupying 0.735906 of unit cell:	Completed after 3 iterations at t[s]:  21458.34
	FillingsUpdate:  mu: -0.156955018  nElectrons: 762.000000
	Linear fluid (dielectric constant: 78.4, screening length: 5.74355 Bohr) occupying 0.735800 of unit cell:	Completed after 7 iterations at t[s]:  21588.56
SCF: Cycle: 47   F: -5736.932796761861937   dF: +2.021e-05   |Residual|: 2.084e-03   |deigs|: 2.641e-05  t[s]:  21590.05
	Linear fluid (dielectric constant: 78.4, screening length: 5.74355 Bohr) occupying 0.735907 of unit cell:	Completed after 7 iterations at t[s]:  21591.81
	FillingsUpdate:  mu: -0.156944324  nElectrons: 762.000000
	Linear fluid (dielectric constant: 78.4, screening length: 5.74355 Bohr) occupying 0.735799 of unit cell:	Completed after 3 iterations at t[s]:  21722.88
SCF: Cycle: 48   F: -5736.932823842325888   dF: -2.708e-05   |Residual|: 9.784e-04   |deigs|: 2.268e-05  t[s]:  21724.59
	Linear fluid (dielectric constant: 78.4, screening length: 5.74355 Bohr) occupying 0.735893 of unit cell:	Completed after 3 iterations at t[s]:  21725.85
	FillingsUpdate:  mu: -0.156944706  nElectrons: 762.000000
	Linear fluid (dielectric constant: 78.4, screening length: 5.74355 Bohr) occupying 0.735798 of unit cell:	Completed after 3 iterations at t[s]:  21854.04
SCF: Cycle: 49   F: -5736.932823595687296   dF: +2.466e-07   |Residual|: 9.529e-04   |deigs|: 5.546e-05  t[s]:  21855.94
	Linear fluid (dielectric constant: 78.4, screening length: 5.74355 Bohr) occupying 0.735888 of unit cell:	Completed after 3 iterations at t[s]:  21857.34
	FillingsUpdate:  mu: -0.156949530  nElectrons: 762.000000
	Linear fluid (dielectric constant: 78.4, screening length: 5.74355 Bohr) occupying 0.735798 of unit cell:	Completed after 6 iterations at t[s]:  21989.13
SCF: Cycle: 50   F: -5736.932800365694675   dF: +2.323e-05   |Residual|: 2.027e-03   |deigs|: 2.634e-05  t[s]:  21990.80
	Linear fluid (dielectric constant: 78.4, screening length: 5.74355 Bohr) occupying 0.735883 of unit cell:	Completed after 6 iterations at t[s]:  21992.54
	FillingsUpdate:  mu: -0.156949970  nElectrons: 762.000000
	Linear fluid (dielectric constant: 78.4, screening length: 5.74355 Bohr) occupying 0.735797 of unit cell:	Completed after 2 iterations at t[s]:  22129.24
SCF: Cycle: 51   F: -5736.932825724416944   dF: -2.536e-05   |Residual|: 6.720e-04   |deigs|: 2.466e-05  t[s]:  22130.74
	Linear fluid (dielectric constant: 78.4, screening length: 5.74355 Bohr) occupying 0.735877 of unit cell:	Completed after 3 iterations at t[s]:  22132.13
	FillingsUpdate:  mu: -0.156949201  nElectrons: 762.000000
	Linear fluid (dielectric constant: 78.4, screening length: 5.74355 Bohr) occupying 0.735797 of unit cell:	Completed after 2 iterations at t[s]:  22261.51
SCF: Cycle: 52   F: -5736.932825548421533   dF: +1.760e-07   |Residual|: 8.622e-04   |deigs|: 1.613e-05  t[s]:  22263.03
	Linear fluid (dielectric constant: 78.4, screening length: 5.74355 Bohr) occupying 0.735874 of unit cell:	Completed after 3 iterations at t[s]:  22264.27
	FillingsUpdate:  mu: -0.156957585  nElectrons: 762.000000
	Linear fluid (dielectric constant: 78.4, screening length: 5.74355 Bohr) occupying 0.735797 of unit cell:	Completed after 5 iterations at t[s]:  22395.08
SCF: Cycle: 53   F: -5736.932812041877696   dF: +1.351e-05   |Residual|: 1.550e-03   |deigs|: 1.745e-05  t[s]:  22396.80
	Linear fluid (dielectric constant: 78.4, screening length: 5.74355 Bohr) occupying 0.735869 of unit cell:	Completed after 6 iterations at t[s]:  22398.52
	FillingsUpdate:  mu: -0.156954574  nElectrons: 762.000000
	Linear fluid (dielectric constant: 78.4, screening length: 5.74355 Bohr) occupying 0.735796 of unit cell:	Completed after 3 iterations at t[s]:  22527.57
SCF: Cycle: 54   F: -5736.932825977547509   dF: -1.394e-05   |Residual|: 4.937e-04   |deigs|: 1.503e-05  t[s]:  22529.18
	Linear fluid (dielectric constant: 78.4, screening length: 5.74355 Bohr) occupying 0.735870 of unit cell:	Completed after 3 iterations at t[s]:  22530.48
	FillingsUpdate:  mu: -0.156955519  nElectrons: 762.000000
	Linear fluid (dielectric constant: 78.4, screening length: 5.74355 Bohr) occupying 0.735797 of unit cell:	Completed after 2 iterations at t[s]:  22629.32
SCF: Cycle: 55   F: -5736.932827320205433   dF: -1.343e-06   |Residual|: 5.170e-04   |deigs|: 4.678e-06  t[s]:  22630.86
	Linear fluid (dielectric constant: 78.4, screening length: 5.74355 Bohr) occupying 0.735866 of unit cell:	Completed after 2 iterations at t[s]:  22631.96
	FillingsUpdate:  mu: -0.156962606  nElectrons: 762.000000
	Linear fluid (dielectric constant: 78.4, screening length: 5.74355 Bohr) occupying 0.735797 of unit cell:	Completed after 3 iterations at t[s]:  22763.35
SCF: Cycle: 56   F: -5736.932819313045002   dF: +8.007e-06   |Residual|: 1.379e-03   |deigs|: 1.629e-05  t[s]:  22764.85
	Linear fluid (dielectric constant: 78.4, screening length: 5.74355 Bohr) occupying 0.735862 of unit cell:	Completed after 3 iterations at t[s]:  22766.11
	FillingsUpdate:  mu: -0.156964490  nElectrons: 762.000000
	Linear fluid (dielectric constant: 78.4, screening length: 5.74355 Bohr) occupying 0.735797 of unit cell:	Completed after 6 iterations at t[s]:  22896.91
SCF: Cycle: 57   F: -5736.932812544500848   dF: +6.769e-06   |Residual|: 1.666e-03   |deigs|: 2.135e-05  t[s]:  22898.56
	Linear fluid (dielectric constant: 78.4, screening length: 5.74355 Bohr) occupying 0.735857 of unit cell:	Completed after 5 iterations at t[s]:  22900.04
	FillingsUpdate:  mu: -0.156960886  nElectrons: 762.000000
	Linear fluid (dielectric constant: 78.4, screening length: 5.74355 Bohr) occupying 0.735796 of unit cell:	Completed after 5 iterations at t[s]:  23028.90
SCF: Cycle: 58   F: -5736.932821569011139   dF: -9.025e-06   |Residual|: 8.826e-04   |deigs|: 2.150e-05  t[s]:  23030.44
	Linear fluid (dielectric constant: 78.4, screening length: 5.74355 Bohr) occupying 0.735852 of unit cell:	Completed after 4 iterations at t[s]:  23031.86
	FillingsUpdate:  mu: -0.156964621  nElectrons: 762.000000
	Linear fluid (dielectric constant: 78.4, screening length: 5.74355 Bohr) occupying 0.735796 of unit cell:	Completed after 3 iterations at t[s]:  23175.58
SCF: Cycle: 59   F: -5736.932825846060041   dF: -4.277e-06   |Residual|: 8.765e-04   |deigs|: 1.618e-05  t[s]:  23177.11
	Linear fluid (dielectric constant: 78.4, screening length: 5.74355 Bohr) occupying 0.735854 of unit cell:	Completed after 3 iterations at t[s]:  23178.32
	FillingsUpdate:  mu: -0.156962955  nElectrons: 762.000000
	Linear fluid (dielectric constant: 78.4, screening length: 5.74355 Bohr) occupying 0.735796 of unit cell:	Completed after 3 iterations at t[s]:  23292.03
SCF: Cycle: 60   F: -5736.932820981895020   dF: +4.864e-06   |Residual|: 1.027e-03   |deigs|: 1.032e-05  t[s]:  23293.59
	Linear fluid (dielectric constant: 78.4, screening length: 5.74355 Bohr) occupying 0.735855 of unit cell:	Completed after 3 iterations at t[s]:  23294.87
	FillingsUpdate:  mu: -0.156965526  nElectrons: 762.000000
	Linear fluid (dielectric constant: 78.4, screening length: 5.74355 Bohr) occupying 0.735796 of unit cell:	Completed after 3 iterations at t[s]:  23407.22
SCF: Cycle: 61   F: -5736.932823558463497   dF: -2.577e-06   |Residual|: 7.894e-04   |deigs|: 1.125e-05  t[s]:  23408.83
	Linear fluid (dielectric constant: 78.4, screening length: 5.74355 Bohr) occupying 0.735856 of unit cell:	Completed after 3 iterations at t[s]:  23410.08
	FillingsUpdate:  mu: -0.156966358  nElectrons: 762.000000
	Linear fluid (dielectric constant: 78.4, screening length: 5.74355 Bohr) occupying 0.735796 of unit cell:	Completed after 6 iterations at t[s]:  23541.36
SCF: Cycle: 62   F: -5736.932799644469014   dF: +2.391e-05   |Residual|: 2.152e-03   |deigs|: 1.638e-05  t[s]:  23542.78
	Linear fluid (dielectric constant: 78.4, screening length: 5.74355 Bohr) occupying 0.735858 of unit cell:	Completed after 6 iterations at t[s]:  23544.39
	FillingsUpdate:  mu: -0.156962116  nElectrons: 762.000000
	Linear fluid (dielectric constant: 78.4, screening length: 5.74355 Bohr) occupying 0.735796 of unit cell:	Completed after 3 iterations at t[s]:  23646.02
SCF: Cycle: 63   F: -5736.932824399511446   dF: -2.476e-05   |Residual|: 6.914e-04   |deigs|: 1.436e-05  t[s]:  23647.65
	Linear fluid (dielectric constant: 78.4, screening length: 5.74355 Bohr) occupying 0.735855 of unit cell:	Completed after 3 iterations at t[s]:  23648.93
	FillingsUpdate:  mu: -0.156964585  nElectrons: 762.000000
	Linear fluid (dielectric constant: 78.4, screening length: 5.74355 Bohr) occupying 0.735796 of unit cell:	Completed after 3 iterations at t[s]:  23761.46
SCF: Cycle: 64   F: -5736.932825601139484   dF: -1.202e-06   |Residual|: 7.102e-04   |deigs|: 1.126e-05  t[s]:  23762.97
	Linear fluid (dielectric constant: 78.4, screening length: 5.74355 Bohr) occupying 0.735852 of unit cell:	Completed after 3 iterations at t[s]:  23764.21
	FillingsUpdate:  mu: -0.156967039  nElectrons: 762.000000
	Linear fluid (dielectric constant: 78.4, screening length: 5.74355 Bohr) occupying 0.735796 of unit cell:	Completed after 6 iterations at t[s]:  23894.92
SCF: Cycle: 65   F: -5736.932808038679468   dF: +1.756e-05   |Residual|: 1.661e-03   |deigs|: 1.812e-05  t[s]:  23896.45
	Linear fluid (dielectric constant: 78.4, screening length: 5.74355 Bohr) occupying 0.735848 of unit cell:	Completed after 6 iterations at t[s]:  23898.05
	FillingsUpdate:  mu: -0.156964533  nElectrons: 762.000000
	Linear fluid (dielectric constant: 78.4, screening length: 5.74355 Bohr) occupying 0.735795 of unit cell:	Completed after 3 iterations at t[s]:  24033.53
SCF: Cycle: 66   F: -5736.932826116122669   dF: -1.808e-05   |Residual|: 4.604e-04   |deigs|: 1.630e-05  t[s]:  24035.12
	Linear fluid (dielectric constant: 78.4, screening length: 5.74355 Bohr) occupying 0.735845 of unit cell:	Completed after 3 iterations at t[s]:  24036.47
	FillingsUpdate:  mu: -0.156966445  nElectrons: 762.000000
	Linear fluid (dielectric constant: 78.4, screening length: 5.74355 Bohr) occupying 0.735795 of unit cell:	Completed after 2 iterations at t[s]:  24153.44
SCF: Cycle: 67   F: -5736.932827179116430   dF: -1.063e-06   |Residual|: 6.118e-04   |deigs|: 1.021e-05  t[s]:  24154.96
	Linear fluid (dielectric constant: 78.4, screening length: 5.74355 Bohr) occupying 0.735843 of unit cell:	Completed after 2 iterations at t[s]:  24156.16
	FillingsUpdate:  mu: -0.156967908  nElectrons: 762.000000
	Linear fluid (dielectric constant: 78.4, screening length: 5.74355 Bohr) occupying 0.735796 of unit cell:	Completed after 3 iterations at t[s]:  24286.19
SCF: Cycle: 68   F: -5736.932821393391350   dF: +5.786e-06   |Residual|: 1.335e-03   |deigs|: 1.394e-05  t[s]:  24287.63
	Linear fluid (dielectric constant: 78.4, screening length: 5.74355 Bohr) occupying 0.735842 of unit cell:	Completed after 3 iterations at t[s]:  24288.85
	FillingsUpdate:  mu: -0.156967485  nElectrons: 762.000000
	Linear fluid (dielectric constant: 78.4, screening length: 5.74355 Bohr) occupying 0.735795 of unit cell:	Completed after 6 iterations at t[s]:  24404.10
SCF: Cycle: 69   F: -5736.932814881779450   dF: +6.512e-06   |Residual|: 1.541e-03   |deigs|: 1.623e-05  t[s]:  24405.66
	Linear fluid (dielectric constant: 78.4, screening length: 5.74355 Bohr) occupying 0.735842 of unit cell:	Completed after 6 iterations at t[s]:  24407.33
	FillingsUpdate:  mu: -0.156967695  nElectrons: 762.000000
	Linear fluid (dielectric constant: 78.4, screening length: 5.74355 Bohr) occupying 0.735795 of unit cell:	Completed after 3 iterations at t[s]:  24507.00
SCF: Cycle: 70   F: -5736.932824726182844   dF: -9.844e-06   |Residual|: 6.980e-04   |deigs|: 1.385e-05  t[s]:  24508.54
	Linear fluid (dielectric constant: 78.4, screening length: 5.74355 Bohr) occupying 0.735838 of unit cell:	Completed after 3 iterations at t[s]:  24509.83
	FillingsUpdate:  mu: -0.156966930  nElectrons: 762.000000
	Linear fluid (dielectric constant: 78.4, screening length: 5.74355 Bohr) occupying 0.735795 of unit cell:	Completed after 3 iterations at t[s]:  24641.81
SCF: Cycle: 71   F: -5736.932826098621263   dF: -1.372e-06   |Residual|: 7.400e-04   |deigs|: 1.623e-05  t[s]:  24643.34
[...]
     Net charge: 1   dipole magnitude: 0
     Initializing gaussian mfKernel with width: 1.59012 Bohr
     deltaS corrections:
       site 'F': -9.04335

Correction to mu due to finite nuclear width = -0.0151512
   Cavity determined by nc: 0.00142 and sigma: 0.707107
   Nonlocal vdW cavity from gaussian model electron density with norm = 8 and sigma = 0.993594 bohr
   Charge asymmetry in cavity with sensitivity pCavity = 36.5 e-bohr/Eh
   Electrostatic cavity expanded by eta = 1.46 bohrs
   Weighted density cavitation model constrained by Nbulk: 0.0049383 bohr^-3, Pvap: 3.14029 kPa, Rvdw: 2.61727 bohr and sigmaBulk: 4.62e-05 Eh/bohr^2 at T: 298 K.
   Weighted density dispersion model using vdW pair potentials with single solvent site with sqrtC6eff: 0.77 SI.
Reading fluid state from 'NbTe2.fluidState'


---- Citations for features of the code used in this run ----

   Software package:
      R. Sundararaman, K. Letchworth-Weaver, K.A. Schwarz, D. Gunceler, Y. Ozhabes and T.A. Arias, 'JDFTx: software for joint density-functional theory', SoftwareX 6, 278 (2017)

   gga-PBE exchange-correlation functional:
      J.P. Perdew, K. Burke and M. Ernzerhof, Phys. Rev. Lett. 77, 3865 (1996)

   Pseudopotentials:
      KF Garrity, JW Bennett, KM Rabe and D Vanderbilt, Comput. Mater. Sci. 81, 446 (2014)

   Truncated Coulomb potentials:
      R. Sundararaman and T.A. Arias, Phys. Rev. B 87, 165122 (2013)

   Van der Waals correction pair-potentials:
      S. Grimme, J. Comput. Chem. 27, 1787 (2006)

   Charge-asymmetric nonlocally-determined local-electric (CANDLE) solvation model:
      R. Sundararaman and W.A. Goddard III, J. Chem. Phys. 142, 064107 (2015)

   Total energy minimization with Auxiliary Hamiltonian:
      C. Freysoldt, S. Boeck, and J. Neugebauer, Phys. Rev. B 79, 241103(R) (2009)

This list may not be complete. Please suggest additional citations or
report any other bugs at https://github.com/shankar1729/jdftx/issues

Initialization completed successfully at t[s]:     35.34

	Linear fluid (dielectric constant: 78.4, screening length: 5.74355 Bohr) occupying 0.735792 of unit cell:	Completed after 2 iterations at t[s]:     45.37

-------- Electronic minimization -----------
	Linear fluid (dielectric constant: 78.4, screening length: 5.74355 Bohr) occupying 0.735792 of unit cell:	Completed after 0 iterations at t[s]:     52.97
	FillingsUpdate:  mu: -0.156999263  nElectrons: 762.000000
ElecMinimize: Iter:   0  F: -5736.932823425702736  |grad|_K:  7.068e-07  alpha:  1.000e+00
	Linear fluid (dielectric constant: 78.4, screening length: 5.74355 Bohr) occupying 0.735796 of unit cell:	Completed after 10 iterations at t[s]:     79.28
	Linear fluid (dielectric constant: 78.4, screening length: 5.74355 Bohr) occupying 0.735792 of unit cell:	Completed after 10 iterations at t[s]:     92.08
	FillingsUpdate:  mu: -0.156970896  nElectrons: 762.000000
	SubspaceRotationAdjust: set factor to 0.816
ElecMinimize: Iter:   1  F: -5736.932827303116937  |grad|_K:  2.059e-07  alpha:  4.297e-02  linmin: -3.765e-04  t[s]:    105.14
	Linear fluid (dielectric constant: 78.4, screening length: 5.74355 Bohr) occupying 0.735792 of unit cell:	Completed after 1 iterations at t[s]:    117.86
	Linear fluid (dielectric constant: 78.4, screening length: 5.74355 Bohr) occupying 0.735792 of unit cell:	Completed after 2 iterations at t[s]:    128.96
	FillingsUpdate:  mu: -0.156966545  nElectrons: 762.000000
	SubspaceRotationAdjust: set factor to 0.481
ElecMinimize: Iter:   2  F: -5736.932828010968478  |grad|_K:  1.469e-07  alpha:  1.053e-01  linmin:  1.392e-04  t[s]:    142.22
	Linear fluid (dielectric constant: 78.4, screening length: 5.74355 Bohr) occupying 0.735792 of unit cell:	Completed after 3 iterations at t[s]:    154.06
	Linear fluid (dielectric constant: 78.4, screening length: 5.74355 Bohr) occupying 0.735792 of unit cell:	Completed after 0 iterations at t[s]:    164.39
	FillingsUpdate:  mu: -0.156960858  nElectrons: 762.000000
	SubspaceRotationAdjust: set factor to 0.235
ElecMinimize: Iter:   3  F: -5736.932828333013276  |grad|_K:  1.217e-07  alpha:  6.130e-02  linmin:  5.966e-03  t[s]:    176.62
	Linear fluid (dielectric constant: 78.4, screening length: 5.74355 Bohr) occupying 0.735792 of unit cell:	Completed after 0 iterations at t[s]:    188.26
ElecMinimize: 	Predicted alpha/alphaT>3.000000, increasing alphaT to 1.838881e-01.
	Linear fluid (dielectric constant: 78.4, screening length: 5.74355 Bohr) occupying 0.735792 of unit cell:	Completed after 1 iterations at t[s]:    199.14
	Linear fluid (dielectric constant: 78.4, screening length: 5.74355 Bohr) occupying 0.735792 of unit cell:	Completed after 0 iterations at t[s]:    209.72
	FillingsUpdate:  mu: -0.156975786  nElectrons: 762.000000
	SubspaceRotationAdjust: set factor to 0.154
ElecMinimize: Iter:   4  F: -5736.932828346145470  |grad|_K:  8.664e-08  alpha:  7.222e-02  linmin:  1.242e-03  t[s]:    222.68
	Linear fluid (dielectric constant: 78.4, screening length: 5.74355 Bohr) occupying 0.735792 of unit cell:	Completed after 0 iterations at t[s]:    236.07
ElecMinimize: 	Predicted alpha/alphaT>3.000000, increasing alphaT to 2.166576e-01.
	Linear fluid (dielectric constant: 78.4, screening length: 5.74355 Bohr) occupying 0.735792 of unit cell:	Completed after 1 iterations at t[s]:    246.91
	Linear fluid (dielectric constant: 78.4, screening length: 5.74355 Bohr) occupying 0.735792 of unit cell:	Completed after 0 iterations at t[s]:    257.16
	FillingsUpdate:  mu: -0.156970539  nElectrons: 762.000000
	SubspaceRotationAdjust: set factor to 0.1
	SubspaceRotationAdjust: resetting CG because factor has changed by 0.100365
	Linear fluid (dielectric constant: 78.4, screening length: 5.74355 Bohr) occupying 0.735792 of unit cell:	Completed after 0 iterations at t[s]:    275.45
ElecMinimize: 	State modified externally: resetting search direction.
ElecMinimize: Iter:   5  F: -5736.932828439401419  |grad|_K:  4.774e-08  alpha:  1.048e-01
	Linear fluid (dielectric constant: 78.4, screening length: 5.74355 Bohr) occupying 0.735792 of unit cell:	Completed after 0 iterations at t[s]:    299.40
	Linear fluid (dielectric constant: 78.4, screening length: 5.74355 Bohr) occupying 0.735792 of unit cell:	Completed after 0 iterations at t[s]:    310.26
	FillingsUpdate:  mu: -0.156971476  nElectrons: 762.000000
	SubspaceRotationAdjust: set factor to 0.0546
ElecMinimize: Iter:   6  F: -5736.932828448696455  |grad|_K:  3.601e-08  alpha:  7.605e-02  linmin: -2.548e-02  t[s]:    323.33
	Linear fluid (dielectric constant: 78.4, screening length: 5.74355 Bohr) occupying 0.735792 of unit cell:	Completed after 0 iterations at t[s]:    335.52
ElecMinimize: 	Predicted alpha/alphaT>3.000000, increasing alphaT to 2.281502e-01.
	Linear fluid (dielectric constant: 78.4, screening length: 5.74355 Bohr) occupying 0.735792 of unit cell:	Completed after 2 iterations at t[s]:    346.17
	Linear fluid (dielectric constant: 78.4, screening length: 5.74355 Bohr) occupying 0.735792 of unit cell:	Completed after 0 iterations at t[s]:    357.32
	FillingsUpdate:  mu: -0.156976361  nElectrons: 762.000000
	SubspaceRotationAdjust: set factor to 0.047
ElecMinimize: Iter:   7  F: -5736.932828493977468  |grad|_K:  8.272e-08  alpha:  4.606e-02  linmin:  1.409e-02  t[s]:    370.60
ElecMinimize: 	Bad step direction: g.d > 0.
ElecMinimize: 	Undoing step.
	Linear fluid (dielectric constant: 78.4, screening length: 5.74355 Bohr) occupying 0.735792 of unit cell:	Completed after 0 iterations at t[s]:    382.42
ElecMinimize: 	Step failed: resetting search direction.
	FillingsUpdate:  mu: -0.156976361  nElectrons: 762.000000
	SubspaceRotationAdjust: set factor to 0.0572
ElecMinimize: Iter:   8  F: -5736.932828493970192  |grad|_K:  8.160e-08  alpha:  0.000e+00
	Linear fluid (dielectric constant: 78.4, screening length: 5.74355 Bohr) occupying 0.735792 of unit cell:	Completed after 1 iterations at t[s]:    407.47
	Linear fluid (dielectric constant: 78.4, screening length: 5.74355 Bohr) occupying 0.735792 of unit cell:	Completed after 0 iterations at t[s]:    417.91
ElecMinimize: 	Step increased F by 6.302889e-08, reducing alpha to 1.793850e-03.
	Linear fluid (dielectric constant: 78.4, screening length: 5.74355 Bohr) occupying 0.735792 of unit cell:	Completed after 0 iterations at t[s]:    440.09
ElecMinimize: 	Step increased F by 8.359348e-08, reducing alpha to 1.793850e-04.
	Linear fluid (dielectric constant: 78.4, screening length: 5.74355 Bohr) occupying 0.735792 of unit cell:	Completed after 0 iterations at t[s]:    461.90
ElecMinimize: 	Step increased F by 8.564894e-08, reducing alpha to 1.793850e-05.
ElecMinimize: 	Step failed to reduce F after 3 attempts. Quitting step.
ElecMinimize: 	Undoing step.
	Linear fluid (dielectric constant: 78.4, screening length: 5.74355 Bohr) occupying 0.735792 of unit cell:	Completed after 0 iterations at t[s]:    483.55
ElecMinimize: 	Step failed along negative gradient direction.
ElecMinimize: Probably at roundoff error limit. (Stopping)
Setting wave functions to eigenvectors of Hamiltonian

# Ionic positions in lattice coordinates:
ion Ni   0.082334118568968   0.082334115997540   0.537577342960231 0
ion Ni  -0.000860295350962  -0.000860297922391   0.465599058143562 0
ion Ni   0.335326625163650   0.082334115997540   0.537577342960231 0
ion Ni   0.248598677006512   0.002797505717135   0.464406785341277 0
ion Ni   0.581504489827445   0.088157936511706   0.538139928735602 0
ion Ni   0.501715453003511  -0.000860297922391   0.465599058143562 0
ion Ni   0.830332433391007   0.088157936511706   0.538139928735602 0
ion Ni   0.749941044133513   0.000112771463132   0.465182599243594 0
ion Ni   0.082334118568968   0.335326622592222   0.537577342960231 0
ion Ni   0.002797508288563   0.248598674435083   0.464406785341277 0
ion Ni   0.332006260422611   0.332006257851183   0.535831799193832 0
ion Ni   0.248598677006512   0.248598674435083   0.464406785341277 0
ion Ni   0.580579406908700   0.338836045912759   0.530503930256892 0
ion Ni   0.497895464373075   0.252669374017721   0.462050791828587 0
ion Ni   0.835982341456365   0.332006257851183   0.535831799193832 0
ion Ni   0.749430021339362   0.252669374017721   0.462050791828587 0
ion Ni   0.088157939083134   0.581504487256017   0.538139928735602 0
ion Ni  -0.000860295350962   0.501715450432083   0.465599058143562 0
ion Ni   0.338836048484187   0.580579404337271   0.530503930256892 0
ion Ni   0.252669376589150   0.497895461801647   0.462050791828587 0
ion Ni   0.580579406908700   0.580579404337271   0.530503930256892 0
ion Ni   0.499998287433862   0.499998284862434   0.459072333229185 0
ion Ni   0.830332433391007   0.581504487256017   0.538139928735602 0
ion Ni   0.749430021339362   0.497895461801647   0.462050791828587 0
ion Ni   0.088157939083134   0.830332430819579   0.538139928735602 0
ion Ni   0.000112774034560   0.749941041562085   0.465182599243594 0
ion Ni   0.332006260422611   0.835982338884936   0.535831799193832 0
ion Ni   0.252669376589150   0.749430018767933   0.462050791828587 0
ion Ni   0.581504489827445   0.830332430819579   0.538139928735602 0
ion Ni   0.497895464373075   0.749430018767933   0.462050791828587 0
ion Ni   0.833331620767196   0.833331618195767   0.538256269745407 0
ion Ni   0.749941044133513   0.749941041562085   0.465182599243594 0
ion Te   0.082074898371546   0.082074895800118   0.399673698308951 0
ion Te  -0.001226098701818  -0.001226101273247   0.601965625122032 0
ion Te   0.335845065558494   0.082074895800118   0.399673698308951 0
ion Te   0.249451458674169   0.001091942381820   0.602003654089030 0
ion Te   0.583194990566444   0.083922425162705   0.400699565980811 0
ion Te   0.502447059705223  -0.001226101273247   0.601965625122032 0
ion Te   0.832877444001009   0.083922425162705   0.400699565980811 0
ion Te   0.749432834180311   0.001129191369537   0.602023468409915 0
ion Te   0.082074898371546   0.335845062987065   0.399673698308951 0
ion Te   0.001091944953248   0.249451456102741   0.602003654089030 0
ion Te   0.330923594745487   0.330923592174059   0.397841811769758 0
ion Te   0.249451458674169   0.249451456102741   0.602003654089030 0
ion Te   0.583113961766229   0.333766936197701   0.396159495329480 0
ion Te   0.499354377982159   0.258546546817822   0.599861063205005 0
ion Te   0.838147672810613   0.330923592174059   0.397841811769758 0
ion Te   0.742093934930177   0.258546546817822   0.599861063205005 0
ion Te   0.083922427734134   0.583194987995016   0.400699565980811 0
ion Te  -0.001226098701818   0.502447057133795   0.601965625122032 0
ion Te   0.333766938769129   0.583113959194800   0.396159495329480 0
ion Te   0.258546549389250   0.499354375410731   0.599861063205005 0
ion Te   0.583113961766229   0.583113959194800   0.396159495329480 0
ion Te   0.832877444001009   0.583194987995016   0.400699565980811 0
ion Te   0.742093934930177   0.499354375410731   0.599861063205005 0
ion Te   0.083922427734133   0.832877441429581   0.400699565980811 0
ion Te   0.001129193940965   0.749432831608882   0.602023468409915 0
ion Te   0.330923594745487   0.838147670239184   0.397841811769758 0
ion Te   0.258546549389250   0.742093932358749   0.599861063205005 0
ion Te   0.583194990566444   0.832877441429581   0.400699565980811 0
ion Te   0.499354377982159   0.742093932358749   0.599861063205005 0
ion Te   0.833331620767196   0.833331618195767   0.400750728019668 0
ion Te   0.749432834180311   0.749432831608882   0.602023468409915 0


# Forces in Lattice coordinates:
force Ni   0.004377597219464   0.004377597219462  -0.029618557094609 0
force Ni  -0.008026981754587  -0.008026981754580   0.025170194296940 0
force Ni  -0.004377597219462   0.000000000000000  -0.029618557094609 0
force Ni   0.000000000000000   0.010362576169753   0.073650134356462 0
force Ni  -0.002916510096349   0.010760843593523   0.003303619056561 0
force Ni   0.008026981754580   0.000000000000000   0.025170194296940 0
force Ni   0.002916510096347   0.013677353689874   0.003303619056561 0
force Ni   0.000000000000000   0.001118835054021   0.050828514898945 0
force Ni   0.000000000000000  -0.004377597219462  -0.029618557094609 0
force Ni   0.010362576169751   0.000000000000000   0.073650134356462 0
force Ni   0.015811989500623   0.015811989500630  -0.065281754055672 0
force Ni  -0.010362576169752  -0.010362576169753   0.073650134356235 0
force Ni   0.000000000000000   0.068555017445742  -0.002774410403293 0
force Ni   0.002738605802233   0.021593835974913   0.025029957192320 0
force Ni  -0.015811989500626   0.000000000000000  -0.065281754055899 0
force Ni  -0.002738605802232   0.018855230172682   0.025029957192320 0
force Ni   0.010760843593526  -0.002916510096349   0.003303619056561 0
force Ni   0.000000000000000   0.008026981754580   0.025170194296940 0
force Ni   0.068555017445742   0.000000000000000  -0.002774410403521 0
force Ni   0.021593835974913   0.002738605802232   0.025029957192093 0
force Ni  -0.068555017445742  -0.068555017445756  -0.002774410403066 0
force Ni   0.000000000000000   0.000000000000000   0.099001471524772 0
force Ni  -0.010760843593526  -0.013677353689875   0.003303619056561 0
force Ni  -0.021593835974912  -0.018855230172682   0.025029957192320 0
force Ni   0.013677353689874   0.002916510096347   0.003303619056333 0
force Ni   0.001118835054023   0.000000000000000   0.050828514898945 0
force Ni   0.000000000000000  -0.015811989500626  -0.065281754055899 0
force Ni   0.018855230172682  -0.002738605802232   0.025029957192320 0
force Ni  -0.013677353689875  -0.010760843593525   0.003303619056333 0
force Ni  -0.018855230172682  -0.021593835974912   0.025029957192320 0
force Ni   0.000000000000000   0.000000000000000  -0.001217982021540 0
force Ni  -0.001118835054023  -0.001118835054024   0.050828514898490 0
force Te   0.010874522769529   0.010874522769530  -0.231700279149670 0
force Te  -0.004599234268153  -0.004599234268157   0.244032722547321 0
force Te  -0.010874522769530   0.000000000000000  -0.231700279149897 0
force Te   0.000000000000000  -0.000476609031678   0.248800621211769 0
force Te   0.003221116009204  -0.000975822724605  -0.244169871975962 0
force Te   0.004599234268155   0.000000000000000   0.244032722547321 0
force Te  -0.003221116009203  -0.004196938733809  -0.244169871975848 0
force Te   0.000000000000000   0.010299705464288   0.233444933884254 0
force Te   0.000000000000000  -0.010874522769529  -0.231700279149670 0
force Te  -0.000476609031679   0.000000000000000   0.248800621211770 0
force Te   0.007121087203663   0.007121087203663  -0.257838144412486 0
force Te   0.000476609031678   0.000476609031678   0.248800621211769 0
force Te   0.000000000000000  -0.033551979473993  -0.296425349125174 0
force Te  -0.011655572739447  -0.022365502838278   0.243917868013966 0
force Te  -0.007121087203663   0.000000000000000  -0.257838144412259 0
force Te   0.011655572739448  -0.010709930098828   0.243917868013967 0
force Te  -0.000975822724606   0.003221116009204  -0.244169871976189 0
force Te   0.000000000000000   0.004599234268155   0.244032722547321 0
force Te  -0.033551979473989   0.000000000000000  -0.296425349125174 0
force Te  -0.022365502838278  -0.011655572739448   0.243917868013967 0
force Te   0.033551979473991   0.033551979473993  -0.296425349125174 0
force Te   0.000975822724605   0.004196938733809  -0.244169871975962 0
force Te   0.022365502838271   0.010709930098828   0.243917868013966 0
force Te  -0.004196938733809  -0.003221116009204  -0.244169871975849 0
force Te   0.010299705464288   0.000000000000000   0.233444933884254 0
force Te   0.000000000000000  -0.007121087203663  -0.257838144412259 0
force Te  -0.010709930098827   0.011655572739448   0.243917868013853 0
force Te   0.004196938733809   0.000975822724606  -0.244169871975849 0
force Te   0.010709930098828   0.022365502838274   0.243917868013853 0
force Te   0.000000000000000   0.000000000000000  -0.241343443653710 0
force Te  -0.010299705464288  -0.010299705464288   0.233444933884254 0

# Energy components:
   A_diel =        0.0081697262618219
   Eewald =    21229.7486157045786968
       EH =    26326.7942530348846049
     Eloc =   -54202.5776527277193964
      Enl =      717.1671542718615910
      Exc =     -793.5267944173033356
 Exc_core =      166.4326123579260752
       KE =      819.1935924350859750
  MuShift =        0.0000000000025596
-------------------------------------
     Etot =    -5736.7600496144214048
       TS =        0.1727787938814711
-------------------------------------
        F =    -5736.9328284083030667

IonicMinimize: Iter:   0  F: -5736.932828408303067  |grad|_K:  0.000e+00  t[s]:    506.92
IonicMinimize: Converged (|grad|_K<1.000000e-04).

#--- Lowdin population analysis ---
# oxidation-state Ni -0.548 -0.563 -0.548 -0.556 -0.541 -0.563 -0.541 -0.560 -0.548 -0.556 -0.542 -0.556 -0.376 -0.557 -0.542 -0.557 -0.541 -0.563 -0.376 -0.557 -0.376 -0.482 -0.541 -0.557 -0.541 -0.560 -0.542 -0.557 -0.541 -0.557 -0.555 -0.560
# oxidation-state Te +0.690 +0.683 +0.690 +0.692 +0.699 +0.683 +0.699 +0.692 +0.690 +0.692 +0.693 +0.692 +0.718 +0.671 +0.693 +0.671 +0.699 +0.683 +0.718 +0.671 +0.718 +0.699 +0.671 +0.699 +0.692 +0.693 +0.671 +0.699 +0.671 +0.690 +0.692


Dumping 'NbTe2.fillings' ... done
Dumping 'NbTe2.wfns' ... done
Dumping 'NbTe2.fluidState' ... done
Dumping 'NbTe2.eigenvals' ... done
End date and time: Sat Jul 11 08:38:54 2020  (Duration: 0-0:08:34.83)
Done!

*************** JDFTx 1.5.0  ***************

Start date and time: Sat Jul 11 08:49:35 2020
Executable jdftx_gpu with command-line: -i Neutral.in -o Neutral.out
Running on hosts (process indices):  amax (0-2)
Divided in process groups (process indices):  0 (0)  1 (1)  2 (2)
gpuInit: Found compatible cuda device 0 'Tesla K80'
gpuInit: Found compatible cuda device 1 'Tesla K80'
gpuInit: Found compatible cuda device 2 'Tesla K80'
gpuInit: Selected device 0
Resource initialization completed at t[s]:     10.92
Run totals: 3 processes, 24 threads, 3 GPUs
Could not open file 'Neutral.in' for reading.
