
*************** JDFTx 1.5.0  ***************

Start date and time: Sat Dec 26 04:09:34 2020
Executable jdftx_gpu with command-line: -i Charged.in -o Charged.out
Running on hosts (process indices):  amax (0-4)
Divided in process groups (process indices):  0 (0)  1 (1)  2 (2)  3 (3)  4 (4)
gpuInit: Found compatible cuda device 0 'Tesla K80'
gpuInit: Found compatible cuda device 1 'Tesla K80'
gpuInit: Found compatible cuda device 2 'Tesla K80'
gpuInit: Found compatible cuda device 3 'Tesla K80'
gpuInit: Found compatible cuda device 4 'Tesla K80'
gpuInit: Selected device 0
Resource initialization completed at t[s]:      2.87
Run totals: 5 processes, 24 threads, 5 GPUs


Encountered 1 errors while parsing input:


Command 'lattice'  with command line:
	lattice Triclinic 12.64780 12.64780 90.0000 90.0000 119.9999 
failed with message:
	Parameter <gamma> must be specified.
The correct usage of this command is described below:
	lattice  [<modification>] <lattice> <parameters...>
	| \
	<R00> <R01> <R02> \
	<R10> <R11> <R12> \
	<R20> <R21> <R22>
Specify lattice by name and parameters, or explicitly using lattice vectors.

The options for the first syntax ([<modification>] <lattice> <parameters...> scheme) are:
+ Triclinic <a> <b> <c> <alpha> <beta> <gamma>
+ [Base-Centered] Monoclinic <a> <b> <c> <beta>
+ [Base|Body|Face-Centered] Orthorhombic <a> <b> <c>
+ [Body-Centered] Tetragonal <a> <c>
+ Rhombohedral <a> <alpha>
+ Hexagonal <a> <c>
+ [Body|Face-Centered] Cubic <a>
where lengths <a>,<b>,<c> are in bohrs and angles <alpha>,<beta,<gamma> are in degrees.

Alternately, the second syntax directly specifies the transformation
matrix from lattice to Cartesian coordinates. Therefore, the columns
of this 3x3 matrix are the lattice vectors in bohrs.

NOTE: other DFT codes may specify lattice vectors in rows;
confirm that you switch them to columns if porting an input file to JDFTx.



Input parsing failed with 1 errors (run with -t for command syntax)

End date and time: Sat Dec 26 04:09:37 2020  (Duration: 0-0:00:02.87)
Failed.

*************** JDFTx 1.5.0  ***************

Start date and time: Mon Dec 28 00:01:15 2020
Executable jdftx_gpu with command-line: -i Charged.in -o Charged.out
Running on hosts (process indices):  amax (0-4)
Divided in process groups (process indices):  0 (0)  1 (1)  2 (2)  3 (3)  4 (4)
gpuInit: Found compatible cuda device 0 'Tesla K80'
gpuInit: Found compatible cuda device 1 'Tesla K80'
gpuInit: Found compatible cuda device 2 'Tesla K80'
gpuInit: Found compatible cuda device 3 'Tesla K80'
gpuInit: Found compatible cuda device 4 'Tesla K80'
gpuInit: Selected device 0
Resource initialization completed at t[s]:      2.77
Run totals: 5 processes, 24 threads, 5 GPUs


Input parsed successfully to the following command list (including defaults):

basis kpoint-dependent
cache-projectors no
coords-type Lattice
core-overlap-check none
coulomb-interaction Slab 001
coulomb-truncation-embed 0.5 0.5 0.5
davidson-band-ratio 1.1
dump End State
dump-name NbTe2.$VAR
elec-cutoff 20
elec-eigen-algo Davidson
elec-ex-corr gga-PBE
elec-initial-charge 0.200000
elec-initial-magnetization 5.000000 no
elec-smearing Gauss 0.0073499
electronic-minimize  \
	dirUpdateScheme      FletcherReeves \
	linminMethod         DirUpdateRecommended \
	nIterations          200 \
	history              15 \
	knormThreshold       0 \
	energyDiffThreshold  1e-08 \
	nEnergyDiff          2 \
	alphaTstart          1 \
	alphaTmin            1e-10 \
	updateTestStepSize   yes \
	alphaTreduceFactor   0.1 \
	alphaTincreaseFactor 3 \
	nAlphaAdjustMax      3 \
	wolfeEnergy          0.0001 \
	wolfeGradient        0.9 \
	fdTest               no
exchange-regularization WignerSeitzTruncated
fluid LinearPCM 298.000000 1.013250
fluid-anion F- 1 MeanFieldLJ \
	epsBulk 1 \
	pMol 0 \
	epsInf 1 \
	Pvap 0 \
	sigmaBulk 0 \
	Rvdw 2.24877 \
	Res 0 \
	tauNuc 343133
fluid-cation Na+ 1 MeanFieldLJ \
	epsBulk 1 \
	pMol 0 \
	epsInf 1 \
	Pvap 0 \
	sigmaBulk 0 \
	Rvdw 2.19208 \
	Res 0 \
	tauNuc 343133
fluid-ex-corr lda-TF lda-PZ
fluid-gummel-loop 10 1.000000e-05
fluid-minimize  \
	dirUpdateScheme      PolakRibiere \
	linminMethod         DirUpdateRecommended \
	nIterations          400 \
	history              15 \
	knormThreshold       1e-11 \
	energyDiffThreshold  0 \
	nEnergyDiff          2 \
	alphaTstart          1 \
	alphaTmin            1e-10 \
	updateTestStepSize   yes \
	alphaTreduceFactor   0.1 \
	alphaTincreaseFactor 3 \
	nAlphaAdjustMax      6 \
	wolfeEnergy          0.0001 \
	wolfeGradient        0.9 \
	fdTest               no
fluid-solvent H2O 55.338 ScalarEOS \
	epsBulk 78.4 \
	pMol 0.92466 \
	epsInf 1.77 \
	Pvap 1.06736e-10 \
	sigmaBulk 4.62e-05 \
	Rvdw 2.61727 \
	Res 1.42 \
	tauNuc 343133 \
	poleEl 15 7 1
forces-output-coords Positions
initial-state NbTe2.$VAR
ion Mo   0.083329995000000   0.166669989000000   0.500000000000000 1
ion Mo   0.333329995000000   0.166669989000000   0.500000000000000 1
ion Mo   0.583329957000000   0.166669989000000   0.500000000000000 1
ion Mo   0.833329995000000   0.166669989000000   0.500000000000000 1
ion Mo   0.083329990000000   0.416669995000000   0.500000000000000 1
ion Mo   0.333329999000000   0.416669995000000   0.500000000000000 1
ion Mo   0.583329962000000   0.416669995000000   0.500000000000000 1
ion Mo   0.833329962000000   0.416669995000000   0.500000000000000 1
ion Mo   0.083329999000000   0.666669989000000   0.500000000000000 1
ion Mo   0.333329999000000   0.666669989000000   0.500000000000000 1
ion Mo   0.583329961000000   0.666669989000000   0.500000000000000 1
ion Mo   0.833329961000000   0.666669989000000   0.500000000000000 1
ion Mo   0.083329998000000   0.916669983000000   0.500000000000000 1
ion Mo   0.333329998000000   0.916669983000000   0.500000000000000 1
ion Mo   0.583329960000000   0.916669983000000   0.500000000000000 1
ion Mo   0.833329960000000   0.916669983000000   0.500000000000000 1
ion S   0.166669999000000   0.083329994000000   0.586509994000000 1
ion S   0.166669999000000   0.083329994000000   0.413490006000000 1
ion S   0.416669999000000   0.083329994000000   0.586509994000000 1
ion S   0.416669999000000   0.083329994000000   0.413490006000000 1
ion S   0.666670037000000   0.083329994000000   0.586509994000000 1
ion S   0.666670037000000   0.083329994000000   0.413490006000000 1
ion S   0.916670037000000   0.083329994000000   0.586509994000000 1
ion S   0.916670037000000   0.083329994000000   0.413490006000000 1
ion S   0.166669999000000   0.333329988000000   0.586509994000000 1
ion S   0.166669999000000   0.333329988000000   0.413490006000000 1
ion S   0.416669999000000   0.333329988000000   0.586509994000000 1
ion S   0.416669999000000   0.333329988000000   0.413490006000000 1
ion S   0.666670036000000   0.333329988000000   0.586509994000000 1
ion S   0.666670036000000   0.333329988000000   0.413490006000000 1
ion S   0.916669999000000   0.333329988000000   0.586509994000000 1
ion S   0.916669999000000   0.333329988000000   0.413490006000000 1
ion S   0.166669998000000   0.583329982000000   0.586509994000000 1
ion S   0.166669998000000   0.583329982000000   0.413490006000000 1
ion S   0.416669998000000   0.583329982000000   0.586509994000000 1
ion S   0.416669998000000   0.583329982000000   0.413490006000000 1
ion S   0.666670036000000   0.583329982000000   0.586509994000000 1
ion S   0.666670036000000   0.583329982000000   0.413490006000000 1
ion S   0.916670036000000   0.583329982000000   0.586509994000000 1
ion S   0.916670036000000   0.583329982000000   0.413490006000000 1
ion S   0.166669997000000   0.833329976000000   0.586509994000000 1
ion S   0.166669997000000   0.833329976000000   0.413490006000000 1
ion S   0.416669997000000   0.833329976000000   0.586509994000000 1
ion S   0.416669997000000   0.833329976000000   0.413490006000000 1
ion S   0.666670035000000   0.833329976000000   0.586509994000000 1
ion S   0.666670035000000   0.833329976000000   0.413490006000000 1
ion S   0.916670035000000   0.833329976000000   0.586509994000000 1
ion S   0.916670035000000   0.833329976000000   0.413490006000000 1
ion-species GBRV/$ID_pbe.uspp
ion-width Ecut
ionic-minimize  \
	dirUpdateScheme      L-BFGS \
	linminMethod         DirUpdateRecommended \
	nIterations          500 \
	history              15 \
	knormThreshold       0.0001 \
	energyDiffThreshold  1e-06 \
	nEnergyDiff          2 \
	alphaTstart          1 \
	alphaTmin            1e-10 \
	updateTestStepSize   yes \
	alphaTreduceFactor   0.1 \
	alphaTincreaseFactor 3 \
	nAlphaAdjustMax      3 \
	wolfeEnergy          0.0001 \
	wolfeGradient        0.9 \
	fdTest               no
kpoint   0.000000000000   0.000000000000   0.000000000000  1.00000000000000
kpoint-folding 5 5 1 
latt-move-scale 1 1 1
latt-scale 1.88973 1.88973 1.88973 
lattice Triclinic 12.6478 12.6478 18.1298 90 90 120
lattice-minimize  \
	dirUpdateScheme      L-BFGS \
	linminMethod         DirUpdateRecommended \
	nIterations          0 \
	history              15 \
	knormThreshold       0 \
	energyDiffThreshold  1e-06 \
	nEnergyDiff          2 \
	alphaTstart          1 \
	alphaTmin            1e-10 \
	updateTestStepSize   yes \
	alphaTreduceFactor   0.1 \
	alphaTincreaseFactor 3 \
	nAlphaAdjustMax      3 \
	wolfeEnergy          0.0001 \
	wolfeGradient        0.9 \
	fdTest               no
lcao-params -1 1e-06 0.0073499
pcm-variant CANDLE
spintype z-spin
subspace-rotation-factor 1 yes
symmetries automatic
symmetry-threshold 0.0001



---------- Setting up symmetries ----------

Found 24 point-group symmetries of the bravais lattice
Found 64 space-group symmetries with basis
Applied RMS atom displacement 4.95407e-07 bohrs to make symmetries exact.

---------- Initializing the Grid ----------
R = 
[    23.9009   -11.9504          0  ]
[          0    20.6988          0  ]
[          0          0    34.2604  ]
unit cell volume = 16949.3
G =
[   0.262885   0.151776         -0  ]
[          0   0.303553          0  ]
[          0         -0   0.183395  ]
Minimum fftbox size, Smin = [  100  100  140  ]
Chosen fftbox size, S = [  100  100  140  ]

---------- Exchange Correlation functional ----------
Initalized PBE GGA exchange.
Initalized PBE GGA correlation.

---------- Setting up pseudopotentials ----------
Width of ionic core gaussian charges (only for fluid interactions / plotting) set to 0.397384

Reading pseudopotential file '/home/guoxy/vasp/jdftx-1.5.0/build/pseudopotentials/GBRV/mo_pbe.uspp':
  Title: Mo.  Created by USPP 7.3.6 on 14-9-2013
  Reference state energy: -69.261020.  14 valence electrons in orbitals:
    |400>  occupation: 2  eigenvalue: -2.465796
    |410>  occupation: 6  eigenvalue: -1.510132
    |420>  occupation: 4  eigenvalue: -0.207728
    |500>  occupation: 2  eigenvalue: -0.179278
    |510>  occupation: 0  eigenvalue: -0.052696
  lMax: 2  lLocal: 3  QijEcut: 5
  6 projectors sampled on a log grid with 629 points:
    l: 0  eig: -2.465797  rCut: 1.8
    l: 0  eig: -0.179280  rCut: 1.8
    l: 1  eig: -1.510132  rCut: 2
    l: 1  eig: 0.150000  rCut: 2
    l: 2  eig: -0.052696  rCut: 2.2
    l: 2  eig: 0.150000  rCut: 2.2
  Partial core density with radius 1.2
  Transforming core density to a uniform radial grid of dG=0.02 with 1468 points.
  Transforming local potential to a uniform radial grid of dG=0.02 with 1468 points.
  Transforming nonlocal projectors to a uniform radial grid of dG=0.02 with 432 points.
  Transforming density augmentations to a uniform radial grid of dG=0.02 with 1468 points.
  Transforming atomic orbitals to a uniform radial grid of dG=0.02 with 432 points.
  Core radius for overlap checks: 2.20 bohrs.

Reading pseudopotential file '/home/guoxy/vasp/jdftx-1.5.0/build/pseudopotentials/GBRV/s_pbe.uspp':
  Title: S.  Created by USPP 7.3.6 on 1-4-15
  Reference state energy: -11.898476.  6 valence electrons in orbitals:
    |300>  occupation: 2  eigenvalue: -0.634167
    |310>  occupation: 4  eigenvalue: -0.257568
  lMax: 2  lLocal: 3  QijEcut: 6
  6 projectors sampled on a log grid with 635 points:
    l: 0  eig: -0.634161  rCut: 1.5
    l: 0  eig: 1.500000  rCut: 1.5
    l: 1  eig: -0.257567  rCut: 1.5
    l: 1  eig: 1.500000  rCut: 1.5
    l: 2  eig: -1.000000  rCut: 1.5
    l: 2  eig: 1.500000  rCut: 1.5
  Partial core density with radius 1.15
  Transforming core density to a uniform radial grid of dG=0.02 with 1468 points.
  Transforming local potential to a uniform radial grid of dG=0.02 with 1468 points.
  Transforming nonlocal projectors to a uniform radial grid of dG=0.02 with 432 points.
  Transforming density augmentations to a uniform radial grid of dG=0.02 with 1468 points.
  Transforming atomic orbitals to a uniform radial grid of dG=0.02 with 432 points.
  Core radius for overlap checks: 1.50 bohrs.

Initialized 2 species with 48 total atoms.

Folded 1 k-points by 5x5x1 to 25 k-points.

---------- Setting up k-points, bands, fillings ----------
Adding inversion symmetry to k-mesh for non-inversion-symmetric unit cell.
Reduced to 9 k-points under symmetry. 
Computing the number of bands and number of electrons
Calculating initial fillings.
nElectrons: 416.200000   nBands: 336   nStates: 18

----- Setting up reduced wavefunction bases (one per k-point) -----
average nbasis = 72415.080 , ideal nbasis = 72408.503

---------- Setting up coulomb interaction ----------
Fluid mode embedding: using embedded box, but periodic Coulomb kernel.
(Fluid response is responsible for (approximate) separation between periodic images.)
Setting up double-sized grid for truncated Coulomb potentials:
R = 
[    23.9009   -11.9504          0  ]
[          0    20.6988          0  ]
[          0          0    68.5207  ]
unit cell volume = 33898.5
G =
[   0.262885   0.151776         -0  ]
[          0   0.303553          0  ]
[          0         -0  0.0916976  ]
Chosen fftbox size, S = [  100  100  280  ]
Integer grid location selected as the embedding center:
   Grid: [  50  50  70  ]
   Lattice: [  0.5  0.5  0.5  ]
   Cartesian: [  5.97524  10.3494  17.1302  ]
Constructing Wigner-Seitz cell: 8 faces (6 quadrilaterals, 2 hexagons)
Range-separation parameter for embedded mesh potentials due to point charges: 0.624082 bohrs.

Initializing van der Waals corrections
	NOTE: vdW corrections apply only for interactions with fluid.
	Mo:  C6:  427.91 Eh-a0^6  R0: 3.097 a0
	 S:  C6:   96.61 Eh-a0^6  R0: 3.180 a0

---------- Setting up ewald sum ----------
Optimum gaussian width for ewald sums = 6.772724 bohr.
Real space sum over 605 unit cells with max indices [  5  5  2  ]
Reciprocal space sum over 7875 terms with max indices [  7  7  17  ]

---------- Allocating electronic variables ----------
Initializing wave functions:  linear combination of atomic orbitals
Mo pseudo-atom occupations:   s ( 2 0 )  p ( 6 0 )  d ( 6 )
S pseudo-atom occupations:   s ( 2 )  p ( 4 )
	FillingsUpdate:  mu: +2.837208254  nElectrons: 416.200000  magneticMoment: [ Abs: 0.32771  Tot: +0.32695 ]
LCAOMinimize: Iter:   0  F: -1201.1706731916649460  |grad|_K:  1.600e-02  alpha:  1.000e+00
	FillingsUpdate:  mu: -1.281796615  nElectrons: 416.200000  magneticMoment: [ Abs: 0.87260  Tot: +0.83004 ]
LCAOMinimize: Iter:   1  F: -1330.5632263885486282  |grad|_K:  1.078e-02  alpha:  4.521e-01  linmin:  9.845e-02  cgtest: -9.913e-01  t[s]:    395.03
LCAOMinimize: 	Bad step direction: g.d > 0.
LCAOMinimize: 	Undoing step.
LCAOMinimize: 	Step failed: resetting search direction.
	FillingsUpdate:  mu: -1.281796615  nElectrons: 416.200000  magneticMoment: [ Abs: 0.87260  Tot: +0.83004 ]
LCAOMinimize: Iter:   2  F: -1330.5632263885486282  |grad|_K:  1.078e-02  alpha:  0.000e+00
	FillingsUpdate:  mu: -0.524328636  nElectrons: 416.200000  magneticMoment: [ Abs: 0.19804  Tot: +0.05990 ]
LCAOMinimize: Iter:   3  F: -1402.8638116712895680  |grad|_K:  7.124e-03  alpha:  1.967e-01  linmin: -3.314e-01  cgtest:  6.792e-01  t[s]:    610.47
LCAOMinimize: Encountered beta<0, resetting CG.
LCAOMinimize: 	Predicted alpha/alphaT>3.000000, increasing alphaT to 5.901032e-01.
	FillingsUpdate:  mu: -0.404169792  nElectrons: 416.200000  magneticMoment: [ Abs: 0.27667  Tot: +0.06352 ]
LCAOMinimize: Iter:   4  F: -1414.6375512344209255  |grad|_K:  5.724e-03  alpha:  1.144e-01  linmin: -4.182e-01  cgtest:  7.906e-01  t[s]:    772.76
LCAOMinimize: 	Predicted alpha/alphaT>3.000000, increasing alphaT to 3.433174e-01.
	FillingsUpdate:  mu: -0.250107566  nElectrons: 416.200000  magneticMoment: [ Abs: 0.38989  Tot: +0.05484 ]
LCAOMinimize: Iter:   5  F: -1422.8550335685458776  |grad|_K:  2.302e-03  alpha:  1.431e-01  linmin: -4.388e-01  cgtest:  7.839e-01  t[s]:    933.87
LCAOMinimize: Encountered beta<0, resetting CG.
	FillingsUpdate:  mu: -0.083565514  nElectrons: 416.200000  magneticMoment: [ Abs: 0.39131  Tot: +0.04364 ]
LCAOMinimize: Iter:   6  F: -1423.8191468986110522  |grad|_K:  3.404e-04  alpha:  1.854e-01  linmin:  3.654e-01  cgtest: -7.440e-01  t[s]:   1058.94
	FillingsUpdate:  mu: -0.071655001  nElectrons: 416.200000  magneticMoment: [ Abs: 0.27975  Tot: +0.02839 ]
LCAOMinimize: Iter:   7  F: -1423.8292538924633845  |grad|_K:  3.877e-04  alpha:  3.726e-01  linmin:  1.625e-03  cgtest:  9.313e-01  t[s]:   1184.08
	FillingsUpdate:  mu: -0.104741300  nElectrons: 416.200000  magneticMoment: [ Abs: 0.23272  Tot: +0.02290 ]
LCAOMinimize: Iter:   8  F: -1423.8545212104997972  |grad|_K:  4.774e-05  alpha:  1.682e-01  linmin:  4.791e-02  cgtest: -2.286e-01  t[s]:   1309.13
LCAOMinimize: 	Predicted alpha/alphaT>3.000000, increasing alphaT to 5.044560e-01.
	FillingsUpdate:  mu: -0.101703262  nElectrons: 416.200000  magneticMoment: [ Abs: 0.11921  Tot: +0.00875 ]
LCAOMinimize: Iter:   9  F: -1423.8560591497546284  |grad|_K:  7.446e-06  alpha:  6.857e-01  linmin:  8.388e-03  cgtest:  1.863e-01  t[s]:   1469.76
LCAOMinimize: Encountered beta<0, resetting CG.
	FillingsUpdate:  mu: -0.100938528  nElectrons: 416.200000  magneticMoment: [ Abs: 0.09350  Tot: +0.00646 ]
LCAOMinimize: Iter:  10  F: -1423.8560777506520481  |grad|_K:  6.051e-06  alpha:  3.281e-01  linmin: -1.432e-04  cgtest:  6.468e-04  t[s]:   1594.61
	FillingsUpdate:  mu: -0.101449532  nElectrons: 416.200000  magneticMoment: [ Abs: 0.04778  Tot: +0.00255 ]
LCAOMinimize: Iter:  11  F: -1423.8560928675101422  |grad|_K:  1.118e-06  alpha:  4.038e-01  linmin: -2.471e-05  cgtest: -2.904e-03  t[s]:   1719.90
	FillingsUpdate:  mu: -0.101440987  nElectrons: 416.200000  magneticMoment: [ Abs: 0.01253  Tot: +0.00033 ]
LCAOMinimize: Iter:  12  F: -1423.8560941593259486  |grad|_K:  3.014e-07  alpha:  1.012e+00  linmin:  2.351e-04  cgtest: -8.586e-04  t[s]:   1845.18
	FillingsUpdate:  mu: -0.101453726  nElectrons: 416.200000  magneticMoment: [ Abs: 0.00151  Tot: -0.00001 ]
LCAOMinimize: Iter:  13  F: -1423.8560942616604734  |grad|_K:  1.392e-07  alpha:  1.102e+00  linmin: -2.170e-05  cgtest:  3.223e-04  t[s]:   1970.94
	FillingsUpdate:  mu: -0.101441079  nElectrons: 416.200000  magneticMoment: [ Abs: 0.00112  Tot: -0.00002 ]
LCAOMinimize: Iter:  14  F: -1423.8560942650087782  |grad|_K:  2.709e-08  alpha:  1.698e-01  linmin: -4.326e-04  cgtest:  8.598e-04  t[s]:   2096.21
LCAOMinimize: Converged (|Delta F|<1.000000e-06 for 2 iters).
----- createFluidSolver() ----- (Fluid-side solver setup)
   Initializing fluid molecule 'H2O'
     Initializing site 'O'
       Electron density: proportional to exp(-r/0.36935)*erfc((r-0.51523)/0.36823) with norm 6.826
       Charge density: gaussian nuclear width 0.478731 with net site charge 0.826
       Polarizability: cuspless exponential with width 0.32 and norm 3.73
       Hard sphere radius: 2.57003 bohrs
       Positions in reference frame:
         [ +0.000000 +0.000000 +0.000000 ]
     Initializing site 'H'
       Electron density: proportional to exp(-r/0.34641)*erfc((r-0)/0.390882) with norm 0.587
       Charge density: gaussian nuclear width 0.377945 with net site charge -0.413
       Polarizability: cuspless exponential with width 0.39 and norm 3.3
       Positions in reference frame:
         [ +0.000000 -1.441945 +1.122523 ]
         [ +0.000000 +1.441945 +1.122523 ]
     Net charge: 0   dipole magnitude: 0.927204
     Initializing spherical shell mfKernel with radius 2.61727 Bohr
     deltaS corrections:
       site 'O': -7.54299
       site 'H': -6.83917
   Initializing fluid molecule 'Na+'
     Initializing site 'Na'
       Electron density: proportional to exp(-r/0.19682)*erfc((r-0.71491)/0.41314) with norm 8.1383
       Charge density: gaussian nuclear width 0.365347 with net site charge -1
       Hard sphere radius: 1.86327 bohrs
       Positions in reference frame:
         [ +0.000000 +0.000000 +0.000000 ]
     Net charge: -1   dipole magnitude: 0
     Initializing gaussian mfKernel with width: 1.55004 Bohr
     deltaS corrections:
       site 'Na': -22.3555
   Initializing fluid molecule 'F-'
     Initializing site 'F'
       Electron density: proportional to exp(-r/0.38886)*erfc((r-0)/0.438782) with norm 8
       Charge density: gaussian nuclear width 0.374796 with net site charge 1
       Hard sphere radius: 2.39995 bohrs
       Positions in reference frame:
         [ +0.000000 +0.000000 +0.000000 ]
     Net charge: 1   dipole magnitude: 0
     Initializing gaussian mfKernel with width: 1.59012 Bohr
     deltaS corrections:
       site 'F': -9.04335

Correction to mu due to finite nuclear width = -0.0121762
   Cavity determined by nc: 0.00142 and sigma: 0.707107
   Nonlocal vdW cavity from gaussian model electron density with norm = 8 and sigma = 0.993594 bohr
   Charge asymmetry in cavity with sensitivity pCavity = 36.5 e-bohr/Eh
   Electrostatic cavity expanded by eta = 1.46 bohrs
   Weighted density cavitation model constrained by Nbulk: 0.0049383 bohr^-3, Pvap: 3.14029 kPa, Rvdw: 2.61727 bohr and sigmaBulk: 4.62e-05 Eh/bohr^2 at T: 298 K.
   Weighted density dispersion model using vdW pair potentials with single solvent site with sqrtC6eff: 0.77 SI.


---- Citations for features of the code used in this run ----

   Software package:
      R. Sundararaman, K. Letchworth-Weaver, K.A. Schwarz, D. Gunceler, Y. Ozhabes and T.A. Arias, 'JDFTx: software for joint density-functional theory', SoftwareX 6, 278 (2017)

   gga-PBE exchange-correlation functional:
      J.P. Perdew, K. Burke and M. Ernzerhof, Phys. Rev. Lett. 77, 3865 (1996)

   Pseudopotentials:
      KF Garrity, JW Bennett, KM Rabe and D Vanderbilt, Comput. Mater. Sci. 81, 446 (2014)

   Truncated Coulomb potentials:
      R. Sundararaman and T.A. Arias, Phys. Rev. B 87, 165122 (2013)

   Van der Waals correction pair-potentials:
      S. Grimme, J. Comput. Chem. 27, 1787 (2006)

   Charge-asymmetric nonlocally-determined local-electric (CANDLE) solvation model:
      R. Sundararaman and W.A. Goddard III, J. Chem. Phys. 142, 064107 (2015)

   Total energy minimization with Auxiliary Hamiltonian:
      C. Freysoldt, S. Boeck, and J. Neugebauer, Phys. Rev. B 79, 241103(R) (2009)

This list may not be complete. Please suggest additional citations or
report any other bugs at https://github.com/shankar1729/jdftx/issues

Initialization completed successfully at t[s]:   2112.42

Fluid solver invoked on fresh (partially random / LCAO) wavefunctions
Running a vacuum solve first:

-------- Initial electronic minimization -----------
	FillingsUpdate:  mu: -0.101441079  nElectrons: 416.200000  magneticMoment: [ Abs: 0.00112  Tot: -0.00002 ]
ElecMinimize: Iter:   0  F: -1423.856094265002639  |grad|_K:  6.443e-05  alpha:  1.000e+00
	FillingsUpdate:  mu: -0.022574721  nElectrons: 416.200000  magneticMoment: [ Abs: 0.00066  Tot: +0.00002 ]
	SubspaceRotationAdjust: set factor to 1
ElecMinimize: Iter:   1  F: -1425.269007815612213  |grad|_K:  3.906e-05  alpha:  7.782e-01  linmin: -3.197e-05  t[s]:   2387.89
	FillingsUpdate:  mu: -0.033058211  nElectrons: 416.200000  magneticMoment: [ Abs: 0.00057  Tot: +0.00002 ]
	SubspaceRotationAdjust: set factor to 1.18
ElecMinimize: Iter:   2  F: -1425.627400224672328  |grad|_K:  1.842e-05  alpha:  5.379e-01  linmin: -1.165e-05  t[s]:   2555.91
	FillingsUpdate:  mu: -0.053209493  nElectrons: 416.200000  magneticMoment: [ Abs: 0.00028  Tot: +0.00001 ]
	SubspaceRotationAdjust: set factor to 1.28
ElecMinimize: Iter:   3  F: -1425.730755402416662  |grad|_K:  1.142e-05  alpha:  6.945e-01  linmin:  3.530e-05  t[s]:   2723.93
	FillingsUpdate:  mu: -0.037263901  nElectrons: 416.200000  magneticMoment: [ Abs: 0.00025  Tot: +0.00001 ]
	SubspaceRotationAdjust: set factor to 0.888
ElecMinimize: Iter:   4  F: -1425.746578918514160  |grad|_K:  8.559e-06  alpha:  2.721e-01  linmin: -6.678e-05  t[s]:   2892.18
	FillingsUpdate:  mu: -0.048286648  nElectrons: 416.200000  magneticMoment: [ Abs: 0.00027  Tot: +0.00000 ]
	SubspaceRotationAdjust: set factor to 0.656
ElecMinimize: Iter:   5  F: -1425.758181907359130  |grad|_K:  5.565e-06  alpha:  3.560e-01  linmin:  2.150e-05  t[s]:   3060.21
	FillingsUpdate:  mu: -0.046618458  nElectrons: 416.200000  magneticMoment: [ Abs: 0.00025  Tot: +0.00000 ]
	SubspaceRotationAdjust: set factor to 0.832
ElecMinimize: Iter:   6  F: -1425.763977350115283  |grad|_K:  3.159e-06  alpha:  4.325e-01  linmin:  1.042e-05  t[s]:   3227.48
	FillingsUpdate:  mu: -0.044045078  nElectrons: 416.200000  magneticMoment: [ Abs: 0.00019  Tot: +0.00000 ]
	SubspaceRotationAdjust: set factor to 0.803
ElecMinimize: Iter:   7  F: -1425.766256865909327  |grad|_K:  2.152e-06  alpha:  5.238e-01  linmin:  5.727e-06  t[s]:   3395.88
	FillingsUpdate:  mu: -0.047857173  nElectrons: 416.200000  magneticMoment: [ Abs: 0.00014  Tot: +0.00000 ]
	SubspaceRotationAdjust: set factor to 0.67
ElecMinimize: Iter:   8  F: -1425.767077384004551  |grad|_K:  1.480e-06  alpha:  4.045e-01  linmin:  3.487e-07  t[s]:   3564.21
	FillingsUpdate:  mu: -0.046733761  nElectrons: 416.200000  magneticMoment: [ Abs: 0.00008  Tot: +0.00000 ]
	SubspaceRotationAdjust: set factor to 0.632
ElecMinimize: Iter:   9  F: -1425.767466037191753  |grad|_K:  8.373e-07  alpha:  4.043e-01  linmin: -3.693e-08  t[s]:   3732.22
	FillingsUpdate:  mu: -0.046934375  nElectrons: 416.200000  magneticMoment: [ Abs: 0.00004  Tot: +0.00000 ]
	SubspaceRotationAdjust: set factor to 0.735
ElecMinimize: Iter:  10  F: -1425.767619857286036  |grad|_K:  4.848e-07  alpha:  5.000e-01  linmin:  2.403e-06  t[s]:   3900.69
	FillingsUpdate:  mu: -0.047469413  nElectrons: 416.200000  magneticMoment: [ Abs: 0.00003  Tot: +0.00000 ]
	SubspaceRotationAdjust: set factor to 0.639
ElecMinimize: Iter:  11  F: -1425.767673827871477  |grad|_K:  3.593e-07  alpha:  5.238e-01  linmin:  2.072e-06  t[s]:   4068.87
	FillingsUpdate:  mu: -0.046897482  nElectrons: 416.200000  magneticMoment: [ Abs: 0.00002  Tot: +0.00000 ]
	SubspaceRotationAdjust: set factor to 0.476
ElecMinimize: Iter:  12  F: -1425.767695258610047  |grad|_K:  2.088e-07  alpha:  3.787e-01  linmin: -2.833e-08  t[s]:   4236.59
	FillingsUpdate:  mu: -0.047020623  nElectrons: 416.200000  magneticMoment: [ Abs: 0.00002  Tot: +0.00000 ]
	SubspaceRotationAdjust: set factor to 0.57
ElecMinimize: Iter:  13  F: -1425.767708235068312  |grad|_K:  1.464e-07  alpha:  6.788e-01  linmin:  8.681e-07  t[s]:   4404.69
	FillingsUpdate:  mu: -0.047126075  nElectrons: 416.200000  magneticMoment: [ Abs: 0.00002  Tot: -0.00000 ]
	SubspaceRotationAdjust: set factor to 0.586
ElecMinimize: Iter:  14  F: -1425.767712310936076  |grad|_K:  1.012e-07  alpha:  4.336e-01  linmin: -6.335e-08  t[s]:   4573.79
	FillingsUpdate:  mu: -0.047051391  nElectrons: 416.200000  magneticMoment: [ Abs: 0.00001  Tot: -0.00000 ]
	SubspaceRotationAdjust: set factor to 0.591
ElecMinimize: Iter:  15  F: -1425.767714814892770  |grad|_K:  6.227e-08  alpha:  5.572e-01  linmin:  3.736e-07  t[s]:   4742.87
	FillingsUpdate:  mu: -0.047084860  nElectrons: 416.200000  magneticMoment: [ Abs: 0.00001  Tot: -0.00000 ]
	SubspaceRotationAdjust: set factor to 0.623
ElecMinimize: Iter:  16  F: -1425.767715926085884  |grad|_K:  4.574e-08  alpha:  6.538e-01  linmin:  1.610e-07  t[s]:   4913.64
	FillingsUpdate:  mu: -0.047080588  nElectrons: 416.200000  magneticMoment: [ Abs: 0.00000  Tot: -0.00000 ]
	SubspaceRotationAdjust: set factor to 0.684
ElecMinimize: Iter:  17  F: -1425.767716373858775  |grad|_K:  3.373e-08  alpha:  4.877e-01  linmin:  5.039e-09  t[s]:   5082.71
	FillingsUpdate:  mu: -0.047060082  nElectrons: 416.200000  magneticMoment: [ Abs: 0.00000  Tot: -0.00000 ]
	SubspaceRotationAdjust: set factor to 0.72
ElecMinimize: Iter:  18  F: -1425.767716637260492  |grad|_K:  2.136e-08  alpha:  5.275e-01  linmin:  1.536e-07  t[s]:   5252.01
	FillingsUpdate:  mu: -0.047074651  nElectrons: 416.200000  magneticMoment: [ Abs: 0.00000  Tot: +0.00000 ]
	SubspaceRotationAdjust: set factor to 0.753
ElecMinimize: Iter:  19  F: -1425.767716754407047  |grad|_K:  1.535e-08  alpha:  5.861e-01  linmin:  7.369e-08  t[s]:   5421.96
	FillingsUpdate:  mu: -0.047065302  nElectrons: 416.200000  magneticMoment: [ Abs: 0.00000  Tot: +0.00000 ]
	SubspaceRotationAdjust: set factor to 0.761
ElecMinimize: Iter:  20  F: -1425.767716802934046  |grad|_K:  1.015e-08  alpha:  4.698e-01  linmin:  4.152e-09  t[s]:   5590.56
	FillingsUpdate:  mu: -0.047074641  nElectrons: 416.200000  magneticMoment: [ Abs: 0.00000  Tot: +0.00000 ]
	SubspaceRotationAdjust: set factor to 0.778
ElecMinimize: Iter:  21  F: -1425.767716823837873  |grad|_K:  6.553e-09  alpha:  4.627e-01  linmin:  2.067e-08  t[s]:   5758.46
	FillingsUpdate:  mu: -0.047072023  nElectrons: 416.200000  magneticMoment: [ Abs: 0.00000  Tot: +0.00000 ]
	SubspaceRotationAdjust: set factor to 0.794
ElecMinimize: Iter:  22  F: -1425.767716834672456  |grad|_K:  3.962e-09  alpha:  5.763e-01  linmin:  7.171e-08  t[s]:   5928.85
	FillingsUpdate:  mu: -0.047072976  nElectrons: 416.200000  magneticMoment: [ Abs: 0.00000  Tot: -0.00000 ]
	SubspaceRotationAdjust: set factor to 0.853
ElecMinimize: Iter:  23  F: -1425.767716838255183  |grad|_K:  2.999e-09  alpha:  5.217e-01  linmin:  4.649e-08  t[s]:   6096.54
	FillingsUpdate:  mu: -0.047072906  nElectrons: 416.200000  magneticMoment: [ Abs: 0.00000  Tot: -0.00000 ]
	SubspaceRotationAdjust: set factor to 0.977
ElecMinimize: Iter:  24  F: -1425.767716840076673  |grad|_K:  1.725e-09  alpha:  4.585e-01  linmin: -1.647e-07  t[s]:   6264.24
ElecMinimize: Converged (|Delta F|<1.000000e-08 for 2 iters).
Setting wave functions to eigenvectors of Hamiltonian
Vacuum energy after initial minimize, F = -1425.767716840076673

	Linear fluid (dielectric constant: 78.4, screening length: 5.74355 Bohr) occupying 0.753986 of unit cell:	Completed after 14 iterations at t[s]:   6301.87

-------- Electronic minimization -----------
	Linear fluid (dielectric constant: 78.4, screening length: 5.74355 Bohr) occupying 0.753986 of unit cell:	Completed after 0 iterations at t[s]:   6342.05
	FillingsUpdate:  mu: -0.156439319  nElectrons: 416.200000  magneticMoment: [ Abs: 0.00000  Tot: -0.00000 ]
ElecMinimize: Iter:   0  F: -1425.776801934792729  |grad|_K:  5.335e-07  alpha:  1.000e+00
	Linear fluid (dielectric constant: 78.4, screening length: 5.74355 Bohr) occupying 0.754444 of unit cell:	Completed after 5 iterations at t[s]:   6473.14
	Linear fluid (dielectric constant: 78.4, screening length: 5.74355 Bohr) occupying 0.754324 of unit cell:	Completed after 3 iterations at t[s]:   6524.56
	FillingsUpdate:  mu: -0.157054843  nElectrons: 416.200000  magneticMoment: [ Abs: 0.00004  Tot: -0.00000 ]
	SubspaceRotationAdjust: set factor to 0.584
ElecMinimize: Iter:   1  F: -1425.776892173033048  |grad|_K:  5.610e-07  alpha:  7.285e-01  linmin: -1.950e-07  t[s]:   6597.35
	Linear fluid (dielectric constant: 78.4, screening length: 5.74355 Bohr) occupying 0.754811 of unit cell:	Completed after 9 iterations at t[s]:   6649.97
	Linear fluid (dielectric constant: 78.4, screening length: 5.74355 Bohr) occupying 0.754483 of unit cell:	Completed after 9 iterations at t[s]:   6702.33
	FillingsUpdate:  mu: -0.155911846  nElectrons: 416.200000  magneticMoment: [ Abs: 0.00005  Tot: -0.00000 ]
	SubspaceRotationAdjust: set factor to 0.285
ElecMinimize: Iter:   2  F: -1425.776923480306323  |grad|_K:  1.238e-07  alpha:  2.316e-01  linmin:  1.611e-06  t[s]:   6776.94
	Linear fluid (dielectric constant: 78.4, screening length: 5.74355 Bohr) occupying 0.754493 of unit cell:	Completed after 1 iterations at t[s]:   6828.53
ElecMinimize: 	Predicted alpha/alphaT>3.000000, increasing alphaT to 6.949333e-01.
	Linear fluid (dielectric constant: 78.4, screening length: 5.74355 Bohr) occupying 0.754511 of unit cell:	Completed after 2 iterations at t[s]:   6879.59
	Linear fluid (dielectric constant: 78.4, screening length: 5.74355 Bohr) occupying 0.754515 of unit cell:	Completed after 0 iterations at t[s]:   6930.18
	FillingsUpdate:  mu: -0.156003850  nElectrons: 416.200000  magneticMoment: [ Abs: 0.00005  Tot: -0.00000 ]
	SubspaceRotationAdjust: set factor to 0.31
ElecMinimize: Iter:   3  F: -1425.776928729494557  |grad|_K:  9.358e-08  alpha:  7.889e-01  linmin: -4.184e-06  t[s]:   7002.05
	Linear fluid (dielectric constant: 78.4, screening length: 5.74355 Bohr) occupying 0.754538 of unit cell:	Completed after 2 iterations at t[s]:   7053.94
	Linear fluid (dielectric constant: 78.4, screening length: 5.74355 Bohr) occupying 0.754534 of unit cell:	Completed after 0 iterations at t[s]:   7104.56
	FillingsUpdate:  mu: -0.155992035  nElectrons: 416.200000  magneticMoment: [ Abs: 0.00004  Tot: -0.00000 ]
	SubspaceRotationAdjust: set factor to 0.332
ElecMinimize: Iter:   4  F: -1425.776931288614605  |grad|_K:  5.768e-08  alpha:  6.351e-01  linmin:  5.574e-05  t[s]:   7177.23
	Linear fluid (dielectric constant: 78.4, screening length: 5.74355 Bohr) occupying 0.754539 of unit cell:	Completed after 1 iterations at t[s]:   7229.20
	Linear fluid (dielectric constant: 78.4, screening length: 5.74355 Bohr) occupying 0.754538 of unit cell:	Completed after 0 iterations at t[s]:   7279.18
	FillingsUpdate:  mu: -0.156044822  nElectrons: 416.200000  magneticMoment: [ Abs: 0.00003  Tot: -0.00000 ]
	SubspaceRotationAdjust: set factor to 0.356
ElecMinimize: Iter:   5  F: -1425.776932064639595  |grad|_K:  3.469e-08  alpha:  5.830e-01  linmin: -2.550e-05  t[s]:   7351.50
	Linear fluid (dielectric constant: 78.4, screening length: 5.74355 Bohr) occupying 0.754537 of unit cell:	Completed after 2 iterations at t[s]:   7403.02
	Linear fluid (dielectric constant: 78.4, screening length: 5.74355 Bohr) occupying 0.754536 of unit cell:	Completed after 0 iterations at t[s]:   7453.29
	FillingsUpdate:  mu: -0.155993763  nElectrons: 416.200000  magneticMoment: [ Abs: 0.00002  Tot: -0.00000 ]
	SubspaceRotationAdjust: set factor to 0.421
ElecMinimize: Iter:   6  F: -1425.776932442173347  |grad|_K:  2.355e-08  alpha:  6.514e-01  linmin: -6.871e-06  t[s]:   7525.38
	Linear fluid (dielectric constant: 78.4, screening length: 5.74355 Bohr) occupying 0.754531 of unit cell:	Completed after 0 iterations at t[s]:   7576.72
	Linear fluid (dielectric constant: 78.4, screening length: 5.74355 Bohr) occupying 0.754530 of unit cell:	Completed after 0 iterations at t[s]:   7626.09
	FillingsUpdate:  mu: -0.155993921  nElectrons: 416.200000  magneticMoment: [ Abs: 0.00002  Tot: -0.00000 ]
	SubspaceRotationAdjust: set factor to 0.506
ElecMinimize: Iter:   7  F: -1425.776932633780689  |grad|_K:  2.092e-08  alpha:  7.366e-01  linmin:  1.010e-07  t[s]:   7698.63
	Linear fluid (dielectric constant: 78.4, screening length: 5.74355 Bohr) occupying 0.754523 of unit cell:	Completed after 0 iterations at t[s]:   7750.84
	Linear fluid (dielectric constant: 78.4, screening length: 5.74355 Bohr) occupying 0.754526 of unit cell:	Completed after 0 iterations at t[s]:   7801.40
	FillingsUpdate:  mu: -0.155993716  nElectrons: 416.200000  magneticMoment: [ Abs: 0.00001  Tot: -0.00000 ]
	SubspaceRotationAdjust: set factor to 0.666
ElecMinimize: Iter:   8  F: -1425.776932720373907  |grad|_K:  1.126e-08  alpha:  4.508e-01  linmin: -2.447e-08  t[s]:   7874.16
	Linear fluid (dielectric constant: 78.4, screening length: 5.74355 Bohr) occupying 0.754523 of unit cell:	Completed after 0 iterations at t[s]:   7926.44
	Linear fluid (dielectric constant: 78.4, screening length: 5.74355 Bohr) occupying 0.754521 of unit cell:	Completed after 0 iterations at t[s]:   7976.66
	FillingsUpdate:  mu: -0.155992882  nElectrons: 416.200000  magneticMoment: [ Abs: 0.00001  Tot: -0.00000 ]
	SubspaceRotationAdjust: set factor to 0.803
ElecMinimize: Iter:   9  F: -1425.776932769347241  |grad|_K:  7.776e-09  alpha:  8.841e-01  linmin:  3.987e-07  t[s]:   8048.93
	Linear fluid (dielectric constant: 78.4, screening length: 5.74355 Bohr) occupying 0.754519 of unit cell:	Completed after 1 iterations at t[s]:   8100.89
	Linear fluid (dielectric constant: 78.4, screening length: 5.74355 Bohr) occupying 0.754521 of unit cell:	Completed after 0 iterations at t[s]:   8151.71
ElecMinimize: 	Step increased F by 5.009883e-08, reducing alpha to 8.567006e-03.
	Linear fluid (dielectric constant: 78.4, screening length: 5.74355 Bohr) occupying 0.754521 of unit cell:	Completed after 0 iterations at t[s]:   8268.04
ElecMinimize: 	Step increased F by 3.890909e-08, reducing alpha to 8.567006e-04.
	Linear fluid (dielectric constant: 78.4, screening length: 5.74355 Bohr) occupying 0.754521 of unit cell:	Completed after 0 iterations at t[s]:   8384.41
ElecMinimize: 	Step increased F by 3.782338e-08, reducing alpha to 8.567006e-05.
ElecMinimize: 	Step failed to reduce F after 3 attempts. Quitting step.
ElecMinimize: 	Undoing step.
	Linear fluid (dielectric constant: 78.4, screening length: 5.74355 Bohr) occupying 0.754521 of unit cell:	Completed after 0 iterations at t[s]:   8500.21
ElecMinimize: 	Step failed: resetting search direction.
	FillingsUpdate:  mu: -0.156074801  nElectrons: 416.200000  magneticMoment: [ Abs: 0.00001  Tot: -0.00000 ]
	SubspaceRotationAdjust: set factor to 0.525
ElecMinimize: Iter:  10  F: -1425.776932731550005  |grad|_K:  4.164e-08  alpha:  8.567e-05
	Linear fluid (dielectric constant: 78.4, screening length: 5.74355 Bohr) occupying 0.754525 of unit cell:	Completed after 2 iterations at t[s]:   8625.82
	Linear fluid (dielectric constant: 78.4, screening length: 5.74355 Bohr) occupying 0.754522 of unit cell:	Completed after 1 iterations at t[s]:   8676.61
	FillingsUpdate:  mu: -0.155967271  nElectrons: 416.200000  magneticMoment: [ Abs: 0.00001  Tot: -0.00000 ]
	SubspaceRotationAdjust: set factor to 0.214
ElecMinimize: Iter:  11  F: -1425.776932735446962  |grad|_K:  1.603e-08  alpha:  1.582e-01  linmin:  2.624e-04  t[s]:   8750.53
	Linear fluid (dielectric constant: 78.4, screening length: 5.74355 Bohr) occupying 0.754522 of unit cell:	Completed after 0 iterations at t[s]:   8803.00
ElecMinimize: 	Predicted alpha/alphaT>3.000000, increasing alphaT to 4.745729e-01.
	Linear fluid (dielectric constant: 78.4, screening length: 5.74355 Bohr) occupying 0.754522 of unit cell:	Completed after 0 iterations at t[s]:   8852.67
ElecMinimize: 	Predicted alpha/alphaT>3.000000, increasing alphaT to 1.423719e+00.
	Linear fluid (dielectric constant: 78.4, screening length: 5.74355 Bohr) occupying 0.754521 of unit cell:	Completed after 2 iterations at t[s]:   8902.50
	Linear fluid (dielectric constant: 78.4, screening length: 5.74355 Bohr) occupying 0.754522 of unit cell:	Completed after 0 iterations at t[s]:   8953.53
	FillingsUpdate:  mu: -0.156065704  nElectrons: 416.200000  magneticMoment: [ Abs: 0.00001  Tot: -0.00000 ]
	SubspaceRotationAdjust: set factor to 0.115
	SubspaceRotationAdjust: resetting CG because factor has changed by 0.117778
	Linear fluid (dielectric constant: 78.4, screening length: 5.74355 Bohr) occupying 0.754522 of unit cell:	Completed after 0 iterations at t[s]:   9057.77
ElecMinimize: 	State modified externally: resetting search direction.
ElecMinimize: Iter:  12  F: -1425.776932832420243  |grad|_K:  1.546e-08  alpha:  4.895e-01
	Linear fluid (dielectric constant: 78.4, screening length: 5.74355 Bohr) occupying 0.754521 of unit cell:	Completed after 1 iterations at t[s]:   9182.58
	Linear fluid (dielectric constant: 78.4, screening length: 5.74355 Bohr) occupying 0.754521 of unit cell:	Completed after 0 iterations at t[s]:   9233.38
ElecMinimize: 	Step increased F by 6.412233e-08, reducing alpha to 1.219776e-02.
	Linear fluid (dielectric constant: 78.4, screening length: 5.74355 Bohr) occupying 0.754522 of unit cell:	Completed after 0 iterations at t[s]:   9348.90
ElecMinimize: 	Step increased F by 5.581819e-08, reducing alpha to 1.219776e-03.
	Linear fluid (dielectric constant: 78.4, screening length: 5.74355 Bohr) occupying 0.754522 of unit cell:	Completed after 0 iterations at t[s]:   9465.42
ElecMinimize: 	Step increased F by 5.504171e-08, reducing alpha to 1.219776e-04.
ElecMinimize: 	Step failed to reduce F after 3 attempts. Quitting step.
ElecMinimize: 	Undoing step.
	Linear fluid (dielectric constant: 78.4, screening length: 5.74355 Bohr) occupying 0.754522 of unit cell:	Completed after 0 iterations at t[s]:   9582.05
ElecMinimize: 	Step failed along negative gradient direction.
ElecMinimize: Probably at roundoff error limit. (Stopping)
Setting wave functions to eigenvectors of Hamiltonian
Single-point solvation energy estimate, DeltaF = -0.009215937298677

# Ionic positions in lattice coordinates:
ion Mo   0.083329990729167   0.166669999041667   0.500000000000000 1
ion Mo   0.333329990729167   0.166669999041667   0.500000000000000 1
ion Mo   0.583329990729167   0.166669999041667   0.500000000000000 1
ion Mo   0.833329990729167   0.166669999041667   0.500000000000000 1
ion Mo   0.083329990729167   0.416669999041667   0.500000000000000 1
ion Mo   0.333329990729167   0.416669999041667   0.500000000000000 1
ion Mo   0.583329990729167   0.416669999041667   0.500000000000000 1
ion Mo   0.833329990729167   0.416669999041667   0.500000000000000 1
ion Mo   0.083329990729167   0.666669999041667   0.500000000000000 1
ion Mo   0.333329990729167   0.666669999041667   0.500000000000000 1
ion Mo   0.583329990729167   0.666669999041667   0.500000000000000 1
ion Mo   0.833329990729167   0.666669999041667   0.500000000000000 1
ion Mo   0.083329990729167   0.916669999041667   0.500000000000000 1
ion Mo   0.333329990729167   0.916669999041667   0.500000000000000 1
ion Mo   0.583329990729167   0.916669999041667   0.500000000000000 1
ion Mo   0.833329990729167   0.916669999041667   0.500000000000000 1
ion S   0.166670009791667   0.083329979979167   0.586509994000000 1
ion S   0.166670009791667   0.083329979979167   0.413490006000000 1
ion S   0.416670009791667   0.083329979979167   0.586509994000000 1
ion S   0.416670009791667   0.083329979979167   0.413490006000000 1
ion S   0.666670009791667   0.083329979979167   0.586509994000000 1
ion S   0.666670009791667   0.083329979979167   0.413490006000000 1
ion S   0.916670009791667   0.083329979979167   0.586509994000000 1
ion S   0.916670009791667   0.083329979979167   0.413490006000000 1
ion S   0.166670009791667   0.333329979979167   0.586509994000000 1
ion S   0.166670009791667   0.333329979979167   0.413490006000000 1
ion S   0.416670009791667   0.333329979979167   0.586509994000000 1
ion S   0.416670009791667   0.333329979979167   0.413490006000000 1
ion S   0.666670009791667   0.333329979979167   0.586509994000000 1
ion S   0.666670009791667   0.333329979979167   0.413490006000000 1
ion S   0.916670009791667   0.333329979979167   0.586509994000000 1
ion S   0.916670009791667   0.333329979979167   0.413490006000000 1
ion S   0.166670009791667   0.583329979979167   0.586509994000000 1
ion S   0.166670009791667   0.583329979979167   0.413490006000000 1
ion S   0.416670009791667   0.583329979979167   0.586509994000000 1
ion S   0.416670009791667   0.583329979979167   0.413490006000000 1
ion S   0.666670009791667   0.583329979979167   0.586509994000000 1
ion S   0.666670009791667   0.583329979979167   0.413490006000000 1
ion S   0.916670009791667   0.583329979979167   0.586509994000000 1
ion S   0.916670009791667   0.583329979979167   0.413490006000000 1
ion S   0.166670009791667   0.833329979979167   0.586509994000000 1
ion S   0.166670009791667   0.833329979979167   0.413490006000000 1
ion S   0.416670009791667   0.833329979979167   0.586509994000000 1
ion S   0.416670009791667   0.833329979979167   0.413490006000000 1
ion S   0.666670009791667   0.833329979979167   0.586509994000000 1
ion S   0.666670009791667   0.833329979979167   0.413490006000000 1
ion S   0.916670009791667   0.833329979979167   0.586509994000000 1
ion S   0.916670009791667   0.833329979979167   0.413490006000000 1


# Forces in Lattice coordinates:
force Mo   0.000683596429064  -0.000683596429064   0.000000000000000 1
force Mo   0.000683596429064  -0.000683596429064   0.000000000000000 1
force Mo   0.000683596429064  -0.000683596429064  -0.000000000000000 1
force Mo   0.000683596429064  -0.000683596429064  -0.000000000000000 1
force Mo   0.000683596429064  -0.000683596429064  -0.000000000000000 1
force Mo   0.000683596429064  -0.000683596429064  -0.000000000000000 1
force Mo   0.000683596429064  -0.000683596429064  -0.000000000000000 1
force Mo   0.000683596429064  -0.000683596429064  -0.000000000000000 1
force Mo   0.000683596429064  -0.000683596429064   0.000000000000000 1
force Mo   0.000683596429064  -0.000683596429064  -0.000000000000000 1
force Mo   0.000683596429064  -0.000683596429064  -0.000000000000000 1
force Mo   0.000683596429064  -0.000683596429064  -0.000000000000000 1
force Mo   0.000683596429064  -0.000683596429064   0.000000000000000 1
force Mo   0.000683596429064  -0.000683596429064   0.000000000000000 1
force Mo   0.000683596429064  -0.000683596429064   0.000000000000000 1
force Mo   0.000683596429064  -0.000683596429064  -0.000000000000000 1
force S  -0.000541723689348   0.000541723689348   0.004222084087615 1
force S  -0.000541723689348   0.000541723689348  -0.004222084087727 1
force S  -0.000541723689348   0.000541723689348   0.004222084087842 1
force S  -0.000541723689348   0.000541723689348  -0.004222084087728 1
force S  -0.000541723689348   0.000541723689348   0.004222084087955 1
force S  -0.000541723689348   0.000541723689348  -0.004222084087615 1
force S  -0.000541723689348   0.000541723689348   0.004222084087956 1
force S  -0.000541723689348   0.000541723689348  -0.004222084087727 1
force S  -0.000541723689348   0.000541723689348   0.004222084087728 1
force S  -0.000541723689348   0.000541723689348  -0.004222084087615 1
force S  -0.000541723689348   0.000541723689348   0.004222084087728 1
force S  -0.000541723689348   0.000541723689348  -0.004222084087614 1
force S  -0.000541723689348   0.000541723689348   0.004222084087840 1
force S  -0.000541723689348   0.000541723689348  -0.004222084087843 1
force S  -0.000541723689348   0.000541723689348   0.004222084087728 1
force S  -0.000541723689348   0.000541723689348  -0.004222084087615 1
force S  -0.000541723689348   0.000541723689348   0.004222084087727 1
force S  -0.000541723689348   0.000541723689348  -0.004222084087729 1
force S  -0.000541723689348   0.000541723689348   0.004222084087841 1
force S  -0.000541723689348   0.000541723689348  -0.004222084087728 1
force S  -0.000541723689348   0.000541723689348   0.004222084087955 1
force S  -0.000541723689348   0.000541723689348  -0.004222084087842 1
force S  -0.000541723689348   0.000541723689348   0.004222084087729 1
force S  -0.000541723689348   0.000541723689348  -0.004222084087727 1
force S  -0.000541723689348   0.000541723689348   0.004222084087614 1
force S  -0.000541723689348   0.000541723689348  -0.004222084087728 1
force S  -0.000541723689348   0.000541723689348   0.004222084087729 1
force S  -0.000541723689348   0.000541723689348  -0.004222084087727 1
force S  -0.000541723689348   0.000541723689348   0.004222084087841 1
force S  -0.000541723689348   0.000541723689348  -0.004222084087728 1
force S  -0.000541723689348   0.000541723689348   0.004222084087841 1
force S  -0.000541723689348   0.000541723689348  -0.004222084087729 1

# Energy components:
   A_diel =       -0.0069088170700524
   Eewald =     8821.5981260505177488
       EH =    10013.9662808150296769
     Eloc =   -20664.9096503202090389
      Enl =      260.8754842493442538
      Exc =     -290.4250039826571310
 Exc_core =       76.0956977204624962
       KE =      357.0366730013577694
  MuShift =       -0.0024352432621107
-------------------------------------
     Etot =    -1425.7717365264859382
       TS =        0.0051962508894925
-------------------------------------
        F =    -1425.7769327773753503

IonicMinimize: Iter:   0  F: -1425.776932777375350  |grad|_K:  6.029e-05  t[s]:   9680.30
IonicMinimize: Converged (|grad|_K<1.000000e-04).

#--- Lowdin population analysis ---
# oxidation-state Mo -0.507 -0.507 -0.507 -0.507 -0.507 -0.507 -0.507 -0.507 -0.507 -0.507 -0.507 -0.507 -0.507 -0.507 -0.507 -0.507
# magnetic-moments Mo +0.000 +0.000 +0.000 +0.000 +0.000 +0.000 +0.000 +0.000 +0.000 +0.000 +0.000 +0.000 +0.000 +0.000 +0.000 +0.000
# oxidation-state S +0.314 +0.314 +0.314 +0.314 +0.314 +0.314 +0.314 +0.314 +0.314 +0.314 +0.314 +0.314 +0.314 +0.314 +0.314 +0.314 +0.314 +0.314 +0.314 +0.314 +0.314 +0.314 +0.314 +0.314 +0.314 +0.314 +0.314 +0.314 +0.314 +0.314 +0.314 +0.314
# magnetic-moments S -0.000 -0.000 -0.000 -0.000 -0.000 -0.000 -0.000 -0.000 -0.000 -0.000 -0.000 -0.000 -0.000 -0.000 -0.000 -0.000 -0.000 -0.000 -0.000 -0.000 -0.000 -0.000 -0.000 -0.000 -0.000 -0.000 -0.000 -0.000 -0.000 -0.000 -0.000 -0.000


Dumping 'NbTe2.fillings' ... done
Dumping 'NbTe2.wfns' ... done
Dumping 'NbTe2.fluidState' ... done
Dumping 'NbTe2.ionpos' ... done
Dumping 'NbTe2.eigenvals' ... done
End date and time: Mon Dec 28 02:42:55 2020  (Duration: 0-2:41:40.24)
Done!
