
*************** JDFTx 1.5.0  ***************

Start date and time: Sun Jul  5 12:17:09 2020
Executable jdftx_gpu with command-line: -i Neutral.in -o Neutral.out
Running on hosts (process indices):  amax (0)
Divided in process groups (process indices):  0 (0)
gpuInit: Found compatible cuda device 0 'Tesla K80'
gpuInit: Selected device 0
Resource initialization completed at t[s]:     12.20
Run totals: 1 processes, 24 threads, 1 GPUs


Input parsed successfully to the following command list (including defaults):

basis kpoint-dependent
cache-projectors no
coords-type Lattice
core-overlap-check none
coulomb-interaction Slab 001
coulomb-truncation-embed 0 0 0.5
davidson-band-ratio 1.1
dump End State
dump-name NbTe2.$VAR
elec-cutoff 20 100
elec-eigen-algo Davidson
elec-ex-corr gga-PBE
elec-smearing Gauss 0.0073499
electronic-minimize  \
	dirUpdateScheme      FletcherReeves \
	linminMethod         DirUpdateRecommended \
	nIterations          100 \
	history              15 \
	knormThreshold       0 \
	energyDiffThreshold  1e-08 \
	nEnergyDiff          2 \
	alphaTstart          1 \
	alphaTmin            1e-10 \
	updateTestStepSize   yes \
	alphaTreduceFactor   0.1 \
	alphaTincreaseFactor 3 \
	nAlphaAdjustMax      3 \
	wolfeEnergy          0.0001 \
	wolfeGradient        0.9 \
	fdTest               no
electronic-scf  \
	nIterations	300 \
	energyDiffThreshold	1e-08 \
	residualThreshold	1e-07 \
	mixFraction	0.5 \
	qMetric	0.8 \
	history	10 \
	nEigSteps	2 \
	eigDiffThreshold	1e-08 \
	mixedVariable	Density \
	qKerker	0.8 \
	qKappa	-1 \
	verbose	no \
	mixFractionMag	1.5
exchange-regularization WignerSeitzTruncated
fluid LinearPCM 298.000000 1.013250
fluid-anion F- 1 MeanFieldLJ \
	epsBulk 1 \
	pMol 0 \
	epsInf 1 \
	Pvap 0 \
	sigmaBulk 0 \
	Rvdw 2.24877 \
	Res 0 \
	tauNuc 343133
fluid-cation Na+ 1 MeanFieldLJ \
	epsBulk 1 \
	pMol 0 \
	epsInf 1 \
	Pvap 0 \
	sigmaBulk 0 \
	Rvdw 2.19208 \
	Res 0 \
	tauNuc 343133
fluid-ex-corr lda-TF lda-PZ
fluid-gummel-loop 10 1.000000e-05
fluid-minimize  \
	dirUpdateScheme      PolakRibiere \
	linminMethod         DirUpdateRecommended \
	nIterations          400 \
	history              15 \
	knormThreshold       1e-11 \
	energyDiffThreshold  0 \
	nEnergyDiff          2 \
	alphaTstart          1 \
	alphaTmin            1e-10 \
	updateTestStepSize   yes \
	alphaTreduceFactor   0.1 \
	alphaTincreaseFactor 3 \
	nAlphaAdjustMax      6 \
	wolfeEnergy          0.0001 \
	wolfeGradient        0.9 \
	fdTest               no
fluid-solvent H2O 55.338 ScalarEOS \
	epsBulk 78.4 \
	pMol 0.92466 \
	epsInf 1.77 \
	Pvap 1.06736e-10 \
	sigmaBulk 4.62e-05 \
	Rvdw 2.61727 \
	Res 1.42 \
	tauNuc 343133 \
	poleEl 15 7 1
forces-output-coords Positions
initial-state NbTe2.$VAR
ion V   0.164254067003541   0.171481882992912   0.500000000000000 0
ion V   0.664254067003541   0.171481882992912   0.500000000000000 0
ion V   0.164254048003543   0.671481903992910   0.500000000000000 0
ion V   0.664254086003546   0.671481903992910   0.500000000000000 0
ion Ag   0.332617259573498   0.334755404853008   0.500000000000000 0
ion Ag   0.832617297573494   0.334755404853008   0.500000000000000 0
ion Ag   0.332617272573496   0.834755436853011   0.500000000000000 0
ion Ag   0.832617310573499   0.834755436853011   0.500000000000000 0
ion P   0.498605293275191   0.003439952592543   0.560151386505210 0
ion P   0.497954687132264   0.003439952592543   0.439848613494789 0
ion P   0.998605331275187   0.003439952592543   0.560151386505210 0
ion P   0.997954725132268   0.003439952592543   0.439848613494789 0
ion P   0.498605327275186   0.503439942592542   0.560151386505210 0
ion P   0.497954721132267   0.503439942592542   0.439848613494789 0
ion P   0.998605365275189   0.503439942592542   0.560151386505210 0
ion P   0.997954759132264   0.503439942592542   0.439848613494789 0
ion Se   0.155474277282076   0.325277487670329   0.406588145849606 0
ion Se   0.019248204047596   0.325277487670329   0.593411906150391 0
ion Se   0.319754758824245   0.161048273406831   0.592964451281950 0
ion Se   0.019206910768926   0.161048273406831   0.407035548718050 0
ion Se   0.319607154883002   0.023815605907336   0.407260800254202 0
ion Se   0.156577222209664   0.023815605907336   0.592729194745797 0
ion Se   0.655474202282074   0.325277487670329   0.406588145849606 0
ion Se   0.519248166047600   0.325277487670329   0.593411906150391 0
ion Se   0.819754795824244   0.161048273406831   0.592964451281950 0
ion Se   0.519206900768926   0.161048273406831   0.407035548718050 0
ion Se   0.819607154883002   0.023815605907336   0.407260800254202 0
ion Se   0.656577260209661   0.023815605907336   0.592729194745797 0
ion Se   0.155474274282073   0.825277475670328   0.406588145849606 0
ion Se   0.019248201047599   0.825277475670328   0.593411906150391 0
ion Se   0.319754728824249   0.661048240406825   0.592964451281950 0
ion Se   0.019206908768926   0.661048240406825   0.407035548718050 0
ion Se   0.319607163882999   0.523815569907340   0.407260800254202 0
ion Se   0.156577231209662   0.523815569907340   0.592729194745797 0
ion Se   0.655474237282073   0.825277475670328   0.406588145849606 0
ion Se   0.519248201047599   0.825277475670328   0.593411906150391 0
ion Se   0.819754766824245   0.661048240406825   0.592964451281950 0
ion Se   0.519206871768927   0.661048240406825   0.407035548718050 0
ion Se   0.819607126882999   0.523815569907340   0.407260800254202 0
ion Se   0.656577231209662   0.523815569907340   0.592729194745797 0
ion-species GBRV/$ID_pbe.uspp
ion-width Ecut
ionic-minimize  \
	dirUpdateScheme      L-BFGS \
	linminMethod         DirUpdateRecommended \
	nIterations          0 \
	history              15 \
	knormThreshold       0.0001 \
	energyDiffThreshold  1e-06 \
	nEnergyDiff          2 \
	alphaTstart          1 \
	alphaTmin            1e-10 \
	updateTestStepSize   yes \
	alphaTreduceFactor   0.1 \
	alphaTincreaseFactor 3 \
	nAlphaAdjustMax      3 \
	wolfeEnergy          0.0001 \
	wolfeGradient        0.9 \
	fdTest               no
kpoint   0.000000000000   0.000000000000   0.000000000000  1.00000000000000
kpoint-folding 3 3 1 
latt-move-scale 1 1 1
latt-scale 1 1 1 
lattice Triclinic 23.9923 24.0273 34.9463 90 90 60.0482
lattice-minimize  \
	dirUpdateScheme      L-BFGS \
	linminMethod         DirUpdateRecommended \
	nIterations          0 \
	history              15 \
	knormThreshold       0 \
	energyDiffThreshold  1e-06 \
	nEnergyDiff          2 \
	alphaTstart          1 \
	alphaTmin            1e-10 \
	updateTestStepSize   yes \
	alphaTreduceFactor   0.1 \
	alphaTincreaseFactor 3 \
	nAlphaAdjustMax      3 \
	wolfeEnergy          0.0001 \
	wolfeGradient        0.9 \
	fdTest               no
lcao-params -1 1e-06 0.0073499
pcm-variant CANDLE
spintype no-spin
subspace-rotation-factor 1 yes
symmetries automatic
symmetry-threshold 0.0001



---------- Setting up symmetries ----------

Found 8 point-group symmetries of the bravais lattice
Found 4 space-group symmetries with basis
Applied RMS atom displacement 6.04539e-07 bohrs to make symmetries exact.

---------- Initializing the Grid ----------
R = 
[    23.9923    11.9961          0  ]
[          0    20.8184          0  ]
[          0          0    34.9463  ]
unit cell volume = 17455
G =
[   0.261883  -0.150905          0  ]
[          0    0.30181          0  ]
[          0          0   0.179795  ]
Minimum fftbox size, Smin = [  112  112  160  ]
Chosen fftbox size, S = [  112  112  160  ]

---------- Initializing tighter grid for wavefunction operations ----------
R = 
[    23.9923    11.9961          0  ]
[          0    20.8184          0  ]
[          0          0    34.9463  ]
unit cell volume = 17455
G =
[   0.261883  -0.150905          0  ]
[          0    0.30181          0  ]
[          0          0   0.179795  ]
Minimum fftbox size, Smin = [  100  100  144  ]
Chosen fftbox size, S = [  100  100  144  ]

---------- Exchange Correlation functional ----------
Initalized PBE GGA exchange.
Initalized PBE GGA correlation.

---------- Setting up pseudopotentials ----------
Width of ionic core gaussian charges (only for fluid interactions / plotting) set to 0.397384

Reading pseudopotential file '/home/guoxy/vasp/jdftx-1.5.0/build/pseudopotentials/GBRV/v_pbe.uspp':
  Title: V.  Created by USPP 7.3.6 on 31-3-15
  Reference state energy: -72.228583.  13 valence electrons in orbitals:
    |300>  occupation: 2  eigenvalue: -2.581040
    |310>  occupation: 6  eigenvalue: -1.618497
    |400>  occupation: 2  eigenvalue: -0.172800
    |320>  occupation: 3  eigenvalue: -0.189802
  lMax: 2  lLocal: 3  QijEcut: 6
  6 projectors sampled on a log grid with 593 points:
    l: 0  eig: -2.581041  rCut: 1.5
    l: 0  eig: -0.172801  rCut: 1.5
    l: 1  eig: -1.618497  rCut: 1.6
    l: 1  eig: 0.150000  rCut: 1.6
    l: 2  eig: -0.189802  rCut: 1.7
    l: 2  eig: 0.150000  rCut: 1.7
  Partial core density with radius 0.8
  Transforming core density to a uniform radial grid of dG=0.02 with 1637 points.
  Transforming local potential to a uniform radial grid of dG=0.02 with 1637 points.
  Transforming nonlocal projectors to a uniform radial grid of dG=0.02 with 432 points.
  Transforming density augmentations to a uniform radial grid of dG=0.02 with 1637 points.
  Transforming atomic orbitals to a uniform radial grid of dG=0.02 with 432 points.
  Core radius for overlap checks: 1.80 bohrs.

Reading pseudopotential file '/home/guoxy/vasp/jdftx-1.5.0/build/pseudopotentials/GBRV/ag_pbe.uspp':
  Title: Ag.  Created by USPP 7.3.6 on 1-4-15
  Reference state energy: -147.606242.  19 valence electrons in orbitals:
    |400>  occupation: 2  eigenvalue: -3.637437
    |410>  occupation: 6  eigenvalue: -2.297267
    |420>  occupation: 10  eigenvalue: -0.417763
    |500>  occupation: 0.5  eigenvalue: -0.283525
    |510>  occupation: 0  eigenvalue: -0.122889
  lMax: 2  lLocal: 0  QijEcut: 5.5
  6 projectors sampled on a log grid with 717 points:
    l: 0  eig: -0.283528  rCut: 1.5
    l: 0  eig: -3.637440  rCut: 1.5
    l: 1  eig: -0.122892  rCut: 1.5
    l: 1  eig: -2.297267  rCut: 1.5
    l: 2  eig: -0.417762  rCut: 1.7
    l: 2  eig: -1.000000  rCut: 1.7
  Partial core density with radius 1.2
  Transforming core density to a uniform radial grid of dG=0.02 with 1637 points.
  Transforming local potential to a uniform radial grid of dG=0.02 with 1637 points.
  Transforming nonlocal projectors to a uniform radial grid of dG=0.02 with 432 points.
  Transforming density augmentations to a uniform radial grid of dG=0.02 with 1637 points.
  Transforming atomic orbitals to a uniform radial grid of dG=0.02 with 432 points.
  Core radius for overlap checks: 1.70 bohrs.

Reading pseudopotential file '/home/guoxy/vasp/jdftx-1.5.0/build/pseudopotentials/GBRV/p_pbe.uspp':
  Title: P.  Created by USPP 7.3.6 on 11-6-15
  Reference state energy: -7.561951.  5 valence electrons in orbitals:
    |300>  occupation: 2  eigenvalue: -0.513368
    |310>  occupation: 3  eigenvalue: -0.202371
  lMax: 2  lLocal: 3  QijEcut: 5
  6 projectors sampled on a log grid with 631 points:
    l: 0  eig: -0.513363  rCut: 1.5
    l: 0  eig: 0.500000  rCut: 1.5
    l: 1  eig: -0.202372  rCut: 1.5
    l: 1  eig: 1.000000  rCut: 1.5
    l: 2  eig: -0.500000  rCut: 1.5
    l: 2  eig: 1.500000  rCut: 1.5
  Partial core density with radius 1.35
  Transforming core density to a uniform radial grid of dG=0.02 with 1637 points.
  Transforming local potential to a uniform radial grid of dG=0.02 with 1637 points.
  Transforming nonlocal projectors to a uniform radial grid of dG=0.02 with 432 points.
  Transforming density augmentations to a uniform radial grid of dG=0.02 with 1637 points.
  Transforming atomic orbitals to a uniform radial grid of dG=0.02 with 432 points.
  Core radius for overlap checks: 1.50 bohrs.

Reading pseudopotential file '/home/guoxy/vasp/jdftx-1.5.0/build/pseudopotentials/GBRV/se_pbe.uspp':
  Title: Se.  Created by USPP 7.3.6 on 14-9-2013
  Reference state energy: -21.672887.  6 valence electrons in orbitals:
    |400>  occupation: 2  eigenvalue: -0.635284
    |410>  occupation: 4  eigenvalue: -0.239295
  lMax: 2  lLocal: 3  QijEcut: 5
  6 projectors sampled on a log grid with 625 points:
    l: 0  eig: -0.635278  rCut: 1.5
    l: 0  eig: 0.500000  rCut: 1.5
    l: 1  eig: -0.239295  rCut: 1.5
    l: 1  eig: 0.500000  rCut: 1.5
    l: 2  eig: 0.000000  rCut: 1.8
    l: 2  eig: 1.000000  rCut: 1.8
  Partial core density with radius 1.2
  Transforming core density to a uniform radial grid of dG=0.02 with 1637 points.
  Transforming local potential to a uniform radial grid of dG=0.02 with 1637 points.
  Transforming nonlocal projectors to a uniform radial grid of dG=0.02 with 432 points.
  Transforming density augmentations to a uniform radial grid of dG=0.02 with 1637 points.
  Transforming atomic orbitals to a uniform radial grid of dG=0.02 with 432 points.
  Core radius for overlap checks: 1.80 bohrs.

Initialized 4 species with 40 total atoms.

Folded 1 k-points by 3x3x1 to 9 k-points.

---------- Setting up k-points, bands, fillings ----------
Adding inversion symmetry to k-mesh for non-inversion-symmetric unit cell.
Reduced to 5 k-points under symmetry. 
Computing the number of bands and number of electrons
Calculating initial fillings.
nElectrons: 312.000000   nBands: 220   nStates: 5

----- Setting up reduced wavefunction bases (one per k-point) -----
average nbasis = 74563.000 , ideal nbasis = 74569.187

---------- Setting up coulomb interaction ----------
Fluid mode embedding: using embedded box, but periodic Coulomb kernel.
(Fluid response is responsible for (approximate) separation between periodic images.)
Setting up double-sized grid for truncated Coulomb potentials:
R = 
[    23.9923    11.9961          0  ]
[          0    20.8184          0  ]
[          0          0    69.8926  ]
unit cell volume = 34910
G =
[   0.261883  -0.150905          0  ]
[          0    0.30181          0  ]
[          0          0  0.0898977  ]
Chosen fftbox size, S = [  112  112  320  ]
Integer grid location selected as the embedding center:
   Grid: [  0  0  80  ]
   Lattice: [  0  0  0.5  ]
   Cartesian: [  0  0  17.4732  ]
Constructing Wigner-Seitz cell: 8 faces (6 quadrilaterals, 2 hexagons)
Range-separation parameter for embedded mesh potentials due to point charges: 0.589591 bohrs.

Initializing van der Waals corrections
	NOTE: vdW corrections apply only for interactions with fluid.
	 V:  C6:  187.33 Eh-a0^6  R0: 2.952 a0
	Ag:  C6:  427.91 Eh-a0^6  R0: 3.097 a0
	 P:  C6:  135.99 Eh-a0^6  R0: 3.222 a0
	Se:  C6:  219.24 Eh-a0^6  R0: 3.347 a0

---------- Setting up ewald sum ----------
Optimum gaussian width for ewald sums = 7.050451 bohr.
Real space sum over 605 unit cells with max indices [  5  5  2  ]
Reciprocal space sum over 7425 terms with max indices [  7  7  16  ]

---------- Allocating electronic variables ----------
Initializing wave functions:  linear combination of atomic orbitals
V pseudo-atom occupations:   s ( 2 0 )  p ( 6 )  d ( 5 )
Ag pseudo-atom occupations:   s ( 2 1 )  p ( 6 0 )  d ( 10 )
P pseudo-atom occupations:   s ( 2 )  p ( 3 )
Se pseudo-atom occupations:   s ( 2 )  p ( 4 )
	FillingsUpdate:  mu: -0.295643414  nElectrons: 312.000000
LCAOMinimize: Iter:   0  F: -1146.2826144209655013  |grad|_K:  7.277e-03  alpha:  1.000e+00
	FillingsUpdate:  mu: -0.283663353  nElectrons: 312.000000
LCAOMinimize: Iter:   1  F: -1147.9573664879653734  |grad|_K:  8.290e-03  alpha:  1.077e-01  linmin: -1.602e-01  cgtest:  7.245e-01  t[s]:     87.72
LCAOMinimize: 	Wrong curvature in test step, increasing alphaT to 3.229678e-01.
	FillingsUpdate:  mu: -0.226977901  nElectrons: 312.000000
LCAOMinimize: Iter:   2  F: -1157.3822715160906682  |grad|_K:  1.395e-02  alpha: -2.305e-02  linmin: -3.280e-01  cgtest:  1.837e-01  t[s]:    113.87
LCAOMinimize: 	Step increased F by 7.538570e+01, reducing alpha to 4.353918e-02.
LCAOMinimize: 	Step increased F by 3.903119e+01, reducing alpha to 4.353918e-03.
	FillingsUpdate:  mu: -0.173024764  nElectrons: 312.000000
LCAOMinimize: Iter:   3  F: -1158.6617813817772458  |grad|_K:  2.037e-03  alpha:  4.354e-03  linmin: -2.899e-01  cgtest:  7.418e-01  t[s]:    179.47
LCAOMinimize: Encountered beta<0, resetting CG.
LCAOMinimize: 	Predicted alpha/alphaT>3.000000, increasing alphaT to 1.306175e-02.
LCAOMinimize: 	Predicted alpha/alphaT>3.000000, increasing alphaT to 3.918526e-02.
LCAOMinimize: 	Predicted alpha/alphaT>3.000000, increasing alphaT to 1.175558e-01.
	FillingsUpdate:  mu: -0.102587314  nElectrons: 312.000000
LCAOMinimize: Iter:   4  F: -1158.7311504521710503  |grad|_K:  1.583e-03  alpha:  1.550e-01  linmin:  8.137e-02  cgtest: -1.907e-01  t[s]:    223.39
	FillingsUpdate:  mu: -0.099749337  nElectrons: 312.000000
LCAOMinimize: Iter:   5  F: -1158.7647626484404100  |grad|_K:  9.864e-04  alpha:  1.504e-01  linmin:  5.821e-03  cgtest:  7.554e-01  t[s]:    249.48
LCAOMinimize: Encountered beta<0, resetting CG.
	FillingsUpdate:  mu: -0.130069159  nElectrons: 312.000000
LCAOMinimize: Iter:   6  F: -1158.7739121191673348  |grad|_K:  2.558e-04  alpha:  7.878e-02  linmin:  8.492e-03  cgtest: -2.129e-02  t[s]:    276.17
LCAOMinimize: 	Predicted alpha/alphaT>3.000000, increasing alphaT to 2.363425e-01.
	FillingsUpdate:  mu: -0.128626266  nElectrons: 312.000000
LCAOMinimize: Iter:   7  F: -1158.7771620563676152  |grad|_K:  1.203e-04  alpha:  4.087e-01  linmin: -3.923e-03  cgtest: -1.496e-02  t[s]:    311.03
	FillingsUpdate:  mu: -0.130416703  nElectrons: 312.000000
LCAOMinimize: Iter:   8  F: -1158.7780798804321876  |grad|_K:  5.501e-05  alpha:  5.179e-01  linmin:  3.190e-03  cgtest: -4.842e-02  t[s]:    339.85
	FillingsUpdate:  mu: -0.128497376  nElectrons: 312.000000
LCAOMinimize: Iter:   9  F: -1158.7781097128072361  |grad|_K:  1.540e-05  alpha:  8.043e-02  linmin: -9.925e-03  cgtest:  7.695e-02  t[s]:    366.49
LCAOMinimize: 	Predicted alpha/alphaT>3.000000, increasing alphaT to 2.412916e-01.
	FillingsUpdate:  mu: -0.128581574  nElectrons: 312.000000
LCAOMinimize: Iter:  10  F: -1158.7781285779578866  |grad|_K:  8.324e-06  alpha:  6.472e-01  linmin:  9.842e-04  cgtest: -3.061e-02  t[s]:    412.79
	FillingsUpdate:  mu: -0.128503886  nElectrons: 312.000000
LCAOMinimize: Iter:  11  F: -1158.7781299044079333  |grad|_K:  3.638e-06  alpha:  1.568e-01  linmin: -6.350e-04  cgtest:  1.009e-02  t[s]:    441.46
	FillingsUpdate:  mu: -0.128616908  nElectrons: 312.000000
LCAOMinimize: Iter:  12  F: -1158.7781303665703945  |grad|_K:  2.409e-06  alpha:  2.856e-01  linmin:  1.489e-04  cgtest: -4.062e-03  t[s]:    469.46
	FillingsUpdate:  mu: -0.128538845  nElectrons: 312.000000
LCAOMinimize: Iter:  13  F: -1158.7781304294267102  |grad|_K:  4.206e-07  alpha:  8.868e-02  linmin: -4.532e-04  cgtest:  4.776e-03  t[s]:    498.14
LCAOMinimize: Converged (|Delta F|<1.000000e-06 for 2 iters).
----- createFluidSolver() ----- (Fluid-side solver setup)
   Initializing fluid molecule 'H2O'
     Initializing site 'O'
       Electron density: proportional to exp(-r/0.36935)*erfc((r-0.51523)/0.36823) with norm 6.826
       Charge density: gaussian nuclear width 0.478731 with net site charge 0.826
       Polarizability: cuspless exponential with width 0.32 and norm 3.73
       Hard sphere radius: 2.57003 bohrs
       Positions in reference frame:
         [ +0.000000 +0.000000 +0.000000 ]
     Initializing site 'H'
       Electron density: proportional to exp(-r/0.34641)*erfc((r-0)/0.390882) with norm 0.587
       Charge density: gaussian nuclear width 0.377945 with net site charge -0.413
       Polarizability: cuspless exponential with width 0.39 and norm 3.3
       Positions in reference frame:
         [ +0.000000 -1.441945 +1.122523 ]
         [ +0.000000 +1.441945 +1.122523 ]
     Net charge: 0   dipole magnitude: 0.927204
     Initializing spherical shell mfKernel with radius 2.61727 Bohr
     deltaS corrections:
       site 'O': -7.54299
       site 'H': -6.83917
   Initializing fluid molecule 'Na+'
     Initializing site 'Na'
       Electron density: proportional to exp(-r/0.19682)*erfc((r-0.71491)/0.41314) with norm 8.1383
       Charge density: gaussian nuclear width 0.365347 with net site charge -1
       Hard sphere radius: 1.86327 bohrs
       Positions in reference frame:
         [ +0.000000 +0.000000 +0.000000 ]
     Net charge: -1   dipole magnitude: 0
     Initializing gaussian mfKernel with width: 1.55004 Bohr
     deltaS corrections:
       site 'Na': -22.3555
   Initializing fluid molecule 'F-'
     Initializing site 'F'
       Electron density: proportional to exp(-r/0.38886)*erfc((r-0)/0.438782) with norm 8
       Charge density: gaussian nuclear width 0.374796 with net site charge 1
       Hard sphere radius: 2.39995 bohrs
       Positions in reference frame:
         [ +0.000000 +0.000000 +0.000000 ]
     Net charge: 1   dipole magnitude: 0
     Initializing gaussian mfKernel with width: 1.59012 Bohr
     deltaS corrections:
       site 'F': -9.04335

Correction to mu due to finite nuclear width = -0.00886755
   Cavity determined by nc: 0.00142 and sigma: 0.707107
   Nonlocal vdW cavity from gaussian model electron density with norm = 8 and sigma = 0.993594 bohr
   Charge asymmetry in cavity with sensitivity pCavity = 36.5 e-bohr/Eh
   Electrostatic cavity expanded by eta = 1.46 bohrs
   Weighted density cavitation model constrained by Nbulk: 0.0049383 bohr^-3, Pvap: 3.14029 kPa, Rvdw: 2.61727 bohr and sigmaBulk: 4.62e-05 Eh/bohr^2 at T: 298 K.
   Weighted density dispersion model using vdW pair potentials with single solvent site with sqrtC6eff: 0.77 SI.


---- Citations for features of the code used in this run ----

   Software package:
      R. Sundararaman, K. Letchworth-Weaver, K.A. Schwarz, D. Gunceler, Y. Ozhabes and T.A. Arias, 'JDFTx: software for joint density-functional theory', SoftwareX 6, 278 (2017)

   gga-PBE exchange-correlation functional:
      J.P. Perdew, K. Burke and M. Ernzerhof, Phys. Rev. Lett. 77, 3865 (1996)

   Pseudopotentials:
      KF Garrity, JW Bennett, KM Rabe and D Vanderbilt, Comput. Mater. Sci. 81, 446 (2014)

   Truncated Coulomb potentials:
      R. Sundararaman and T.A. Arias, Phys. Rev. B 87, 165122 (2013)

   Van der Waals correction pair-potentials:
      S. Grimme, J. Comput. Chem. 27, 1787 (2006)

   Charge-asymmetric nonlocally-determined local-electric (CANDLE) solvation model:
      R. Sundararaman and W.A. Goddard III, J. Chem. Phys. 142, 064107 (2015)

This list may not be complete. Please suggest additional citations or
report any other bugs at https://github.com/shankar1729/jdftx/issues

Initialization completed successfully at t[s]:    503.81

Fluid solver invoked on fresh (partially random / LCAO) wavefunctions
Running a vacuum solve first:

-------- Initial electronic minimization -----------
Will mix electronic density at each iteration.
	FillingsUpdate:  mu: -0.128538845  nElectrons: 312.000000
	FillingsUpdate:  mu: -0.141591725  nElectrons: 312.000000
SCF: Cycle:  0   F: -1159.150882133021923   dF: -3.728e-01   |Residual|: 6.112e-01   |deigs|: 2.476e-02  t[s]:    590.33
	FillingsUpdate:  mu: -0.170410718  nElectrons: 312.000000
SCF: Cycle:  1   F: -1157.767755076418325   dF: +1.383e+00   |Residual|: 7.300e-01   |deigs|: 2.849e-02  t[s]:    657.29
	FillingsUpdate:  mu: -0.114000449  nElectrons: 312.000000
SCF: Cycle:  2   F: -1159.376440990897208   dF: -1.609e+00   |Residual|: 6.299e-01   |deigs|: 3.284e-02  t[s]:    723.96
	FillingsUpdate:  mu: -0.128696612  nElectrons: 312.000000
SCF: Cycle:  3   F: -1160.481875528487308   dF: -1.105e+00   |Residual|: 1.473e-01   |deigs|: 1.416e-02  t[s]:    790.30
	FillingsUpdate:  mu: -0.129032566  nElectrons: 312.000000
SCF: Cycle:  4   F: -1160.520652652141962   dF: -3.878e-02   |Residual|: 4.837e-02   |deigs|: 6.089e-03  t[s]:    856.66
	FillingsUpdate:  mu: -0.124347978  nElectrons: 312.000000
SCF: Cycle:  5   F: -1160.529584459090984   dF: -8.932e-03   |Residual|: 3.065e-02   |deigs|: 4.230e-03  t[s]:    924.68
	FillingsUpdate:  mu: -0.117824354  nElectrons: 312.000000
SCF: Cycle:  6   F: -1160.535518484752401   dF: -5.934e-03   |Residual|: 1.336e-02   |deigs|: 5.584e-03  t[s]:    989.20
	FillingsUpdate:  mu: -0.113402513  nElectrons: 312.000000
SCF: Cycle:  7   F: -1160.537137337407557   dF: -1.619e-03   |Residual|: 9.016e-03   |deigs|: 4.407e-03  t[s]:   1057.03
	FillingsUpdate:  mu: -0.108582780  nElectrons: 312.000000
SCF: Cycle:  8   F: -1160.537936816075671   dF: -7.995e-04   |Residual|: 6.465e-03   |deigs|: 4.846e-03  t[s]:   1123.82
	FillingsUpdate:  mu: -0.104282903  nElectrons: 312.000000
SCF: Cycle:  9   F: -1160.538094086875162   dF: -1.573e-04   |Residual|: 3.991e-03   |deigs|: 4.297e-03  t[s]:   1191.75
	FillingsUpdate:  mu: -0.101009008  nElectrons: 312.000000
SCF: Cycle: 10   F: -1160.538187875312360   dF: -9.379e-05   |Residual|: 3.247e-03   |deigs|: 3.476e-03  t[s]:   1259.33
	FillingsUpdate:  mu: -0.097674619  nElectrons: 312.000000
SCF: Cycle: 11   F: -1160.538234885898873   dF: -4.701e-05   |Residual|: 3.597e-03   |deigs|: 3.220e-03  t[s]:   1326.22
	FillingsUpdate:  mu: -0.096120617  nElectrons: 312.000000
SCF: Cycle: 12   F: -1160.538320022813878   dF: -8.514e-05   |Residual|: 1.958e-03   |deigs|: 1.708e-03  t[s]:   1394.98
	FillingsUpdate:  mu: -0.094477185  nElectrons: 312.000000
SCF: Cycle: 13   F: -1160.538358898314527   dF: -3.888e-05   |Residual|: 1.476e-03   |deigs|: 1.623e-03  t[s]:   1463.33
	FillingsUpdate:  mu: -0.093052252  nElectrons: 312.000000
SCF: Cycle: 14   F: -1160.538384119676721   dF: -2.522e-05   |Residual|: 7.772e-04   |deigs|: 1.505e-03  t[s]:   1528.74
	FillingsUpdate:  mu: -0.092518192  nElectrons: 312.000000
SCF: Cycle: 15   F: -1160.538395960194521   dF: -1.184e-05   |Residual|: 3.422e-04   |deigs|: 6.301e-04  t[s]:   1596.50
	FillingsUpdate:  mu: -0.092402144  nElectrons: 312.000000
SCF: Cycle: 16   F: -1160.538404185535228   dF: -8.225e-06   |Residual|: 1.890e-04   |deigs|: 2.518e-04  t[s]:   1664.95
	FillingsUpdate:  mu: -0.092351757  nElectrons: 312.000000
SCF: Cycle: 17   F: -1160.538410269579799   dF: -6.084e-06   |Residual|: 9.063e-05   |deigs|: 1.501e-04  t[s]:   1733.11
	FillingsUpdate:  mu: -0.092333788  nElectrons: 312.000000
SCF: Cycle: 18   F: -1160.538414467318944   dF: -4.198e-06   |Residual|: 5.625e-05   |deigs|: 7.743e-05  t[s]:   1800.47
	FillingsUpdate:  mu: -0.092331300  nElectrons: 312.000000
SCF: Cycle: 19   F: -1160.538417428192361   dF: -2.961e-06   |Residual|: 5.380e-05   |deigs|: 2.758e-05  t[s]:   1867.89
	FillingsUpdate:  mu: -0.092328933  nElectrons: 312.000000
SCF: Cycle: 20   F: -1160.538419543841883   dF: -2.116e-06   |Residual|: 6.272e-05   |deigs|: 8.714e-06  t[s]:   1934.07
	FillingsUpdate:  mu: -0.092336755  nElectrons: 312.000000
SCF: Cycle: 21   F: -1160.538420959958785   dF: -1.416e-06   |Residual|: 1.234e-04   |deigs|: 1.758e-05  t[s]:   1999.61
	FillingsUpdate:  mu: -0.092319197  nElectrons: 312.000000
SCF: Cycle: 22   F: -1160.538421857039793   dF: -8.971e-07   |Residual|: 7.624e-05   |deigs|: 3.374e-05  t[s]:   2067.27
	FillingsUpdate:  mu: -0.092317195  nElectrons: 312.000000
SCF: Cycle: 23   F: -1160.538422481224416   dF: -6.242e-07   |Residual|: 7.530e-05   |deigs|: 3.570e-06  t[s]:   2133.79
	FillingsUpdate:  mu: -0.092315238  nElectrons: 312.000000
SCF: Cycle: 24   F: -1160.538422930121669   dF: -4.489e-07   |Residual|: 9.481e-05   |deigs|: 1.494e-05  t[s]:   2207.62
	FillingsUpdate:  mu: -0.092320552  nElectrons: 312.000000
SCF: Cycle: 25   F: -1160.538423220049253   dF: -2.899e-07   |Residual|: 1.084e-04   |deigs|: 2.433e-05  t[s]:   2272.68
	FillingsUpdate:  mu: -0.092322189  nElectrons: 312.000000
SCF: Cycle: 26   F: -1160.538423418513048   dF: -1.985e-07   |Residual|: 1.153e-04   |deigs|: 2.278e-05  t[s]:   2334.98
	FillingsUpdate:  mu: -0.092320435  nElectrons: 312.000000
SCF: Cycle: 27   F: -1160.538423555766940   dF: -1.373e-07   |Residual|: 1.257e-04   |deigs|: 2.887e-05  t[s]:   2399.13
	FillingsUpdate:  mu: -0.092321211  nElectrons: 312.000000
SCF: Cycle: 28   F: -1160.538423653430982   dF: -9.766e-08   |Residual|: 1.347e-04   |deigs|: 6.701e-06  t[s]:   2463.88
	FillingsUpdate:  mu: -0.092321192  nElectrons: 312.000000
SCF: Cycle: 29   F: -1160.538423720137189   dF: -6.671e-08   |Residual|: 1.348e-04   |deigs|: 5.623e-06  t[s]:   2527.85
	FillingsUpdate:  mu: -0.092321674  nElectrons: 312.000000
SCF: Cycle: 30   F: -1160.538423767541644   dF: -4.740e-08   |Residual|: 1.400e-04   |deigs|: 2.158e-06  t[s]:   2593.01
	FillingsUpdate:  mu: -0.092322799  nElectrons: 312.000000
SCF: Cycle: 31   F: -1160.538423800372811   dF: -3.283e-08   |Residual|: 1.380e-04   |deigs|: 5.584e-06  t[s]:   2657.26
	FillingsUpdate:  mu: -0.092321502  nElectrons: 312.000000
SCF: Cycle: 32   F: -1160.538423823621542   dF: -2.325e-08   |Residual|: 1.389e-04   |deigs|: 5.006e-06  t[s]:   2719.68
	FillingsUpdate:  mu: -0.092320451  nElectrons: 312.000000
SCF: Cycle: 33   F: -1160.538423840605901   dF: -1.698e-08   |Residual|: 1.322e-04   |deigs|: 3.017e-06  t[s]:   2783.14
	FillingsUpdate:  mu: -0.092314837  nElectrons: 312.000000
SCF: Cycle: 34   F: -1160.538423852849519   dF: -1.224e-08   |Residual|: 1.078e-04   |deigs|: 2.177e-05  t[s]:   2846.40
	FillingsUpdate:  mu: -0.092312857  nElectrons: 312.000000
SCF: Cycle: 35   F: -1160.538423861611363   dF: -8.762e-09   |Residual|: 9.150e-05   |deigs|: 4.833e-06  t[s]:   2908.90
	FillingsUpdate:  mu: -0.092312258  nElectrons: 312.000000
SCF: Cycle: 36   F: -1160.538423868351174   dF: -6.740e-09   |Residual|: 7.281e-05   |deigs|: 1.811e-06  t[s]:   2972.31
SCF: Converged (|Delta E|<1.000000e-08 for 2 iters).

Vacuum energy after initial minimize, F = -1160.538423868351174

	FillingsUpdate:  mu: -0.092312258  nElectrons: 312.000000
	Linear fluid (dielectric constant: 78.4, screening length: 5.74355 Bohr) occupying 0.749154 of unit cell:	Completed after 17 iterations at t[s]:   2983.62

-------- Electronic minimization -----------
Will mix electronic density at each iteration.
	FillingsUpdate:  mu: -0.092312258  nElectrons: 312.000000
	Linear fluid (dielectric constant: 78.4, screening length: 5.74355 Bohr) occupying 0.749154 of unit cell:	Completed after 0 iterations at t[s]:   2993.49
	FillingsUpdate:  mu: -0.164597181  nElectrons: 312.000000
	Linear fluid (dielectric constant: 78.4, screening length: 5.74355 Bohr) occupying 0.749844 of unit cell:	Completed after 11 iterations at t[s]:   3071.17
SCF: Cycle:  0   F: -1160.526419200572946   dF: -9.246e-05   |Residual|: 3.300e-03   |deigs|: 1.250e-04  t[s]:   3072.60
	Linear fluid (dielectric constant: 78.4, screening length: 5.74355 Bohr) occupying 0.749131 of unit cell:	Completed after 11 iterations at t[s]:   3074.38
	FillingsUpdate:  mu: -0.163914656  nElectrons: 312.000000
	Linear fluid (dielectric constant: 78.4, screening length: 5.74355 Bohr) occupying 0.749819 of unit cell:	Completed after 10 iterations at t[s]:   3141.14
SCF: Cycle:  1   F: -1160.526387434664457   dF: +3.177e-05   |Residual|: 5.919e-03   |deigs|: 4.158e-04  t[s]:   3143.00
	Linear fluid (dielectric constant: 78.4, screening length: 5.74355 Bohr) occupying 0.749146 of unit cell:	Completed after 10 iterations at t[s]:   3144.85
	FillingsUpdate:  mu: -0.164219400  nElectrons: 312.000000
	Linear fluid (dielectric constant: 78.4, screening length: 5.74355 Bohr) occupying 0.749824 of unit cell:	Completed after 11 iterations at t[s]:   3212.39
SCF: Cycle:  2   F: -1160.526475366667228   dF: -8.793e-05   |Residual|: 1.536e-03   |deigs|: 1.899e-04  t[s]:   3213.95
	Linear fluid (dielectric constant: 78.4, screening length: 5.74355 Bohr) occupying 0.749188 of unit cell:	Completed after 10 iterations at t[s]:   3215.71
	FillingsUpdate:  mu: -0.163914904  nElectrons: 312.000000
	Linear fluid (dielectric constant: 78.4, screening length: 5.74355 Bohr) occupying 0.749805 of unit cell:	Completed after 8 iterations at t[s]:   3282.65
SCF: Cycle:  3   F: -1160.526491021473021   dF: -1.565e-05   |Residual|: 7.395e-04   |deigs|: 2.897e-04  t[s]:   3284.24
	Linear fluid (dielectric constant: 78.4, screening length: 5.74355 Bohr) occupying 0.749320 of unit cell:	Completed after 8 iterations at t[s]:   3285.75
	FillingsUpdate:  mu: -0.163591563  nElectrons: 312.000000
	Linear fluid (dielectric constant: 78.4, screening length: 5.74355 Bohr) occupying 0.749787 of unit cell:	Completed after 7 iterations at t[s]:   3351.16
SCF: Cycle:  4   F: -1160.526496718445969   dF: -5.697e-06   |Residual|: 4.242e-04   |deigs|: 3.472e-04  t[s]:   3352.70
	Linear fluid (dielectric constant: 78.4, screening length: 5.74355 Bohr) occupying 0.749484 of unit cell:	Completed after 8 iterations at t[s]:   3354.14
	FillingsUpdate:  mu: -0.163419515  nElectrons: 312.000000
	Linear fluid (dielectric constant: 78.4, screening length: 5.74355 Bohr) occupying 0.749781 of unit cell:	Completed after 6 iterations at t[s]:   3419.69
SCF: Cycle:  5   F: -1160.526497847621386   dF: -1.129e-06   |Residual|: 2.781e-04   |deigs|: 1.944e-04  t[s]:   3421.26
	Linear fluid (dielectric constant: 78.4, screening length: 5.74355 Bohr) occupying 0.749678 of unit cell:	Completed after 3 iterations at t[s]:   3422.26
	FillingsUpdate:  mu: -0.163252683  nElectrons: 312.000000
	Linear fluid (dielectric constant: 78.4, screening length: 5.74355 Bohr) occupying 0.749774 of unit cell:	Completed after 2 iterations at t[s]:   3488.38
SCF: Cycle:  6   F: -1160.526498261345523   dF: -4.137e-07   |Residual|: 2.245e-04   |deigs|: 1.857e-04  t[s]:   3489.73
	Linear fluid (dielectric constant: 78.4, screening length: 5.74355 Bohr) occupying 0.749815 of unit cell:	Completed after 3 iterations at t[s]:   3490.63
	FillingsUpdate:  mu: -0.163206342  nElectrons: 312.000000
	Linear fluid (dielectric constant: 78.4, screening length: 5.74355 Bohr) occupying 0.749777 of unit cell:	Completed after 2 iterations at t[s]:   3554.92
SCF: Cycle:  7   F: -1160.526497045082124   dF: +1.216e-06   |Residual|: 6.542e-04   |deigs|: 8.267e-05  t[s]:   3556.46
	Linear fluid (dielectric constant: 78.4, screening length: 5.74355 Bohr) occupying 0.749846 of unit cell:	Completed after 2 iterations at t[s]:   3557.39
	FillingsUpdate:  mu: -0.163255712  nElectrons: 312.000000
	Linear fluid (dielectric constant: 78.4, screening length: 5.74355 Bohr) occupying 0.749781 of unit cell:	Completed after 3 iterations at t[s]:   3624.30
SCF: Cycle:  8   F: -1160.526498337624389   dF: -1.293e-06   |Residual|: 2.078e-04   |deigs|: 4.171e-05  t[s]:   3626.24
	Linear fluid (dielectric constant: 78.4, screening length: 5.74355 Bohr) occupying 0.749864 of unit cell:	Completed after 1 iterations at t[s]:   3627.12
	FillingsUpdate:  mu: -0.163174466  nElectrons: 312.000000
	Linear fluid (dielectric constant: 78.4, screening length: 5.74355 Bohr) occupying 0.749777 of unit cell:	Completed after 3 iterations at t[s]:   3696.49
SCF: Cycle:  9   F: -1160.526497901442781   dF: +4.362e-07   |Residual|: 4.054e-04   |deigs|: 8.233e-05  t[s]:   3698.44
	Linear fluid (dielectric constant: 78.4, screening length: 5.74355 Bohr) occupying 0.749850 of unit cell:	Completed after 2 iterations at t[s]:   3699.37
	FillingsUpdate:  mu: -0.163251526  nElectrons: 312.000000
	Linear fluid (dielectric constant: 78.4, screening length: 5.74355 Bohr) occupying 0.749781 of unit cell:	Completed after 2 iterations at t[s]:   3764.74
SCF: Cycle: 10   F: -1160.526497631731900   dF: +2.697e-07   |Residual|: 4.790e-04   |deigs|: 1.254e-04  t[s]:   3766.12
	Linear fluid (dielectric constant: 78.4, screening length: 5.74355 Bohr) occupying 0.749828 of unit cell:	Completed after 2 iterations at t[s]:   3767.00
	FillingsUpdate:  mu: -0.163191100  nElectrons: 312.000000
	Linear fluid (dielectric constant: 78.4, screening length: 5.74355 Bohr) occupying 0.749776 of unit cell:	Completed after 0 iterations at t[s]:   3832.57
SCF: Cycle: 11   F: -1160.526498776672952   dF: -1.145e-06   |Residual|: 8.394e-05   |deigs|: 1.530e-04  t[s]:   3834.00
	Linear fluid (dielectric constant: 78.4, screening length: 5.74355 Bohr) occupying 0.749799 of unit cell:	Completed after 0 iterations at t[s]:   3834.57
	FillingsUpdate:  mu: -0.163195527  nElectrons: 312.000000
	Linear fluid (dielectric constant: 78.4, screening length: 5.74355 Bohr) occupying 0.749775 of unit cell:	Completed after 0 iterations at t[s]:   3898.83
SCF: Cycle: 12   F: -1160.526498770768740   dF: +5.904e-09   |Residual|: 5.159e-05   |deigs|: 1.561e-04  t[s]:   3900.46
	Linear fluid (dielectric constant: 78.4, screening length: 5.74355 Bohr) occupying 0.749767 of unit cell:	Completed after 0 iterations at t[s]:   3901.14
	FillingsUpdate:  mu: -0.163196897  nElectrons: 312.000000
	Linear fluid (dielectric constant: 78.4, screening length: 5.74355 Bohr) occupying 0.749772 of unit cell:	Completed after 0 iterations at t[s]:   3967.13
SCF: Cycle: 13   F: -1160.526498799490355   dF: -2.872e-08   |Residual|: 3.334e-05   |deigs|: 1.894e-04  t[s]:   3968.49
	Linear fluid (dielectric constant: 78.4, screening length: 5.74355 Bohr) occupying 0.749771 of unit cell:	Completed after 0 iterations at t[s]:   3969.08
	FillingsUpdate:  mu: -0.163197458  nElectrons: 312.000000
	Linear fluid (dielectric constant: 78.4, screening length: 5.74355 Bohr) occupying 0.749772 of unit cell:	Completed after 0 iterations at t[s]:   4030.73
SCF: Cycle: 14   F: -1160.526498813093895   dF: -1.360e-08   |Residual|: 3.187e-05   |deigs|: 6.888e-05  t[s]:   4032.18
	Linear fluid (dielectric constant: 78.4, screening length: 5.74355 Bohr) occupying 0.749773 of unit cell:	Completed after 0 iterations at t[s]:   4032.82
	FillingsUpdate:  mu: -0.163197739  nElectrons: 312.000000
	Linear fluid (dielectric constant: 78.4, screening length: 5.74355 Bohr) occupying 0.749771 of unit cell:	Completed after 0 iterations at t[s]:   4097.21
SCF: Cycle: 15   F: -1160.526498816629783   dF: -3.536e-09   |Residual|: 2.952e-05   |deigs|: 6.629e-05  t[s]:   4098.72
	Linear fluid (dielectric constant: 78.4, screening length: 5.74355 Bohr) occupying 0.749773 of unit cell:	Completed after 0 iterations at t[s]:   4099.34
	FillingsUpdate:  mu: -0.163197782  nElectrons: 312.000000
	Linear fluid (dielectric constant: 78.4, screening length: 5.74355 Bohr) occupying 0.749771 of unit cell:	Completed after 0 iterations at t[s]:   4163.01
SCF: Cycle: 16   F: -1160.526498817195261   dF: -5.655e-10   |Residual|: 2.978e-05   |deigs|: 1.204e-05  t[s]:   4164.42
SCF: Converged (|Delta E|<1.000000e-08 for 2 iters).

Single-point solvation energy estimate, DeltaF = +0.011925051155913

# Ionic positions in lattice coordinates:
ion V   0.164254067003543   0.171481893492911   0.500000000000000 0
ion V   0.664254067003543   0.171481893492911   0.500000000000000 0
ion V   0.164254067003543   0.671481893492911   0.500000000000000 0
ion V   0.664254067003543   0.671481893492911   0.500000000000000 0
ion Ag   0.332617285073497   0.334755420853010   0.500000000000000 0
ion Ag   0.832617285073497   0.334755420853010   0.500000000000000 0
ion Ag   0.332617285073497   0.834755420853010   0.500000000000000 0
ion Ag   0.832617285073497   0.834755420853010   0.500000000000000 0
ion P   0.498605329275188   0.003439947592542   0.560151386505210 0
ion P   0.497954723132266   0.003439947592542   0.439848613494789 0
ion P   0.998605329275188   0.003439947592542   0.560151386505210 0
ion P   0.997954723132266   0.003439947592542   0.439848613494789 0
ion P   0.498605329275188   0.503439947592543   0.560151386505210 0
ion P   0.497954723132266   0.503439947592543   0.439848613494789 0
ion P   0.998605329275188   0.503439947592543   0.560151386505210 0
ion P   0.997954723132266   0.503439947592543   0.439848613494789 0
ion Se   0.155474247782074   0.325277481670328   0.406588145849606 0
ion Se   0.019248193047599   0.325277481670328   0.593411906150391 0
ion Se   0.319754762574246   0.161048256906828   0.592964451281950 0
ion Se   0.019206898018926   0.161048256906828   0.407035548718050 0
ion Se   0.319607150133000   0.023815587907338   0.407260800254202 0
ion Se   0.156577236209662   0.023815587907338   0.592729194745797 0
ion Se   0.655474247782074   0.325277481670328   0.406588145849606 0
ion Se   0.519248193047599   0.325277481670328   0.593411906150391 0
ion Se   0.819754762574246   0.161048256906828   0.592964451281950 0
ion Se   0.519206898018926   0.161048256906828   0.407035548718050 0
ion Se   0.819607150133000   0.023815587907338   0.407260800254202 0
ion Se   0.656577236209662   0.023815587907338   0.592729194745797 0
ion Se   0.155474247782074   0.825277481670328   0.406588145849606 0
ion Se   0.019248193047599   0.825277481670328   0.593411906150391 0
ion Se   0.319754762574246   0.661048256906828   0.592964451281950 0
ion Se   0.019206898018926   0.661048256906828   0.407035548718050 0
ion Se   0.319607150133000   0.523815587907338   0.407260800254202 0
ion Se   0.156577236209662   0.523815587907338   0.592729194745797 0
ion Se   0.655474247782074   0.825277481670328   0.406588145849606 0
ion Se   0.519248193047599   0.825277481670328   0.593411906150391 0
ion Se   0.819754762574246   0.661048256906828   0.592964451281950 0
ion Se   0.519206898018926   0.661048256906828   0.407035548718050 0
ion Se   0.819607150133000   0.523815587907338   0.407260800254202 0
ion Se   0.656577236209662   0.523815587907338   0.592729194745797 0


# Forces in Lattice coordinates:
force V  -0.000058779954315  -0.007276178119870  -0.000116666912052 0
force V  -0.000058779954315  -0.007276178119870  -0.000116666912052 0
force V  -0.000058779954315  -0.007276178119870  -0.000116666912052 0
force V  -0.000058779954315  -0.007276178119870  -0.000116666912052 0
force Ag  -0.000058187647219   0.000297341257539   0.000030685818489 0
force Ag  -0.000058187647219   0.000297341257539   0.000030685818489 0
force Ag  -0.000058187647219   0.000297341257539   0.000030685818489 0
force Ag  -0.000058187647219   0.000297341257539   0.000030685818489 0
force P  -0.004047308089875   0.000130148451910  -0.013663733924019 0
force P   0.003789627828146   0.004127587001519   0.013177706525431 0
force P  -0.004047308089875   0.000130148451909  -0.013663733923991 0
force P   0.003789627828146   0.004127587001519   0.013177706525431 0
force P  -0.004047308089875   0.000130148451910  -0.013663733923991 0
force P   0.003789627828146   0.004127587001519   0.013177706525403 0
force P  -0.004047308089875   0.000130148451910  -0.013663733923991 0
force P   0.003789627828146   0.004127587001519   0.013177706525431 0
force Se  -0.012069247487007  -0.063609529548386   0.093335104741548 0
force Se   0.011891508282125  -0.051580208569694  -0.093378978846003 0
force Se  -0.053496181129594  -0.011920380861904  -0.079507970943416 0
force Se   0.053214739835919   0.041393807389855   0.079353651173971 0
force Se  -0.048820342452951   0.019949341682127   0.094199922956962 0
force Se   0.049231725469853   0.068969931358377  -0.093838421244425 0
force Se  -0.012069247487007  -0.063609529548386   0.093335104741604 0
force Se   0.011891508282125  -0.051580208569694  -0.093378978846003 0
force Se  -0.053496181129594  -0.011920380861905  -0.079507970943530 0
force Se   0.053214739835919   0.041393807389855   0.079353651173971 0
force Se  -0.048820342452949   0.019949341682127   0.094199922956962 0
force Se   0.049231725469852   0.068969931358376  -0.093838421244426 0
force Se  -0.012069247487007  -0.063609529548386   0.093335104741661 0
force Se   0.011891508282125  -0.051580208569694  -0.093378978845946 0
force Se  -0.053496181129592  -0.011920380861905  -0.079507970943416 0
force Se   0.053214739835921   0.041393807389857   0.079353651174028 0
force Se  -0.048820342452952   0.019949341682127   0.094199922956962 0
force Se   0.049231725469853   0.068969931358376  -0.093838421244482 0
force Se  -0.012069247487007  -0.063609529548386   0.093335104741661 0
force Se   0.011891508282125  -0.051580208569694  -0.093378978846003 0
force Se  -0.053496181129594  -0.011920380861905  -0.079507970943416 0
force Se   0.053214739835921   0.041393807389856   0.079353651174028 0
force Se  -0.048820342452952   0.019949341682127   0.094199922956962 0
force Se   0.049231725469853   0.068969931358377  -0.093838421244368 0

# Energy components:
   A_diel =        0.0117510504033124
   Eewald =     4755.0752961661282825
       EH =     5746.1921335491269929
     Eloc =   -11886.5015839229417907
      Enl =       93.1316936079008997
      Exc =     -477.1583153498264096
 Exc_core =      306.4960002011637243
       KE =      302.3126287852052769
-------------------------------------
     Etot =    -1160.4403959128405859
       TS =        0.0861029043545872
-------------------------------------
        F =    -1160.5264988171952609

IonicMinimize: Iter:   0  F: -1160.526498817195261  |grad|_K:  0.000e+00  t[s]:   4174.22
IonicMinimize: Converged (|grad|_K<1.000000e-04).

#--- Lowdin population analysis ---
# oxidation-state V +0.724 +0.724 +0.724 +0.724
# oxidation-state Ag -0.652 -0.652 -0.652 -0.652
# oxidation-state P +0.490 +0.490 +0.490 +0.490 +0.490 +0.490 +0.490 +0.490
# oxidation-state Se -0.069 -0.069 -0.067 -0.067 -0.074 -0.074 -0.069 -0.069 -0.067 -0.067 -0.074 -0.074 -0.069 -0.069 -0.067 -0.067 -0.074 -0.074 -0.069 -0.069 -0.067 -0.067 -0.074 -0.074


Dumping 'NbTe2.fillings' ... done
Dumping 'NbTe2.wfns' ... done
Dumping 'NbTe2.fluidState' ... done
Dumping 'NbTe2.eigenvals' ... done
End date and time: Sun Jul  5 13:26:51 2020  (Duration: 0-1:09:41.25)
Done!
