
*************** JDFTx 1.5.0  ***************

Start date and time: Thu Jan  7 20:12:44 2021
Executable jdftx_gpu with command-line: -i Charged.in -o Charged.out
Running on hosts (process indices):  amax (0-4)
Divided in process groups (process indices):  0 (0)  1 (1)  2 (2)  3 (3)  4 (4)
gpuInit: Found compatible cuda device 0 'Tesla K80'
gpuInit: Found compatible cuda device 1 'Tesla K80'
gpuInit: Found compatible cuda device 2 'Tesla K80'
gpuInit: Found compatible cuda device 3 'Tesla K80'
gpuInit: Found compatible cuda device 4 'Tesla K80'
gpuInit: Selected device 0
Resource initialization completed at t[s]:      3.07
Run totals: 5 processes, 24 threads, 5 GPUs


Input parsed successfully to the following command list (including defaults):

basis kpoint-dependent
cache-projectors no
coords-type Lattice
core-overlap-check none
coulomb-interaction Slab 001
coulomb-truncation-embed 0.5 0.5 0.5
davidson-band-ratio 1.1
dump End State
dump-name NbTe2.$VAR
elec-cutoff 20
elec-eigen-algo Davidson
elec-ex-corr gga-PBE
elec-initial-charge -1.500000
elec-initial-magnetization 5.000000 no
elec-smearing Gauss 0.0073499
electronic-minimize  \
	dirUpdateScheme      FletcherReeves \
	linminMethod         DirUpdateRecommended \
	nIterations          200 \
	history              15 \
	knormThreshold       0 \
	energyDiffThreshold  1e-08 \
	nEnergyDiff          2 \
	alphaTstart          1 \
	alphaTmin            1e-10 \
	updateTestStepSize   yes \
	alphaTreduceFactor   0.1 \
	alphaTincreaseFactor 3 \
	nAlphaAdjustMax      3 \
	wolfeEnergy          0.0001 \
	wolfeGradient        0.9 \
	fdTest               no
exchange-regularization WignerSeitzTruncated
fluid LinearPCM 298.000000 1.013250
fluid-anion F- 1 MeanFieldLJ \
	epsBulk 1 \
	pMol 0 \
	epsInf 1 \
	Pvap 0 \
	sigmaBulk 0 \
	Rvdw 2.24877 \
	Res 0 \
	tauNuc 343133
fluid-cation Na+ 1 MeanFieldLJ \
	epsBulk 1 \
	pMol 0 \
	epsInf 1 \
	Pvap 0 \
	sigmaBulk 0 \
	Rvdw 2.19208 \
	Res 0 \
	tauNuc 343133
fluid-ex-corr lda-TF lda-PZ
fluid-gummel-loop 10 1.000000e-05
fluid-minimize  \
	dirUpdateScheme      PolakRibiere \
	linminMethod         DirUpdateRecommended \
	nIterations          400 \
	history              15 \
	knormThreshold       1e-11 \
	energyDiffThreshold  0 \
	nEnergyDiff          2 \
	alphaTstart          1 \
	alphaTmin            1e-10 \
	updateTestStepSize   yes \
	alphaTreduceFactor   0.1 \
	alphaTincreaseFactor 3 \
	nAlphaAdjustMax      6 \
	wolfeEnergy          0.0001 \
	wolfeGradient        0.9 \
	fdTest               no
fluid-solvent H2O 55.338 ScalarEOS \
	epsBulk 78.4 \
	pMol 0.92466 \
	epsInf 1.77 \
	Pvap 1.06736e-10 \
	sigmaBulk 4.62e-05 \
	Rvdw 2.61727 \
	Res 1.42 \
	tauNuc 343133 \
	poleEl 15 7 1
forces-output-coords Positions
initial-state NbTe2.$VAR
ion Ta   0.166669984000002   0.083329999999997   0.500000000000000 1
ion Ta   0.416670001999996   0.083329999999997   0.500000000000000 1
ion Ta   0.666670019999998   0.083329999999997   0.500000000000000 1
ion Ta   0.916670037999999   0.083329999999997   0.500000000000000 1
ion Ta   0.166669994000003   0.333330001000000   0.500000000000000 1
ion Ta   0.416669994000003   0.333330001000000   0.500000000000000 1
ion Ta   0.666670011999997   0.333330001000000   0.500000000000000 1
ion Ta   0.916669994000003   0.333330001000000   0.500000000000000 1
ion Ta   0.166669994000003   0.583329982000002   0.500000000000000 1
ion Ta   0.416669994000003   0.583329982000002   0.500000000000000 1
ion Ta   0.666669994000003   0.583329982000002   0.500000000000000 1
ion Ta   0.916670011000001   0.583329982000002   0.500000000000000 1
ion Ta   0.166669992999999   0.833329962999997   0.500000000000000 1
ion Ta   0.416669992999999   0.833329962999997   0.500000000000000 1
ion Ta   0.666670011000001   0.833329962999997   0.500000000000000 1
ion Ta   0.916670029000002   0.833329962999997   0.500000000000000 1
ion S   0.000000000000000   0.000000000000000   0.586319975000002 1
ion S   0.000000000000000   0.000000000000000   0.413679999000003 1
ion S   0.250000000000000   0.000000000000000   0.586319975000002 1
ion S   0.250000000000000   0.000000000000000   0.413679999000003 1
ion S   0.500000000000000   0.000000000000000   0.586319975000002 1
ion S   0.500000000000000   0.000000000000000   0.413679999000003 1
ion S   0.749999981999999   0.000000000000000   0.586319975000002 1
ion S   0.749999981999999   0.000000000000000   0.413679999000003 1
ion S   0.000000000999996   0.250000002000000   0.586319975000002 1
ion S   0.000000000999996   0.250000002000000   0.413679999000003 1
ion S   0.250000000999996   0.250000002000000   0.586319975000002 1
ion S   0.250000000999996   0.250000002000000   0.413679999000003 1
ion S   0.499999991999999   0.250000002000000   0.586319975000002 1
ion S   0.499999991999999   0.250000002000000   0.413679999000003 1
ion S   0.750000010000001   0.250000002000000   0.586319975000002 1
ion S   0.750000010000001   0.250000002000000   0.413679999000003 1
ion S   0.000000002000000   0.500000002999997   0.586319975000002 1
ion S   0.000000002000000   0.500000002999997   0.413679999000003 1
ion S   0.250000002000000   0.500000002999997   0.586319975000002 1
ion S   0.250000002000000   0.500000002999997   0.413679999000003 1
ion S   0.500000002000000   0.500000002999997   0.586319975000002 1
ion S   0.500000002000000   0.500000002999997   0.413679999000003 1
ion S   0.749999965999997   0.500000002999997   0.586319975000002 1
ion S   0.749999965999997   0.500000002999997   0.413679999000003 1
ion S   0.000000022000002   0.750000026000002   0.586319975000002 1
ion S   0.000000022000002   0.750000026000002   0.413679999000003 1
ion S   0.250000022000002   0.750000026000002   0.586319975000002 1
ion S   0.250000022000002   0.750000026000002   0.413679999000003 1
ion S   0.500000022000002   0.750000026000002   0.586319975000002 1
ion S   0.500000022000002   0.750000026000002   0.413679999000003 1
ion S   0.750000004000000   0.750000026000002   0.586319975000002 1
ion S   0.750000004000000   0.750000026000002   0.413679999000003 1
ion-species GBRV/$ID_pbe.uspp
ion-width Ecut
ionic-minimize  \
	dirUpdateScheme      L-BFGS \
	linminMethod         DirUpdateRecommended \
	nIterations          500 \
	history              15 \
	knormThreshold       0.0001 \
	energyDiffThreshold  1e-06 \
	nEnergyDiff          2 \
	alphaTstart          1 \
	alphaTmin            1e-10 \
	updateTestStepSize   yes \
	alphaTreduceFactor   0.1 \
	alphaTincreaseFactor 3 \
	nAlphaAdjustMax      3 \
	wolfeEnergy          0.0001 \
	wolfeGradient        0.9 \
	fdTest               no
kpoint   0.000000000000   0.000000000000   0.000000000000  1.00000000000000
kpoint-folding 4 4 1 
latt-move-scale 1 1 1
latt-scale 1.88973 1.88973 1.88973 
lattice Triclinic 13.3213 13.3213 18.1305 90 90 120
lattice-minimize  \
	dirUpdateScheme      L-BFGS \
	linminMethod         DirUpdateRecommended \
	nIterations          0 \
	history              15 \
	knormThreshold       0 \
	energyDiffThreshold  1e-06 \
	nEnergyDiff          2 \
	alphaTstart          1 \
	alphaTmin            1e-10 \
	updateTestStepSize   yes \
	alphaTreduceFactor   0.1 \
	alphaTincreaseFactor 3 \
	nAlphaAdjustMax      3 \
	wolfeEnergy          0.0001 \
	wolfeGradient        0.9 \
	fdTest               no
lcao-params -1 1e-06 0.0073499
pcm-variant CANDLE
spintype z-spin
subspace-rotation-factor 1 yes
symmetries automatic
symmetry-threshold 0.0001



---------- Setting up symmetries ----------

Found 24 point-group symmetries of the bravais lattice
Found 192 space-group symmetries with basis
Applied RMS atom displacement 6.87527e-05 bohrs to make symmetries exact.

---------- Initializing the Grid ----------
R = 
[    25.1736   -12.5868          0  ]
[          0     21.801          0  ]
[          0          0    34.2617  ]
unit cell volume = 18803.1
G =
[   0.249594   0.144103         -0  ]
[          0   0.288207          0  ]
[          0         -0   0.183388  ]
Minimum fftbox size, Smin = [  104  104  140  ]
Chosen fftbox size, S = [  108  108  140  ]

---------- Exchange Correlation functional ----------
Initalized PBE GGA exchange.
Initalized PBE GGA correlation.

---------- Setting up pseudopotentials ----------
Width of ionic core gaussian charges (only for fluid interactions / plotting) set to 0.397384

Reading pseudopotential file '/home/guoxy/vasp/jdftx-1.5.0/build/pseudopotentials/GBRV/ta_pbe.uspp':
  Title: Ta.  Created by USPP 7.3.6 on 14-9-2013
  Reference state energy: -70.583193.  13 valence electrons in orbitals:
    |500>  occupation: 2  eigenvalue: -2.682396
    |510>  occupation: 6  eigenvalue: -1.447928
    |520>  occupation: 3  eigenvalue: -0.131987
    |600>  occupation: 2  eigenvalue: -0.199982
    |610>  occupation: 0  eigenvalue: -0.051129
  lMax: 3  lLocal: 3  QijEcut: 5
  7 projectors sampled on a log grid with 667 points:
    l: 0  eig: -2.682397  rCut: 1.4
    l: 0  eig: -0.199983  rCut: 1.4
    l: 1  eig: -1.447928  rCut: 1.5
    l: 1  eig: -0.051130  rCut: 1.5
    l: 2  eig: -0.131987  rCut: 1.7
    l: 2  eig: 0.150000  rCut: 1.7
    l: 3  eig: 0.250000  rCut: 2.3
  Partial core density with radius 1.2
  Transforming core density to a uniform radial grid of dG=0.02 with 1498 points.
  Transforming local potential to a uniform radial grid of dG=0.02 with 1498 points.
  Transforming nonlocal projectors to a uniform radial grid of dG=0.02 with 432 points.
  Transforming density augmentations to a uniform radial grid of dG=0.02 with 1498 points.
  Transforming atomic orbitals to a uniform radial grid of dG=0.02 with 432 points.
  Core radius for overlap checks: 2.30 bohrs.

Reading pseudopotential file '/home/guoxy/vasp/jdftx-1.5.0/build/pseudopotentials/GBRV/s_pbe.uspp':
  Title: S.  Created by USPP 7.3.6 on 1-4-15
  Reference state energy: -11.898476.  6 valence electrons in orbitals:
    |300>  occupation: 2  eigenvalue: -0.634167
    |310>  occupation: 4  eigenvalue: -0.257568
  lMax: 2  lLocal: 3  QijEcut: 6
  6 projectors sampled on a log grid with 635 points:
    l: 0  eig: -0.634161  rCut: 1.5
    l: 0  eig: 1.500000  rCut: 1.5
    l: 1  eig: -0.257567  rCut: 1.5
    l: 1  eig: 1.500000  rCut: 1.5
    l: 2  eig: -1.000000  rCut: 1.5
    l: 2  eig: 1.500000  rCut: 1.5
  Partial core density with radius 1.15
  Transforming core density to a uniform radial grid of dG=0.02 with 1498 points.
  Transforming local potential to a uniform radial grid of dG=0.02 with 1498 points.
  Transforming nonlocal projectors to a uniform radial grid of dG=0.02 with 432 points.
  Transforming density augmentations to a uniform radial grid of dG=0.02 with 1498 points.
  Transforming atomic orbitals to a uniform radial grid of dG=0.02 with 432 points.
  Core radius for overlap checks: 1.50 bohrs.

Initialized 2 species with 48 total atoms.

Folded 1 k-points by 4x4x1 to 16 k-points.

---------- Setting up k-points, bands, fillings ----------
Adding inversion symmetry to k-mesh for non-inversion-symmetric unit cell.
Reduced to 4 k-points under symmetry. 
Computing the number of bands and number of electrons
Calculating initial fillings.
nElectrons: 398.500000   nBands: 336   nStates: 8

----- Setting up reduced wavefunction bases (one per k-point) -----
average nbasis = 80337.188 , ideal nbasis = 80328.404

---------- Setting up coulomb interaction ----------
Fluid mode embedding: using embedded box, but periodic Coulomb kernel.
(Fluid response is responsible for (approximate) separation between periodic images.)
Setting up double-sized grid for truncated Coulomb potentials:
R = 
[    25.1736   -12.5868          0  ]
[          0     21.801          0  ]
[          0          0    68.5234  ]
unit cell volume = 37606.3
G =
[   0.249594   0.144103         -0  ]
[          0   0.288207          0  ]
[          0         -0  0.0916941  ]
Chosen fftbox size, S = [  108  108  280  ]
Integer grid location selected as the embedding center:
   Grid: [  54  54  70  ]
   Lattice: [  0.5  0.5  0.5  ]
   Cartesian: [  6.2934  10.9005  17.1308  ]
Constructing Wigner-Seitz cell: 8 faces (6 quadrilaterals, 2 hexagons)
Range-separation parameter for embedded mesh potentials due to point charges: 0.624095 bohrs.

Initializing van der Waals corrections
	NOTE: vdW corrections apply only for interactions with fluid.
	Ta:  C6:  815.23 Eh-a0^6  R0: 3.326 a0 (WARNING: beyond Grimme's data set)
	 S:  C6:   96.61 Eh-a0^6  R0: 3.180 a0

---------- Setting up ewald sum ----------
Optimum gaussian width for ewald sums = 7.011160 bohr.
Real space sum over 605 unit cells with max indices [  5  5  2  ]
Reciprocal space sum over 7425 terms with max indices [  7  7  16  ]

---------- Allocating electronic variables ----------
Initializing wave functions:  linear combination of atomic orbitals
Ta pseudo-atom occupations:   s ( 2 2 )  p ( 6 0 )  d ( 3 )
S pseudo-atom occupations:   s ( 2 )  p ( 4 )
	FillingsUpdate:  mu: +0.672844331  nElectrons: 398.500000  magneticMoment: [ Abs: 1.20141  Tot: +1.15059 ]
LCAOMinimize: Iter:   0  F: -1207.1856026053508231  |grad|_K:  2.856e-02  alpha:  1.000e+00
	FillingsUpdate:  mu: -1.168387016  nElectrons: 398.500000  magneticMoment: [ Abs: 0.56855  Tot: +0.56211 ]
LCAOMinimize: Iter:   1  F: -1221.7339388917964698  |grad|_K:  1.381e-02  alpha:  4.735e-01  linmin:  1.330e-01  cgtest: -2.113e+00  t[s]:    216.21
LCAOMinimize: 	Bad step direction: g.d > 0.
LCAOMinimize: 	Undoing step.
LCAOMinimize: 	Step failed: resetting search direction.
	FillingsUpdate:  mu: -1.168387016  nElectrons: 398.500000  magneticMoment: [ Abs: 0.56855  Tot: +0.56211 ]
LCAOMinimize: Iter:   2  F: -1221.7339388917964698  |grad|_K:  1.381e-02  alpha:  0.000e+00
	FillingsUpdate:  mu: -0.648659407  nElectrons: 398.500000  magneticMoment: [ Abs: 2.11561  Tot: +2.10941 ]
LCAOMinimize: Iter:   3  F: -1254.0573785684366612  |grad|_K:  8.053e-03  alpha:  1.867e-01  linmin: -3.659e-01  cgtest:  8.929e-01  t[s]:    328.90
LCAOMinimize: Encountered beta<0, resetting CG.
LCAOMinimize: 	Wrong curvature in test step, increasing alphaT to 5.600522e-01.
	FillingsUpdate:  mu: -0.460682271  nElectrons: 398.500000  magneticMoment: [ Abs: 1.89851  Tot: +1.87054 ]
LCAOMinimize: Iter:   4  F: -1265.1255854541379904  |grad|_K:  4.849e-03  alpha: -1.493e+01  linmin: -3.895e-01  cgtest:  7.003e-01  t[s]:    395.24
LCAOMinimize: Encountered beta<0, resetting CG.
	FillingsUpdate:  mu: -0.402843573  nElectrons: 398.500000  magneticMoment: [ Abs: 1.78510  Tot: +1.75248 ]
LCAOMinimize: Iter:   5  F: -1266.8971921360084707  |grad|_K:  3.145e-03  alpha:  9.575e-02  linmin: -4.202e-01  cgtest:  9.217e-01  t[s]:    462.01
LCAOMinimize: Encountered beta<0, resetting CG.
	FillingsUpdate:  mu: -0.258873852  nElectrons: 398.500000  magneticMoment: [ Abs: 1.50039  Tot: +1.47564 ]
LCAOMinimize: Iter:   6  F: -1267.7975298812377787  |grad|_K:  1.381e-03  alpha:  2.604e-01  linmin:  3.844e-01  cgtest: -7.824e-01  t[s]:    528.42
LCAOMinimize: 	Bad step direction: g.d > 0.
LCAOMinimize: 	Undoing step.
LCAOMinimize: 	Step failed: resetting search direction.
	FillingsUpdate:  mu: -0.258873852  nElectrons: 398.500000  magneticMoment: [ Abs: 1.50039  Tot: +1.47564 ]
LCAOMinimize: Iter:   7  F: -1267.7975298812377787  |grad|_K:  1.381e-03  alpha:  0.000e+00
	FillingsUpdate:  mu: -0.319524310  nElectrons: 398.500000  magneticMoment: [ Abs: 1.44549  Tot: +1.41124 ]
LCAOMinimize: Iter:   8  F: -1267.9252752859642897  |grad|_K:  5.879e-05  alpha:  1.639e-01  linmin:  7.631e-02  cgtest: -3.105e-01  t[s]:    640.05
LCAOMinimize: 	Predicted alpha/alphaT>3.000000, increasing alphaT to 4.917088e-01.
	FillingsUpdate:  mu: -0.319302023  nElectrons: 398.500000  magneticMoment: [ Abs: 0.99821  Tot: +0.95898 ]
LCAOMinimize: Iter:   9  F: -1267.9265439148734913  |grad|_K:  3.929e-05  alpha:  8.599e-01  linmin:  1.232e-03  cgtest:  2.809e-01  t[s]:    727.08
	FillingsUpdate:  mu: -0.317532513  nElectrons: 398.500000  magneticMoment: [ Abs: 0.90032  Tot: +0.86208 ]
LCAOMinimize: Iter:  10  F: -1267.9266869581465471  |grad|_K:  1.412e-05  alpha:  1.985e-01  linmin: -1.276e-02  cgtest:  8.017e-02  t[s]:    794.56
LCAOMinimize: 	Predicted alpha/alphaT>3.000000, increasing alphaT to 5.954421e-01.
LCAOMinimize: 	Predicted alpha/alphaT>3.000000, increasing alphaT to 1.786326e+00.
	FillingsUpdate:  mu: -0.318054322  nElectrons: 398.500000  magneticMoment: [ Abs: 0.17714  Tot: +0.14852 ]
LCAOMinimize: Iter:  11  F: -1267.9268698689702433  |grad|_K:  6.837e-06  alpha:  1.980e+00  linmin: -4.725e-04  cgtest: -1.094e-01  t[s]:    900.41
	FillingsUpdate:  mu: -0.317790343  nElectrons: 398.500000  magneticMoment: [ Abs: 0.01373  Tot: -0.00642 ]
LCAOMinimize: Iter:  12  F: -1267.9268914329638847  |grad|_K:  2.121e-06  alpha:  1.014e+00  linmin: -5.085e-04  cgtest:  1.188e-02  t[s]:    965.99
	FillingsUpdate:  mu: -0.317877436  nElectrons: 398.500000  magneticMoment: [ Abs: 0.01188  Tot: -0.00830 ]
LCAOMinimize: Iter:  13  F: -1267.9268918313612176  |grad|_K:  6.025e-07  alpha:  1.952e-01  linmin:  2.001e-03  cgtest: -6.437e-03  t[s]:   1033.98
LCAOMinimize: 	Predicted alpha/alphaT>3.000000, increasing alphaT to 5.854713e-01.
	FillingsUpdate:  mu: -0.317854377  nElectrons: 398.500000  magneticMoment: [ Abs: 0.00561  Tot: -0.00473 ]
LCAOMinimize: Iter:  14  F: -1267.9268919770713637  |grad|_K:  1.631e-07  alpha:  8.842e-01  linmin: -1.025e-04  cgtest:  7.687e-03  t[s]:   1121.68
LCAOMinimize: Converged (|Delta F|<1.000000e-06 for 2 iters).
----- createFluidSolver() ----- (Fluid-side solver setup)
   Initializing fluid molecule 'H2O'
     Initializing site 'O'
       Electron density: proportional to exp(-r/0.36935)*erfc((r-0.51523)/0.36823) with norm 6.826
       Charge density: gaussian nuclear width 0.478731 with net site charge 0.826
       Polarizability: cuspless exponential with width 0.32 and norm 3.73
       Hard sphere radius: 2.57003 bohrs
       Positions in reference frame:
         [ +0.000000 +0.000000 +0.000000 ]
     Initializing site 'H'
       Electron density: proportional to exp(-r/0.34641)*erfc((r-0)/0.390882) with norm 0.587
       Charge density: gaussian nuclear width 0.377945 with net site charge -0.413
       Polarizability: cuspless exponential with width 0.39 and norm 3.3
       Positions in reference frame:
         [ +0.000000 -1.441945 +1.122523 ]
         [ +0.000000 +1.441945 +1.122523 ]
     Net charge: 0   dipole magnitude: 0.927204
     Initializing spherical shell mfKernel with radius 2.61727 Bohr
     deltaS corrections:
       site 'O': -7.54299
       site 'H': -6.83917
   Initializing fluid molecule 'Na+'
     Initializing site 'Na'
       Electron density: proportional to exp(-r/0.19682)*erfc((r-0.71491)/0.41314) with norm 8.1383
       Charge density: gaussian nuclear width 0.365347 with net site charge -1
       Hard sphere radius: 1.86327 bohrs
       Positions in reference frame:
         [ +0.000000 +0.000000 +0.000000 ]
     Net charge: -1   dipole magnitude: 0
     Initializing gaussian mfKernel with width: 1.55004 Bohr
     deltaS corrections:
       site 'Na': -22.3555
   Initializing fluid molecule 'F-'
     Initializing site 'F'
       Electron density: proportional to exp(-r/0.38886)*erfc((r-0)/0.438782) with norm 8
       Charge density: gaussian nuclear width 0.374796 with net site charge 1
       Hard sphere radius: 2.39995 bohrs
       Positions in reference frame:
         [ +0.000000 +0.000000 +0.000000 ]
     Net charge: 1   dipole magnitude: 0
     Initializing gaussian mfKernel with width: 1.59012 Bohr
     deltaS corrections:
       site 'F': -9.04335

Correction to mu due to finite nuclear width = -0.0105536
   Cavity determined by nc: 0.00142 and sigma: 0.707107
   Nonlocal vdW cavity from gaussian model electron density with norm = 8 and sigma = 0.993594 bohr
   Charge asymmetry in cavity with sensitivity pCavity = 36.5 e-bohr/Eh
   Electrostatic cavity expanded by eta = 1.46 bohrs
   Weighted density cavitation model constrained by Nbulk: 0.0049383 bohr^-3, Pvap: 3.14029 kPa, Rvdw: 2.61727 bohr and sigmaBulk: 4.62e-05 Eh/bohr^2 at T: 298 K.
   Weighted density dispersion model using vdW pair potentials with single solvent site with sqrtC6eff: 0.77 SI.


---- Citations for features of the code used in this run ----

   Software package:
      R. Sundararaman, K. Letchworth-Weaver, K.A. Schwarz, D. Gunceler, Y. Ozhabes and T.A. Arias, 'JDFTx: software for joint density-functional theory', SoftwareX 6, 278 (2017)

   gga-PBE exchange-correlation functional:
      J.P. Perdew, K. Burke and M. Ernzerhof, Phys. Rev. Lett. 77, 3865 (1996)

   Pseudopotentials:
      KF Garrity, JW Bennett, KM Rabe and D Vanderbilt, Comput. Mater. Sci. 81, 446 (2014)

   Truncated Coulomb potentials:
      R. Sundararaman and T.A. Arias, Phys. Rev. B 87, 165122 (2013)

   Van der Waals correction pair-potentials:
      S. Grimme, J. Comput. Chem. 27, 1787 (2006)

   Charge-asymmetric nonlocally-determined local-electric (CANDLE) solvation model:
      R. Sundararaman and W.A. Goddard III, J. Chem. Phys. 142, 064107 (2015)

   Total energy minimization with Auxiliary Hamiltonian:
      C. Freysoldt, S. Boeck, and J. Neugebauer, Phys. Rev. B 79, 241103(R) (2009)

This list may not be complete. Please suggest additional citations or
report any other bugs at https://github.com/shankar1729/jdftx/issues

Initialization completed successfully at t[s]:   1132.06

Fluid solver invoked on fresh (partially random / LCAO) wavefunctions
Running a vacuum solve first:

-------- Initial electronic minimization -----------
	FillingsUpdate:  mu: -0.317854377  nElectrons: 398.500000  magneticMoment: [ Abs: 0.00561  Tot: -0.00473 ]
ElecMinimize: Iter:   0  F: -1267.926891977048626  |grad|_K:  8.915e-05  alpha:  1.000e+00
	FillingsUpdate:  mu: -0.208715030  nElectrons: 398.500000  magneticMoment: [ Abs: 0.00350  Tot: -0.00301 ]
	SubspaceRotationAdjust: set factor to 0.848
ElecMinimize: Iter:   1  F: -1269.298086844467889  |grad|_K:  5.272e-05  alpha:  8.009e-01  linmin: -5.209e-05  t[s]:   1281.71
	FillingsUpdate:  mu: -0.268512939  nElectrons: 398.500000  magneticMoment: [ Abs: 0.00275  Tot: -0.00235 ]
	SubspaceRotationAdjust: set factor to 0.544
ElecMinimize: Iter:   2  F: -1269.501730169137545  |grad|_K:  3.478e-05  alpha:  3.954e-01  linmin:  3.508e-04  t[s]:   1374.58
	FillingsUpdate:  mu: -0.242658249  nElectrons: 398.500000  magneticMoment: [ Abs: 0.00207  Tot: -0.00177 ]
	SubspaceRotationAdjust: set factor to 0.505
ElecMinimize: Iter:   3  F: -1269.620893956660211  |grad|_K:  1.409e-05  alpha:  4.788e-01  linmin:  1.470e-04  t[s]:   1466.83
	FillingsUpdate:  mu: -0.244824084  nElectrons: 398.500000  magneticMoment: [ Abs: 0.00175  Tot: -0.00151 ]
	SubspaceRotationAdjust: set factor to 0.551
ElecMinimize: Iter:   4  F: -1269.646353700078407  |grad|_K:  8.584e-06  alpha:  6.057e-01  linmin:  1.508e-05  t[s]:   1559.41
	FillingsUpdate:  mu: -0.250156319  nElectrons: 398.500000  magneticMoment: [ Abs: 0.00150  Tot: -0.00129 ]
	SubspaceRotationAdjust: set factor to 0.602
ElecMinimize: Iter:   5  F: -1269.656217926360569  |grad|_K:  4.956e-06  alpha:  6.206e-01  linmin:  1.133e-05  t[s]:   1652.86
	FillingsUpdate:  mu: -0.247216907  nElectrons: 398.500000  magneticMoment: [ Abs: 0.00126  Tot: -0.00109 ]
	SubspaceRotationAdjust: set factor to 0.68
ElecMinimize: Iter:   6  F: -1269.659702482745388  |grad|_K:  3.037e-06  alpha:  6.571e-01  linmin:  1.815e-05  t[s]:   1744.51
	FillingsUpdate:  mu: -0.248083702  nElectrons: 398.500000  magneticMoment: [ Abs: 0.00105  Tot: -0.00092 ]
	SubspaceRotationAdjust: set factor to 0.843
ElecMinimize: Iter:   7  F: -1269.660875056788882  |grad|_K:  1.723e-06  alpha:  5.906e-01  linmin:  3.831e-06  t[s]:   1836.73
	FillingsUpdate:  mu: -0.248507503  nElectrons: 398.500000  magneticMoment: [ Abs: 0.00088  Tot: -0.00077 ]
	SubspaceRotationAdjust: set factor to 0.945
ElecMinimize: Iter:   8  F: -1269.661222309349569  |grad|_K:  9.254e-07  alpha:  5.413e-01  linmin:  1.876e-06  t[s]:   1929.99
	FillingsUpdate:  mu: -0.247930111  nElectrons: 398.500000  magneticMoment: [ Abs: 0.00071  Tot: -0.00063 ]
	SubspaceRotationAdjust: set factor to 0.87
ElecMinimize: Iter:   9  F: -1269.661323690167592  |grad|_K:  6.170e-07  alpha:  5.476e-01  linmin:  1.531e-06  t[s]:   2021.47
	FillingsUpdate:  mu: -0.248515229  nElectrons: 398.500000  magneticMoment: [ Abs: 0.00058  Tot: -0.00051 ]
	SubspaceRotationAdjust: set factor to 0.682
ElecMinimize: Iter:  10  F: -1269.661358573133157  |grad|_K:  3.409e-07  alpha:  4.237e-01  linmin:  6.383e-07  t[s]:   2114.27
	FillingsUpdate:  mu: -0.248338945  nElectrons: 398.500000  magneticMoment: [ Abs: 0.00044  Tot: -0.00039 ]
	SubspaceRotationAdjust: set factor to 0.667
ElecMinimize: Iter:  11  F: -1269.661372549202497  |grad|_K:  2.003e-07  alpha:  5.563e-01  linmin:  1.341e-06  t[s]:   2207.15
	FillingsUpdate:  mu: -0.248377565  nElectrons: 398.500000  magneticMoment: [ Abs: 0.00035  Tot: -0.00032 ]
	SubspaceRotationAdjust: set factor to 0.81
ElecMinimize: Iter:  12  F: -1269.661377107307089  |grad|_K:  1.242e-07  alpha:  5.257e-01  linmin:  6.074e-07  t[s]:   2299.19
	FillingsUpdate:  mu: -0.248425694  nElectrons: 398.500000  magneticMoment: [ Abs: 0.00029  Tot: -0.00025 ]
	SubspaceRotationAdjust: set factor to 0.892
ElecMinimize: Iter:  13  F: -1269.661378848807090  |grad|_K:  7.627e-08  alpha:  5.216e-01  linmin:  4.540e-07  t[s]:   2391.66
	FillingsUpdate:  mu: -0.248371744  nElectrons: 398.500000  magneticMoment: [ Abs: 0.00023  Tot: -0.00020 ]
	SubspaceRotationAdjust: set factor to 0.866
ElecMinimize: Iter:  14  F: -1269.661379467167990  |grad|_K:  4.527e-08  alpha:  4.914e-01  linmin:  1.291e-07  t[s]:   2483.93
	FillingsUpdate:  mu: -0.248392617  nElectrons: 398.500000  magneticMoment: [ Abs: 0.00018  Tot: -0.00016 ]
	SubspaceRotationAdjust: set factor to 0.837
ElecMinimize: Iter:  15  F: -1269.661379684965141  |grad|_K:  2.446e-08  alpha:  4.911e-01  linmin:  4.009e-08  t[s]:   2576.76
	FillingsUpdate:  mu: -0.248385038  nElectrons: 398.500000  magneticMoment: [ Abs: 0.00014  Tot: -0.00013 ]
	SubspaceRotationAdjust: set factor to 0.897
ElecMinimize: Iter:  16  F: -1269.661379753358460  |grad|_K:  1.553e-08  alpha:  5.289e-01  linmin:  1.411e-07  t[s]:   2669.33
	FillingsUpdate:  mu: -0.248384395  nElectrons: 398.500000  magneticMoment: [ Abs: 0.00011  Tot: -0.00010 ]
	SubspaceRotationAdjust: set factor to 1.03
ElecMinimize: Iter:  17  F: -1269.661379780115567  |grad|_K:  9.183e-09  alpha:  5.118e-01  linmin: -2.128e-07  t[s]:   2762.10
	FillingsUpdate:  mu: -0.248387228  nElectrons: 398.500000  magneticMoment: [ Abs: 0.00008  Tot: -0.00007 ]
	SubspaceRotationAdjust: set factor to 1.12
ElecMinimize: Iter:  18  F: -1269.661379790183673  |grad|_K:  5.716e-09  alpha:  5.538e-01  linmin:  3.701e-07  t[s]:   2854.75
	FillingsUpdate:  mu: -0.248383555  nElectrons: 398.500000  magneticMoment: [ Abs: 0.00006  Tot: -0.00006 ]
	SubspaceRotationAdjust: set factor to 1
ElecMinimize: Iter:  19  F: -1269.661379793285732  |grad|_K:  3.602e-09  alpha:  4.509e-01  linmin: -4.100e-07  t[s]:   2947.17
	FillingsUpdate:  mu: -0.248386899  nElectrons: 398.500000  magneticMoment: [ Abs: 0.00005  Tot: -0.00004 ]
	SubspaceRotationAdjust: set factor to 0.707
ElecMinimize: Iter:  20  F: -1269.661379794588811  |grad|_K:  2.396e-09  alpha:  4.550e-01  linmin:  2.653e-06  t[s]:   3040.70
ElecMinimize: Converged (|Delta F|<1.000000e-08 for 2 iters).
Setting wave functions to eigenvectors of Hamiltonian
Vacuum energy after initial minimize, F = -1269.661379794588811

	Linear fluid (dielectric constant: 78.4, screening length: 5.74355 Bohr) occupying 0.759895 of unit cell:	Completed after 15 iterations at t[s]:   3061.92

-------- Electronic minimization -----------
	Linear fluid (dielectric constant: 78.4, screening length: 5.74355 Bohr) occupying 0.759895 of unit cell:	Completed after 0 iterations at t[s]:   3086.43
	FillingsUpdate:  mu: -0.247869456  nElectrons: 398.500000  magneticMoment: [ Abs: 0.00004  Tot: -0.00003 ]
ElecMinimize: Iter:   0  F: -1269.587948051676221  |grad|_K:  2.362e-06  alpha:  1.000e+00
	Linear fluid (dielectric constant: 78.4, screening length: 5.74355 Bohr) occupying 0.760441 of unit cell:	Completed after 11 iterations at t[s]:   3160.20
	Linear fluid (dielectric constant: 78.4, screening length: 5.74355 Bohr) occupying 0.760098 of unit cell:	Completed after 11 iterations at t[s]:   3193.54
	FillingsUpdate:  mu: -0.243180912  nElectrons: 398.500000  magneticMoment: [ Abs: 0.00003  Tot: -0.00003 ]
	SubspaceRotationAdjust: set factor to 0.482
ElecMinimize: Iter:   1  F: -1269.588394202736481  |grad|_K:  1.204e-06  alpha:  3.697e-01  linmin:  5.908e-06  t[s]:   3235.74
	Linear fluid (dielectric constant: 78.4, screening length: 5.74355 Bohr) occupying 0.760247 of unit cell:	Completed after 8 iterations at t[s]:   3264.77
	Linear fluid (dielectric constant: 78.4, screening length: 5.74355 Bohr) occupying 0.760365 of unit cell:	Completed after 9 iterations at t[s]:   3297.59
	FillingsUpdate:  mu: -0.242407786  nElectrons: 398.500000  magneticMoment: [ Abs: 0.00003  Tot: -0.00002 ]
	SubspaceRotationAdjust: set factor to 0.505
ElecMinimize: Iter:   2  F: -1269.588602862503876  |grad|_K:  4.205e-07  alpha:  6.620e-01  linmin: -3.700e-05  t[s]:   3339.21
	Linear fluid (dielectric constant: 78.4, screening length: 5.74355 Bohr) occupying 0.760442 of unit cell:	Completed after 2 iterations at t[s]:   3367.37
	Linear fluid (dielectric constant: 78.4, screening length: 5.74355 Bohr) occupying 0.760447 of unit cell:	Completed after 0 iterations at t[s]:   3397.22
	FillingsUpdate:  mu: -0.242379643  nElectrons: 398.500000  magneticMoment: [ Abs: 0.00003  Tot: -0.00002 ]
	SubspaceRotationAdjust: set factor to 0.576
ElecMinimize: Iter:   3  F: -1269.588630124301972  |grad|_K:  2.269e-07  alpha:  7.056e-01  linmin: -1.603e-05  t[s]:   3436.51
	Linear fluid (dielectric constant: 78.4, screening length: 5.74355 Bohr) occupying 0.760484 of unit cell:	Completed after 3 iterations at t[s]:   3464.87
	Linear fluid (dielectric constant: 78.4, screening length: 5.74355 Bohr) occupying 0.760478 of unit cell:	Completed after 0 iterations at t[s]:   3495.29
	FillingsUpdate:  mu: -0.242386799  nElectrons: 398.500000  magneticMoment: [ Abs: 0.00002  Tot: -0.00002 ]
	SubspaceRotationAdjust: set factor to 0.614
ElecMinimize: Iter:   4  F: -1269.588636745415215  |grad|_K:  1.375e-07  alpha:  5.905e-01  linmin: -2.091e-06  t[s]:   3534.55
	Linear fluid (dielectric constant: 78.4, screening length: 5.74355 Bohr) occupying 0.760488 of unit cell:	Completed after 2 iterations at t[s]:   3562.97
	Linear fluid (dielectric constant: 78.4, screening length: 5.74355 Bohr) occupying 0.760489 of unit cell:	Completed after 0 iterations at t[s]:   3593.55
	FillingsUpdate:  mu: -0.242298501  nElectrons: 398.500000  magneticMoment: [ Abs: 0.00002  Tot: -0.00002 ]
	SubspaceRotationAdjust: set factor to 0.678
ElecMinimize: Iter:   5  F: -1269.588639262583911  |grad|_K:  7.908e-08  alpha:  6.112e-01  linmin: -4.149e-05  t[s]:   3633.20
	Linear fluid (dielectric constant: 78.4, screening length: 5.74355 Bohr) occupying 0.760487 of unit cell:	Completed after 0 iterations at t[s]:   3661.02
	Linear fluid (dielectric constant: 78.4, screening length: 5.74355 Bohr) occupying 0.760487 of unit cell:	Completed after 0 iterations at t[s]:   3690.32
	FillingsUpdate:  mu: -0.242297820  nElectrons: 398.500000  magneticMoment: [ Abs: 0.00002  Tot: -0.00001 ]
	SubspaceRotationAdjust: set factor to 0.805
ElecMinimize: Iter:   6  F: -1269.588640095947312  |grad|_K:  5.549e-08  alpha:  5.851e-01  linmin:  7.776e-08  t[s]:   3729.56
	Linear fluid (dielectric constant: 78.4, screening length: 5.74355 Bohr) occupying 0.760483 of unit cell:	Completed after 2 iterations at t[s]:   3757.62
	Linear fluid (dielectric constant: 78.4, screening length: 5.74355 Bohr) occupying 0.760484 of unit cell:	Completed after 0 iterations at t[s]:   3787.91
	FillingsUpdate:  mu: -0.242340593  nElectrons: 398.500000  magneticMoment: [ Abs: 0.00001  Tot: -0.00001 ]
	SubspaceRotationAdjust: set factor to 0.739
ElecMinimize: Iter:   7  F: -1269.588640313303358  |grad|_K:  4.087e-08  alpha:  3.745e-01  linmin: -2.184e-05  t[s]:   3827.24
	Linear fluid (dielectric constant: 78.4, screening length: 5.74355 Bohr) occupying 0.760482 of unit cell:	Completed after 0 iterations at t[s]:   3855.14
	Linear fluid (dielectric constant: 78.4, screening length: 5.74355 Bohr) occupying 0.760481 of unit cell:	Completed after 2 iterations at t[s]:   3885.34
	FillingsUpdate:  mu: -0.242281890  nElectrons: 398.500000  magneticMoment: [ Abs: 0.00001  Tot: -0.00001 ]
	SubspaceRotationAdjust: set factor to 0.536
ElecMinimize: Iter:   8  F: -1269.588640350184278  |grad|_K:  4.075e-08  alpha:  5.252e-01  linmin:  8.927e-05  t[s]:   3925.51
	Linear fluid (dielectric constant: 78.4, screening length: 5.74355 Bohr) occupying 0.760477 of unit cell:	Completed after 0 iterations at t[s]:   3953.47
	Linear fluid (dielectric constant: 78.4, screening length: 5.74355 Bohr) occupying 0.760479 of unit cell:	Completed after 0 iterations at t[s]:   3982.87
	FillingsUpdate:  mu: -0.242281906  nElectrons: 398.500000  magneticMoment: [ Abs: 0.00001  Tot: -0.00001 ]
	SubspaceRotationAdjust: set factor to 0.807
ElecMinimize: Iter:   9  F: -1269.588640375433442  |grad|_K:  3.205e-08  alpha:  1.993e-01  linmin: -7.757e-08  t[s]:   4022.02
	Linear fluid (dielectric constant: 78.4, screening length: 5.74355 Bohr) occupying 0.760478 of unit cell:	Completed after 0 iterations at t[s]:   4050.09
	Linear fluid (dielectric constant: 78.4, screening length: 5.74355 Bohr) occupying 0.760478 of unit cell:	Completed after 0 iterations at t[s]:   4079.64
	FillingsUpdate:  mu: -0.242281448  nElectrons: 398.500000  magneticMoment: [ Abs: 0.00001  Tot: -0.00001 ]
	SubspaceRotationAdjust: set factor to 0.783
ElecMinimize: Iter:  10  F: -1269.588640436184960  |grad|_K:  2.916e-08  alpha:  2.729e-01  linmin: -1.239e-07  t[s]:   4119.08
	Linear fluid (dielectric constant: 78.4, screening length: 5.74355 Bohr) occupying 0.760477 of unit cell:	Completed after 2 iterations at t[s]:   4147.49
	Linear fluid (dielectric constant: 78.4, screening length: 5.74355 Bohr) occupying 0.760478 of unit cell:	Completed after 0 iterations at t[s]:   4177.56
	FillingsUpdate:  mu: -0.242319430  nElectrons: 398.500000  magneticMoment: [ Abs: 0.00001  Tot: -0.00001 ]
	SubspaceRotationAdjust: set factor to 0.568
ElecMinimize: Iter:  11  F: -1269.588640443013446  |grad|_K:  2.589e-08  alpha:  8.820e-02  linmin:  5.506e-05  t[s]:   4216.83
	Linear fluid (dielectric constant: 78.4, screening length: 5.74355 Bohr) occupying 0.760478 of unit cell:	Completed after 0 iterations at t[s]:   4244.87
	Linear fluid (dielectric constant: 78.4, screening length: 5.74355 Bohr) occupying 0.760478 of unit cell:	Completed after 0 iterations at t[s]:   4273.76
	FillingsUpdate:  mu: -0.242319245  nElectrons: 398.500000  magneticMoment: [ Abs: 0.00001  Tot: -0.00000 ]
	SubspaceRotationAdjust: set factor to 0.719
ElecMinimize: Iter:  12  F: -1269.588640448295337  |grad|_K:  2.111e-08  alpha:  1.097e-01  linmin:  1.365e-07  t[s]:   4313.20
ElecMinimize: Converged (|Delta F|<1.000000e-08 for 2 iters).
Setting wave functions to eigenvectors of Hamiltonian
Single-point solvation energy estimate, DeltaF = +0.072739346293474

# Ionic positions in lattice coordinates:
ion Ta   0.166667780131944   0.083332222888888   0.499999991333335 1
ion Ta   0.416667780131944   0.083332222888888   0.499999991333335 1
ion Ta   0.666667780131944   0.083332222888888   0.499999991333335 1
ion Ta   0.916667780131944   0.083332222888888   0.499999991333335 1
ion Ta   0.166667780131944   0.333332222888888   0.499999991333335 1
ion Ta   0.416667780131944   0.333332222888888   0.499999991333335 1
ion Ta   0.666667780131944   0.333332222888888   0.499999991333335 1
ion Ta   0.916667780131944   0.333332222888888   0.499999991333335 1
ion Ta   0.166667780131944   0.583332222888888   0.499999991333335 1
ion Ta   0.416667780131944   0.583332222888888   0.499999991333335 1
ion Ta   0.666667780131944   0.583332222888888   0.499999991333335 1
ion Ta   0.916667780131944   0.583332222888888   0.499999991333335 1
ion Ta   0.166667780131944   0.833332222888888   0.499999991333335 1
ion Ta   0.416667780131944   0.833332222888888   0.499999991333335 1
ion Ta   0.666667780131944   0.833332222888888   0.499999991333335 1
ion Ta   0.916667780131944   0.833332222888888   0.499999991333335 1
ion S   0.000001113465278  -0.000001110444445   0.586319979333335 1
ion S   0.000001113465278  -0.000001110444445   0.413680003333335 1
ion S   0.250001113465278  -0.000001110444445   0.586319979333335 1
ion S   0.250001113465278  -0.000001110444445   0.413680003333335 1
ion S   0.500001113465278  -0.000001110444445   0.586319979333335 1
ion S   0.500001113465278  -0.000001110444445   0.413680003333335 1
ion S   0.750001113465278  -0.000001110444445   0.586319979333335 1
ion S   0.750001113465278  -0.000001110444445   0.413680003333335 1
ion S   0.000001113465278   0.249998889555555   0.586319979333335 1
ion S   0.000001113465278   0.249998889555555   0.413680003333335 1
ion S   0.250001113465278   0.249998889555555   0.586319979333335 1
ion S   0.250001113465278   0.249998889555555   0.413680003333335 1
ion S   0.500001113465278   0.249998889555555   0.586319979333335 1
ion S   0.500001113465278   0.249998889555555   0.413680003333335 1
ion S   0.750001113465278   0.249998889555555   0.586319979333335 1
ion S   0.750001113465278   0.249998889555555   0.413680003333335 1
ion S   0.000001113465278   0.499998889555555   0.586319979333335 1
ion S   0.000001113465278   0.499998889555555   0.413680003333335 1
ion S   0.250001113465278   0.499998889555555   0.586319979333335 1
ion S   0.250001113465278   0.499998889555555   0.413680003333335 1
ion S   0.500001113465278   0.499998889555555   0.586319979333335 1
ion S   0.500001113465278   0.499998889555555   0.413680003333335 1
ion S   0.750001113465278   0.499998889555555   0.586319979333335 1
ion S   0.750001113465278   0.499998889555555   0.413680003333335 1
ion S   0.000001113465278   0.749998889555555   0.586319979333335 1
ion S   0.000001113465278   0.749998889555555   0.413680003333335 1
ion S   0.250001113465278   0.749998889555555   0.586319979333335 1
ion S   0.250001113465278   0.749998889555555   0.413680003333335 1
ion S   0.500001113465278   0.749998889555555   0.586319979333335 1
ion S   0.500001113465278   0.749998889555555   0.413680003333335 1
ion S   0.750001113465278   0.749998889555555   0.586319979333335 1
ion S   0.750001113465278   0.749998889555555   0.413680003333335 1


# Forces in Lattice coordinates:
force Ta   0.000000000000000   0.000000000000000  -0.000000000000000 1
force Ta   0.000000000000000   0.000000000000000  -0.000000000000000 1
force Ta   0.000000000000000   0.000000000000000  -0.000000000000000 1
force Ta  -0.000000000000000   0.000000000000000  -0.000000000000000 1
force Ta  -0.000000000000000   0.000000000000000  -0.000000000000000 1
force Ta  -0.000000000000000   0.000000000000000  -0.000000000000000 1
force Ta   0.000000000000000   0.000000000000000   0.000000000000000 1
force Ta  -0.000000000000000   0.000000000000000   0.000000000000000 1
force Ta  -0.000000000000000  -0.000000000000000  -0.000000000000000 1
force Ta  -0.000000000000000   0.000000000000000   0.000000000000000 1
force Ta  -0.000000000000000   0.000000000000000  -0.000000000000000 1
force Ta   0.000000000000000   0.000000000000000   0.000000000000000 1
force Ta  -0.000000000000000   0.000000000000000  -0.000000000000000 1
force Ta  -0.000000000000000  -0.000000000000000   0.000000000000000 1
force Ta  -0.000000000000000   0.000000000000000  -0.000000000000000 1
force Ta   0.000000000000000   0.000000000000000  -0.000000000000000 1
force S   0.000000000000000  -0.000000000000000   0.040106138233498 1
force S  -0.000000000000000   0.000000000000000  -0.040106138233498 1
force S  -0.000000000000000  -0.000000000000000   0.040106138233383 1
force S  -0.000000000000000   0.000000000000000  -0.040106138233384 1
force S   0.000000000000000  -0.000000000000000   0.040106138233497 1
force S   0.000000000000000   0.000000000000000  -0.040106138233499 1
force S  -0.000000000000000  -0.000000000000000   0.040106138233497 1
force S  -0.000000000000000   0.000000000000000  -0.040106138233384 1
force S  -0.000000000000000   0.000000000000000   0.040106138233497 1
force S  -0.000000000000000   0.000000000000000  -0.040106138233384 1
force S  -0.000000000000000   0.000000000000000   0.040106138233383 1
force S  -0.000000000000000   0.000000000000000  -0.040106138233385 1
force S   0.000000000000000   0.000000000000000   0.040106138233611 1
force S   0.000000000000000   0.000000000000000  -0.040106138233499 1
force S  -0.000000000000000  -0.000000000000000   0.040106138233384 1
force S   0.000000000000000   0.000000000000000  -0.040106138233612 1
force S   0.000000000000000   0.000000000000000   0.040106138233611 1
force S  -0.000000000000000   0.000000000000000  -0.040106138233384 1
force S   0.000000000000000   0.000000000000000   0.040106138233383 1
force S  -0.000000000000000   0.000000000000000  -0.040106138233270 1
force S  -0.000000000000000   0.000000000000000   0.040106138233611 1
force S  -0.000000000000000   0.000000000000000  -0.040106138233498 1
force S  -0.000000000000000   0.000000000000000   0.040106138233496 1
force S  -0.000000000000000   0.000000000000000  -0.040106138233383 1
force S  -0.000000000000000   0.000000000000000   0.040106138233497 1
force S  -0.000000000000000   0.000000000000000  -0.040106138233269 1
force S   0.000000000000000  -0.000000000000000   0.040106138233497 1
force S   0.000000000000000   0.000000000000000  -0.040106138233497 1
force S   0.000000000000000  -0.000000000000000   0.040106138233611 1
force S   0.000000000000000   0.000000000000000  -0.040106138233269 1
force S  -0.000000000000000   0.000000000000000   0.040106138233497 1
force S   0.000000000000000   0.000000000000000  -0.040106138233496 1

# Energy components:
   A_diel =        0.0562175820308553
   Eewald =     7269.5185627740620475
       EH =     8232.2360709663880698
     Eloc =   -16774.8374840502110601
      Enl =     -222.9911348991620912
      Exc =     -472.8110204708148103
 Exc_core =      252.5823485118696397
       KE =      446.7300442073736235
  MuShift =        0.0158303568661380
-------------------------------------
     Etot =    -1269.5005650215987316
       TS =        0.0880754266965576
-------------------------------------
        F =    -1269.5886404482953367

IonicMinimize: Iter:   0  F: -1269.588640448295337  |grad|_K:  5.518e-04  t[s]:   4333.64

#--- Lowdin population analysis ---
# oxidation-state Ta -0.371 -0.371 -0.371 -0.371 -0.371 -0.371 -0.371 -0.371 -0.371 -0.371 -0.371 -0.371 -0.371 -0.371 -0.371 -0.371
# magnetic-moments Ta -0.000 -0.000 -0.000 -0.000 -0.000 -0.000 -0.000 -0.000 -0.000 -0.000 -0.000 -0.000 -0.000 -0.000 -0.000 -0.000
# oxidation-state S +0.293 +0.293 +0.293 +0.293 +0.293 +0.293 +0.293 +0.293 +0.293 +0.293 +0.293 +0.293 +0.293 +0.293 +0.293 +0.293 +0.293 +0.293 +0.293 +0.293 +0.293 +0.293 +0.293 +0.293 +0.293 +0.293 +0.293 +0.293 +0.293 +0.293 +0.293 +0.293
# magnetic-moments S -0.000 -0.000 -0.000 -0.000 -0.000 -0.000 -0.000 -0.000 -0.000 -0.000 -0.000 -0.000 -0.000 -0.000 -0.000 -0.000 -0.000 -0.000 -0.000 -0.000 -0.000 -0.000 -0.000 -0.000 -0.000 -0.000 -0.000 -0.000 -0.000 -0.000 -0.000 -0.000

	Linear fluid (dielectric constant: 78.4, screening length: 5.74355 Bohr) occupying 0.760436 of unit cell:	Completed after 6 iterations at t[s]:   4363.67

-------- Electronic minimization -----------
	Linear fluid (dielectric constant: 78.4, screening length: 5.74355 Bohr) occupying 0.760436 of unit cell:	Completed after 0 iterations at t[s]:   4388.07
	FillingsUpdate:  mu: -0.242039093  nElectrons: 398.500000  magneticMoment: [ Abs: 0.00000  Tot: -0.00000 ]
ElecMinimize: Iter:   0  F: -1269.588668294292120  |grad|_K:  2.899e-07  alpha:  1.000e+00
	Linear fluid (dielectric constant: 78.4, screening length: 5.74355 Bohr) occupying 0.760435 of unit cell:	Completed after 8 iterations at t[s]:   4460.58
	Linear fluid (dielectric constant: 78.4, screening length: 5.74355 Bohr) occupying 0.760436 of unit cell:	Completed after 7 iterations at t[s]:   4492.61
	FillingsUpdate:  mu: -0.242488832  nElectrons: 398.500000  magneticMoment: [ Abs: 0.00000  Tot: -0.00000 ]
	SubspaceRotationAdjust: set factor to 0.508
ElecMinimize: Iter:   1  F: -1269.588675203295907  |grad|_K:  1.613e-07  alpha:  3.780e-01  linmin:  9.702e-05  t[s]:   4534.00
	Linear fluid (dielectric constant: 78.4, screening length: 5.74355 Bohr) occupying 0.760442 of unit cell:	Completed after 2 iterations at t[s]:   4562.08
	Linear fluid (dielectric constant: 78.4, screening length: 5.74355 Bohr) occupying 0.760446 of unit cell:	Completed after 3 iterations at t[s]:   4592.55
	FillingsUpdate:  mu: -0.242336529  nElectrons: 398.500000  magneticMoment: [ Abs: 0.00000  Tot: -0.00000 ]
	SubspaceRotationAdjust: set factor to 0.884
ElecMinimize: Iter:   2  F: -1269.588679073242020  |grad|_K:  6.234e-08  alpha:  6.877e-01  linmin: -1.470e-04  t[s]:   4633.16
	Linear fluid (dielectric constant: 78.4, screening length: 5.74355 Bohr) occupying 0.760450 of unit cell:	Completed after 2 iterations at t[s]:   4661.44
	Linear fluid (dielectric constant: 78.4, screening length: 5.74355 Bohr) occupying 0.760449 of unit cell:	Completed after 0 iterations at t[s]:   4692.01
	FillingsUpdate:  mu: -0.242296288  nElectrons: 398.500000  magneticMoment: [ Abs: 0.00000  Tot: -0.00000 ]
	SubspaceRotationAdjust: set factor to 1.16
ElecMinimize: Iter:   3  F: -1269.588679591882965  |grad|_K:  2.637e-08  alpha:  6.137e-01  linmin: -1.030e-04  t[s]:   4731.52
	Linear fluid (dielectric constant: 78.4, screening length: 5.74355 Bohr) occupying 0.760450 of unit cell:	Completed after 0 iterations at t[s]:   4759.66
	Linear fluid (dielectric constant: 78.4, screening length: 5.74355 Bohr) occupying 0.760450 of unit cell:	Completed after 0 iterations at t[s]:   4789.25
	FillingsUpdate:  mu: -0.242295887  nElectrons: 398.500000  magneticMoment: [ Abs: 0.00000  Tot: -0.00000 ]
	SubspaceRotationAdjust: set factor to 1.54
ElecMinimize: Iter:   4  F: -1269.588679680301993  |grad|_K:  1.453e-08  alpha:  5.635e-01  linmin:  8.137e-08  t[s]:   4828.78
	Linear fluid (dielectric constant: 78.4, screening length: 5.74355 Bohr) occupying 0.760450 of unit cell:	Completed after 0 iterations at t[s]:   4856.47
	Linear fluid (dielectric constant: 78.4, screening length: 5.74355 Bohr) occupying 0.760450 of unit cell:	Completed after 0 iterations at t[s]:   4886.08
	FillingsUpdate:  mu: -0.242295499  nElectrons: 398.500000  magneticMoment: [ Abs: 0.00000  Tot: -0.00000 ]
	SubspaceRotationAdjust: set factor to 1.84
ElecMinimize: Iter:   5  F: -1269.588679701641695  |grad|_K:  8.554e-09  alpha:  4.677e-01  linmin: -8.134e-08  t[s]:   4926.16
	Linear fluid (dielectric constant: 78.4, screening length: 5.74355 Bohr) occupying 0.760449 of unit cell:	Completed after 2 iterations at t[s]:   4954.46
	Linear fluid (dielectric constant: 78.4, screening length: 5.74355 Bohr) occupying 0.760450 of unit cell:	Completed after 0 iterations at t[s]:   4984.70
ElecMinimize: 	Step increased F by 5.021479e-08, reducing alpha to 3.479928e-03.
	Linear fluid (dielectric constant: 78.4, screening length: 5.74355 Bohr) occupying 0.760450 of unit cell:	Completed after 0 iterations at t[s]:   5046.25
ElecMinimize: 	Step increased F by 4.814660e-08, reducing alpha to 3.479928e-04.
	Linear fluid (dielectric constant: 78.4, screening length: 5.74355 Bohr) occupying 0.760450 of unit cell:	Completed after 0 iterations at t[s]:   5108.57
ElecMinimize: 	Step increased F by 4.795015e-08, reducing alpha to 3.479928e-05.
ElecMinimize: 	Step failed to reduce F after 3 attempts. Quitting step.
ElecMinimize: 	Undoing step.
	Linear fluid (dielectric constant: 78.4, screening length: 5.74355 Bohr) occupying 0.760450 of unit cell:	Completed after 0 iterations at t[s]:   5170.77
ElecMinimize: 	Step failed: resetting search direction.
	FillingsUpdate:  mu: -0.242327148  nElectrons: 398.500000  magneticMoment: [ Abs: 0.00000  Tot: -0.00000 ]
	SubspaceRotationAdjust: set factor to 1.06
ElecMinimize: Iter:   6  F: -1269.588679653785448  |grad|_K:  3.773e-08  alpha:  3.480e-05
	Linear fluid (dielectric constant: 78.4, screening length: 5.74355 Bohr) occupying 0.760451 of unit cell:	Completed after 2 iterations at t[s]:   5238.09
	Linear fluid (dielectric constant: 78.4, screening length: 5.74355 Bohr) occupying 0.760450 of unit cell:	Completed after 2 iterations at t[s]:   5268.51
	FillingsUpdate:  mu: -0.242264174  nElectrons: 398.500000  magneticMoment: [ Abs: 0.00000  Tot: -0.00000 ]
	SubspaceRotationAdjust: set factor to 0.426
ElecMinimize: Iter:   7  F: -1269.588679665390373  |grad|_K:  1.745e-08  alpha:  1.028e-01  linmin:  3.762e-04  t[s]:   5308.65
	Linear fluid (dielectric constant: 78.4, screening length: 5.74355 Bohr) occupying 0.760450 of unit cell:	Completed after 0 iterations at t[s]:   5336.26
ElecMinimize: 	Predicted alpha/alphaT>3.000000, increasing alphaT to 3.084242e-01.
	Linear fluid (dielectric constant: 78.4, screening length: 5.74355 Bohr) occupying 0.760449 of unit cell:	Completed after 0 iterations at t[s]:   5365.37
	Linear fluid (dielectric constant: 78.4, screening length: 5.74355 Bohr) occupying 0.760448 of unit cell:	Completed after 0 iterations at t[s]:   5395.28
	FillingsUpdate:  mu: -0.242263845  nElectrons: 398.500000  magneticMoment: [ Abs: 0.00000  Tot: -0.00000 ]
	SubspaceRotationAdjust: set factor to 0.774
ElecMinimize: Iter:   8  F: -1269.588679692526739  |grad|_K:  1.440e-08  alpha:  7.651e-01  linmin:  8.382e-07  t[s]:   5434.79
	Linear fluid (dielectric constant: 78.4, screening length: 5.74355 Bohr) occupying 0.760447 of unit cell:	Completed after 3 iterations at t[s]:   5462.87
	Linear fluid (dielectric constant: 78.4, screening length: 5.74355 Bohr) occupying 0.760448 of unit cell:	Completed after 0 iterations at t[s]:   5493.37
ElecMinimize: 	Step increased F by 2.399474e-08, reducing alpha to 1.154020e-02.
	Linear fluid (dielectric constant: 78.4, screening length: 5.74355 Bohr) occupying 0.760448 of unit cell:	Completed after 0 iterations at t[s]:   5555.46
ElecMinimize: 	Step increased F by 9.003315e-09, reducing alpha to 1.154020e-03.
	Linear fluid (dielectric constant: 78.4, screening length: 5.74355 Bohr) occupying 0.760448 of unit cell:	Completed after 0 iterations at t[s]:   5617.17
ElecMinimize: 	Step increased F by 7.702283e-09, reducing alpha to 1.154020e-04.
ElecMinimize: 	Step failed to reduce F after 3 attempts. Quitting step.
ElecMinimize: 	Undoing step.
	Linear fluid (dielectric constant: 78.4, screening length: 5.74355 Bohr) occupying 0.760448 of unit cell:	Completed after 0 iterations at t[s]:   5678.92
ElecMinimize: 	Step failed: resetting search direction.
	FillingsUpdate:  mu: -0.242329411  nElectrons: 398.500000  magneticMoment: [ Abs: 0.00000  Tot: -0.00000 ]
	SubspaceRotationAdjust: set factor to 0.53
ElecMinimize: Iter:   9  F: -1269.588679684817407  |grad|_K:  4.184e-08  alpha:  1.154e-04
	Linear fluid (dielectric constant: 78.4, screening length: 5.74355 Bohr) occupying 0.760449 of unit cell:	Completed after 2 iterations at t[s]:   5746.69
	Linear fluid (dielectric constant: 78.4, screening length: 5.74355 Bohr) occupying 0.760449 of unit cell:	Completed after 2 iterations at t[s]:   5777.30
ElecMinimize: 	Step increased F by 2.684988e-08, reducing alpha to 1.736847e-02.
	Linear fluid (dielectric constant: 78.4, screening length: 5.74355 Bohr) occupying 0.760448 of unit cell:	Completed after 0 iterations at t[s]:   5839.74
	FillingsUpdate:  mu: -0.242253677  nElectrons: 398.500000  magneticMoment: [ Abs: 0.00000  Tot: -0.00000 ]
	SubspaceRotationAdjust: set factor to 0.225
ElecMinimize: Iter:  10  F: -1269.588679694913935  |grad|_K:  1.775e-08  alpha:  1.737e-02  linmin:  3.478e-04  t[s]:   5878.87
	Linear fluid (dielectric constant: 78.4, screening length: 5.74355 Bohr) occupying 0.760448 of unit cell:	Completed after 0 iterations at t[s]:   5906.66
ElecMinimize: 	Predicted alpha/alphaT>3.000000, increasing alphaT to 5.210540e-02.
	Linear fluid (dielectric constant: 78.4, screening length: 5.74355 Bohr) occupying 0.760448 of unit cell:	Completed after 0 iterations at t[s]:   5935.41
ElecMinimize: 	Predicted alpha/alphaT>3.000000, increasing alphaT to 1.563162e-01.
	Linear fluid (dielectric constant: 78.4, screening length: 5.74355 Bohr) occupying 0.760448 of unit cell:	Completed after 0 iterations at t[s]:   5964.65
	Linear fluid (dielectric constant: 78.4, screening length: 5.74355 Bohr) occupying 0.760448 of unit cell:	Completed after 0 iterations at t[s]:   5994.61
	FillingsUpdate:  mu: -0.242253430  nElectrons: 398.500000  magneticMoment: [ Abs: 0.00000  Tot: -0.00000 ]
	SubspaceRotationAdjust: set factor to 0.245
ElecMinimize: Iter:  11  F: -1269.588679711199120  |grad|_K:  1.158e-08  alpha:  3.093e-01  linmin: -5.338e-06  t[s]:   6034.08
	Linear fluid (dielectric constant: 78.4, screening length: 5.74355 Bohr) occupying 0.760448 of unit cell:	Completed after 0 iterations at t[s]:   6061.69
ElecMinimize: 	Predicted alpha/alphaT>3.000000, increasing alphaT to 9.277996e-01.
	Linear fluid (dielectric constant: 78.4, screening length: 5.74355 Bohr) occupying 0.760447 of unit cell:	Completed after 2 iterations at t[s]:   6091.57
	Linear fluid (dielectric constant: 78.4, screening length: 5.74355 Bohr) occupying 0.760448 of unit cell:	Completed after 0 iterations at t[s]:   6121.53
ElecMinimize: 	Step increased F by 5.381344e-08, reducing alpha to 1.357572e-02.
	Linear fluid (dielectric constant: 78.4, screening length: 5.74355 Bohr) occupying 0.760448 of unit cell:	Completed after 0 iterations at t[s]:   6183.41
ElecMinimize: 	Step increased F by 4.262051e-08, reducing alpha to 1.357572e-03.
	Linear fluid (dielectric constant: 78.4, screening length: 5.74355 Bohr) occupying 0.760448 of unit cell:	Completed after 0 iterations at t[s]:   6245.74
ElecMinimize: 	Step increased F by 4.146113e-08, reducing alpha to 1.357572e-04.
ElecMinimize: 	Step failed to reduce F after 3 attempts. Quitting step.
ElecMinimize: 	Undoing step.
	Linear fluid (dielectric constant: 78.4, screening length: 5.74355 Bohr) occupying 0.760448 of unit cell:	Completed after 0 iterations at t[s]:   6307.90
ElecMinimize: 	Step failed: resetting search direction.
	FillingsUpdate:  mu: -0.242315296  nElectrons: 398.500000  magneticMoment: [ Abs: 0.00000  Tot: -0.00000 ]
	SubspaceRotationAdjust: set factor to 0.191
ElecMinimize: Iter:  12  F: -1269.588679669670455  |grad|_K:  2.104e-08  alpha:  1.358e-04
	Linear fluid (dielectric constant: 78.4, screening length: 5.74355 Bohr) occupying 0.760448 of unit cell:	Completed after 0 iterations at t[s]:   6374.71
ElecMinimize: 	Predicted alpha/alphaT>3.000000, increasing alphaT to 9.277996e-01.
	Linear fluid (dielectric constant: 78.4, screening length: 5.74355 Bohr) occupying 0.760448 of unit cell:	Completed after 1 iterations at t[s]:   6404.17
	Linear fluid (dielectric constant: 78.4, screening length: 5.74355 Bohr) occupying 0.760448 of unit cell:	Completed after 0 iterations at t[s]:   6434.17
	FillingsUpdate:  mu: -0.242264511  nElectrons: 398.500000  magneticMoment: [ Abs: 0.00000  Tot: -0.00000 ]
	SubspaceRotationAdjust: set factor to 0.0963
	SubspaceRotationAdjust: resetting CG because factor has changed by 0.133928
	Linear fluid (dielectric constant: 78.4, screening length: 5.74355 Bohr) occupying 0.760448 of unit cell:	Completed after 0 iterations at t[s]:   6489.89
ElecMinimize: 	State modified externally: resetting search direction.
ElecMinimize: Iter:  13  F: -1269.588679675540789  |grad|_K:  1.019e-08  alpha:  3.335e-01
	Linear fluid (dielectric constant: 78.4, screening length: 5.74355 Bohr) occupying 0.760448 of unit cell:	Completed after 0 iterations at t[s]:   6557.35
	Linear fluid (dielectric constant: 78.4, screening length: 5.74355 Bohr) occupying 0.760448 of unit cell:	Completed after 0 iterations at t[s]:   6586.77
	FillingsUpdate:  mu: -0.242264421  nElectrons: 398.500000  magneticMoment: [ Abs: 0.00000  Tot: -0.00000 ]
	SubspaceRotationAdjust: set factor to 0.0491
ElecMinimize: Iter:  14  F: -1269.588679692706364  |grad|_K:  1.131e-08  alpha:  7.533e-01  linmin: -5.307e-06  t[s]:   6626.10
	Linear fluid (dielectric constant: 78.4, screening length: 5.74355 Bohr) occupying 0.760448 of unit cell:	Completed after 2 iterations at t[s]:   6654.39
	Linear fluid (dielectric constant: 78.4, screening length: 5.74355 Bohr) occupying 0.760448 of unit cell:	Completed after 0 iterations at t[s]:   6684.42
ElecMinimize: 	Step increased F by 2.932347e-08, reducing alpha to 9.792249e-03.
	Linear fluid (dielectric constant: 78.4, screening length: 5.74355 Bohr) occupying 0.760448 of unit cell:	Completed after 0 iterations at t[s]:   6746.41
ElecMinimize: 	Step increased F by 2.016850e-08, reducing alpha to 9.792249e-04.
	Linear fluid (dielectric constant: 78.4, screening length: 5.74355 Bohr) occupying 0.760448 of unit cell:	Completed after 0 iterations at t[s]:   6808.86
ElecMinimize: 	Step increased F by 1.920762e-08, reducing alpha to 9.792249e-05.
ElecMinimize: 	Step failed to reduce F after 3 attempts. Quitting step.
ElecMinimize: 	Undoing step.
	Linear fluid (dielectric constant: 78.4, screening length: 5.74355 Bohr) occupying 0.760448 of unit cell:	Completed after 0 iterations at t[s]:   6870.31
ElecMinimize: 	Step failed: resetting search direction.
	FillingsUpdate:  mu: -0.242312768  nElectrons: 398.500000  magneticMoment: [ Abs: 0.00000  Tot: -0.00000 ]
	SubspaceRotationAdjust: set factor to 0.0441
ElecMinimize: Iter:  15  F: -1269.588679673452816  |grad|_K:  1.979e-08  alpha:  9.792e-05
	Linear fluid (dielectric constant: 78.4, screening length: 5.74355 Bohr) occupying 0.760448 of unit cell:	Completed after 0 iterations at t[s]:   6937.77
	Linear fluid (dielectric constant: 78.4, screening length: 5.74355 Bohr) occupying 0.760448 of unit cell:	Completed after 0 iterations at t[s]:   6967.06
	FillingsUpdate:  mu: -0.242312719  nElectrons: 398.500000  magneticMoment: [ Abs: 0.00000  Tot: -0.00000 ]
	SubspaceRotationAdjust: set factor to 0.0497
ElecMinimize: Iter:  16  F: -1269.588679721121025  |grad|_K:  1.827e-08  alpha:  5.622e-01  linmin:  1.247e-06  t[s]:   7006.61
	Linear fluid (dielectric constant: 78.4, screening length: 5.74355 Bohr) occupying 0.760447 of unit cell:	Completed after 1 iterations at t[s]:   7034.98
	Linear fluid (dielectric constant: 78.4, screening length: 5.74355 Bohr) occupying 0.760448 of unit cell:	Completed after 0 iterations at t[s]:   7064.67
ElecMinimize: 	Step increased F by 5.959691e-08, reducing alpha to 1.087301e-02.
	Linear fluid (dielectric constant: 78.4, screening length: 5.74355 Bohr) occupying 0.760448 of unit cell:	Completed after 0 iterations at t[s]:   7126.34
ElecMinimize: 	Step increased F by 5.114794e-08, reducing alpha to 1.087301e-03.
	Linear fluid (dielectric constant: 78.4, screening length: 5.74355 Bohr) occupying 0.760448 of unit cell:	Completed after 0 iterations at t[s]:   7188.60
ElecMinimize: 	Step increased F by 5.043898e-08, reducing alpha to 1.087301e-04.
ElecMinimize: 	Step failed to reduce F after 3 attempts. Quitting step.
ElecMinimize: 	Undoing step.
	Linear fluid (dielectric constant: 78.4, screening length: 5.74355 Bohr) occupying 0.760448 of unit cell:	Completed after 0 iterations at t[s]:   7250.31
ElecMinimize: 	Step failed: resetting search direction.
	FillingsUpdate:  mu: -0.242271547  nElectrons: 398.500000  magneticMoment: [ Abs: 0.00000  Tot: -0.00000 ]
	SubspaceRotationAdjust: set factor to 0.0475
ElecMinimize: Iter:  17  F: -1269.588679670685679  |grad|_K:  2.011e-08  alpha:  1.087e-04
	Linear fluid (dielectric constant: 78.4, screening length: 5.74355 Bohr) occupying 0.760448 of unit cell:	Completed after 1 iterations at t[s]:   7317.88
	Linear fluid (dielectric constant: 78.4, screening length: 5.74355 Bohr) occupying 0.760448 of unit cell:	Completed after 0 iterations at t[s]:   7347.36
ElecMinimize: 	Step increased F by 3.236210e-09, reducing alpha to 2.260372e-02.
	Linear fluid (dielectric constant: 78.4, screening length: 5.74355 Bohr) occupying 0.760448 of unit cell:	Completed after 0 iterations at t[s]:   7408.81
ElecMinimize: 	Step increased F by 2.075899e-08, reducing alpha to 2.260372e-03.
	Linear fluid (dielectric constant: 78.4, screening length: 5.74355 Bohr) occupying 0.760448 of unit cell:	Completed after 0 iterations at t[s]:   7471.21
ElecMinimize: 	Step increased F by 2.379579e-08, reducing alpha to 2.260372e-04.
ElecMinimize: 	Step failed to reduce F after 3 attempts. Quitting step.
ElecMinimize: 	Undoing step.
	Linear fluid (dielectric constant: 78.4, screening length: 5.74355 Bohr) occupying 0.760448 of unit cell:	Completed after 0 iterations at t[s]:   7532.89
ElecMinimize: 	Step failed along negative gradient direction.
ElecMinimize: Probably at roundoff error limit. (Stopping)
Setting wave functions to eigenvectors of Hamiltonian

# Ionic positions in lattice coordinates:
ion Ta   0.166667780131944   0.083332222888888   0.499999991333335 1
ion Ta   0.416667780131944   0.083332222888888   0.499999991333335 1
ion Ta   0.666667780131944   0.083332222888888   0.499999991333335 1
ion Ta   0.916667780131944   0.083332222888888   0.499999991333335 1
ion Ta   0.166667780131944   0.333332222888888   0.499999991333335 1
ion Ta   0.416667780131944   0.333332222888888   0.499999991333335 1
ion Ta   0.666667780131944   0.333332222888888   0.499999991333335 1
ion Ta   0.916667780131944   0.333332222888888   0.499999991333335 1
ion Ta   0.166667780131944   0.583332222888888   0.499999991333335 1
ion Ta   0.416667780131944   0.583332222888888   0.499999991333335 1
ion Ta   0.666667780131944   0.583332222888888   0.499999991333335 1
ion Ta   0.916667780131944   0.583332222888888   0.499999991333335 1
ion Ta   0.166667780131944   0.833332222888888   0.499999991333335 1
ion Ta   0.416667780131944   0.833332222888888   0.499999991333335 1
ion Ta   0.666667780131944   0.833332222888888   0.499999991333335 1
ion Ta   0.916667780131944   0.833332222888888   0.499999991333335 1
ion S   0.000001113465278  -0.000001110444445   0.586354145291693 1
ion S   0.000001113465278  -0.000001110444445   0.413645837374977 1
ion S   0.250001113465278  -0.000001110444445   0.586354145291693 1
ion S   0.250001113465278  -0.000001110444445   0.413645837374977 1
ion S   0.500001113465278  -0.000001110444445   0.586354145291693 1
ion S   0.500001113465278  -0.000001110444445   0.413645837374977 1
ion S   0.750001113465278  -0.000001110444445   0.586354145291693 1
ion S   0.750001113465278  -0.000001110444445   0.413645837374977 1
ion S   0.000001113465278   0.249998889555555   0.586354145291693 1
ion S   0.000001113465278   0.249998889555555   0.413645837374977 1
ion S   0.250001113465278   0.249998889555555   0.586354145291693 1
ion S   0.250001113465278   0.249998889555555   0.413645837374977 1
ion S   0.500001113465278   0.249998889555555   0.586354145291693 1
ion S   0.500001113465278   0.249998889555555   0.413645837374977 1
ion S   0.750001113465278   0.249998889555555   0.586354145291693 1
ion S   0.750001113465278   0.249998889555555   0.413645837374977 1
ion S   0.000001113465278   0.499998889555555   0.586354145291693 1
ion S   0.000001113465278   0.499998889555555   0.413645837374977 1
ion S   0.250001113465278   0.499998889555555   0.586354145291693 1
ion S   0.250001113465278   0.499998889555555   0.413645837374977 1
ion S   0.500001113465278   0.499998889555555   0.586354145291693 1
ion S   0.500001113465278   0.499998889555555   0.413645837374977 1
ion S   0.750001113465278   0.499998889555555   0.586354145291693 1
ion S   0.750001113465278   0.499998889555555   0.413645837374977 1
ion S   0.000001113465278   0.749998889555555   0.586354145291693 1
ion S   0.000001113465278   0.749998889555555   0.413645837374977 1
ion S   0.250001113465278   0.749998889555555   0.586354145291693 1
ion S   0.250001113465278   0.749998889555555   0.413645837374977 1
ion S   0.500001113465278   0.749998889555555   0.586354145291693 1
ion S   0.500001113465278   0.749998889555555   0.413645837374977 1
ion S   0.750001113465278   0.749998889555555   0.586354145291693 1
ion S   0.750001113465278   0.749998889555555   0.413645837374977 1


# Forces in Lattice coordinates:
force Ta  -0.000000000000000  -0.000000000000000  -0.000000000000000 1
force Ta  -0.000000000000000   0.000000000000000  -0.000000000000000 1
force Ta   0.000000000000000   0.000000000000000   0.000000000000000 1
force Ta   0.000000000000000   0.000000000000000   0.000000000000000 1
force Ta   0.000000000000000   0.000000000000000  -0.000000000000000 1
force Ta  -0.000000000000000   0.000000000000000   0.000000000000000 1
force Ta   0.000000000000000   0.000000000000000  -0.000000000000000 1
force Ta  -0.000000000000000   0.000000000000000  -0.000000000000000 1
force Ta   0.000000000000000   0.000000000000000   0.000000000000000 1
force Ta   0.000000000000000   0.000000000000000   0.000000000000000 1
force Ta  -0.000000000000000   0.000000000000000   0.000000000000000 1
force Ta  -0.000000000000000   0.000000000000000  -0.000000000000000 1
force Ta  -0.000000000000000  -0.000000000000000  -0.000000000000000 1
force Ta  -0.000000000000000   0.000000000000000   0.000000000000000 1
force Ta   0.000000000000000   0.000000000000000   0.000000000000000 1
force Ta  -0.000000000000000   0.000000000000000   0.000000000000000 1
force S   0.000000000000000   0.000000000000000   0.030721227802585 1
force S   0.000000000000000  -0.000000000000000  -0.030721227802585 1
force S  -0.000000000000000   0.000000000000000   0.030721227802700 1
force S   0.000000000000000  -0.000000000000000  -0.030721227802699 1
force S  -0.000000000000000   0.000000000000000   0.030721227802585 1
force S  -0.000000000000000  -0.000000000000000  -0.030721227802585 1
force S  -0.000000000000000  -0.000000000000000   0.030721227802699 1
force S   0.000000000000000  -0.000000000000000  -0.030721227802585 1
force S  -0.000000000000000  -0.000000000000000   0.030721227802586 1
force S   0.000000000000000  -0.000000000000000  -0.030721227802586 1
force S  -0.000000000000000  -0.000000000000000   0.030721227802585 1
force S   0.000000000000000  -0.000000000000000  -0.030721227802585 1
force S  -0.000000000000000  -0.000000000000000   0.030721227802585 1
force S   0.000000000000000  -0.000000000000000  -0.030721227802585 1
force S  -0.000000000000000  -0.000000000000000   0.030721227802699 1
force S   0.000000000000000  -0.000000000000000  -0.030721227802471 1
force S  -0.000000000000000  -0.000000000000000   0.030721227802585 1
force S   0.000000000000000  -0.000000000000000  -0.030721227802585 1
force S  -0.000000000000000   0.000000000000000   0.030721227802700 1
force S   0.000000000000000  -0.000000000000000  -0.030721227802585 1
force S  -0.000000000000000  -0.000000000000000   0.030721227802586 1
force S   0.000000000000000  -0.000000000000000  -0.030721227802585 1
force S   0.000000000000000  -0.000000000000000   0.030721227802699 1
force S   0.000000000000000  -0.000000000000000  -0.030721227802585 1
force S  -0.000000000000000  -0.000000000000000   0.030721227802699 1
force S   0.000000000000000  -0.000000000000000  -0.030721227802585 1
force S  -0.000000000000000  -0.000000000000000   0.030721227802585 1
force S   0.000000000000000  -0.000000000000000  -0.030721227802585 1
force S  -0.000000000000000  -0.000000000000000   0.030721227802699 1
force S   0.000000000000000  -0.000000000000000  -0.030721227802585 1
force S   0.000000000000000  -0.000000000000000   0.030721227802698 1
force S   0.000000000000000  -0.000000000000000  -0.030721227802585 1

# Energy components:
   A_diel =        0.0562333530105407
   Eewald =     7268.8698860565136783
       EH =     8231.6076406561878684
     Eloc =   -16773.5480695458973059
      Enl =     -222.9913767378969283
      Exc =     -472.8038241781943043
 Exc_core =      252.5823460016184754
       KE =      446.7107411842548572
  MuShift =        0.0158303568661380
-------------------------------------
     Etot =    -1269.5005928535376825
       TS =        0.0880867933322105
-------------------------------------
        F =    -1269.5886796468698776

IonicMinimize: Iter:   1  F: -1269.588679646869878  |grad|_K:  4.227e-04  alpha:  1.000e+00  linmin: -1.000e+00  t[s]:   7592.83

#--- Lowdin population analysis ---
# oxidation-state Ta -0.370 -0.370 -0.370 -0.370 -0.370 -0.370 -0.370 -0.370 -0.370 -0.370 -0.370 -0.370 -0.370 -0.370 -0.370 -0.370
# magnetic-moments Ta -0.000 -0.000 -0.000 -0.000 -0.000 -0.000 -0.000 -0.000 -0.000 -0.000 -0.000 -0.000 -0.000 -0.000 -0.000 -0.000
# oxidation-state S +0.292 +0.292 +0.292 +0.292 +0.292 +0.292 +0.292 +0.292 +0.292 +0.292 +0.292 +0.292 +0.292 +0.292 +0.292 +0.292 +0.292 +0.292 +0.292 +0.292 +0.292 +0.292 +0.292 +0.292 +0.292 +0.292 +0.292 +0.292 +0.292 +0.292 +0.292 +0.292
# magnetic-moments S -0.000 -0.000 -0.000 -0.000 -0.000 -0.000 -0.000 -0.000 -0.000 -0.000 -0.000 -0.000 -0.000 -0.000 -0.000 -0.000 -0.000 -0.000 -0.000 -0.000 -0.000 -0.000 -0.000 -0.000 -0.000 -0.000 -0.000 -0.000 -0.000 -0.000 -0.000 -0.000

	Linear fluid (dielectric constant: 78.4, screening length: 5.74355 Bohr) occupying 0.760306 of unit cell:	Completed after 6 iterations at t[s]:   7622.31

-------- Electronic minimization -----------
	Linear fluid (dielectric constant: 78.4, screening length: 5.74355 Bohr) occupying 0.760306 of unit cell:	Completed after 0 iterations at t[s]:   7646.37
	FillingsUpdate:  mu: -0.241714893  nElectrons: 398.500000  magneticMoment: [ Abs: 0.00000  Tot: -0.00000 ]
ElecMinimize: Iter:   0  F: -1269.588646107729119  |grad|_K:  4.868e-07  alpha:  1.000e+00
	Linear fluid (dielectric constant: 78.4, screening length: 5.74355 Bohr) occupying 0.760314 of unit cell:	Completed after 6 iterations at t[s]:   7718.59
	Linear fluid (dielectric constant: 78.4, screening length: 5.74355 Bohr) occupying 0.760312 of unit cell:	Completed after 2 iterations at t[s]:   7750.17
	FillingsUpdate:  mu: -0.242093481  nElectrons: 398.500000  magneticMoment: [ Abs: 0.00000  Tot: -0.00000 ]
	SubspaceRotationAdjust: set factor to 0.0656
ElecMinimize: Iter:   1  F: -1269.588683364465851  |grad|_K:  2.134e-07  alpha:  7.303e-01  linmin: -1.986e-04  t[s]:   7790.40
	Linear fluid (dielectric constant: 78.4, screening length: 5.74355 Bohr) occupying 0.760316 of unit cell:	Completed after 2 iterations at t[s]:   7818.13
	Linear fluid (dielectric constant: 78.4, screening length: 5.74355 Bohr) occupying 0.760317 of unit cell:	Completed after 0 iterations at t[s]:   7848.25
	FillingsUpdate:  mu: -0.242114268  nElectrons: 398.500000  magneticMoment: [ Abs: 0.00001  Tot: -0.00000 ]
	SubspaceRotationAdjust: set factor to 0.0852
ElecMinimize: Iter:   2  F: -1269.588692233197662  |grad|_K:  2.372e-07  alpha:  8.949e-01  linmin: -6.501e-05  t[s]:   7887.37
	Linear fluid (dielectric constant: 78.4, screening length: 5.74355 Bohr) occupying 0.760325 of unit cell:	Completed after 3 iterations at t[s]:   7915.33
	Linear fluid (dielectric constant: 78.4, screening length: 5.74355 Bohr) occupying 0.760325 of unit cell:	Completed after 0 iterations at t[s]:   7945.65
	FillingsUpdate:  mu: -0.242215921  nElectrons: 398.500000  magneticMoment: [ Abs: 0.00001  Tot: -0.00000 ]
	SubspaceRotationAdjust: set factor to 0.103
ElecMinimize: Iter:   3  F: -1269.588703741768541  |grad|_K:  2.767e-07  alpha:  9.357e-01  linmin: -7.355e-05  t[s]:   7985.04
	Linear fluid (dielectric constant: 78.4, screening length: 5.74355 Bohr) occupying 0.760334 of unit cell:	Completed after 2 iterations at t[s]:   8012.83
	Linear fluid (dielectric constant: 78.4, screening length: 5.74355 Bohr) occupying 0.760333 of unit cell:	Completed after 0 iterations at t[s]:   8042.19
	FillingsUpdate:  mu: -0.242371445  nElectrons: 398.500000  magneticMoment: [ Abs: 0.00001  Tot: -0.00000 ]
	SubspaceRotationAdjust: set factor to 0.115
ElecMinimize: Iter:   4  F: -1269.588717930400207  |grad|_K:  3.135e-07  alpha:  8.399e-01  linmin:  9.419e-06  t[s]:   8080.89
	Linear fluid (dielectric constant: 78.4, screening length: 5.74355 Bohr) occupying 0.760341 of unit cell:	Completed after 2 iterations at t[s]:   8108.74
	Linear fluid (dielectric constant: 78.4, screening length: 5.74355 Bohr) occupying 0.760340 of unit cell:	Completed after 0 iterations at t[s]:   8138.68
	FillingsUpdate:  mu: -0.242441749  nElectrons: 398.500000  magneticMoment: [ Abs: 0.00001  Tot: -0.00000 ]
	SubspaceRotationAdjust: set factor to 0.131
ElecMinimize: Iter:   5  F: -1269.588733594781161  |grad|_K:  2.316e-07  alpha:  7.391e-01  linmin:  1.351e-05  t[s]:   8177.95
	Linear fluid (dielectric constant: 78.4, screening length: 5.74355 Bohr) occupying 0.760341 of unit cell:	Completed after 2 iterations at t[s]:   8205.91
	Linear fluid (dielectric constant: 78.4, screening length: 5.74355 Bohr) occupying 0.760341 of unit cell:	Completed after 0 iterations at t[s]:   8235.41
	FillingsUpdate:  mu: -0.242412995  nElectrons: 398.500000  magneticMoment: [ Abs: 0.00001  Tot: -0.00000 ]
	SubspaceRotationAdjust: set factor to 0.156
ElecMinimize: Iter:   6  F: -1269.588742457449371  |grad|_K:  1.743e-07  alpha:  7.672e-01  linmin: -3.162e-06  t[s]:   8274.22
	Linear fluid (dielectric constant: 78.4, screening length: 5.74355 Bohr) occupying 0.760344 of unit cell:	Completed after 2 iterations at t[s]:   8302.12
	Linear fluid (dielectric constant: 78.4, screening length: 5.74355 Bohr) occupying 0.760343 of unit cell:	Completed after 0 iterations at t[s]:   8332.17
	FillingsUpdate:  mu: -0.242355905  nElectrons: 398.500000  magneticMoment: [ Abs: 0.00000  Tot: -0.00000 ]
	SubspaceRotationAdjust: set factor to 0.184
ElecMinimize: Iter:   7  F: -1269.588746312313788  |grad|_K:  1.399e-07  alpha:  5.861e-01  linmin:  9.423e-07  t[s]:   8371.67
	Linear fluid (dielectric constant: 78.4, screening length: 5.74355 Bohr) occupying 0.760346 of unit cell:	Completed after 2 iterations at t[s]:   8399.48
	Linear fluid (dielectric constant: 78.4, screening length: 5.74355 Bohr) occupying 0.760346 of unit cell:	Completed after 0 iterations at t[s]:   8428.96
	FillingsUpdate:  mu: -0.242326685  nElectrons: 398.500000  magneticMoment: [ Abs: 0.00000  Tot: -0.00000 ]
	SubspaceRotationAdjust: set factor to 0.222
ElecMinimize: Iter:   8  F: -1269.588748613048665  |grad|_K:  1.003e-07  alpha:  5.448e-01  linmin: -3.779e-06  t[s]:   8467.67
	Linear fluid (dielectric constant: 78.4, screening length: 5.74355 Bohr) occupying 0.760349 of unit cell:	Completed after 2 iterations at t[s]:   8495.43
	Linear fluid (dielectric constant: 78.4, screening length: 5.74355 Bohr) occupying 0.760349 of unit cell:	Completed after 0 iterations at t[s]:   8525.76
	FillingsUpdate:  mu: -0.242283981  nElectrons: 398.500000  magneticMoment: [ Abs: 0.00001  Tot: -0.00000 ]
	SubspaceRotationAdjust: set factor to 0.266
ElecMinimize: Iter:   9  F: -1269.588749892185206  |grad|_K:  6.995e-08  alpha:  5.809e-01  linmin: -1.820e-05  t[s]:   8565.41
	Linear fluid (dielectric constant: 78.4, screening length: 5.74355 Bohr) occupying 0.760351 of unit cell:	Completed after 2 iterations at t[s]:   8593.55
	Linear fluid (dielectric constant: 78.4, screening length: 5.74355 Bohr) occupying 0.760351 of unit cell:	Completed after 0 iterations at t[s]:   8623.01
	FillingsUpdate:  mu: -0.242250247  nElectrons: 398.500000  magneticMoment: [ Abs: 0.00001  Tot: -0.00000 ]
	SubspaceRotationAdjust: set factor to 0.301
ElecMinimize: Iter:  10  F: -1269.588750488075220  |grad|_K:  4.839e-08  alpha:  5.434e-01  linmin: -2.086e-05  t[s]:   8661.97
	Linear fluid (dielectric constant: 78.4, screening length: 5.74355 Bohr) occupying 0.760351 of unit cell:	Completed after 0 iterations at t[s]:   8689.67
	Linear fluid (dielectric constant: 78.4, screening length: 5.74355 Bohr) occupying 0.760352 of unit cell:	Completed after 0 iterations at t[s]:   8719.11
	FillingsUpdate:  mu: -0.242250817  nElectrons: 398.500000  magneticMoment: [ Abs: 0.00001  Tot: -0.00000 ]
	SubspaceRotationAdjust: set factor to 0.341
ElecMinimize: Iter:  11  F: -1269.588750848189420  |grad|_K:  4.262e-08  alpha:  6.630e-01  linmin: -1.546e-08  t[s]:   8758.46
	Linear fluid (dielectric constant: 78.4, screening length: 5.74355 Bohr) occupying 0.760352 of unit cell:	Completed after 0 iterations at t[s]:   8785.81
	Linear fluid (dielectric constant: 78.4, screening length: 5.74355 Bohr) occupying 0.760352 of unit cell:	Completed after 0 iterations at t[s]:   8814.43
	FillingsUpdate:  mu: -0.242251019  nElectrons: 398.500000  magneticMoment: [ Abs: 0.00000  Tot: -0.00000 ]
	SubspaceRotationAdjust: set factor to 0.435
	SubspaceRotationAdjust: resetting CG because factor has changed by 9.16413
	Linear fluid (dielectric constant: 78.4, screening length: 5.74355 Bohr) occupying 0.760352 of unit cell:	Completed after 0 iterations at t[s]:   8868.76
ElecMinimize: 	State modified externally: resetting search direction.
ElecMinimize: Iter:  12  F: -1269.588751027029730  |grad|_K:  2.754e-08  alpha:  4.546e-01
	Linear fluid (dielectric constant: 78.4, screening length: 5.74355 Bohr) occupying 0.760351 of unit cell:	Completed after 0 iterations at t[s]:   8935.45
	Linear fluid (dielectric constant: 78.4, screening length: 5.74355 Bohr) occupying 0.760351 of unit cell:	Completed after 0 iterations at t[s]:   8964.47
	FillingsUpdate:  mu: -0.242250608  nElectrons: 398.500000  magneticMoment: [ Abs: 0.00000  Tot: -0.00000 ]
	SubspaceRotationAdjust: set factor to 0.529
ElecMinimize: Iter:  13  F: -1269.588751153846260  |grad|_K:  2.470e-08  alpha:  7.706e-01  linmin: -2.910e-07  t[s]:   9003.41
	Linear fluid (dielectric constant: 78.4, screening length: 5.74355 Bohr) occupying 0.760349 of unit cell:	Completed after 0 iterations at t[s]:   9030.88
	Linear fluid (dielectric constant: 78.4, screening length: 5.74355 Bohr) occupying 0.760350 of unit cell:	Completed after 0 iterations at t[s]:   9059.74
	FillingsUpdate:  mu: -0.242250210  nElectrons: 398.500000  magneticMoment: [ Abs: 0.00000  Tot: -0.00000 ]
	SubspaceRotationAdjust: set factor to 0.648
ElecMinimize: Iter:  14  F: -1269.588751221946723  |grad|_K:  1.600e-08  alpha:  5.141e-01  linmin: -7.543e-08  t[s]:   9099.03
	Linear fluid (dielectric constant: 78.4, screening length: 5.74355 Bohr) occupying 0.760349 of unit cell:	Completed after 0 iterations at t[s]:   9126.75
	Linear fluid (dielectric constant: 78.4, screening length: 5.74355 Bohr) occupying 0.760349 of unit cell:	Completed after 0 iterations at t[s]:   9155.87
	FillingsUpdate:  mu: -0.242249865  nElectrons: 398.500000  magneticMoment: [ Abs: 0.00000  Tot: -0.00000 ]
	SubspaceRotationAdjust: set factor to 0.808
ElecMinimize: Iter:  15  F: -1269.588751249302732  |grad|_K:  7.747e-09  alpha:  4.926e-01  linmin: -1.892e-07  t[s]:   9194.73
	Linear fluid (dielectric constant: 78.4, screening length: 5.74355 Bohr) occupying 0.760349 of unit cell:	Completed after 0 iterations at t[s]:   9222.21
	Linear fluid (dielectric constant: 78.4, screening length: 5.74355 Bohr) occupying 0.760349 of unit cell:	Completed after 0 iterations at t[s]:   9251.03
	FillingsUpdate:  mu: -0.242249606  nElectrons: 398.500000  magneticMoment: [ Abs: 0.00000  Tot: -0.00000 ]
	SubspaceRotationAdjust: set factor to 0.913
ElecMinimize: Iter:  16  F: -1269.588751256221485  |grad|_K:  4.430e-09  alpha:  5.287e-01  linmin: -1.999e-07  t[s]:   9290.19
	Linear fluid (dielectric constant: 78.4, screening length: 5.74355 Bohr) occupying 0.760349 of unit cell:	Completed after 0 iterations at t[s]:   9318.22
[...]
ion S   0.750001113465278   0.249998889555555   0.413533996116867 1
ion S   0.000001113465278   0.499998889555555   0.586465986549803 1
ion S   0.000001113465278   0.499998889555555   0.413533996116867 1
ion S   0.250001113465278   0.499998889555555   0.586465986549803 1
ion S   0.250001113465278   0.499998889555555   0.413533996116867 1
ion S   0.500001113465278   0.499998889555555   0.586465986549803 1
ion S   0.500001113465278   0.499998889555555   0.413533996116867 1
ion S   0.750001113465278   0.499998889555555   0.586465986549803 1
ion S   0.750001113465278   0.499998889555555   0.413533996116867 1
ion S   0.000001113465278   0.749998889555555   0.586465986549803 1
ion S   0.000001113465278   0.749998889555555   0.413533996116867 1
ion S   0.250001113465278   0.749998889555555   0.586465986549803 1
ion S   0.250001113465278   0.749998889555555   0.413533996116867 1
ion S   0.500001113465278   0.749998889555555   0.586465986549803 1
ion S   0.500001113465278   0.749998889555555   0.413533996116867 1
ion S   0.750001113465278   0.749998889555555   0.586465986549803 1
ion S   0.750001113465278   0.749998889555555   0.413533996116867 1


# Forces in Lattice coordinates:
force Ta   0.000000000000000  -0.000000000000000  -0.000000000000000 1
force Ta   0.000000000000000   0.000000000000000  -0.000000000000000 1
force Ta  -0.000000000000000  -0.000000000000000   0.000000000000000 1
force Ta   0.000000000000000   0.000000000000000  -0.000000000000000 1
force Ta   0.000000000000000  -0.000000000000000  -0.000000000000000 1
force Ta   0.000000000000000  -0.000000000000000  -0.000000000000000 1
force Ta   0.000000000000000   0.000000000000000  -0.000000000000000 1
force Ta  -0.000000000000000   0.000000000000000  -0.000000000000000 1
force Ta  -0.000000000000000   0.000000000000000   0.000000000000000 1
force Ta   0.000000000000000   0.000000000000000   0.000000000000000 1
force Ta   0.000000000000000  -0.000000000000000   0.000000000000000 1
force Ta   0.000000000000000   0.000000000000000  -0.000000000000000 1
force Ta   0.000000000000000   0.000000000000000   0.000000000000000 1
force Ta   0.000000000000000   0.000000000000000   0.000000000000000 1
force Ta   0.000000000000000   0.000000000000000   0.000000000000000 1
force Ta   0.000000000000000   0.000000000000000  -0.000000000000000 1
force S   0.000000000000000  -0.000000000000000   0.009501779049422 1
force S  -0.000000000000000  -0.000000000000000  -0.009501779049420 1
force S   0.000000000000000  -0.000000000000000   0.009501779049421 1
force S  -0.000000000000000  -0.000000000000000  -0.009501779049307 1
force S   0.000000000000000  -0.000000000000000   0.009501779049534 1
force S  -0.000000000000000  -0.000000000000000  -0.009501779049420 1
force S   0.000000000000000  -0.000000000000000   0.009501779049421 1
force S  -0.000000000000000  -0.000000000000000  -0.009501779049307 1
force S   0.000000000000000  -0.000000000000000   0.009501779049421 1
force S  -0.000000000000000  -0.000000000000000  -0.009501779049421 1
force S   0.000000000000000   0.000000000000000   0.009501779049421 1
force S  -0.000000000000000  -0.000000000000000  -0.009501779049534 1
force S   0.000000000000000   0.000000000000000   0.009501779049421 1
force S  -0.000000000000000  -0.000000000000000  -0.009501779049422 1
force S   0.000000000000000   0.000000000000000   0.009501779049422 1
force S  -0.000000000000000  -0.000000000000000  -0.009501779049420 1
force S   0.000000000000000   0.000000000000000   0.009501779049422 1
force S  -0.000000000000000  -0.000000000000000  -0.009501779049420 1
force S   0.000000000000000  -0.000000000000000   0.009501779049422 1
force S   0.000000000000000  -0.000000000000000  -0.009501779049421 1
force S   0.000000000000000   0.000000000000000   0.009501779049535 1
force S  -0.000000000000000  -0.000000000000000  -0.009501779049420 1
force S   0.000000000000000  -0.000000000000000   0.009501779049422 1
force S  -0.000000000000000  -0.000000000000000  -0.009501779049421 1
force S   0.000000000000000   0.000000000000000   0.009501779049422 1
force S  -0.000000000000000  -0.000000000000000  -0.009501779049307 1
force S   0.000000000000000  -0.000000000000000   0.009501779049422 1
force S  -0.000000000000000  -0.000000000000000  -0.009501779049307 1
force S   0.000000000000000  -0.000000000000000   0.009501779049534 1
force S  -0.000000000000000   0.000000000000000  -0.009501779049307 1
force S   0.000000000000000  -0.000000000000000   0.009501779049421 1
force S  -0.000000000000000  -0.000000000000000  -0.009501779049307 1

# Energy components:
   A_diel =        0.0562847361948533
   Eewald =     7266.7463422379023541
       EH =     8229.5421046016090258
     Eloc =   -16769.3216492201354413
      Enl =     -222.9854628073911158
      Exc =     -472.7795294601730802
 Exc_core =      252.5823378691385699
       KE =      446.6431142098319924
  MuShift =        0.0158303568661380
-------------------------------------
     Etot =    -1269.5006274761551595
       TS =        0.0881237820746091
-------------------------------------
        F =    -1269.5887512582298768

IonicMinimize: Iter:   2  F: -1269.588751258229877  |grad|_K:  1.307e-04  alpha:  1.000e+00  linmin: -1.000e+00  t[s]:   9406.10

#--- Lowdin population analysis ---
# oxidation-state Ta -0.369 -0.369 -0.369 -0.369 -0.369 -0.369 -0.369 -0.369 -0.369 -0.369 -0.369 -0.369 -0.369 -0.369 -0.369 -0.369
# magnetic-moments Ta -0.000 -0.000 -0.000 -0.000 -0.000 -0.000 -0.000 -0.000 -0.000 -0.000 -0.000 -0.000 -0.000 -0.000 -0.000 -0.000
# oxidation-state S +0.292 +0.292 +0.292 +0.292 +0.292 +0.292 +0.292 +0.292 +0.292 +0.292 +0.292 +0.292 +0.292 +0.292 +0.292 +0.292 +0.292 +0.292 +0.292 +0.292 +0.292 +0.292 +0.292 +0.292 +0.292 +0.292 +0.292 +0.292 +0.292 +0.292 +0.292 +0.292
# magnetic-moments S +0.000 +0.000 +0.000 +0.000 +0.000 +0.000 +0.000 +0.000 +0.000 +0.000 +0.000 +0.000 +0.000 +0.000 +0.000 +0.000 +0.000 +0.000 +0.000 +0.000 +0.000 +0.000 +0.000 +0.000 +0.000 +0.000 +0.000 +0.000 +0.000 +0.000 +0.000 +0.000

	Linear fluid (dielectric constant: 78.4, screening length: 5.74355 Bohr) occupying 0.760290 of unit cell:	Completed after 5 iterations at t[s]:   9435.33

-------- Electronic minimization -----------
	Linear fluid (dielectric constant: 78.4, screening length: 5.74355 Bohr) occupying 0.760290 of unit cell:	Completed after 0 iterations at t[s]:   9458.80
	FillingsUpdate:  mu: -0.241960926  nElectrons: 398.500000  magneticMoment: [ Abs: 0.00004  Tot: -0.00000 ]
ElecMinimize: Iter:   0  F: -1269.588733913430360  |grad|_K:  4.078e-07  alpha:  1.000e+00
	Linear fluid (dielectric constant: 78.4, screening length: 5.74355 Bohr) occupying 0.760285 of unit cell:	Completed after 10 iterations at t[s]:   9531.52
	Linear fluid (dielectric constant: 78.4, screening length: 5.74355 Bohr) occupying 0.760288 of unit cell:	Completed after 9 iterations at t[s]:   9564.09
	FillingsUpdate:  mu: -0.242527979  nElectrons: 398.500000  magneticMoment: [ Abs: 0.00002  Tot: +0.00000 ]
	SubspaceRotationAdjust: set factor to 0.638
ElecMinimize: Iter:   1  F: -1269.588746233119537  |grad|_K:  2.795e-07  alpha:  3.435e-01  linmin:  1.876e-05  t[s]:   9605.02
	Linear fluid (dielectric constant: 78.4, screening length: 5.74355 Bohr) occupying 0.760297 of unit cell:	Completed after 2 iterations at t[s]:   9632.95
	Linear fluid (dielectric constant: 78.4, screening length: 5.74355 Bohr) occupying 0.760301 of unit cell:	Completed after 2 iterations at t[s]:   9663.32
	FillingsUpdate:  mu: -0.242282725  nElectrons: 398.500000  magneticMoment: [ Abs: 0.00001  Tot: +0.00000 ]
	SubspaceRotationAdjust: set factor to 0.851
ElecMinimize: Iter:   2  F: -1269.588754468403749  |grad|_K:  7.399e-08  alpha:  4.912e-01  linmin:  1.234e-04  t[s]:   9703.48
	Linear fluid (dielectric constant: 78.4, screening length: 5.74355 Bohr) occupying 0.760304 of unit cell:	Completed after 2 iterations at t[s]:   9731.41
	Linear fluid (dielectric constant: 78.4, screening length: 5.74355 Bohr) occupying 0.760304 of unit cell:	Completed after 0 iterations at t[s]:   9760.82
	FillingsUpdate:  mu: -0.242249298  nElectrons: 398.500000  magneticMoment: [ Abs: 0.00000  Tot: +0.00000 ]
	SubspaceRotationAdjust: set factor to 1.08
ElecMinimize: Iter:   3  F: -1269.588755103226049  |grad|_K:  2.635e-08  alpha:  5.325e-01  linmin: -7.448e-04  t[s]:   9799.55
	Linear fluid (dielectric constant: 78.4, screening length: 5.74355 Bohr) occupying 0.760305 of unit cell:	Completed after 0 iterations at t[s]:   9826.92
	Linear fluid (dielectric constant: 78.4, screening length: 5.74355 Bohr) occupying 0.760305 of unit cell:	Completed after 0 iterations at t[s]:   9855.36
	FillingsUpdate:  mu: -0.242248690  nElectrons: 398.500000  magneticMoment: [ Abs: 0.00000  Tot: +0.00000 ]
	SubspaceRotationAdjust: set factor to 1.21
ElecMinimize: Iter:   4  F: -1269.588755213501372  |grad|_K:  1.648e-08  alpha:  6.584e-01  linmin: -5.363e-07  t[s]:   9895.33
	Linear fluid (dielectric constant: 78.4, screening length: 5.74355 Bohr) occupying 0.760306 of unit cell:	Completed after 0 iterations at t[s]:   9922.95
	Linear fluid (dielectric constant: 78.4, screening length: 5.74355 Bohr) occupying 0.760306 of unit cell:	Completed after 0 iterations at t[s]:   9951.74
	FillingsUpdate:  mu: -0.242247645  nElectrons: 398.500000  magneticMoment: [ Abs: 0.00000  Tot: +0.00000 ]
	SubspaceRotationAdjust: set factor to 1.29
ElecMinimize: Iter:   5  F: -1269.588755232646236  |grad|_K:  8.664e-09  alpha:  4.462e-01  linmin: -7.967e-05  t[s]:   9990.58
	Linear fluid (dielectric constant: 78.4, screening length: 5.74355 Bohr) occupying 0.760306 of unit cell:	Completed after 0 iterations at t[s]:  10018.07
	Linear fluid (dielectric constant: 78.4, screening length: 5.74355 Bohr) occupying 0.760306 of unit cell:	Completed after 0 iterations at t[s]:  10047.24
	FillingsUpdate:  mu: -0.242247493  nElectrons: 398.500000  magneticMoment: [ Abs: 0.00000  Tot: +0.00000 ]
	SubspaceRotationAdjust: set factor to 1.34
ElecMinimize: Iter:   6  F: -1269.588755245769789  |grad|_K:  6.084e-09  alpha:  6.481e-01  linmin: -2.345e-06  t[s]:  10086.65
	Linear fluid (dielectric constant: 78.4, screening length: 5.74355 Bohr) occupying 0.760306 of unit cell:	Completed after 0 iterations at t[s]:  10114.33
	Linear fluid (dielectric constant: 78.4, screening length: 5.74355 Bohr) occupying 0.760306 of unit cell:	Completed after 0 iterations at t[s]:  10142.84
	FillingsUpdate:  mu: -0.242247506  nElectrons: 398.500000  magneticMoment: [ Abs: 0.00000  Tot: +0.00000 ]
	SubspaceRotationAdjust: set factor to 1.53
ElecMinimize: Iter:   7  F: -1269.588755249655833  |grad|_K:  3.470e-09  alpha:  4.803e-01  linmin: -1.755e-06  t[s]:  10181.74
	Linear fluid (dielectric constant: 78.4, screening length: 5.74355 Bohr) occupying 0.760306 of unit cell:	Completed after 0 iterations at t[s]:  10209.22
	Linear fluid (dielectric constant: 78.4, screening length: 5.74355 Bohr) occupying 0.760306 of unit cell:	Completed after 0 iterations at t[s]:  10237.86
	FillingsUpdate:  mu: -0.242247628  nElectrons: 398.500000  magneticMoment: [ Abs: 0.00000  Tot: +0.00000 ]
	SubspaceRotationAdjust: set factor to 1.75
ElecMinimize: Iter:   8  F: -1269.588755251313387  |grad|_K:  2.341e-09  alpha:  6.250e-01  linmin:  2.508e-06  t[s]:  10277.01
ElecMinimize: Converged (|Delta F|<1.000000e-08 for 2 iters).
Setting wave functions to eigenvectors of Hamiltonian

# Ionic positions in lattice coordinates:
ion Ta   0.166667780131944   0.083332222888888   0.499999991333335 1
ion Ta   0.416667780131944   0.083332222888888   0.499999991333335 1
ion Ta   0.666667780131944   0.083332222888888   0.499999991333335 1
ion Ta   0.916667780131944   0.083332222888888   0.499999991333335 1
ion Ta   0.166667780131944   0.333332222888888   0.499999991333335 1
ion Ta   0.416667780131944   0.333332222888888   0.499999991333335 1
ion Ta   0.666667780131944   0.333332222888888   0.499999991333335 1
ion Ta   0.916667780131944   0.333332222888888   0.499999991333335 1
ion Ta   0.166667780131944   0.583332222888888   0.499999991333335 1
ion Ta   0.416667780131944   0.583332222888888   0.499999991333335 1
ion Ta   0.666667780131944   0.583332222888888   0.499999991333335 1
ion Ta   0.916667780131944   0.583332222888888   0.499999991333335 1
ion Ta   0.166667780131944   0.833332222888888   0.499999991333335 1
ion Ta   0.416667780131944   0.833332222888888   0.499999991333335 1
ion Ta   0.666667780131944   0.833332222888888   0.499999991333335 1
ion Ta   0.916667780131944   0.833332222888888   0.499999991333335 1
ion S   0.000001113465278  -0.000001110444445   0.586516067536143 1
ion S   0.000001113465278  -0.000001110444445   0.413483915130527 1
ion S   0.250001113465278  -0.000001110444445   0.586516067536143 1
ion S   0.250001113465278  -0.000001110444445   0.413483915130527 1
ion S   0.500001113465278  -0.000001110444445   0.586516067536143 1
ion S   0.500001113465278  -0.000001110444445   0.413483915130527 1
ion S   0.750001113465278  -0.000001110444445   0.586516067536143 1
ion S   0.750001113465278  -0.000001110444445   0.413483915130527 1
ion S   0.000001113465278   0.249998889555555   0.586516067536143 1
ion S   0.000001113465278   0.249998889555555   0.413483915130527 1
ion S   0.250001113465278   0.249998889555555   0.586516067536143 1
ion S   0.250001113465278   0.249998889555555   0.413483915130527 1
ion S   0.500001113465278   0.249998889555555   0.586516067536143 1
ion S   0.500001113465278   0.249998889555555   0.413483915130527 1
ion S   0.750001113465278   0.249998889555555   0.586516067536143 1
ion S   0.750001113465278   0.249998889555555   0.413483915130527 1
ion S   0.000001113465278   0.499998889555555   0.586516067536143 1
ion S   0.000001113465278   0.499998889555555   0.413483915130527 1
ion S   0.250001113465278   0.499998889555555   0.586516067536143 1
ion S   0.250001113465278   0.499998889555555   0.413483915130527 1
ion S   0.500001113465278   0.499998889555555   0.586516067536143 1
ion S   0.500001113465278   0.499998889555555   0.413483915130527 1
ion S   0.750001113465278   0.499998889555555   0.586516067536143 1
ion S   0.750001113465278   0.499998889555555   0.413483915130527 1
ion S   0.000001113465278   0.749998889555555   0.586516067536143 1
ion S   0.000001113465278   0.749998889555555   0.413483915130527 1
ion S   0.250001113465278   0.749998889555555   0.586516067536143 1
ion S   0.250001113465278   0.749998889555555   0.413483915130527 1
ion S   0.500001113465278   0.749998889555555   0.586516067536143 1
ion S   0.500001113465278   0.749998889555555   0.413483915130527 1
ion S   0.750001113465278   0.749998889555555   0.586516067536143 1
ion S   0.750001113465278   0.749998889555555   0.413483915130527 1


# Forces in Lattice coordinates:
force Ta  -0.000000000000000   0.000000000000000   0.000000000000000 1
force Ta  -0.000000000000000   0.000000000000000   0.000000000000000 1
force Ta  -0.000000000000000   0.000000000000000   0.000000000000000 1
force Ta   0.000000000000000  -0.000000000000000   0.000000000000000 1
force Ta   0.000000000000000   0.000000000000000   0.000000000000000 1
force Ta   0.000000000000000  -0.000000000000000   0.000000000000000 1
force Ta  -0.000000000000000  -0.000000000000000  -0.000000000000000 1
force Ta   0.000000000000000  -0.000000000000000  -0.000000000000000 1
force Ta   0.000000000000000  -0.000000000000000   0.000000000000000 1
force Ta  -0.000000000000000  -0.000000000000000  -0.000000000000000 1
force Ta   0.000000000000000   0.000000000000000   0.000000000000000 1
force Ta   0.000000000000000   0.000000000000000  -0.000000000000000 1
force Ta   0.000000000000000  -0.000000000000000   0.000000000000000 1
force Ta   0.000000000000000  -0.000000000000000  -0.000000000000000 1
force Ta  -0.000000000000000   0.000000000000000  -0.000000000000000 1
force Ta  -0.000000000000000  -0.000000000000000   0.000000000000000 1
force S  -0.000000000000000  -0.000000000000000  -0.001863885799583 1
force S   0.000000000000000   0.000000000000000   0.001863885799242 1
force S  -0.000000000000000  -0.000000000000000  -0.001863885799242 1
force S   0.000000000000000   0.000000000000000   0.001863885799129 1
force S  -0.000000000000000   0.000000000000000  -0.001863885799583 1
force S   0.000000000000000  -0.000000000000000   0.001863885799470 1
force S  -0.000000000000000  -0.000000000000000  -0.001863885799583 1
force S   0.000000000000000   0.000000000000000   0.001863885799242 1
force S  -0.000000000000000   0.000000000000000  -0.001863885799583 1
force S   0.000000000000000  -0.000000000000000   0.001863885799470 1
force S   0.000000000000000  -0.000000000000000  -0.001863885799696 1
force S   0.000000000000000   0.000000000000000   0.001863885799356 1
force S  -0.000000000000000  -0.000000000000000  -0.001863885799582 1
force S   0.000000000000000   0.000000000000000   0.001863885799242 1
force S  -0.000000000000000  -0.000000000000000  -0.001863885799697 1
force S   0.000000000000000   0.000000000000000   0.001863885799470 1
force S  -0.000000000000000   0.000000000000000  -0.001863885799470 1
force S   0.000000000000000   0.000000000000000   0.001863885799470 1
force S  -0.000000000000000  -0.000000000000000  -0.001863885799584 1
force S   0.000000000000000  -0.000000000000000   0.001863885799584 1
force S  -0.000000000000000   0.000000000000000  -0.001863885799470 1
force S   0.000000000000000   0.000000000000000   0.001863885799470 1
force S  -0.000000000000000   0.000000000000000  -0.001863885799584 1
force S   0.000000000000000  -0.000000000000000   0.001863885799357 1
force S  -0.000000000000000  -0.000000000000000  -0.001863885799358 1
force S   0.000000000000000   0.000000000000000   0.001863885799356 1
force S  -0.000000000000000   0.000000000000000  -0.001863885799356 1
force S   0.000000000000000  -0.000000000000000   0.001863885799471 1
force S  -0.000000000000000  -0.000000000000000  -0.001863885799357 1
force S   0.000000000000000   0.000000000000000   0.001863885799356 1
force S  -0.000000000000000  -0.000000000000000  -0.001863885799356 1
force S   0.000000000000000  -0.000000000000000   0.001863885799357 1

# Energy components:
   A_diel =        0.0563082283035437
   Eewald =     7265.7953892563746194
       EH =     8228.6136671776766889
     Eloc =   -16767.4262481478654081
      Enl =     -222.9825838113304997
      Exc =     -472.7688490069902514
 Exc_core =      252.5823342680164103
       KE =      446.6135367435915668
  MuShift =        0.0158303568661380
-------------------------------------
     Etot =    -1269.5006149353562250
       TS =        0.0881403159570875
-------------------------------------
        F =    -1269.5887552513133869

IonicMinimize: Iter:   3  F: -1269.588755251313387  |grad|_K:  2.565e-05  alpha:  1.000e+00  linmin:  1.000e+00  t[s]:  10297.55
IonicMinimize: Converged (|grad|_K<1.000000e-04).

#--- Lowdin population analysis ---
# oxidation-state Ta -0.369 -0.369 -0.369 -0.369 -0.369 -0.369 -0.369 -0.369 -0.369 -0.369 -0.369 -0.369 -0.369 -0.369 -0.369 -0.369
# magnetic-moments Ta -0.000 -0.000 -0.000 -0.000 -0.000 -0.000 -0.000 -0.000 -0.000 -0.000 -0.000 -0.000 -0.000 -0.000 -0.000 -0.000
# oxidation-state S +0.291 +0.291 +0.291 +0.291 +0.291 +0.291 +0.291 +0.291 +0.291 +0.291 +0.291 +0.291 +0.291 +0.291 +0.291 +0.291 +0.291 +0.291 +0.291 +0.291 +0.291 +0.291 +0.291 +0.291 +0.291 +0.291 +0.291 +0.291 +0.291 +0.291 +0.291 +0.291
# magnetic-moments S +0.000 +0.000 +0.000 +0.000 +0.000 +0.000 +0.000 +0.000 +0.000 +0.000 +0.000 +0.000 +0.000 +0.000 +0.000 +0.000 +0.000 +0.000 +0.000 +0.000 +0.000 +0.000 +0.000 +0.000 +0.000 +0.000 +0.000 +0.000 +0.000 +0.000 +0.000 +0.000


Dumping 'NbTe2.fillings' ... done
Dumping 'NbTe2.wfns' ... done
Dumping 'NbTe2.fluidState' ... done
Dumping 'NbTe2.ionpos' ... done
Dumping 'NbTe2.eigenvals' ... done
End date and time: Thu Jan  7 23:04:33 2021  (Duration: 0-2:51:48.82)
Done!
