
*************** JDFTx 1.5.0  ***************

Start date and time: Wed Jul 15 19:14:20 2020
Executable jdftx_gpu with command-line: -i Charged.in -o Charged.out
Running on hosts (process indices):  amax (0-5)
Divided in process groups (process indices):  0 (0)  1 (1)  2 (2)  3 (3)  4 (4)  5 (5)
gpuInit: Found compatible cuda device 0 'Tesla K80'
gpuInit: Found compatible cuda device 1 'Tesla K80'
gpuInit: Found compatible cuda device 2 'Tesla K80'
gpuInit: Found compatible cuda device 3 'Tesla K80'
gpuInit: Found compatible cuda device 4 'Tesla K80'
gpuInit: Found compatible cuda device 5 'Tesla K80'
gpuInit: Selected device 0
Resource initialization completed at t[s]:     15.67
Run totals: 6 processes, 24 threads, 6 GPUs


Input parsed successfully to the following command list (including defaults):

basis kpoint-dependent
cache-projectors no
coords-type Lattice
core-overlap-check none
coulomb-interaction Slab 001
coulomb-truncation-embed 0 0 0.5
davidson-band-ratio 1.1
dump End State
dump-name NbTe2.$VAR
elec-cutoff 20 100
elec-eigen-algo Davidson
elec-ex-corr gga-PBE
elec-smearing Gauss 0.0073499
electronic-minimize  \
	dirUpdateScheme      FletcherReeves \
	linminMethod         DirUpdateRecommended \
	nIterations          500 \
	history              15 \
	knormThreshold       0 \
	energyDiffThreshold  1e-08 \
	nEnergyDiff          2 \
	alphaTstart          1 \
	alphaTmin            1e-10 \
	updateTestStepSize   yes \
	alphaTreduceFactor   0.1 \
	alphaTincreaseFactor 3 \
	nAlphaAdjustMax      3 \
	wolfeEnergy          0.0001 \
	wolfeGradient        0.9 \
	fdTest               no
exchange-regularization WignerSeitzTruncated
fluid LinearPCM 298.000000 1.013250
fluid-anion F- 1 MeanFieldLJ \
	epsBulk 1 \
	pMol 0 \
	epsInf 1 \
	Pvap 0 \
	sigmaBulk 0 \
	Rvdw 2.24877 \
	Res 0 \
	tauNuc 343133
fluid-cation Na+ 1 MeanFieldLJ \
	epsBulk 1 \
	pMol 0 \
	epsInf 1 \
	Pvap 0 \
	sigmaBulk 0 \
	Rvdw 2.19208 \
	Res 0 \
	tauNuc 343133
fluid-ex-corr lda-TF lda-PZ
fluid-gummel-loop 10 1.000000e-05
fluid-minimize  \
	dirUpdateScheme      PolakRibiere \
	linminMethod         DirUpdateRecommended \
	nIterations          400 \
	history              15 \
	knormThreshold       1e-11 \
	energyDiffThreshold  0 \
	nEnergyDiff          2 \
	alphaTstart          1 \
	alphaTmin            1e-10 \
	updateTestStepSize   yes \
	alphaTreduceFactor   0.1 \
	alphaTincreaseFactor 3 \
	nAlphaAdjustMax      6 \
	wolfeEnergy          0.0001 \
	wolfeGradient        0.9 \
	fdTest               no
fluid-solvent H2O 55.338 ScalarEOS \
	epsBulk 78.4 \
	pMol 0.92466 \
	epsInf 1.77 \
	Pvap 1.06736e-10 \
	sigmaBulk 4.62e-05 \
	Rvdw 2.61727 \
	Res 1.42 \
	tauNuc 343133 \
	poleEl 15 7 1
forces-output-coords Positions
initial-state NbTe2.$VAR
ion Bi   0.000747643753684   0.000868730443048   0.499967242850228 0
ion Bi   0.112944068029989   0.110192971485003   0.356602232130179 0
ion Bi   0.222025829053326   0.222608338893345   0.644214701362085 0
ion Bi   0.333329996000003  -0.000000000000000   0.508628275907563 0
ion Bi   0.443522972485003   0.110192971485003   0.356602232130179 0
ion Bi   0.564592253797421   0.231252309797419   0.648342215454136 0
ion Bi   0.665053666803271   0.000868730443048   0.499967242850228 0
ion Bi   0.778129174386246   0.110411621227509   0.354501385488478 0
ion Bi   0.870825482405160   0.231252309797419   0.648342215454136 0
ion Bi   0.000747637753683   0.331713639803266   0.499967242850228 0
ion Bi   0.111719524176215   0.443220952647573   0.355402589427930 0
ion Bi   0.224662976907057   0.554338509546475   0.645273675078954 0
ion Bi   0.334198702443050   0.331713639803266   0.499967242850228 0
ion Bi   0.443741593227510   0.444789226386244   0.354501385488478 0
ion Bi   0.564592310797422   0.537495407405161   0.648342215454136 0
ion Bi   0.666670054000001   0.333330013999998   0.500362308057231 0
ion Bi   0.778129181386243   0.444789226386244   0.354501385488478 0
ion Bi   0.887668567546469   0.554338509546475   0.645273675078954 0
ion Bi   0.000000000999996   0.666670054000001   0.499081457038451 0
ion Bi   0.111719554176211   0.778389528176212   0.355402589427930 0
ion Bi   0.222025840053323   0.888695889053327   0.644214701362085 0
ion Bi   0.334198726443051   0.667417697753685   0.499967242850228 0
ion Bi   0.443522936485007   0.779614061029988   0.356602232130179 0
ion Bi   0.555948330893345   0.888695889053327   0.644214701362085 0
ion Bi   0.665053630803268   0.667417697753685   0.499967242850228 0
ion Bi   0.776560901647572   0.778389528176212   0.355402589427930 0
ion Bi   0.887668558546472   0.891333016907056   0.645273675078954 0
ion Se   0.000408094762166   0.000258524244569   0.298514719610431 0
ion Se  -0.003997939428532   0.005600824336129   0.699969278571846 0
ion Se   0.101774785190921   0.115777612904537   0.567713186745693 0
ion Se   0.223938480042470   0.218783036915057   0.433639997729372 0
ion Se   0.333329996000003  -0.000000000000000   0.298869397641418 0
ion Se   0.333329996000003  -0.000000000000000   0.700245887615455 0
ion Se   0.449107613904537   0.115777612904537   0.567713186745693 0
ion Se   0.556518508396793   0.223178564396790   0.433663247052969 0
ion Se   0.666003421993268   0.000258524244569   0.298514719610431 0
ion Se   0.665067156092406   0.005600824336129   0.699969278571846 0
ion Se   0.779395629709238   0.107878710581525   0.563492147844441 0
ion Se   0.886972973206418   0.223178564396790   0.433663247052969 0
ion Se   0.000408088762166   0.332663394993263   0.298514719610431 0
ion Se   0.996002054571468   0.331727129092400   0.699969278571846 0
ion Se   0.110998494855598   0.444663011288809   0.564586948193417 0
ion Se   0.222582322109773   0.555378836945116   0.433540800889846 0
ion Se   0.333588496244570   0.332663394993263   0.298514719610431 0
ion Se   0.338930796336130   0.331727129092400   0.699969278571846 0
ion Se   0.441208682581527   0.446055681709235   0.563492147844441 0
ion Se   0.556518565396794   0.553642898206419   0.433663247052969 0
ion Se   0.666670054000001   0.333330013999998   0.298176060842393 0
ion Se   0.779395636709235   0.446055681709235   0.563492147844441 0
ion Se   0.888708894945111   0.555378836945116   0.433540800889846 0
ion Se   0.000000000999996   0.666670054000001   0.299073215555062 0
ion Se   0.000000000999996   0.666670054000001   0.700417343954979 0
ion Se   0.110998524855593   0.777668498855594   0.564586948193417 0
ion Se   0.223938491042467   0.890608540042471   0.433639997729372 0
ion Se   0.333588520244572   0.667078148762167   0.298514719610431 0
ion Se   0.338930820336132   0.662672114571469   0.699969278571846 0
ion Se   0.449107577904541   0.768444778190920   0.567713186745693 0
ion Se   0.552123028915057   0.890608540042471   0.433639997729372 0
ion Se   0.666003385993265   0.667078148762167   0.298514719610431 0
ion Se   0.665067120092403   0.662672114571469   0.699969278571846 0
ion Se   0.778002960288808   0.777668498855594   0.564586948193417 0
ion Se   0.888708885945114   0.889252362109773   0.433540800889846 0
ion-species GBRV/$ID_pbe.uspp
ion-width Ecut
ionic-minimize  \
	dirUpdateScheme      L-BFGS \
	linminMethod         DirUpdateRecommended \
	nIterations          0 \
	history              15 \
	knormThreshold       0.0001 \
	energyDiffThreshold  1e-06 \
	nEnergyDiff          2 \
	alphaTstart          1 \
	alphaTmin            1e-10 \
	updateTestStepSize   yes \
	alphaTreduceFactor   0.1 \
	alphaTincreaseFactor 3 \
	nAlphaAdjustMax      3 \
	wolfeEnergy          0.0001 \
	wolfeGradient        0.9 \
	fdTest               no
kpoint   0.000000000000   0.000000000000   0.000000000000  1.00000000000000
kpoint-folding 3 3 1 
latt-move-scale 1 1 1
latt-scale 1 1 1 
lattice Triclinic 24.3894 24.3896 47.7024 90 90 60.0003
lattice-minimize  \
	dirUpdateScheme      L-BFGS \
	linminMethod         DirUpdateRecommended \
	nIterations          0 \
	history              15 \
	knormThreshold       0 \
	energyDiffThreshold  1e-06 \
	nEnergyDiff          2 \
	alphaTstart          1 \
	alphaTmin            1e-10 \
	updateTestStepSize   yes \
	alphaTreduceFactor   0.1 \
	alphaTincreaseFactor 3 \
	nAlphaAdjustMax      3 \
	wolfeEnergy          0.0001 \
	wolfeGradient        0.9 \
	fdTest               no
lcao-params -1 1e-06 0.0073499
pcm-variant CANDLE
spintype no-spin
subspace-rotation-factor 1 yes
symmetries automatic
symmetry-threshold 0.0001
target-mu -0.171252 no




---------- Setting up symmetries ----------

Found 24 point-group symmetries of the bravais lattice
Found 6 space-group symmetries with basis
Applied RMS atom displacement 9.50882e-05 bohrs to make symmetries exact.

---------- Initializing the Grid ----------
R = 
[    24.3894    12.1947          0  ]
[          0     21.122          0  ]
[          0          0    47.7024  ]
unit cell volume = 24574
G =
[    0.25762  -0.148735          0  ]
[          0   0.297471          0  ]
[          0          0   0.131716  ]
Minimum fftbox size, Smin = [  112  112  216  ]
Chosen fftbox size, S = [  112  112  216  ]

---------- Initializing tighter grid for wavefunction operations ----------
R = 
[    24.3894    12.1947          0  ]
[          0     21.122          0  ]
[          0          0    47.7024  ]
unit cell volume = 24574
G =
[    0.25762  -0.148735          0  ]
[          0   0.297471          0  ]
[          0          0   0.131716  ]
Minimum fftbox size, Smin = [  100  100  196  ]
Chosen fftbox size, S = [  100  100  196  ]

---------- Exchange Correlation functional ----------
Initalized PBE GGA exchange.
Initalized PBE GGA correlation.

---------- Setting up pseudopotentials ----------
Width of ionic core gaussian charges (only for fluid interactions / plotting) set to 0.397384

Reading pseudopotential file '/home/guoxy/vasp/jdftx-1.5.0/build/pseudopotentials/GBRV/bi_pbe.uspp':
  Title: Bi.  Created by USPP 7.3.6 on 14-9-2013
  Reference state energy: -92.204004.  15 valence electrons in orbitals:
    |520>  occupation: 10  eigenvalue: -1.293263
    |600>  occupation: 2  eigenvalue: -0.812524
    |610>  occupation: 2  eigenvalue: -0.420386
  lMax: 2  lLocal: 3  QijEcut: 5
  6 projectors sampled on a log grid with 747 points:
    l: 0  eig: -0.812524  rCut: 2.5
    l: 0  eig: 0.500000  rCut: 2.5
    l: 1  eig: -0.420386  rCut: 2.5
    l: 1  eig: 1.000000  rCut: 2.5
    l: 2  eig: -1.293263  rCut: 2.3
    l: 2  eig: -0.500000  rCut: 2.3
  Partial core density with radius 1
  Transforming core density to a uniform radial grid of dG=0.02 with 1614 points.
  Transforming local potential to a uniform radial grid of dG=0.02 with 1614 points.
  Transforming nonlocal projectors to a uniform radial grid of dG=0.02 with 432 points.
  Transforming density augmentations to a uniform radial grid of dG=0.02 with 1614 points.
  Transforming atomic orbitals to a uniform radial grid of dG=0.02 with 432 points.
  Core radius for overlap checks: 2.50 bohrs.

Reading pseudopotential file '/home/guoxy/vasp/jdftx-1.5.0/build/pseudopotentials/GBRV/se_pbe.uspp':
  Title: Se.  Created by USPP 7.3.6 on 14-9-2013
  Reference state energy: -21.672887.  6 valence electrons in orbitals:
    |400>  occupation: 2  eigenvalue: -0.635284
    |410>  occupation: 4  eigenvalue: -0.239295
  lMax: 2  lLocal: 3  QijEcut: 5
  6 projectors sampled on a log grid with 625 points:
    l: 0  eig: -0.635278  rCut: 1.5
    l: 0  eig: 0.500000  rCut: 1.5
    l: 1  eig: -0.239295  rCut: 1.5
    l: 1  eig: 0.500000  rCut: 1.5
    l: 2  eig: 0.000000  rCut: 1.8
    l: 2  eig: 1.000000  rCut: 1.8
  Partial core density with radius 1.2
  Transforming core density to a uniform radial grid of dG=0.02 with 1614 points.
  Transforming local potential to a uniform radial grid of dG=0.02 with 1614 points.
  Transforming nonlocal projectors to a uniform radial grid of dG=0.02 with 432 points.
  Transforming density augmentations to a uniform radial grid of dG=0.02 with 1614 points.
  Transforming atomic orbitals to a uniform radial grid of dG=0.02 with 432 points.
  Core radius for overlap checks: 1.80 bohrs.

Initialized 2 species with 62 total atoms.

Folded 1 k-points by 3x3x1 to 9 k-points.

---------- Setting up k-points, bands, fillings ----------
Adding inversion symmetry to k-mesh for non-inversion-symmetric unit cell.
Reduced to 3 k-points under symmetry. 
Computing the number of bands and number of electrons
Reading initial fillings from file NbTe2.fillings.
nElectrons: 615.000000   nBands: 383   nStates: 3

----- Setting up reduced wavefunction bases (one per k-point) -----
average nbasis = 104963.444 , ideal nbasis = 104982.107

---------- Setting up coulomb interaction ----------
Fluid mode embedding: using embedded box, but periodic Coulomb kernel.
(Fluid response is responsible for (approximate) separation between periodic images.)
Setting up double-sized grid for truncated Coulomb potentials:
R = 
[    24.3894    12.1947          0  ]
[          0     21.122          0  ]
[          0          0    95.4047  ]
unit cell volume = 49148
G =
[    0.25762  -0.148735          0  ]
[          0   0.297471          0  ]
[          0          0  0.0658582  ]
Chosen fftbox size, S = [  112  112  432  ]
Integer grid location selected as the embedding center:
   Grid: [  0  0  108  ]
   Lattice: [  0  0  0.5  ]
   Cartesian: [  0  0  23.8512  ]
Constructing Wigner-Seitz cell: 8 faces (6 quadrilaterals, 2 hexagons)
Range-separation parameter for embedded mesh potentials due to point charges: 0.592861 bohrs.

Initializing van der Waals corrections
	NOTE: vdW corrections apply only for interactions with fluid.
	Bi:  C6:  893.28 Eh-a0^6  R0: 3.555 a0 (WARNING: beyond Grimme's data set)
	Se:  C6:  219.24 Eh-a0^6  R0: 3.347 a0

---------- Setting up ewald sum ----------
Optimum gaussian width for ewald sums = 7.345368 bohr.
Real space sum over 605 unit cells with max indices [  5  5  2  ]
Reciprocal space sum over 9675 terms with max indices [  7  7  21  ]

---------- Allocating electronic variables ----------
Initializing wave functions:  reading from 'NbTe2.wfns'
----- createFluidSolver() ----- (Fluid-side solver setup)
   Initializing fluid molecule 'H2O'
     Initializing site 'O'
       Electron density: proportional to exp(-r/0.36935)*erfc((r-0.51523)/0.36823) with norm 6.826
       Charge density: gaussian nuclear width 0.478731 with net site charge 0.826
       Polarizability: cuspless exponential with width 0.32 and norm 3.73
       Hard sphere radius: 2.57003 bohrs
       Positions in reference frame:
         [ +0.000000 +0.000000 +0.000000 ]
     Initializing site 'H'
       Electron density: proportional to exp(-r/0.34641)*erfc((r-0)/0.390882) with norm 0.587
       Charge density: gaussian nuclear width 0.377945 with net site charge -0.413
       Polarizability: cuspless exponential with width 0.39 and norm 3.3
       Positions in reference frame:
         [ +0.000000 -1.441945 +1.122523 ]
         [ +0.000000 +1.441945 +1.122523 ]
     Net charge: 0   dipole magnitude: 0.927204
     Initializing spherical shell mfKernel with radius 2.61727 Bohr
     deltaS corrections:
       site 'O': -7.54299
       site 'H': -6.83917
   Initializing fluid molecule 'Na+'
     Initializing site 'Na'
       Electron density: proportional to exp(-r/0.19682)*erfc((r-0.71491)/0.41314) with norm 8.1383
       Charge density: gaussian nuclear width 0.365347 with net site charge -1
       Hard sphere radius: 1.86327 bohrs
       Positions in reference frame:
         [ +0.000000 +0.000000 +0.000000 ]
     Net charge: -1   dipole magnitude: 0
     Initializing gaussian mfKernel with width: 1.55004 Bohr
     deltaS corrections:
       site 'Na': -22.3555
   Initializing fluid molecule 'F-'
     Initializing site 'F'
       Electron density: proportional to exp(-r/0.38886)*erfc((r-0)/0.438782) with norm 8
       Charge density: gaussian nuclear width 0.374796 with net site charge 1
       Hard sphere radius: 2.39995 bohrs
       Positions in reference frame:
         [ +0.000000 +0.000000 +0.000000 ]
     Net charge: 1   dipole magnitude: 0
     Initializing gaussian mfKernel with width: 1.59012 Bohr
     deltaS corrections:
       site 'F': -9.04335

Correction to mu due to finite nuclear width = -0.0124156
   Cavity determined by nc: 0.00142 and sigma: 0.707107
   Nonlocal vdW cavity from gaussian model electron density with norm = 8 and sigma = 0.993594 bohr
   Charge asymmetry in cavity with sensitivity pCavity = 36.5 e-bohr/Eh
   Electrostatic cavity expanded by eta = 1.46 bohrs
   Weighted density cavitation model constrained by Nbulk: 0.0049383 bohr^-3, Pvap: 3.14029 kPa, Rvdw: 2.61727 bohr and sigmaBulk: 4.62e-05 Eh/bohr^2 at T: 298 K.
   Weighted density dispersion model using vdW pair potentials with single solvent site with sqrtC6eff: 0.77 SI.
Reading fluid state from 'NbTe2.fluidState'


---- Citations for features of the code used in this run ----

   Software package:
      R. Sundararaman, K. Letchworth-Weaver, K.A. Schwarz, D. Gunceler, Y. Ozhabes and T.A. Arias, 'JDFTx: software for joint density-functional theory', SoftwareX 6, 278 (2017)

   gga-PBE exchange-correlation functional:
      J.P. Perdew, K. Burke and M. Ernzerhof, Phys. Rev. Lett. 77, 3865 (1996)

   Pseudopotentials:
      KF Garrity, JW Bennett, KM Rabe and D Vanderbilt, Comput. Mater. Sci. 81, 446 (2014)

   Truncated Coulomb potentials:
      R. Sundararaman and T.A. Arias, Phys. Rev. B 87, 165122 (2013)

   Van der Waals correction pair-potentials:
      S. Grimme, J. Comput. Chem. 27, 1787 (2006)

   Charge-asymmetric nonlocally-determined local-electric (CANDLE) solvation model:
      R. Sundararaman and W.A. Goddard III, J. Chem. Phys. 142, 064107 (2015)

   Total energy minimization with Auxiliary Hamiltonian:
      C. Freysoldt, S. Boeck, and J. Neugebauer, Phys. Rev. B 79, 241103(R) (2009)

   Grand-canonical (fixed-potential) DFT:
      R. Sundararaman, W. A. Goddard III and T. A. Arias, J. Chem. Phys. 146, 114104 (2017)

This list may not be complete. Please suggest additional citations or
report any other bugs at https://github.com/shankar1729/jdftx/issues

Initialization completed successfully at t[s]:     32.08

Shifting auxilliary hamiltonian by -0.009478 to set nElectrons=615.000000
	Linear fluid (dielectric constant: 78.4, screening length: 5.74355 Bohr) occupying 0.690876 of unit cell:	Completed after 3 iterations at t[s]:     38.31

-------- Electronic minimization -----------
	Linear fluid (dielectric constant: 78.4, screening length: 5.74355 Bohr) occupying 0.690876 of unit cell:	Completed after 0 iterations at t[s]:     44.41
	FillingsUpdate:  mu: -0.171251800  nElectrons: 615.000000
ElecMinimize: Iter:   0  G: -2170.727869785223447  |grad|_K:  1.486e-05  alpha:  1.000e+00
	Linear fluid (dielectric constant: 78.4, screening length: 5.74355 Bohr) occupying 0.691319 of unit cell:	Completed after 26 iterations at t[s]:     67.61
	Linear fluid (dielectric constant: 78.4, screening length: 5.74355 Bohr) occupying 0.690896 of unit cell:	Completed after 26 iterations at t[s]:     79.61
	FillingsUpdate:  mu: -0.171251800  nElectrons: 614.794617
	SubspaceRotationAdjust: set factor to 0.501
ElecMinimize: Iter:   1  G: -2170.728427969733730  |grad|_K:  9.899e-06  alpha:  3.684e-02  linmin:  1.086e-02  t[s]:     89.47
	Linear fluid (dielectric constant: 78.4, screening length: 5.74355 Bohr) occupying 0.690920 of unit cell:	Completed after 11 iterations at t[s]:     99.25
	Linear fluid (dielectric constant: 78.4, screening length: 5.74355 Bohr) occupying 0.690964 of unit cell:	Completed after 13 iterations at t[s]:    110.02
	FillingsUpdate:  mu: -0.171251800  nElectrons: 614.786808
	SubspaceRotationAdjust: set factor to 0.195
ElecMinimize: Iter:   2  G: -2170.729135472216058  |grad|_K:  3.124e-06  alpha:  1.042e-01  linmin:  1.581e-04  t[s]:    119.96
	Linear fluid (dielectric constant: 78.4, screening length: 5.74355 Bohr) occupying 0.690994 of unit cell:	Completed after 12 iterations at t[s]:    130.45
	Linear fluid (dielectric constant: 78.4, screening length: 5.74355 Bohr) occupying 0.690990 of unit cell:	Completed after 8 iterations at t[s]:    140.39
	FillingsUpdate:  mu: -0.171251800  nElectrons: 614.721523
	SubspaceRotationAdjust: set factor to 0.102
	SubspaceRotationAdjust: resetting CG because factor has changed by 0.102441
	Linear fluid (dielectric constant: 78.4, screening length: 5.74355 Bohr) occupying 0.690990 of unit cell:	Completed after 0 iterations at t[s]:    154.65
ElecMinimize: 	State modified externally: resetting search direction.
ElecMinimize: Iter:   3  G: -2170.729240013684830  |grad|_K:  1.827e-06  alpha:  8.889e-02
	Linear fluid (dielectric constant: 78.4, screening length: 5.74355 Bohr) occupying 0.691008 of unit cell:	Completed after 9 iterations at t[s]:    176.75
ElecMinimize: 	Predicted alpha/alphaT>3.000000, increasing alphaT to 2.666807e-01.
	Linear fluid (dielectric constant: 78.4, screening length: 5.74355 Bohr) occupying 0.691043 of unit cell:	Completed after 10 iterations at t[s]:    187.75
	Linear fluid (dielectric constant: 78.4, screening length: 5.74355 Bohr) occupying 0.691082 of unit cell:	Completed after 11 iterations at t[s]:    198.86
	FillingsUpdate:  mu: -0.171251800  nElectrons: 614.753928
	SubspaceRotationAdjust: set factor to 0.0631
ElecMinimize: Iter:   4  G: -2170.729425643517516  |grad|_K:  1.811e-06  alpha:  4.595e-01  linmin: -2.015e-04  t[s]:    209.83
	Linear fluid (dielectric constant: 78.4, screening length: 5.74355 Bohr) occupying 0.691238 of unit cell:	Completed after 12 iterations at t[s]:    222.12
	Linear fluid (dielectric constant: 78.4, screening length: 5.74355 Bohr) occupying 0.691374 of unit cell:	Completed after 12 iterations at t[s]:    233.26
	FillingsUpdate:  mu: -0.171251800  nElectrons: 614.650015
	SubspaceRotationAdjust: set factor to 0.0733
ElecMinimize: Iter:   5  G: -2170.729768681693258  |grad|_K:  9.535e-07  alpha:  8.577e-01  linmin: -4.532e-04  t[s]:    244.56
	Linear fluid (dielectric constant: 78.4, screening length: 5.74355 Bohr) occupying 0.691527 of unit cell:	Completed after 8 iterations at t[s]:    257.18
	Linear fluid (dielectric constant: 78.4, screening length: 5.74355 Bohr) occupying 0.691609 of unit cell:	Completed after 8 iterations at t[s]:    268.27
	FillingsUpdate:  mu: -0.171251800  nElectrons: 614.587506
	SubspaceRotationAdjust: set factor to 0.0869
ElecMinimize: Iter:   6  G: -2170.729914963334522  |grad|_K:  7.815e-07  alpha:  1.316e+00  linmin: -5.383e-05  t[s]:    280.00
	Linear fluid (dielectric constant: 78.4, screening length: 5.74355 Bohr) occupying 0.691808 of unit cell:	Completed after 9 iterations at t[s]:    292.35
	Linear fluid (dielectric constant: 78.4, screening length: 5.74355 Bohr) occupying 0.691697 of unit cell:	Completed after 5 iterations at t[s]:    302.46
	FillingsUpdate:  mu: -0.171251800  nElectrons: 614.567819
	SubspaceRotationAdjust: set factor to 0.103
ElecMinimize: Iter:   7  G: -2170.729957696240035  |grad|_K:  5.071e-07  alpha:  5.765e-01  linmin:  5.249e-05  t[s]:    313.59
	Linear fluid (dielectric constant: 78.4, screening length: 5.74355 Bohr) occupying 0.691742 of unit cell:	Completed after 5 iterations at t[s]:    325.22
	Linear fluid (dielectric constant: 78.4, screening length: 5.74355 Bohr) occupying 0.691763 of unit cell:	Completed after 5 iterations at t[s]:    335.79
	FillingsUpdate:  mu: -0.171251800  nElectrons: 614.562795
	SubspaceRotationAdjust: set factor to 0.112
ElecMinimize: Iter:   8  G: -2170.729983176537644  |grad|_K:  3.759e-07  alpha:  8.342e-01  linmin:  5.144e-04  t[s]:    346.15
	Linear fluid (dielectric constant: 78.4, screening length: 5.74355 Bohr) occupying 0.691799 of unit cell:	Completed after 8 iterations at t[s]:    357.41
	Linear fluid (dielectric constant: 78.4, screening length: 5.74355 Bohr) occupying 0.691814 of unit cell:	Completed after 3 iterations at t[s]:    367.57
	FillingsUpdate:  mu: -0.171251800  nElectrons: 614.545559
	SubspaceRotationAdjust: set factor to 0.111
ElecMinimize: Iter:   9  G: -2170.730002583740770  |grad|_K:  3.143e-07  alpha:  1.184e+00  linmin:  4.724e-04  t[s]:    378.95
	Linear fluid (dielectric constant: 78.4, screening length: 5.74355 Bohr) occupying 0.691846 of unit cell:	Completed after 12 iterations at t[s]:    391.07
	Linear fluid (dielectric constant: 78.4, screening length: 5.74355 Bohr) occupying 0.691828 of unit cell:	Completed after 9 iterations at t[s]:    401.49
	FillingsUpdate:  mu: -0.171251800  nElectrons: 614.550468
	SubspaceRotationAdjust: set factor to 0.0838
ElecMinimize: Iter:  10  G: -2170.730009250737112  |grad|_K:  2.429e-07  alpha:  5.154e-01  linmin: -1.481e-04  t[s]:    412.81
	Linear fluid (dielectric constant: 78.4, screening length: 5.74355 Bohr) occupying 0.691832 of unit cell:	Completed after 3 iterations at t[s]:    424.04
	Linear fluid (dielectric constant: 78.4, screening length: 5.74355 Bohr) occupying 0.691835 of unit cell:	Completed after 5 iterations at t[s]:    434.09
	FillingsUpdate:  mu: -0.171251800  nElectrons: 614.540996
	SubspaceRotationAdjust: set factor to 0.0613
ElecMinimize: Iter:  11  G: -2170.730014632125403  |grad|_K:  1.878e-07  alpha:  8.198e-01  linmin:  9.075e-04  t[s]:    445.40
	Linear fluid (dielectric constant: 78.4, screening length: 5.74355 Bohr) occupying 0.691837 of unit cell:	Completed after 7 iterations at t[s]:    456.53
	Linear fluid (dielectric constant: 78.4, screening length: 5.74355 Bohr) occupying 0.691837 of unit cell:	Completed after 0 iterations at t[s]:    466.36
	FillingsUpdate:  mu: -0.171251800  nElectrons: 614.543785
	SubspaceRotationAdjust: set factor to 0.0485
ElecMinimize: Iter:  12  G: -2170.730017572921497  |grad|_K:  1.355e-07  alpha:  7.378e-01  linmin:  2.953e-04  t[s]:    477.37
	Linear fluid (dielectric constant: 78.4, screening length: 5.74355 Bohr) occupying 0.691836 of unit cell:	Completed after 3 iterations at t[s]:    488.59
	Linear fluid (dielectric constant: 78.4, screening length: 5.74355 Bohr) occupying 0.691836 of unit cell:	Completed after 0 iterations at t[s]:    497.60
	FillingsUpdate:  mu: -0.171251800  nElectrons: 614.542127
	SubspaceRotationAdjust: set factor to 0.06
ElecMinimize: Iter:  13  G: -2170.730019099273250  |grad|_K:  1.030e-07  alpha:  7.069e-01  linmin: -5.164e-04  t[s]:    509.03
	Linear fluid (dielectric constant: 78.4, screening length: 5.74355 Bohr) occupying 0.691833 of unit cell:	Completed after 3 iterations at t[s]:    520.09
	Linear fluid (dielectric constant: 78.4, screening length: 5.74355 Bohr) occupying 0.691834 of unit cell:	Completed after 0 iterations at t[s]:    529.14
	FillingsUpdate:  mu: -0.171251800  nElectrons: 614.540868
	SubspaceRotationAdjust: set factor to 0.0624
ElecMinimize: Iter:  14  G: -2170.730019911288764  |grad|_K:  8.212e-08  alpha:  6.204e-01  linmin: -9.031e-04  t[s]:    540.21
	Linear fluid (dielectric constant: 78.4, screening length: 5.74355 Bohr) occupying 0.691831 of unit cell:	Completed after 0 iterations at t[s]:    550.72
	Linear fluid (dielectric constant: 78.4, screening length: 5.74355 Bohr) occupying 0.691830 of unit cell:	Completed after 2 iterations at t[s]:    560.62
	FillingsUpdate:  mu: -0.171251800  nElectrons: 614.542307
	SubspaceRotationAdjust: set factor to 0.072
ElecMinimize: Iter:  15  G: -2170.730020602658897  |grad|_K:  8.496e-08  alpha:  1.023e+00  linmin:  8.900e-04  t[s]:    571.54
	Linear fluid (dielectric constant: 78.4, screening length: 5.74355 Bohr) occupying 0.691825 of unit cell:	Completed after 3 iterations at t[s]:    583.35
	Linear fluid (dielectric constant: 78.4, screening length: 5.74355 Bohr) occupying 0.691827 of unit cell:	Completed after 0 iterations at t[s]:    592.53
	FillingsUpdate:  mu: -0.171251800  nElectrons: 614.544221
	SubspaceRotationAdjust: set factor to 0.0671
ElecMinimize: Iter:  16  G: -2170.730021074006800  |grad|_K:  1.017e-07  alpha:  5.325e-01  linmin:  1.201e-03  t[s]:    603.64
	Linear fluid (dielectric constant: 78.4, screening length: 5.74355 Bohr) occupying 0.691824 of unit cell:	Completed after 2 iterations at t[s]:    615.38
	Linear fluid (dielectric constant: 78.4, screening length: 5.74355 Bohr) occupying 0.691825 of unit cell:	Completed after 0 iterations at t[s]:    624.79
	FillingsUpdate:  mu: -0.171251800  nElectrons: 614.544231
	SubspaceRotationAdjust: set factor to 0.101
ElecMinimize: Iter:  17  G: -2170.730021274430783  |grad|_K:  6.149e-08  alpha:  3.140e-01  linmin: -4.736e-04  t[s]:    635.97
	Linear fluid (dielectric constant: 78.4, screening length: 5.74355 Bohr) occupying 0.691824 of unit cell:	Completed after 0 iterations at t[s]:    647.20
ElecMinimize: 	Predicted alpha/alphaT>3.000000, increasing alphaT to 9.419805e-01.
	Linear fluid (dielectric constant: 78.4, screening length: 5.74355 Bohr) occupying 0.691823 of unit cell:	Completed after 5 iterations at t[s]:    657.52
	Linear fluid (dielectric constant: 78.4, screening length: 5.74355 Bohr) occupying 0.691824 of unit cell:	Completed after 0 iterations at t[s]:    667.36
	FillingsUpdate:  mu: -0.171251800  nElectrons: 614.543262
	SubspaceRotationAdjust: set factor to 0.0688
ElecMinimize: Iter:  18  G: -2170.730021677455170  |grad|_K:  1.172e-07  alpha:  3.774e-01  linmin:  3.680e-03  t[s]:    678.40
	Linear fluid (dielectric constant: 78.4, screening length: 5.74355 Bohr) occupying 0.691821 of unit cell:	Completed after 0 iterations at t[s]:    688.81
	Linear fluid (dielectric constant: 78.4, screening length: 5.74355 Bohr) occupying 0.691824 of unit cell:	Completed after 0 iterations at t[s]:    698.05
	FillingsUpdate:  mu: -0.171251800  nElectrons: 614.543279
	SubspaceRotationAdjust: set factor to 0.0527
ElecMinimize: Iter:  19  G: -2170.730021678464709  |grad|_K:  1.026e-07  alpha:  1.376e-02  linmin: -1.177e-08  t[s]:    709.28
	Linear fluid (dielectric constant: 78.4, screening length: 5.74355 Bohr) occupying 0.691824 of unit cell:	Completed after 0 iterations at t[s]:    719.75
ElecMinimize: 	Predicted alpha/alphaT>3.000000, increasing alphaT to 4.128521e-02.
	Linear fluid (dielectric constant: 78.4, screening length: 5.74355 Bohr) occupying 0.691824 of unit cell:	Completed after 0 iterations at t[s]:    728.49
ElecMinimize: 	Predicted alpha/alphaT>3.000000, increasing alphaT to 1.238556e-01.
	Linear fluid (dielectric constant: 78.4, screening length: 5.74355 Bohr) occupying 0.691823 of unit cell:	Completed after 2 iterations at t[s]:    737.97
	Linear fluid (dielectric constant: 78.4, screening length: 5.74355 Bohr) occupying 0.691824 of unit cell:	Completed after 0 iterations at t[s]:    747.21
ElecMinimize: 	Step increased G by 1.475369e-07, reducing alpha to 5.072051e-03.
	Linear fluid (dielectric constant: 78.4, screening length: 5.74355 Bohr) occupying 0.691824 of unit cell:	Completed after 0 iterations at t[s]:    765.88
ElecMinimize: 	Step increased G by 2.171923e-07, reducing alpha to 5.072051e-04.
	Linear fluid (dielectric constant: 78.4, screening length: 5.74355 Bohr) occupying 0.691824 of unit cell:	Completed after 0 iterations at t[s]:    784.60
ElecMinimize: 	Step increased G by 2.250781e-07, reducing alpha to 5.072051e-05.
ElecMinimize: 	Step failed to reduce G after 3 attempts. Quitting step.
ElecMinimize: 	Undoing step.
	Linear fluid (dielectric constant: 78.4, screening length: 5.74355 Bohr) occupying 0.691824 of unit cell:	Completed after 0 iterations at t[s]:    803.80
ElecMinimize: 	Step failed: resetting search direction.
	FillingsUpdate:  mu: -0.171251800  nElectrons: 614.543283
	SubspaceRotationAdjust: set factor to 0.074
ElecMinimize: Iter:  20  G: -2170.730021453318841  |grad|_K:  4.757e-08  alpha:  5.072e-05
	Linear fluid (dielectric constant: 78.4, screening length: 5.74355 Bohr) occupying 0.691824 of unit cell:	Completed after 0 iterations at t[s]:    825.18
ElecMinimize: 	Predicted alpha/alphaT>3.000000, increasing alphaT to 4.128521e-02.
	Linear fluid (dielectric constant: 78.4, screening length: 5.74355 Bohr) occupying 0.691824 of unit cell:	Completed after 0 iterations at t[s]:    834.42
ElecMinimize: 	Predicted alpha/alphaT>3.000000, increasing alphaT to 1.238556e-01.
	Linear fluid (dielectric constant: 78.4, screening length: 5.74355 Bohr) occupying 0.691824 of unit cell:	Completed after 0 iterations at t[s]:    843.67
ElecMinimize: 	Predicted alpha/alphaT>3.000000, increasing alphaT to 3.715669e-01.
	Linear fluid (dielectric constant: 78.4, screening length: 5.74355 Bohr) occupying 0.691826 of unit cell:	Completed after 4 iterations at t[s]:    853.77
ElecMinimize: 	Step increased G by 3.187652e-07, reducing alpha to 1.616279e-01.
	Linear fluid (dielectric constant: 78.4, screening length: 5.74355 Bohr) occupying 0.691824 of unit cell:	Completed after 3 iterations at t[s]:    872.87
	FillingsUpdate:  mu: -0.171251800  nElectrons: 614.543651
	SubspaceRotationAdjust: set factor to 0.0569
ElecMinimize: Iter:  21  G: -2170.730021588281033  |grad|_K:  4.018e-08  alpha:  1.616e-01  linmin: -3.493e-03  t[s]:    884.29
	Linear fluid (dielectric constant: 78.4, screening length: 5.74355 Bohr) occupying 0.691824 of unit cell:	Completed after 0 iterations at t[s]:    894.72
ElecMinimize: 	Predicted alpha/alphaT>3.000000, increasing alphaT to 4.848837e-01.
	Linear fluid (dielectric constant: 78.4, screening length: 5.74355 Bohr) occupying 0.691825 of unit cell:	Completed after 0 iterations at t[s]:    904.15
	Linear fluid (dielectric constant: 78.4, screening length: 5.74355 Bohr) occupying 0.691825 of unit cell:	Completed after 0 iterations at t[s]:    913.64
	FillingsUpdate:  mu: -0.171251800  nElectrons: 614.543478
	SubspaceRotationAdjust: set factor to 0.0787
ElecMinimize: Iter:  22  G: -2170.730021751075128  |grad|_K:  3.553e-08  alpha:  6.626e-01  linmin: -1.232e-06  t[s]:    925.24
	Linear fluid (dielectric constant: 78.4, screening length: 5.74355 Bohr) occupying 0.691825 of unit cell:	Completed after 3 iterations at t[s]:    937.16
	Linear fluid (dielectric constant: 78.4, screening length: 5.74355 Bohr) occupying 0.691825 of unit cell:	Completed after 0 iterations at t[s]:    947.01
ElecMinimize: 	Step increased G by 8.004190e-08, reducing alpha to 1.834413e-02.
	Linear fluid (dielectric constant: 78.4, screening length: 5.74355 Bohr) occupying 0.691825 of unit cell:	Completed after 0 iterations at t[s]:    966.18
ElecMinimize: 	Step increased G by 6.728715e-08, reducing alpha to 1.834413e-03.
	Linear fluid (dielectric constant: 78.4, screening length: 5.74355 Bohr) occupying 0.691825 of unit cell:	Completed after 0 iterations at t[s]:    985.26
ElecMinimize: 	Step increased G by 6.651635e-08, reducing alpha to 1.834413e-04.
ElecMinimize: 	Step failed to reduce G after 3 attempts. Quitting step.
ElecMinimize: 	Undoing step.
	Linear fluid (dielectric constant: 78.4, screening length: 5.74355 Bohr) occupying 0.691825 of unit cell:	Completed after 0 iterations at t[s]:   1004.51
ElecMinimize: 	Step failed: resetting search direction.
	FillingsUpdate:  mu: -0.171251800  nElectrons: 614.543476
	SubspaceRotationAdjust: set factor to 0.064
ElecMinimize: Iter:  23  G: -2170.730021684576968  |grad|_K:  4.563e-08  alpha:  1.834e-04
	Linear fluid (dielectric constant: 78.4, screening length: 5.74355 Bohr) occupying 0.691825 of unit cell:	Completed after 2 iterations at t[s]:   1027.00
	Linear fluid (dielectric constant: 78.4, screening length: 5.74355 Bohr) occupying 0.691825 of unit cell:	Completed after 0 iterations at t[s]:   1036.96
	FillingsUpdate:  mu: -0.171251800  nElectrons: 614.544242
	SubspaceRotationAdjust: set factor to 0.0471
ElecMinimize: Iter:  24  G: -2170.730021704428964  |grad|_K:  2.064e-08  alpha:  3.221e-01  linmin:  3.689e-05  t[s]:   1048.32
	Linear fluid (dielectric constant: 78.4, screening length: 5.74355 Bohr) occupying 0.691825 of unit cell:	Completed after 0 iterations at t[s]:   1064.73
	Linear fluid (dielectric constant: 78.4, screening length: 5.74355 Bohr) occupying 0.691825 of unit cell:	Completed after 0 iterations at t[s]:   1074.61
	FillingsUpdate:  mu: -0.171251800  nElectrons: 614.544464
	SubspaceRotationAdjust: set factor to 0.063
ElecMinimize: Iter:  25  G: -2170.730021746257080  |grad|_K:  1.883e-08  alpha:  8.115e-01  linmin: -1.430e-05  t[s]:   1085.56
	Linear fluid (dielectric constant: 78.4, screening length: 5.74355 Bohr) occupying 0.691826 of unit cell:	Completed after 0 iterations at t[s]:   1095.82
	Linear fluid (dielectric constant: 78.4, screening length: 5.74355 Bohr) occupying 0.691827 of unit cell:	Completed after 0 iterations at t[s]:   1108.31
	FillingsUpdate:  mu: -0.171251800  nElectrons: 614.544565
	SubspaceRotationAdjust: set factor to 0.0754
ElecMinimize: Iter:  26  G: -2170.730021807695266  |grad|_K:  1.952e-08  alpha:  1.429e+00  linmin:  2.874e-06  t[s]:   1122.24
	Linear fluid (dielectric constant: 78.4, screening length: 5.74355 Bohr) occupying 0.691829 of unit cell:	Completed after 1 iterations at t[s]:   1136.21
	Linear fluid (dielectric constant: 78.4, screening length: 5.74355 Bohr) occupying 0.691827 of unit cell:	Completed after 0 iterations at t[s]:   1148.24
ElecMinimize: 	Step increased G by 8.987899e-08, reducing alpha to 3.256516e-02.
	Linear fluid (dielectric constant: 78.4, screening length: 5.74355 Bohr) occupying 0.691827 of unit cell:	Completed after 0 iterations at t[s]:   1185.38
ElecMinimize: 	Step increased G by 8.822963e-08, reducing alpha to 3.256516e-03.
	Linear fluid (dielectric constant: 78.4, screening length: 5.74355 Bohr) occupying 0.691827 of unit cell:	Completed after 0 iterations at t[s]:   1216.89
ElecMinimize: 	Step increased G by 8.856841e-08, reducing alpha to 3.256516e-04.
ElecMinimize: 	Step failed to reduce G after 3 attempts. Quitting step.
ElecMinimize: 	Undoing step.
	Linear fluid (dielectric constant: 78.4, screening length: 5.74355 Bohr) occupying 0.691827 of unit cell:	Completed after 0 iterations at t[s]:   1253.60
ElecMinimize: 	Step failed: resetting search direction.
	FillingsUpdate:  mu: -0.171251800  nElectrons: 614.544565
	SubspaceRotationAdjust: set factor to 0.0724
ElecMinimize: Iter:  27  G: -2170.730021719150045  |grad|_K:  3.321e-08  alpha:  3.257e-04
	Linear fluid (dielectric constant: 78.4, screening length: 5.74355 Bohr) occupying 0.691826 of unit cell:	Completed after 2 iterations at t[s]:   1290.66
	Linear fluid (dielectric constant: 78.4, screening length: 5.74355 Bohr) occupying 0.691827 of unit cell:	Completed after 0 iterations at t[s]:   1306.68
	FillingsUpdate:  mu: -0.171251800  nElectrons: 614.544869
	SubspaceRotationAdjust: set factor to 0.0614
ElecMinimize: Iter:  28  G: -2170.730021840483914  |grad|_K:  2.820e-08  alpha:  4.980e-01  linmin:  3.875e-03  t[s]:   1325.99
	Linear fluid (dielectric constant: 78.4, screening length: 5.74355 Bohr) occupying 0.691826 of unit cell:	Completed after 0 iterations at t[s]:   1349.61
	Linear fluid (dielectric constant: 78.4, screening length: 5.74355 Bohr) occupying 0.691826 of unit cell:	Completed after 0 iterations at t[s]:   1363.61
	FillingsUpdate:  mu: -0.171251800  nElectrons: 614.544335
	SubspaceRotationAdjust: set factor to 0.0892
ElecMinimize: Iter:  29  G: -2170.730021872453108  |grad|_K:  2.411e-08  alpha:  9.143e-01  linmin:  2.265e-06  t[s]:   1382.35
	Linear fluid (dielectric constant: 78.4, screening length: 5.74355 Bohr) occupying 0.691826 of unit cell:	Completed after 2 iterations at t[s]:   1402.27
	Linear fluid (dielectric constant: 78.4, screening length: 5.74355 Bohr) occupying 0.691826 of unit cell:	Completed after 0 iterations at t[s]:   1416.81
ElecMinimize: 	Step increased G by 8.700954e-08, reducing alpha to 1.404189e-02.
	Linear fluid (dielectric constant: 78.4, screening length: 5.74355 Bohr) occupying 0.691826 of unit cell:	Completed after 0 iterations at t[s]:   1454.39
ElecMinimize: 	Step increased G by 6.103801e-08, reducing alpha to 1.404189e-03.
	Linear fluid (dielectric constant: 78.4, screening length: 5.74355 Bohr) occupying 0.691826 of unit cell:	Completed after 0 iterations at t[s]:   1483.66
ElecMinimize: 	Step increased G by 5.863376e-08, reducing alpha to 1.404189e-04.
ElecMinimize: 	Step failed to reduce G after 3 attempts. Quitting step.
ElecMinimize: 	Undoing step.
	Linear fluid (dielectric constant: 78.4, screening length: 5.74355 Bohr) occupying 0.691826 of unit cell:	Completed after 0 iterations at t[s]:   1522.05
ElecMinimize: 	Step failed: resetting search direction.
	FillingsUpdate:  mu: -0.171251800  nElectrons: 614.544334
	SubspaceRotationAdjust: set factor to 0.0833
ElecMinimize: Iter:  30  G: -2170.730021813866188  |grad|_K:  5.255e-08  alpha:  1.404e-04
	Linear fluid (dielectric constant: 78.4, screening length: 5.74355 Bohr) occupying 0.691826 of unit cell:	Completed after 3 iterations at t[s]:   1559.71
	Linear fluid (dielectric constant: 78.4, screening length: 5.74355 Bohr) occupying 0.691826 of unit cell:	Completed after 1 iterations at t[s]:   1581.47
ElecMinimize: 	Step increased G by 1.047829e-08, reducing alpha to 2.269371e-02.
	Linear fluid (dielectric constant: 78.4, screening length: 5.74355 Bohr) occupying 0.691826 of unit cell:	Completed after 0 iterations at t[s]:   1611.70
	FillingsUpdate:  mu: -0.171251800  nElectrons: 614.544377
	SubspaceRotationAdjust: set factor to 0.05
ElecMinimize: Iter:  31  G: -2170.730021844238763  |grad|_K:  2.534e-08  alpha:  2.269e-02  linmin:  2.503e-03  t[s]:   1638.23
	Linear fluid (dielectric constant: 78.4, screening length: 5.74355 Bohr) occupying 0.691826 of unit cell:	Completed after 0 iterations at t[s]:   1654.95
ElecMinimize: 	Predicted alpha/alphaT>3.000000, increasing alphaT to 6.808114e-02.
	Linear fluid (dielectric constant: 78.4, screening length: 5.74355 Bohr) occupying 0.691826 of unit cell:	Completed after 0 iterations at t[s]:   1670.96
ElecMinimize: 	Predicted alpha/alphaT>3.000000, increasing alphaT to 2.042434e-01.
	Linear fluid (dielectric constant: 78.4, screening length: 5.74355 Bohr) occupying 0.691826 of unit cell:	Completed after 0 iterations at t[s]:   1684.74
ElecMinimize: 	Predicted alpha/alphaT>3.000000, increasing alphaT to 6.127302e-01.
	Linear fluid (dielectric constant: 78.4, screening length: 5.74355 Bohr) occupying 0.691826 of unit cell:	Completed after 0 iterations at t[s]:   1703.64
	FillingsUpdate:  mu: -0.171251800  nElectrons: 614.543154
	SubspaceRotationAdjust: set factor to 0.0791
ElecMinimize: Iter:  32  G: -2170.730021850972207  |grad|_K:  2.288e-08  alpha:  8.405e-01  linmin:  4.183e-04  t[s]:   1722.39
	Linear fluid (dielectric constant: 78.4, screening length: 5.74355 Bohr) occupying 0.691826 of unit cell:	Completed after 3 iterations at t[s]:   1737.53
	Linear fluid (dielectric constant: 78.4, screening length: 5.74355 Bohr) occupying 0.691826 of unit cell:	Completed after 0 iterations at t[s]:   1753.73
ElecMinimize: 	Step increased G by 5.445600e-08, reducing alpha to 6.481395e-03.
	Linear fluid (dielectric constant: 78.4, screening length: 5.74355 Bohr) occupying 0.691826 of unit cell:	Completed after 0 iterations at t[s]:   1790.74
ElecMinimize: 	Step increased G by 2.239130e-08, reducing alpha to 6.481395e-04.
	Linear fluid (dielectric constant: 78.4, screening length: 5.74355 Bohr) occupying 0.691826 of unit cell:	Completed after 0 iterations at t[s]:   1821.89
ElecMinimize: 	Step increased G by 1.918852e-08, reducing alpha to 6.481395e-05.
ElecMinimize: 	Step failed to reduce G after 3 attempts. Quitting step.
ElecMinimize: 	Undoing step.
	Linear fluid (dielectric constant: 78.4, screening length: 5.74355 Bohr) occupying 0.691826 of unit cell:	Completed after 0 iterations at t[s]:   1855.53
ElecMinimize: 	Step failed: resetting search direction.
	FillingsUpdate:  mu: -0.171251800  nElectrons: 614.543153
	SubspaceRotationAdjust: set factor to 0.0523
ElecMinimize: Iter:  33  G: -2170.730021831747763  |grad|_K:  1.018e-07  alpha:  6.481e-05
	Linear fluid (dielectric constant: 78.4, screening length: 5.74355 Bohr) occupying 0.691827 of unit cell:	Completed after 7 iterations at t[s]:   1898.98
	Linear fluid (dielectric constant: 78.4, screening length: 5.74355 Bohr) occupying 0.691826 of unit cell:	Completed after 5 iterations at t[s]:   1912.84
	FillingsUpdate:  mu: -0.171251800  nElectrons: 614.544812
	SubspaceRotationAdjust: set factor to 0.0221
ElecMinimize: Iter:  34  G: -2170.730021942683379  |grad|_K:  5.403e-08  alpha:  2.017e-01  linmin:  1.723e-02  t[s]:   1937.18
	Linear fluid (dielectric constant: 78.4, screening length: 5.74355 Bohr) occupying 0.691826 of unit cell:	Completed after 0 iterations at t[s]:   1953.32
ElecMinimize: 	Predicted alpha/alphaT>3.000000, increasing alphaT to 6.051615e-01.
	Linear fluid (dielectric constant: 78.4, screening length: 5.74355 Bohr) occupying 0.691825 of unit cell:	Completed after 0 iterations at t[s]:   1967.37
ElecMinimize: 	Predicted alpha/alphaT>3.000000, increasing alphaT to 1.815484e+00.
	Linear fluid (dielectric constant: 78.4, screening length: 5.74355 Bohr) occupying 0.691823 of unit cell:	Completed after 7 iterations at t[s]:   1983.82
	Linear fluid (dielectric constant: 78.4, screening length: 5.74355 Bohr) occupying 0.691825 of unit cell:	Completed after 3 iterations at t[s]:   2004.24
ElecMinimize: 	Step increased G by 9.545420e-08, reducing alpha to 4.294186e-02.
	Linear fluid (dielectric constant: 78.4, screening length: 5.74355 Bohr) occupying 0.691826 of unit cell:	Completed after 0 iterations at t[s]:   2035.00
ElecMinimize: 	Step increased G by 3.937430e-08, reducing alpha to 4.294186e-03.
	Linear fluid (dielectric constant: 78.4, screening length: 5.74355 Bohr) occupying 0.691826 of unit cell:	Completed after 0 iterations at t[s]:   2073.79
ElecMinimize: 	Step increased G by 3.508922e-08, reducing alpha to 4.294186e-04.
ElecMinimize: 	Step failed to reduce G after 3 attempts. Quitting step.
ElecMinimize: 	Undoing step.
	Linear fluid (dielectric constant: 78.4, screening length: 5.74355 Bohr) occupying 0.691826 of unit cell:	Completed after 0 iterations at t[s]:   2110.05
ElecMinimize: 	Step failed: resetting search direction.
	FillingsUpdate:  mu: -0.171251800  nElectrons: 614.544806
	SubspaceRotationAdjust: set factor to 0.00961
	SubspaceRotationAdjust: resetting CG because factor has changed by 0.0938048
	Linear fluid (dielectric constant: 78.4, screening length: 5.74355 Bohr) occupying 0.691826 of unit cell:	Completed after 0 iterations at t[s]:   2135.64
ElecMinimize: 	State modified externally: resetting search direction.
ElecMinimize: Iter:  35  G: -2170.730021907668288  |grad|_K:  2.781e-08  alpha:  4.294e-04
	Linear fluid (dielectric constant: 78.4, screening length: 5.74355 Bohr) occupying 0.691826 of unit cell:	Completed after 0 iterations at t[s]:   2175.69
ElecMinimize: 	Predicted alpha/alphaT>3.000000, increasing alphaT to 6.051615e-01.
	Linear fluid (dielectric constant: 78.4, screening length: 5.74355 Bohr) occupying 0.691827 of unit cell:	Completed after 0 iterations at t[s]:   2190.10
	Linear fluid (dielectric constant: 78.4, screening length: 5.74355 Bohr) occupying 0.691828 of unit cell:	Completed after 0 iterations at t[s]:   2202.70
	FillingsUpdate:  mu: -0.171251800  nElectrons: 614.545293
	SubspaceRotationAdjust: set factor to 0.00383
ElecMinimize: Iter:  36  G: -2170.730021996001597  |grad|_K:  2.590e-08  alpha:  9.445e-01  linmin: -3.949e-06  t[s]:   2226.28
	Linear fluid (dielectric constant: 78.4, screening length: 5.74355 Bohr) occupying 0.691830 of unit cell:	Completed after 4 iterations at t[s]:   2242.39
	Linear fluid (dielectric constant: 78.4, screening length: 5.74355 Bohr) occupying 0.691828 of unit cell:	Completed after 0 iterations at t[s]:   2258.79
ElecMinimize: 	Step increased G by 2.692195e-07, reducing alpha to 1.044609e-02.
	Linear fluid (dielectric constant: 78.4, screening length: 5.74355 Bohr) occupying 0.691828 of unit cell:	Completed after 0 iterations at t[s]:   2292.05
ElecMinimize: 	Step increased G by 2.383686e-07, reducing alpha to 1.044609e-03.
	Linear fluid (dielectric constant: 78.4, screening length: 5.74355 Bohr) occupying 0.691828 of unit cell:	Completed after 0 iterations at t[s]:   2319.33
ElecMinimize: 	Step increased G by 2.353081e-07, reducing alpha to 1.044609e-04.
ElecMinimize: 	Step failed to reduce G after 3 attempts. Quitting step.
ElecMinimize: 	Undoing step.
	Linear fluid (dielectric constant: 78.4, screening length: 5.74355 Bohr) occupying 0.691828 of unit cell:	Completed after 0 iterations at t[s]:   2355.54
ElecMinimize: 	Step failed: resetting search direction.
	FillingsUpdate:  mu: -0.171251800  nElectrons: 614.545294
	SubspaceRotationAdjust: set factor to 0.00357
ElecMinimize: Iter:  37  G: -2170.730021760735326  |grad|_K:  6.929e-08  alpha:  1.045e-04
	Linear fluid (dielectric constant: 78.4, screening length: 5.74355 Bohr) occupying 0.691826 of unit cell:	Completed after 2 iterations at t[s]:   2394.63
	Linear fluid (dielectric constant: 78.4, screening length: 5.74355 Bohr) occupying 0.691827 of unit cell:	Completed after 3 iterations at t[s]:   2410.24
ElecMinimize: 	Step increased G by 8.113147e-09, reducing alpha to 3.166223e-02.
	Linear fluid (dielectric constant: 78.4, screening length: 5.74355 Bohr) occupying 0.691828 of unit cell:	Completed after 0 iterations at t[s]:   2444.19
ElecMinimize: 	Step increased G by 3.958485e-08, reducing alpha to 3.166223e-03.
	Linear fluid (dielectric constant: 78.4, screening length: 5.74355 Bohr) occupying 0.691828 of unit cell:	Completed after 0 iterations at t[s]:   2474.47
ElecMinimize: 	Step increased G by 4.947515e-08, reducing alpha to 3.166223e-04.
ElecMinimize: 	Step failed to reduce G after 3 attempts. Quitting step.
ElecMinimize: 	Undoing step.
	Linear fluid (dielectric constant: 78.4, screening length: 5.74355 Bohr) occupying 0.691828 of unit cell:	Completed after 0 iterations at t[s]:   2507.79
ElecMinimize: 	Step failed along negative gradient direction.
ElecMinimize: Probably at roundoff error limit. (Stopping)
Setting wave functions to eigenvectors of Hamiltonian

# Ionic positions in lattice coordinates:
ion Bi   0.000749272947232   0.000867119297888   0.499967242850228 0
ion Bi   0.112947345056872   0.110193041173176   0.356602232130179 0
ion Bi   0.222027459913542   0.222611718914851   0.644214701362085 0
ion Bi   0.333333283360215   0.000000072021505   0.508628275907563 0
ion Bi   0.443526252511887   0.110193041173176   0.356602232130179 0
ion Bi   0.564587228990968   0.231254017652258   0.648342215454136 0
ion Bi   0.665050246496816   0.000867119297888   0.499967242850228 0
ion Bi   0.778127482246460   0.110411674249016   0.354501385488478 0
ion Bi   0.870825392098709   0.231254017652258   0.648342215454136 0
ion Bi   0.000749272947232   0.331717035158105   0.499967242850228 0
ion Bi   0.111721154703095   0.443224329335746   0.355402589427930 0
ion Bi   0.224662922267271   0.554335252567977   0.645273675078954 0
ion Bi   0.334200330636598   0.331717035158105   0.499967242850228 0
ion Bi   0.443744885587726   0.444794270907750   0.354501385488478 0
ion Bi   0.564587228990968   0.537492180759998   0.648342215454136 0
ion Bi   0.666666616693548   0.333333405354838   0.500362308057231 0
ion Bi   0.778127482246460   0.444794270907750   0.354501385488478 0
ion Bi   0.887668463906687   0.554335252567977   0.645273675078954 0
ion Bi  -0.000000049973118   0.666666738688172   0.499081457038451 0
ion Bi   0.111721154703095   0.778387943364384   0.355402589427930 0
ion Bi   0.222027459913542   0.888694248574832   0.644214701362085 0
ion Bi   0.334200330636598   0.667416061608522   0.499967242850228 0
ion Bi   0.443526252511887   0.779614133718162   0.356602232130179 0
ion Bi   0.555944930253562   0.888694248574832   0.644214701362085 0
ion Bi   0.665050246496816   0.667416061608522   0.499967242850228 0
ion Bi   0.776557540674456   0.778387943364384   0.355402589427930 0
ion Bi   0.887668463906687   0.891329710928561   0.645273675078954 0
ion Se   0.000409723955715   0.000256913099408   0.298514719610431 0
ion Se  -0.003996310234983   0.005599213190968   0.699969278571846 0
ion Se   0.101778062217805   0.115777682592710   0.567713186745693 0
ion Se   0.223940110902686   0.218786416936564   0.433639997729372 0
ion Se   0.333333283360215   0.000000072021505   0.298869397641418 0
ion Se   0.333333283360215   0.000000072021505   0.700245887615455 0
ion Se   0.449110893931420   0.115777682592710   0.567713186745693 0
ion Se   0.556513483590340   0.223180272251629   0.433663247052969 0
ion Se   0.666000001686813   0.000256913099408   0.298514719610431 0
ion Se   0.665063735785950   0.005599213190968   0.699969278571846 0
ion Se   0.779393937569451   0.107878763603032   0.563492147844441 0
ion Se   0.886972882899966   0.223180272251629   0.433663247052969 0
ion Se   0.000409723955715   0.332666790348102   0.298514719610431 0
ion Se   0.996003689765017   0.331730524447240   0.699969278571846 0
ion Se   0.111000125382477   0.444666387976981   0.564586948193417 0
ion Se   0.222582267469988   0.555375579966618   0.433540800889846 0
ion Se   0.333590124438118   0.332666790348102   0.298514719610431 0
ion Se   0.338932424529678   0.331730524447240   0.699969278571846 0
ion Se   0.441211974941743   0.446060726230741   0.563492147844441 0
ion Se   0.556513483590340   0.553639671561256   0.433663247052969 0
ion Se   0.666666616693548   0.333333405354838   0.298176060842393 0
ion Se   0.779393937569452   0.446060726230741   0.563492147844441 0
ion Se   0.888708791305329   0.555375579966618   0.433540800889846 0
ion Se  -0.000000049973118   0.666666738688172   0.299073215555062 0
ion Se  -0.000000049973118   0.666666738688172   0.700417343954979 0
ion Se   0.111000125382477   0.777666914043767   0.564586948193417 0
ion Se   0.223940110902686   0.890606899563975   0.433639997729372 0
ion Se   0.333590124438118   0.667076512617004   0.298514719610431 0
ion Se   0.338932424529678   0.662670478426307   0.699969278571846 0
ion Se   0.449110893931420   0.768444850879094   0.567713186745693 0
ion Se   0.552119628275274   0.890606899563975   0.433639997729372 0
ion Se   0.666000001686813   0.667076512617004   0.298514719610431 0
ion Se   0.665063735785950   0.662670478426307   0.699969278571846 0
ion Se   0.777999599315692   0.777666914043767   0.564586948193417 0
ion Se   0.888708791305329   0.889249056131278   0.433540800889846 0


# Forces in Lattice coordinates:
force Bi  -0.003649903908243  -0.011999500792355  -0.031511106681483 0
force Bi  -0.014631460420525   0.000000000000000  -0.083422461442500 0
force Bi  -0.000000000000000  -0.000577992292790   0.050566510749395 0
force Bi   0.000000000000000   0.000000000000000  -0.004188051194433 0
force Bi   0.014631460420525   0.014631460420525  -0.083422461442045 0
force Bi  -0.010749346269003  -0.010749346269000   0.010662795628917 0
force Bi   0.003649903908243  -0.008349596884113  -0.031511106681483 0
force Bi  -0.000000000000000   0.003057304133250  -0.054142630403708 0
force Bi   0.010749346269003   0.000000000000000   0.010662795628917 0
force Bi   0.008349596884113   0.011999500792355  -0.031511106681483 0
force Bi  -0.000000000000000   0.003756207599283  -0.047197365804291 0
force Bi   0.001756628724509   0.000000000000000   0.039521022984232 0
force Bi  -0.008349596884113   0.003649903908243  -0.031511106681486 0
force Bi   0.003057304133250   0.000000000000000  -0.054142630404163 0
force Bi  -0.000000000000000   0.010749346269003   0.010662795628917 0
force Bi   0.000000000000000   0.000000000000000  -0.015233671205331 0
force Bi  -0.003057304133250  -0.003057304133250  -0.054142630403708 0
force Bi  -0.001756628724509  -0.001756628724509   0.039521022984230 0
force Bi  -0.000000000000000   0.000000000000000  -0.002976703591219 0
force Bi  -0.003756207599283  -0.003756207599282  -0.047197365804291 0
force Bi   0.000577992292790   0.000577992292791   0.050566510749395 0
force Bi  -0.011999500792355  -0.003649903908243  -0.031511106681486 0
force Bi  -0.000000000000000  -0.014631460420525  -0.083422461442045 0
force Bi  -0.000577992292790   0.000000000000000   0.050566510749395 0
force Bi   0.011999500792355   0.008349596884113  -0.031511106681476 0
force Bi   0.003756207599283   0.000000000000000  -0.047197365803836 0
force Bi   0.000000000000000   0.001756628724509   0.039521022984232 0
force Se   0.006089141891188  -0.003786758922883  -0.023378372241992 0
force Se  -0.005018953960669  -0.004947299819957   0.031725376364347 0
force Se   0.017414692559550   0.000000000000000   0.029884897941925 0
force Se   0.000000000000000  -0.000313782967256   0.028447863502570 0
force Se  -0.000000000000000   0.000000000000000  -0.047475481224653 0
force Se  -0.000000000000000   0.000000000000000   0.035366503437503 0
force Se  -0.017414692559550  -0.017414692559551   0.029884897941925 0
force Se  -0.010141930426514  -0.010141930426514  -0.023415940358072 0
force Se  -0.006089141891188  -0.009875900814070  -0.023378372241992 0
force Se   0.005018953960670   0.000071654140712   0.031725376364118 0
force Se  -0.000000000000000   0.022016302567344   0.076682356737279 0
force Se   0.010141930426514   0.000000000000000  -0.023415940358072 0
force Se   0.009875900814070   0.003786758922883  -0.023378372241765 0
force Se  -0.000071654140712   0.004947299819957   0.031725376364120 0
force Se   0.000000000000000  -0.002091085584977   0.034197947591573 0
force Se   0.003359304789352   0.000000000000000  -0.008506714591567 0
force Se  -0.009875900814070  -0.006089141891188  -0.023378372241992 0
force Se   0.000071654140712   0.005018953960669   0.031725376363891 0
force Se   0.022016302567344   0.000000000000000   0.076682356737222 0
force Se   0.000000000000000   0.010141930426514  -0.023415940358072 0
force Se   0.000000000000000   0.000000000000000  -0.037054925743130 0
force Se  -0.022016302567344  -0.022016302567344   0.076682356737279 0
force Se  -0.003359304789352  -0.003359304789352  -0.008506714591567 0
force Se   0.000000000000000   0.000000000000000  -0.013155861355926 0
force Se   0.000000000000000   0.000000000000000   0.047266607091817 0
force Se   0.002091085584976   0.002091085584976   0.034197947591573 0
force Se   0.000313782967257   0.000313782967257   0.028447863502627 0
force Se  -0.003786758922883   0.006089141891188  -0.023378372241992 0
force Se  -0.004947299819958  -0.005018953960669   0.031725376364118 0
force Se   0.000000000000000   0.017414692559550   0.029884897941925 0
force Se  -0.000313782967257   0.000000000000000   0.028447863502570 0
force Se   0.003786758922883   0.009875900814070  -0.023378372241765 0
force Se   0.004947299819958  -0.000071654140713   0.031725376364120 0
force Se  -0.002091085584977   0.000000000000000   0.034197947591573 0
force Se   0.000000000000000   0.003359304789352  -0.008506714591567 0

# Energy components:
   A_diel =        0.0485005420450491
   Eewald =    20391.8087666552200972
       EH =    22355.7589682300276763
     Eloc =   -45622.6490460675995564
      Enl =      702.5369074083291707
      Exc =    -1391.3289738822193158
 Exc_core =      988.8701589063182382
       KE =      299.0388751162316794
  MuShift =        0.0056454704529821
-------------------------------------
     Etot =    -2275.9101976211900364
       TS =        0.0618116838534492
-------------------------------------
        F =    -2275.9720093050436844
      muN =     -105.2419875939170453
-------------------------------------
        G =    -2170.7300217111264828

IonicMinimize: Iter:   0  G: -2170.730021711126483  |grad|_K:  0.000e+00  t[s]:   2538.56
IonicMinimize: Converged (|grad|_K<1.000000e-04).

#--- Lowdin population analysis ---
# oxidation-state Bi +0.621 +0.663 +0.629 +0.540 +0.663 +0.420 +0.621 +0.659 +0.420 +0.621 +0.664 +0.655 +0.621 +0.659 +0.420 +0.622 +0.659 +0.655 +0.620 +0.664 +0.629 +0.621 +0.663 +0.629 +0.621 +0.664 +0.655
# oxidation-state Se -0.336 -0.312 -0.432 -0.506 -0.320 -0.315 -0.432 -0.493 -0.336 -0.312 -0.452 -0.493 -0.336 -0.312 -0.488 -0.499 -0.336 -0.312 -0.452 -0.493 -0.332 -0.452 -0.499 -0.337 -0.340 -0.488 -0.506 -0.336 -0.312 -0.432 -0.506 -0.336 -0.312 -0.488 -0.499


Dumping 'NbTe2.fillings' ... done
Dumping 'NbTe2.wfns' ... done
Dumping 'NbTe2.fluidState' ... done
Dumping 'NbTe2.eigenvals' ... done
End date and time: Wed Jul 15 19:56:47 2020  (Duration: 0-0:42:27.31)
Done!
