
*************** JDFTx 1.5.0  ***************

Start date and time: Wed Jul 15 19:32:45 2020
Executable jdftx_gpu with command-line: -i Charged.in -o Charged.out
Running on hosts (process indices):  amax (0-5)
Divided in process groups (process indices):  0 (0)  1 (1)  2 (2)  3 (3)  4 (4)  5 (5)
gpuInit: Found compatible cuda device 0 'Tesla K80'
gpuInit: Found compatible cuda device 1 'Tesla K80'
gpuInit: Found compatible cuda device 2 'Tesla K80'
gpuInit: Found compatible cuda device 3 'Tesla K80'
gpuInit: Found compatible cuda device 4 'Tesla K80'
gpuInit: Found compatible cuda device 5 'Tesla K80'
gpuInit: Selected device 0
Resource initialization completed at t[s]:      7.34
Run totals: 6 processes, 24 threads, 6 GPUs


Input parsed successfully to the following command list (including defaults):

basis kpoint-dependent
cache-projectors no
coords-type Lattice
core-overlap-check none
coulomb-interaction Slab 001
coulomb-truncation-embed 0 0 0.5
davidson-band-ratio 1.1
dump End State
dump-name NbTe2.$VAR
elec-cutoff 20 100
elec-eigen-algo Davidson
elec-ex-corr gga-PBE
elec-smearing Gauss 0.0073499
electronic-minimize  \
	dirUpdateScheme      FletcherReeves \
	linminMethod         DirUpdateRecommended \
	nIterations          500 \
	history              15 \
	knormThreshold       0 \
	energyDiffThreshold  1e-08 \
	nEnergyDiff          2 \
	alphaTstart          1 \
	alphaTmin            1e-10 \
	updateTestStepSize   yes \
	alphaTreduceFactor   0.1 \
	alphaTincreaseFactor 3 \
	nAlphaAdjustMax      3 \
	wolfeEnergy          0.0001 \
	wolfeGradient        0.9 \
	fdTest               no
exchange-regularization WignerSeitzTruncated
fluid LinearPCM 298.000000 1.013250
fluid-anion F- 1 MeanFieldLJ \
	epsBulk 1 \
	pMol 0 \
	epsInf 1 \
	Pvap 0 \
	sigmaBulk 0 \
	Rvdw 2.24877 \
	Res 0 \
	tauNuc 343133
fluid-cation Na+ 1 MeanFieldLJ \
	epsBulk 1 \
	pMol 0 \
	epsInf 1 \
	Pvap 0 \
	sigmaBulk 0 \
	Rvdw 2.19208 \
	Res 0 \
	tauNuc 343133
fluid-ex-corr lda-TF lda-PZ
fluid-gummel-loop 10 1.000000e-05
fluid-minimize  \
	dirUpdateScheme      PolakRibiere \
	linminMethod         DirUpdateRecommended \
	nIterations          400 \
	history              15 \
	knormThreshold       1e-11 \
	energyDiffThreshold  0 \
	nEnergyDiff          2 \
	alphaTstart          1 \
	alphaTmin            1e-10 \
	updateTestStepSize   yes \
	alphaTreduceFactor   0.1 \
	alphaTincreaseFactor 3 \
	nAlphaAdjustMax      6 \
	wolfeEnergy          0.0001 \
	wolfeGradient        0.9 \
	fdTest               no
fluid-solvent H2O 55.338 ScalarEOS \
	epsBulk 78.4 \
	pMol 0.92466 \
	epsInf 1.77 \
	Pvap 1.06736e-10 \
	sigmaBulk 4.62e-05 \
	Rvdw 2.61727 \
	Res 1.42 \
	tauNuc 343133 \
	poleEl 15 7 1
forces-output-coords Positions
initial-state NbTe2.$VAR
ion Bi   0.000747643753684   0.000868730443048   0.499967242850228 0
ion Bi   0.112944068029989   0.110192971485003   0.356602232130179 0
ion Bi   0.222025829053326   0.222608338893345   0.644214701362085 0
ion Bi   0.333329996000003  -0.000000000000000   0.508628275907563 0
ion Bi   0.443522972485003   0.110192971485003   0.356602232130179 0
ion Bi   0.564592253797421   0.231252309797419   0.648342215454136 0
ion Bi   0.665053666803271   0.000868730443048   0.499967242850228 0
ion Bi   0.778129174386246   0.110411621227509   0.354501385488478 0
ion Bi   0.870825482405160   0.231252309797419   0.648342215454136 0
ion Bi   0.000747637753683   0.331713639803266   0.499967242850228 0
ion Bi   0.111719524176215   0.443220952647573   0.355402589427930 0
ion Bi   0.224662976907057   0.554338509546475   0.645273675078954 0
ion Bi   0.334198702443050   0.331713639803266   0.499967242850228 0
ion Bi   0.443741593227510   0.444789226386244   0.354501385488478 0
ion Bi   0.564592310797422   0.537495407405161   0.648342215454136 0
ion Bi   0.666670054000001   0.333330013999998   0.500362308057231 0
ion Bi   0.778129181386243   0.444789226386244   0.354501385488478 0
ion Bi   0.887668567546469   0.554338509546475   0.645273675078954 0
ion Bi   0.000000000999996   0.666670054000001   0.499081457038451 0
ion Bi   0.111719554176211   0.778389528176212   0.355402589427930 0
ion Bi   0.222025840053323   0.888695889053327   0.644214701362085 0
ion Bi   0.334198726443051   0.667417697753685   0.499967242850228 0
ion Bi   0.443522936485007   0.779614061029988   0.356602232130179 0
ion Bi   0.555948330893345   0.888695889053327   0.644214701362085 0
ion Bi   0.665053630803268   0.667417697753685   0.499967242850228 0
ion Bi   0.776560901647572   0.778389528176212   0.355402589427930 0
ion Bi   0.887668558546472   0.891333016907056   0.645273675078954 0
ion Se   0.000408094762166   0.000258524244569   0.298514719610431 0
ion Se  -0.003997939428532   0.005600824336129   0.699969278571846 0
ion Se   0.101774785190921   0.115777612904537   0.567713186745693 0
ion Se   0.223938480042470   0.218783036915057   0.433639997729372 0
ion Se   0.333329996000003  -0.000000000000000   0.298869397641418 0
ion Se   0.333329996000003  -0.000000000000000   0.700245887615455 0
ion Se   0.449107613904537   0.115777612904537   0.567713186745693 0
ion Se   0.556518508396793   0.223178564396790   0.433663247052969 0
ion Se   0.666003421993268   0.000258524244569   0.298514719610431 0
ion Se   0.665067156092406   0.005600824336129   0.699969278571846 0
ion Se   0.779395629709238   0.107878710581525   0.563492147844441 0
ion Se   0.886972973206418   0.223178564396790   0.433663247052969 0
ion Se   0.000408088762166   0.332663394993263   0.298514719610431 0
ion Se   0.996002054571468   0.331727129092400   0.699969278571846 0
ion Se   0.110998494855598   0.444663011288809   0.564586948193417 0
ion Se   0.222582322109773   0.555378836945116   0.433540800889846 0
ion Se   0.333588496244570   0.332663394993263   0.298514719610431 0
ion Se   0.338930796336130   0.331727129092400   0.699969278571846 0
ion Se   0.441208682581527   0.446055681709235   0.563492147844441 0
ion Se   0.556518565396794   0.553642898206419   0.433663247052969 0
ion Se   0.666670054000001   0.333330013999998   0.298176060842393 0
ion Se   0.779395636709235   0.446055681709235   0.563492147844441 0
ion Se   0.888708894945111   0.555378836945116   0.433540800889846 0
ion Se   0.000000000999996   0.666670054000001   0.299073215555062 0
ion Se   0.000000000999996   0.666670054000001   0.700417343954979 0
ion Se   0.110998524855593   0.777668498855594   0.564586948193417 0
ion Se   0.223938491042467   0.890608540042471   0.433639997729372 0
ion Se   0.333588520244572   0.667078148762167   0.298514719610431 0
ion Se   0.338930820336132   0.662672114571469   0.699969278571846 0
ion Se   0.449107577904541   0.768444778190920   0.567713186745693 0
ion Se   0.552123028915057   0.890608540042471   0.433639997729372 0
ion Se   0.666003385993265   0.667078148762167   0.298514719610431 0
ion Se   0.665067120092403   0.662672114571469   0.699969278571846 0
ion Se   0.778002960288808   0.777668498855594   0.564586948193417 0
ion Se   0.888708885945114   0.889252362109773   0.433540800889846 0
ion-species GBRV/$ID_pbe.uspp
ion-width Ecut
ionic-minimize  \
	dirUpdateScheme      L-BFGS \
	linminMethod         DirUpdateRecommended \
	nIterations          0 \
	history              15 \
	knormThreshold       0.0001 \
	energyDiffThreshold  1e-06 \
	nEnergyDiff          2 \
	alphaTstart          1 \
	alphaTmin            1e-10 \
	updateTestStepSize   yes \
	alphaTreduceFactor   0.1 \
	alphaTincreaseFactor 3 \
	nAlphaAdjustMax      3 \
	wolfeEnergy          0.0001 \
	wolfeGradient        0.9 \
	fdTest               no
kpoint   0.000000000000   0.000000000000   0.000000000000  1.00000000000000
kpoint-folding 3 3 1 
latt-move-scale 1 1 1
latt-scale 1 1 1 
lattice Triclinic 24.3894 24.3896 47.7024 90 90 60.0003
lattice-minimize  \
	dirUpdateScheme      L-BFGS \
	linminMethod         DirUpdateRecommended \
	nIterations          0 \
	history              15 \
	knormThreshold       0 \
	energyDiffThreshold  1e-06 \
	nEnergyDiff          2 \
	alphaTstart          1 \
	alphaTmin            1e-10 \
	updateTestStepSize   yes \
	alphaTreduceFactor   0.1 \
	alphaTincreaseFactor 3 \
	nAlphaAdjustMax      3 \
	wolfeEnergy          0.0001 \
	wolfeGradient        0.9 \
	fdTest               no
lcao-params -1 1e-06 0.0073499
pcm-variant CANDLE
spintype no-spin
subspace-rotation-factor 1 yes
symmetries automatic
symmetry-threshold 0.0001
target-mu -0.24475 no




---------- Setting up symmetries ----------

Found 24 point-group symmetries of the bravais lattice
Found 6 space-group symmetries with basis
Applied RMS atom displacement 9.50882e-05 bohrs to make symmetries exact.

---------- Initializing the Grid ----------
R = 
[    24.3894    12.1947          0  ]
[          0     21.122          0  ]
[          0          0    47.7024  ]
unit cell volume = 24574
G =
[    0.25762  -0.148735          0  ]
[          0   0.297471          0  ]
[          0          0   0.131716  ]
Minimum fftbox size, Smin = [  112  112  216  ]
Chosen fftbox size, S = [  112  112  216  ]

---------- Initializing tighter grid for wavefunction operations ----------
R = 
[    24.3894    12.1947          0  ]
[          0     21.122          0  ]
[          0          0    47.7024  ]
unit cell volume = 24574
G =
[    0.25762  -0.148735          0  ]
[          0   0.297471          0  ]
[          0          0   0.131716  ]
Minimum fftbox size, Smin = [  100  100  196  ]
Chosen fftbox size, S = [  100  100  196  ]

---------- Exchange Correlation functional ----------
Initalized PBE GGA exchange.
Initalized PBE GGA correlation.

---------- Setting up pseudopotentials ----------
Width of ionic core gaussian charges (only for fluid interactions / plotting) set to 0.397384

Reading pseudopotential file '/home/guoxy/vasp/jdftx-1.5.0/build/pseudopotentials/GBRV/bi_pbe.uspp':
  Title: Bi.  Created by USPP 7.3.6 on 14-9-2013
  Reference state energy: -92.204004.  15 valence electrons in orbitals:
    |520>  occupation: 10  eigenvalue: -1.293263
    |600>  occupation: 2  eigenvalue: -0.812524
    |610>  occupation: 2  eigenvalue: -0.420386
  lMax: 2  lLocal: 3  QijEcut: 5
  6 projectors sampled on a log grid with 747 points:
    l: 0  eig: -0.812524  rCut: 2.5
    l: 0  eig: 0.500000  rCut: 2.5
    l: 1  eig: -0.420386  rCut: 2.5
    l: 1  eig: 1.000000  rCut: 2.5
    l: 2  eig: -1.293263  rCut: 2.3
    l: 2  eig: -0.500000  rCut: 2.3
  Partial core density with radius 1
  Transforming core density to a uniform radial grid of dG=0.02 with 1614 points.
  Transforming local potential to a uniform radial grid of dG=0.02 with 1614 points.
  Transforming nonlocal projectors to a uniform radial grid of dG=0.02 with 432 points.
  Transforming density augmentations to a uniform radial grid of dG=0.02 with 1614 points.
  Transforming atomic orbitals to a uniform radial grid of dG=0.02 with 432 points.
  Core radius for overlap checks: 2.50 bohrs.

Reading pseudopotential file '/home/guoxy/vasp/jdftx-1.5.0/build/pseudopotentials/GBRV/se_pbe.uspp':
  Title: Se.  Created by USPP 7.3.6 on 14-9-2013
  Reference state energy: -21.672887.  6 valence electrons in orbitals:
    |400>  occupation: 2  eigenvalue: -0.635284
    |410>  occupation: 4  eigenvalue: -0.239295
  lMax: 2  lLocal: 3  QijEcut: 5
  6 projectors sampled on a log grid with 625 points:
    l: 0  eig: -0.635278  rCut: 1.5
    l: 0  eig: 0.500000  rCut: 1.5
    l: 1  eig: -0.239295  rCut: 1.5
    l: 1  eig: 0.500000  rCut: 1.5
    l: 2  eig: 0.000000  rCut: 1.8
    l: 2  eig: 1.000000  rCut: 1.8
  Partial core density with radius 1.2
  Transforming core density to a uniform radial grid of dG=0.02 with 1614 points.
  Transforming local potential to a uniform radial grid of dG=0.02 with 1614 points.
  Transforming nonlocal projectors to a uniform radial grid of dG=0.02 with 432 points.
  Transforming density augmentations to a uniform radial grid of dG=0.02 with 1614 points.
  Transforming atomic orbitals to a uniform radial grid of dG=0.02 with 432 points.
  Core radius for overlap checks: 1.80 bohrs.

Initialized 2 species with 62 total atoms.

Folded 1 k-points by 3x3x1 to 9 k-points.

---------- Setting up k-points, bands, fillings ----------
Adding inversion symmetry to k-mesh for non-inversion-symmetric unit cell.
Reduced to 3 k-points under symmetry. 
Computing the number of bands and number of electrons
Reading initial fillings from file NbTe2.fillings.
nElectrons: 615.000000   nBands: 383   nStates: 3

----- Setting up reduced wavefunction bases (one per k-point) -----
average nbasis = 104963.444 , ideal nbasis = 104982.107

---------- Setting up coulomb interaction ----------
Fluid mode embedding: using embedded box, but periodic Coulomb kernel.
(Fluid response is responsible for (approximate) separation between periodic images.)
Setting up double-sized grid for truncated Coulomb potentials:
R = 
[    24.3894    12.1947          0  ]
[          0     21.122          0  ]
[          0          0    95.4047  ]
unit cell volume = 49148
G =
[    0.25762  -0.148735          0  ]
[          0   0.297471          0  ]
[          0          0  0.0658582  ]
Chosen fftbox size, S = [  112  112  432  ]
Integer grid location selected as the embedding center:
   Grid: [  0  0  108  ]
   Lattice: [  0  0  0.5  ]
   Cartesian: [  0  0  23.8512  ]
Constructing Wigner-Seitz cell: 8 faces (6 quadrilaterals, 2 hexagons)
Range-separation parameter for embedded mesh potentials due to point charges: 0.592861 bohrs.

Initializing van der Waals corrections
	NOTE: vdW corrections apply only for interactions with fluid.
	Bi:  C6:  893.28 Eh-a0^6  R0: 3.555 a0 (WARNING: beyond Grimme's data set)
	Se:  C6:  219.24 Eh-a0^6  R0: 3.347 a0

---------- Setting up ewald sum ----------
Optimum gaussian width for ewald sums = 7.345368 bohr.
Real space sum over 605 unit cells with max indices [  5  5  2  ]
Reciprocal space sum over 9675 terms with max indices [  7  7  21  ]

---------- Allocating electronic variables ----------
Initializing wave functions:  reading from 'NbTe2.wfns'
----- createFluidSolver() ----- (Fluid-side solver setup)
   Initializing fluid molecule 'H2O'
     Initializing site 'O'
       Electron density: proportional to exp(-r/0.36935)*erfc((r-0.51523)/0.36823) with norm 6.826
       Charge density: gaussian nuclear width 0.478731 with net site charge 0.826
       Polarizability: cuspless exponential with width 0.32 and norm 3.73
       Hard sphere radius: 2.57003 bohrs
       Positions in reference frame:
         [ +0.000000 +0.000000 +0.000000 ]
     Initializing site 'H'
       Electron density: proportional to exp(-r/0.34641)*erfc((r-0)/0.390882) with norm 0.587
       Charge density: gaussian nuclear width 0.377945 with net site charge -0.413
       Polarizability: cuspless exponential with width 0.39 and norm 3.3
       Positions in reference frame:
         [ +0.000000 -1.441945 +1.122523 ]
         [ +0.000000 +1.441945 +1.122523 ]
     Net charge: 0   dipole magnitude: 0.927204
     Initializing spherical shell mfKernel with radius 2.61727 Bohr
     deltaS corrections:
       site 'O': -7.54299
       site 'H': -6.83917
   Initializing fluid molecule 'Na+'
     Initializing site 'Na'
       Electron density: proportional to exp(-r/0.19682)*erfc((r-0.71491)/0.41314) with norm 8.1383
       Charge density: gaussian nuclear width 0.365347 with net site charge -1
       Hard sphere radius: 1.86327 bohrs
       Positions in reference frame:
         [ +0.000000 +0.000000 +0.000000 ]
     Net charge: -1   dipole magnitude: 0
     Initializing gaussian mfKernel with width: 1.55004 Bohr
     deltaS corrections:
       site 'Na': -22.3555
   Initializing fluid molecule 'F-'
     Initializing site 'F'
       Electron density: proportional to exp(-r/0.38886)*erfc((r-0)/0.438782) with norm 8
       Charge density: gaussian nuclear width 0.374796 with net site charge 1
       Hard sphere radius: 2.39995 bohrs
       Positions in reference frame:
         [ +0.000000 +0.000000 +0.000000 ]
     Net charge: 1   dipole magnitude: 0
     Initializing gaussian mfKernel with width: 1.59012 Bohr
     deltaS corrections:
       site 'F': -9.04335

Correction to mu due to finite nuclear width = -0.0124156
   Cavity determined by nc: 0.00142 and sigma: 0.707107
   Nonlocal vdW cavity from gaussian model electron density with norm = 8 and sigma = 0.993594 bohr
   Charge asymmetry in cavity with sensitivity pCavity = 36.5 e-bohr/Eh
   Electrostatic cavity expanded by eta = 1.46 bohrs
   Weighted density cavitation model constrained by Nbulk: 0.0049383 bohr^-3, Pvap: 3.14029 kPa, Rvdw: 2.61727 bohr and sigmaBulk: 4.62e-05 Eh/bohr^2 at T: 298 K.
   Weighted density dispersion model using vdW pair potentials with single solvent site with sqrtC6eff: 0.77 SI.
Reading fluid state from 'NbTe2.fluidState'


---- Citations for features of the code used in this run ----

   Software package:
      R. Sundararaman, K. Letchworth-Weaver, K.A. Schwarz, D. Gunceler, Y. Ozhabes and T.A. Arias, 'JDFTx: software for joint density-functional theory', SoftwareX 6, 278 (2017)

   gga-PBE exchange-correlation functional:
      J.P. Perdew, K. Burke and M. Ernzerhof, Phys. Rev. Lett. 77, 3865 (1996)

   Pseudopotentials:
      KF Garrity, JW Bennett, KM Rabe and D Vanderbilt, Comput. Mater. Sci. 81, 446 (2014)

   Truncated Coulomb potentials:
      R. Sundararaman and T.A. Arias, Phys. Rev. B 87, 165122 (2013)

   Van der Waals correction pair-potentials:
      S. Grimme, J. Comput. Chem. 27, 1787 (2006)

   Charge-asymmetric nonlocally-determined local-electric (CANDLE) solvation model:
      R. Sundararaman and W.A. Goddard III, J. Chem. Phys. 142, 064107 (2015)

   Total energy minimization with Auxiliary Hamiltonian:
      C. Freysoldt, S. Boeck, and J. Neugebauer, Phys. Rev. B 79, 241103(R) (2009)

   Grand-canonical (fixed-potential) DFT:
      R. Sundararaman, W. A. Goddard III and T. A. Arias, J. Chem. Phys. 146, 114104 (2017)

This list may not be complete. Please suggest additional citations or
report any other bugs at https://github.com/shankar1729/jdftx/issues

Initialization completed successfully at t[s]:     26.43

Shifting auxilliary hamiltonian by -0.082977 to set nElectrons=615.000000
	Linear fluid (dielectric constant: 78.4, screening length: 5.74355 Bohr) occupying 0.690876 of unit cell:	Completed after 3 iterations at t[s]:     34.55

-------- Electronic minimization -----------
	Linear fluid (dielectric constant: 78.4, screening length: 5.74355 Bohr) occupying 0.690876 of unit cell:	Completed after 0 iterations at t[s]:     46.12
	FillingsUpdate:  mu: -0.244750400  nElectrons: 615.000000
ElecMinimize: Iter:   0  G: -2125.526230785208554  |grad|_K:  1.297e-04  alpha:  1.000e+00
	Linear fluid (dielectric constant: 78.4, screening length: 5.74355 Bohr) occupying 0.698172 of unit cell:	Completed after 27 iterations at t[s]:     89.85
	Linear fluid (dielectric constant: 78.4, screening length: 5.74355 Bohr) occupying 0.690992 of unit cell:	Completed after 30 iterations at t[s]:    119.44
	FillingsUpdate:  mu: -0.244750400  nElectrons: 613.781823
	SubspaceRotationAdjust: set factor to 0.549
ElecMinimize: Iter:   1  G: -2125.578208866049863  |grad|_K:  4.535e-05  alpha:  2.591e-02  linmin: -9.479e-04  t[s]:    140.67
	Linear fluid (dielectric constant: 78.4, screening length: 5.74355 Bohr) occupying 0.691109 of unit cell:	Completed after 16 iterations at t[s]:    159.00
ElecMinimize: 	Predicted alpha/alphaT>3.000000, increasing alphaT to 7.773444e-02.
	Linear fluid (dielectric constant: 78.4, screening length: 5.74355 Bohr) occupying 0.691344 of unit cell:	Completed after 18 iterations at t[s]:    185.35
	Linear fluid (dielectric constant: 78.4, screening length: 5.74355 Bohr) occupying 0.691934 of unit cell:	Completed after 18 iterations at t[s]:    207.44
	FillingsUpdate:  mu: -0.244750400  nElectrons: 612.492705
	SubspaceRotationAdjust: set factor to 0.357
ElecMinimize: Iter:   2  G: -2125.631567013600034  |grad|_K:  1.790e-05  alpha:  2.078e-01  linmin: -1.518e-04  t[s]:    232.88
	Linear fluid (dielectric constant: 78.4, screening length: 5.74355 Bohr) occupying 0.692543 of unit cell:	Completed after 18 iterations at t[s]:    251.53
ElecMinimize: 	Predicted alpha/alphaT>3.000000, increasing alphaT to 6.233611e-01.
	Linear fluid (dielectric constant: 78.4, screening length: 5.74355 Bohr) occupying 0.693763 of unit cell:	Completed after 20 iterations at t[s]:    271.97
	Linear fluid (dielectric constant: 78.4, screening length: 5.74355 Bohr) occupying 0.694579 of unit cell:	Completed after 18 iterations at t[s]:    300.57
	FillingsUpdate:  mu: -0.244750400  nElectrons: 611.193848
	SubspaceRotationAdjust: set factor to 0.289
ElecMinimize: Iter:   3  G: -2125.667757621663895  |grad|_K:  2.010e-05  alpha:  9.020e-01  linmin: -7.456e-04  t[s]:    318.25
	Linear fluid (dielectric constant: 78.4, screening length: 5.74355 Bohr) occupying 0.699482 of unit cell:	Completed after 26 iterations at t[s]:    340.72
	Linear fluid (dielectric constant: 78.4, screening length: 5.74355 Bohr) occupying 0.695575 of unit cell:	Completed after 24 iterations at t[s]:    364.10
	FillingsUpdate:  mu: -0.244750400  nElectrons: 611.314479
	SubspaceRotationAdjust: set factor to 0.194
ElecMinimize: Iter:   4  G: -2125.677111255324235  |grad|_K:  1.724e-05  alpha:  1.790e-01  linmin: -6.488e-05  t[s]:    387.45
	Linear fluid (dielectric constant: 78.4, screening length: 5.74355 Bohr) occupying 0.696511 of unit cell:	Completed after 18 iterations at t[s]:    408.82
	Linear fluid (dielectric constant: 78.4, screening length: 5.74355 Bohr) occupying 0.697319 of unit cell:	Completed after 18 iterations at t[s]:    430.02
	FillingsUpdate:  mu: -0.244750400  nElectrons: 610.900644
	SubspaceRotationAdjust: set factor to 0.26
ElecMinimize: Iter:   5  G: -2125.689312355290440  |grad|_K:  8.446e-06  alpha:  3.359e-01  linmin: -3.448e-04  t[s]:    456.99
	Linear fluid (dielectric constant: 78.4, screening length: 5.74355 Bohr) occupying 0.697930 of unit cell:	Completed after 16 iterations at t[s]:    479.21
	Linear fluid (dielectric constant: 78.4, screening length: 5.74355 Bohr) occupying 0.698207 of unit cell:	Completed after 15 iterations at t[s]:    497.34
	FillingsUpdate:  mu: -0.244750400  nElectrons: 610.617838
	SubspaceRotationAdjust: set factor to 0.174
ElecMinimize: Iter:   6  G: -2125.693651542870157  |grad|_K:  1.031e-05  alpha:  4.920e-01  linmin: -2.892e-04  t[s]:    519.40
	Linear fluid (dielectric constant: 78.4, screening length: 5.74355 Bohr) occupying 0.699612 of unit cell:	Completed after 22 iterations at t[s]:    548.43
	Linear fluid (dielectric constant: 78.4, screening length: 5.74355 Bohr) occupying 0.698845 of unit cell:	Completed after 21 iterations at t[s]:    570.58
	FillingsUpdate:  mu: -0.244750400  nElectrons: 610.689149
	SubspaceRotationAdjust: set factor to 0.137
ElecMinimize: Iter:   7  G: -2125.696497669651308  |grad|_K:  4.513e-06  alpha:  2.177e-01  linmin: -2.090e-05  t[s]:    589.80
	Linear fluid (dielectric constant: 78.4, screening length: 5.74355 Bohr) occupying 0.698951 of unit cell:	Completed after 12 iterations at t[s]:    605.35
ElecMinimize: 	Predicted alpha/alphaT>3.000000, increasing alphaT to 6.530441e-01.
	Linear fluid (dielectric constant: 78.4, screening length: 5.74355 Bohr) occupying 0.699155 of unit cell:	Completed after 15 iterations at t[s]:    627.76
	Linear fluid (dielectric constant: 78.4, screening length: 5.74355 Bohr) occupying 0.699172 of unit cell:	Completed after 2 iterations at t[s]:    644.90
	FillingsUpdate:  mu: -0.244750400  nElectrons: 610.655551
	SubspaceRotationAdjust: set factor to 0.157
ElecMinimize: Iter:   8  G: -2125.698198235861128  |grad|_K:  3.913e-06  alpha:  6.898e-01  linmin: -2.012e-05  t[s]:    662.64
	Linear fluid (dielectric constant: 78.4, screening length: 5.74355 Bohr) occupying 0.699281 of unit cell:	Completed after 16 iterations at t[s]:    689.22
	Linear fluid (dielectric constant: 78.4, screening length: 5.74355 Bohr) occupying 0.699240 of unit cell:	Completed after 14 iterations at t[s]:    705.40
	FillingsUpdate:  mu: -0.244750400  nElectrons: 610.548791
	SubspaceRotationAdjust: set factor to 0.12
	SubspaceRotationAdjust: resetting CG because factor has changed by 0.120268
	Linear fluid (dielectric constant: 78.4, screening length: 5.74355 Bohr) occupying 0.699240 of unit cell:	Completed after 0 iterations at t[s]:    737.51
ElecMinimize: 	State modified externally: resetting search direction.
ElecMinimize: Iter:   9  G: -2125.698979212532322  |grad|_K:  2.759e-06  alpha:  4.205e-01
	Linear fluid (dielectric constant: 78.4, screening length: 5.74355 Bohr) occupying 0.699201 of unit cell:	Completed after 14 iterations at t[s]:    777.61
	Linear fluid (dielectric constant: 78.4, screening length: 5.74355 Bohr) occupying 0.699200 of unit cell:	Completed after 2 iterations at t[s]:    797.96
	FillingsUpdate:  mu: -0.244750400  nElectrons: 610.618814
	SubspaceRotationAdjust: set factor to 0.107
ElecMinimize: Iter:  10  G: -2125.699376483105880  |grad|_K:  1.997e-06  alpha:  4.319e-01  linmin: -1.724e-04  t[s]:    815.95
	Linear fluid (dielectric constant: 78.4, screening length: 5.74355 Bohr) occupying 0.699126 of unit cell:	Completed after 13 iterations at t[s]:    834.80
	Linear fluid (dielectric constant: 78.4, screening length: 5.74355 Bohr) occupying 0.699069 of unit cell:	Completed after 12 iterations at t[s]:    856.60
	FillingsUpdate:  mu: -0.244750400  nElectrons: 610.606249
	SubspaceRotationAdjust: set factor to 0.102
ElecMinimize: Iter:  11  G: -2125.699742707038695  |grad|_K:  1.354e-06  alpha:  7.608e-01  linmin:  2.583e-04  t[s]:    877.20
	Linear fluid (dielectric constant: 78.4, screening length: 5.74355 Bohr) occupying 0.698989 of unit cell:	Completed after 12 iterations at t[s]:    896.58
	Linear fluid (dielectric constant: 78.4, screening length: 5.74355 Bohr) occupying 0.698972 of unit cell:	Completed after 3 iterations at t[s]:    912.11
	FillingsUpdate:  mu: -0.244750400  nElectrons: 610.636708
	SubspaceRotationAdjust: set factor to 0.118
ElecMinimize: Iter:  12  G: -2125.699944541311652  |grad|_K:  1.400e-06  alpha:  9.228e-01  linmin: -4.107e-05  t[s]:    934.38
	Linear fluid (dielectric constant: 78.4, screening length: 5.74355 Bohr) occupying 0.698879 of unit cell:	Completed after 9 iterations at t[s]:    951.98
	Linear fluid (dielectric constant: 78.4, screening length: 5.74355 Bohr) occupying 0.698894 of unit cell:	Completed after 3 iterations at t[s]:    973.66
	FillingsUpdate:  mu: -0.244750400  nElectrons: 610.657053
	SubspaceRotationAdjust: set factor to 0.148
ElecMinimize: Iter:  13  G: -2125.700128207432499  |grad|_K:  1.007e-06  alpha:  7.732e-01  linmin: -5.659e-06  t[s]:    995.03
	Linear fluid (dielectric constant: 78.4, screening length: 5.74355 Bohr) occupying 0.698880 of unit cell:	Completed after 13 iterations at t[s]:   1013.35
	Linear fluid (dielectric constant: 78.4, screening length: 5.74355 Bohr) occupying 0.698882 of unit cell:	Completed after 2 iterations at t[s]:   1031.28
	FillingsUpdate:  mu: -0.244750400  nElectrons: 610.652799
	SubspaceRotationAdjust: set factor to 0.104
ElecMinimize: Iter:  14  G: -2125.700212125190319  |grad|_K:  1.020e-06  alpha:  6.833e-01  linmin:  2.573e-04  t[s]:   1052.01
	Linear fluid (dielectric constant: 78.4, screening length: 5.74355 Bohr) occupying 0.698900 of unit cell:	Completed after 13 iterations at t[s]:   1074.29
	Linear fluid (dielectric constant: 78.4, screening length: 5.74355 Bohr) occupying 0.698891 of unit cell:	Completed after 13 iterations at t[s]:   1090.44
	FillingsUpdate:  mu: -0.244750400  nElectrons: 610.683050
	SubspaceRotationAdjust: set factor to 0.0753
ElecMinimize: Iter:  15  G: -2125.700252382517647  |grad|_K:  5.441e-07  alpha:  3.409e-01  linmin: -1.298e-05  t[s]:   1109.43
	Linear fluid (dielectric constant: 78.4, screening length: 5.74355 Bohr) occupying 0.698896 of unit cell:	Completed after 2 iterations at t[s]:   1131.64
	Linear fluid (dielectric constant: 78.4, screening length: 5.74355 Bohr) occupying 0.698907 of unit cell:	Completed after 8 iterations at t[s]:   1147.61
	FillingsUpdate:  mu: -0.244750400  nElectrons: 610.696380
	SubspaceRotationAdjust: set factor to 0.101
ElecMinimize: Iter:  16  G: -2125.700285132495083  |grad|_K:  4.166e-07  alpha:  9.419e-01  linmin:  3.035e-04  t[s]:   1166.00
	Linear fluid (dielectric constant: 78.4, screening length: 5.74355 Bohr) occupying 0.698904 of unit cell:	Completed after 11 iterations at t[s]:   1185.19
	Linear fluid (dielectric constant: 78.4, screening length: 5.74355 Bohr) occupying 0.698905 of unit cell:	Completed after 5 iterations at t[s]:   1201.27
	FillingsUpdate:  mu: -0.244750400  nElectrons: 610.688922
	SubspaceRotationAdjust: set factor to 0.0827
ElecMinimize: Iter:  17  G: -2125.700299508723674  |grad|_K:  3.216e-07  alpha:  6.867e-01  linmin:  6.532e-04  t[s]:   1220.17
	Linear fluid (dielectric constant: 78.4, screening length: 5.74355 Bohr) occupying 0.698901 of unit cell:	Completed after 8 iterations at t[s]:   1237.28
	Linear fluid (dielectric constant: 78.4, screening length: 5.74355 Bohr) occupying 0.698901 of unit cell:	Completed after 0 iterations at t[s]:   1255.70
	FillingsUpdate:  mu: -0.244750400  nElectrons: 610.692938
	SubspaceRotationAdjust: set factor to 0.0771
ElecMinimize: Iter:  18  G: -2125.700307864678052  |grad|_K:  2.291e-07  alpha:  6.989e-01  linmin: -4.837e-04  t[s]:   1278.56
	Linear fluid (dielectric constant: 78.4, screening length: 5.74355 Bohr) occupying 0.698894 of unit cell:	Completed after 3 iterations at t[s]:   1294.53
	Linear fluid (dielectric constant: 78.4, screening length: 5.74355 Bohr) occupying 0.698892 of unit cell:	Completed after 0 iterations at t[s]:   1309.56
	FillingsUpdate:  mu: -0.244750400  nElectrons: 610.687766
	SubspaceRotationAdjust: set factor to 0.0992
ElecMinimize: Iter:  19  G: -2125.700313889773042  |grad|_K:  1.777e-07  alpha:  8.939e-01  linmin: -5.317e-04  t[s]:   1329.65
	Linear fluid (dielectric constant: 78.4, screening length: 5.74355 Bohr) occupying 0.698883 of unit cell:	Completed after 8 iterations at t[s]:   1346.46
	Linear fluid (dielectric constant: 78.4, screening length: 5.74355 Bohr) occupying 0.698889 of unit cell:	Completed after 7 iterations at t[s]:   1365.26
	FillingsUpdate:  mu: -0.244750400  nElectrons: 610.684607
	SubspaceRotationAdjust: set factor to 0.077
ElecMinimize: Iter:  20  G: -2125.700314755486488  |grad|_K:  1.764e-07  alpha:  3.775e-01  linmin:  2.391e-04  t[s]:   1383.87
	Linear fluid (dielectric constant: 78.4, screening length: 5.74355 Bohr) occupying 0.698887 of unit cell:	Completed after 3 iterations at t[s]:   1402.79
	Linear fluid (dielectric constant: 78.4, screening length: 5.74355 Bohr) occupying 0.698887 of unit cell:	Completed after 0 iterations at t[s]:   1416.75
	FillingsUpdate:  mu: -0.244750400  nElectrons: 610.685813
	SubspaceRotationAdjust: set factor to 0.122
ElecMinimize: Iter:  21  G: -2125.700316072093301  |grad|_K:  1.617e-07  alpha:  3.589e-01  linmin:  1.920e-05  t[s]:   1439.03
	Linear fluid (dielectric constant: 78.4, screening length: 5.74355 Bohr) occupying 0.698887 of unit cell:	Completed after 8 iterations at t[s]:   1450.70
	Linear fluid (dielectric constant: 78.4, screening length: 5.74355 Bohr) occupying 0.698887 of unit cell:	Completed after 0 iterations at t[s]:   1459.71
	FillingsUpdate:  mu: -0.244750400  nElectrons: 610.687604
	SubspaceRotationAdjust: set factor to 0.0991
ElecMinimize: Iter:  22  G: -2125.700316705854675  |grad|_K:  1.789e-07  alpha:  1.922e-01  linmin:  1.802e-03  t[s]:   1470.72
	Linear fluid (dielectric constant: 78.4, screening length: 5.74355 Bohr) occupying 0.698887 of unit cell:	Completed after 0 iterations at t[s]:   1481.54
	Linear fluid (dielectric constant: 78.4, screening length: 5.74355 Bohr) occupying 0.698887 of unit cell:	Completed after 2 iterations at t[s]:   1490.84
	FillingsUpdate:  mu: -0.244750400  nElectrons: 610.687716
	SubspaceRotationAdjust: set factor to 0.117
ElecMinimize: Iter:  23  G: -2125.700317025123240  |grad|_K:  1.276e-07  alpha:  2.876e-01  linmin:  1.390e-03  t[s]:   1501.75
	Linear fluid (dielectric constant: 78.4, screening length: 5.74355 Bohr) occupying 0.698888 of unit cell:	Completed after 3 iterations at t[s]:   1512.05
	Linear fluid (dielectric constant: 78.4, screening length: 5.74355 Bohr) occupying 0.698888 of unit cell:	Completed after 0 iterations at t[s]:   1521.34
	FillingsUpdate:  mu: -0.244750400  nElectrons: 610.686218
	SubspaceRotationAdjust: set factor to 0.12
ElecMinimize: Iter:  24  G: -2125.700317338467812  |grad|_K:  9.012e-08  alpha:  2.274e-01  linmin: -1.784e-04  t[s]:   1532.20
	Linear fluid (dielectric constant: 78.4, screening length: 5.74355 Bohr) occupying 0.698888 of unit cell:	Completed after 0 iterations at t[s]:   1542.72
	Linear fluid (dielectric constant: 78.4, screening length: 5.74355 Bohr) occupying 0.698889 of unit cell:	Completed after 3 iterations at t[s]:   1552.34
	FillingsUpdate:  mu: -0.244750400  nElectrons: 610.684213
	SubspaceRotationAdjust: set factor to 0.123
ElecMinimize: Iter:  25  G: -2125.700317514061226  |grad|_K:  8.692e-08  alpha:  5.805e-01  linmin:  2.410e-03  t[s]:   1563.37
	Linear fluid (dielectric constant: 78.4, screening length: 5.74355 Bohr) occupying 0.698890 of unit cell:	Completed after 0 iterations at t[s]:   1573.65
	Linear fluid (dielectric constant: 78.4, screening length: 5.74355 Bohr) occupying 0.698890 of unit cell:	Completed after 0 iterations at t[s]:   1582.84
	FillingsUpdate:  mu: -0.244750400  nElectrons: 610.684848
	SubspaceRotationAdjust: set factor to 0.163
ElecMinimize: Iter:  26  G: -2125.700317688419545  |grad|_K:  8.999e-08  alpha:  4.613e-01  linmin:  1.232e-07  t[s]:   1593.73
	Linear fluid (dielectric constant: 78.4, screening length: 5.74355 Bohr) occupying 0.698892 of unit cell:	Completed after 3 iterations at t[s]:   1604.88
	Linear fluid (dielectric constant: 78.4, screening length: 5.74355 Bohr) occupying 0.698891 of unit cell:	Completed after 0 iterations at t[s]:   1613.88
	FillingsUpdate:  mu: -0.244750400  nElectrons: 610.686106
	SubspaceRotationAdjust: set factor to 0.143
ElecMinimize: Iter:  27  G: -2125.700317919165627  |grad|_K:  7.572e-08  alpha:  2.050e-01  linmin:  1.132e-03  t[s]:   1624.44
	Linear fluid (dielectric constant: 78.4, screening length: 5.74355 Bohr) occupying 0.698891 of unit cell:	Completed after 0 iterations at t[s]:   1635.01
	Linear fluid (dielectric constant: 78.4, screening length: 5.74355 Bohr) occupying 0.698892 of unit cell:	Completed after 0 iterations at t[s]:   1643.96
	FillingsUpdate:  mu: -0.244750400  nElectrons: 610.687113
	SubspaceRotationAdjust: set factor to 0.193
ElecMinimize: Iter:  28  G: -2125.700318046531720  |grad|_K:  6.137e-08  alpha:  3.571e-01  linmin:  6.931e-07  t[s]:   1654.87
	Linear fluid (dielectric constant: 78.4, screening length: 5.74355 Bohr) occupying 0.698893 of unit cell:	Completed after 2 iterations at t[s]:   1665.09
	Linear fluid (dielectric constant: 78.4, screening length: 5.74355 Bohr) occupying 0.698892 of unit cell:	Completed after 0 iterations at t[s]:   1674.25
ElecMinimize: 	Step increased G by 6.979008e-08, reducing alpha to 1.197689e-02.
	Linear fluid (dielectric constant: 78.4, screening length: 5.74355 Bohr) occupying 0.698892 of unit cell:	Completed after 0 iterations at t[s]:   1692.47
ElecMinimize: 	Step increased G by 6.591881e-08, reducing alpha to 1.197689e-03.
	Linear fluid (dielectric constant: 78.4, screening length: 5.74355 Bohr) occupying 0.698892 of unit cell:	Completed after 0 iterations at t[s]:   1710.65
ElecMinimize: 	Step increased G by 6.680330e-08, reducing alpha to 1.197689e-04.
ElecMinimize: 	Step failed to reduce G after 3 attempts. Quitting step.
ElecMinimize: 	Undoing step.
	Linear fluid (dielectric constant: 78.4, screening length: 5.74355 Bohr) occupying 0.698892 of unit cell:	Completed after 0 iterations at t[s]:   1729.22
ElecMinimize: 	Step failed: resetting search direction.
	FillingsUpdate:  mu: -0.244750400  nElectrons: 610.687114
	SubspaceRotationAdjust: set factor to 0.241
ElecMinimize: Iter:  29  G: -2125.700317979711599  |grad|_K:  4.197e-08  alpha:  1.198e-04
	Linear fluid (dielectric constant: 78.4, screening length: 5.74355 Bohr) occupying 0.698892 of unit cell:	Completed after 0 iterations at t[s]:   1750.60
ElecMinimize: 	Predicted alpha/alphaT>3.000000, increasing alphaT to 1.071283e+00.
	Linear fluid (dielectric constant: 78.4, screening length: 5.74355 Bohr) occupying 0.698892 of unit cell:	Completed after 3 iterations at t[s]:   1760.12
	Linear fluid (dielectric constant: 78.4, screening length: 5.74355 Bohr) occupying 0.698892 of unit cell:	Completed after 0 iterations at t[s]:   1769.07
	FillingsUpdate:  mu: -0.244750400  nElectrons: 610.686268
	SubspaceRotationAdjust: set factor to 0.208
ElecMinimize: Iter:  30  G: -2125.700318086299376  |grad|_K:  7.429e-08  alpha:  4.132e-01  linmin:  1.466e-03  t[s]:   1780.01
	Linear fluid (dielectric constant: 78.4, screening length: 5.74355 Bohr) occupying 0.698892 of unit cell:	Completed after 0 iterations at t[s]:   1790.04
	Linear fluid (dielectric constant: 78.4, screening length: 5.74355 Bohr) occupying 0.698892 of unit cell:	Completed after 0 iterations at t[s]:   1798.88
	FillingsUpdate:  mu: -0.244750400  nElectrons: 610.686175
	SubspaceRotationAdjust: set factor to 0.223
ElecMinimize: Iter:  31  G: -2125.700318133405290  |grad|_K:  7.023e-08  alpha:  1.767e-01  linmin:  1.033e-07  t[s]:   1809.90
	Linear fluid (dielectric constant: 78.4, screening length: 5.74355 Bohr) occupying 0.698892 of unit cell:	Completed after 2 iterations at t[s]:   1821.07
	Linear fluid (dielectric constant: 78.4, screening length: 5.74355 Bohr) occupying 0.698892 of unit cell:	Completed after 0 iterations at t[s]:   1830.26
ElecMinimize: 	Step increased G by 1.585113e-08, reducing alpha to 8.511221e-03.
	Linear fluid (dielectric constant: 78.4, screening length: 5.74355 Bohr) occupying 0.698892 of unit cell:	Completed after 0 iterations at t[s]:   1848.91
ElecMinimize: 	Step increased G by 4.344565e-08, reducing alpha to 8.511221e-04.
	Linear fluid (dielectric constant: 78.4, screening length: 5.74355 Bohr) occupying 0.698892 of unit cell:	Completed after 0 iterations at t[s]:   1868.24
ElecMinimize: 	Step increased G by 4.734147e-08, reducing alpha to 8.511221e-05.
ElecMinimize: 	Step failed to reduce G after 3 attempts. Quitting step.
ElecMinimize: 	Undoing step.
	Linear fluid (dielectric constant: 78.4, screening length: 5.74355 Bohr) occupying 0.698892 of unit cell:	Completed after 0 iterations at t[s]:   1887.11
ElecMinimize: 	Step failed: resetting search direction.
	FillingsUpdate:  mu: -0.244750400  nElectrons: 610.686178
	SubspaceRotationAdjust: set factor to 0.225
ElecMinimize: Iter:  32  G: -2125.700318086050174  |grad|_K:  3.252e-08  alpha:  8.511e-05
	Linear fluid (dielectric constant: 78.4, screening length: 5.74355 Bohr) occupying 0.698892 of unit cell:	Completed after 0 iterations at t[s]:   1909.02
ElecMinimize: 	Predicted alpha/alphaT>3.000000, increasing alphaT to 5.301483e-01.
	Linear fluid (dielectric constant: 78.4, screening length: 5.74355 Bohr) occupying 0.698892 of unit cell:	Completed after 0 iterations at t[s]:   1917.55
	Linear fluid (dielectric constant: 78.4, screening length: 5.74355 Bohr) occupying 0.698892 of unit cell:	Completed after 4 iterations at t[s]:   1927.30
ElecMinimize: 	Step increased G by 5.364232e-07, reducing alpha to 1.353281e-01.
	Linear fluid (dielectric constant: 78.4, screening length: 5.74355 Bohr) occupying 0.698892 of unit cell:	Completed after 2 iterations at t[s]:   1945.27
	FillingsUpdate:  mu: -0.244750400  nElectrons: 610.686547
	SubspaceRotationAdjust: set factor to 0.15
ElecMinimize: Iter:  33  G: -2125.700318194950341  |grad|_K:  6.425e-08  alpha:  1.353e-01  linmin:  1.242e-03  t[s]:   1955.80
	Linear fluid (dielectric constant: 78.4, screening length: 5.74355 Bohr) occupying 0.698892 of unit cell:	Completed after 0 iterations at t[s]:   1965.36
	Linear fluid (dielectric constant: 78.4, screening length: 5.74355 Bohr) occupying 0.698892 of unit cell:	Completed after 0 iterations at t[s]:   1974.09
	FillingsUpdate:  mu: -0.244750400  nElectrons: 610.686877
	SubspaceRotationAdjust: set factor to 0.0892
ElecMinimize: Iter:  34  G: -2125.700318217066524  |grad|_K:  4.966e-08  alpha:  9.653e-02  linmin: -1.592e-06  t[s]:   1984.27
	Linear fluid (dielectric constant: 78.4, screening length: 5.74355 Bohr) occupying 0.698892 of unit cell:	Completed after 0 iterations at t[s]:   1993.72
	Linear fluid (dielectric constant: 78.4, screening length: 5.74355 Bohr) occupying 0.698892 of unit cell:	Completed after 2 iterations at t[s]:   2002.23
ElecMinimize: 	Step increased G by 1.513090e-07, reducing alpha to 2.620193e-02.
	Linear fluid (dielectric constant: 78.4, screening length: 5.74355 Bohr) occupying 0.698892 of unit cell:	Completed after 0 iterations at t[s]:   2019.76
ElecMinimize: 	Step increased G by 3.402874e-08, reducing alpha to 2.620193e-03.
	Linear fluid (dielectric constant: 78.4, screening length: 5.74355 Bohr) occupying 0.698892 of unit cell:	Completed after 0 iterations at t[s]:   2037.14
ElecMinimize: 	Step increased G by 2.921524e-08, reducing alpha to 2.620193e-04.
ElecMinimize: 	Step failed to reduce G after 3 attempts. Quitting step.
ElecMinimize: 	Undoing step.
	Linear fluid (dielectric constant: 78.4, screening length: 5.74355 Bohr) occupying 0.698892 of unit cell:	Completed after 0 iterations at t[s]:   2054.88
ElecMinimize: 	Step failed: resetting search direction.
	FillingsUpdate:  mu: -0.244750400  nElectrons: 610.686871
	SubspaceRotationAdjust: set factor to 0.152
ElecMinimize: Iter:  35  G: -2125.700318187929952  |grad|_K:  3.767e-08  alpha:  2.620e-04
	Linear fluid (dielectric constant: 78.4, screening length: 5.74355 Bohr) occupying 0.698892 of unit cell:	Completed after 0 iterations at t[s]:   2074.40
ElecMinimize: 	Predicted alpha/alphaT>3.000000, increasing alphaT to 2.896020e-01.
	Linear fluid (dielectric constant: 78.4, screening length: 5.74355 Bohr) occupying 0.698892 of unit cell:	Completed after 0 iterations at t[s]:   2081.68
	Linear fluid (dielectric constant: 78.4, screening length: 5.74355 Bohr) occupying 0.698891 of unit cell:	Completed after 3 iterations at t[s]:   2090.34
ElecMinimize: 	Step increased G by 2.110323e-07, reducing alpha to 7.993538e-02.
	Linear fluid (dielectric constant: 78.4, screening length: 5.74355 Bohr) occupying 0.698892 of unit cell:	Completed after 0 iterations at t[s]:   2105.55
	FillingsUpdate:  mu: -0.244750400  nElectrons: 610.686743
	SubspaceRotationAdjust: set factor to 0.14
ElecMinimize: Iter:  36  G: -2125.700318259337564  |grad|_K:  3.615e-08  alpha:  7.994e-02  linmin:  4.510e-03  t[s]:   2115.36
	Linear fluid (dielectric constant: 78.4, screening length: 5.74355 Bohr) occupying 0.698892 of unit cell:	Completed after 0 iterations at t[s]:   2122.93
ElecMinimize: 	Predicted alpha/alphaT>3.000000, increasing alphaT to 2.398062e-01.
	Linear fluid (dielectric constant: 78.4, screening length: 5.74355 Bohr) occupying 0.698892 of unit cell:	Completed after 0 iterations at t[s]:   2130.54
ElecMinimize: 	Predicted alpha/alphaT>3.000000, increasing alphaT to 7.194185e-01.
	Linear fluid (dielectric constant: 78.4, screening length: 5.74355 Bohr) occupying 0.698891 of unit cell:	Completed after 0 iterations at t[s]:   2138.11
	Linear fluid (dielectric constant: 78.4, screening length: 5.74355 Bohr) occupying 0.698890 of unit cell:	Completed after 1 iterations at t[s]:   2146.38
ElecMinimize: 	Step increased G by 1.683170e-07, reducing alpha to 1.521207e-01.
	Linear fluid (dielectric constant: 78.4, screening length: 5.74355 Bohr) occupying 0.698892 of unit cell:	Completed after 0 iterations at t[s]:   2162.04
ElecMinimize: 	Step increased G by 8.762436e-08, reducing alpha to 1.521207e-02.
	Linear fluid (dielectric constant: 78.4, screening length: 5.74355 Bohr) occupying 0.698892 of unit cell:	Completed after 0 iterations at t[s]:   2177.81
ElecMinimize: 	Step increased G by 8.465349e-08, reducing alpha to 1.521207e-03.
ElecMinimize: 	Step failed to reduce G after 3 attempts. Quitting step.
ElecMinimize: 	Undoing step.
	Linear fluid (dielectric constant: 78.4, screening length: 5.74355 Bohr) occupying 0.698892 of unit cell:	Completed after 0 iterations at t[s]:   2193.42
ElecMinimize: 	Step failed: resetting search direction.
	FillingsUpdate:  mu: -0.244750400  nElectrons: 610.686730
	SubspaceRotationAdjust: set factor to 0.139
ElecMinimize: Iter:  37  G: -2125.700318174697713  |grad|_K:  2.605e-08  alpha:  1.521e-03
	Linear fluid (dielectric constant: 78.4, screening length: 5.74355 Bohr) occupying 0.698892 of unit cell:	Completed after 0 iterations at t[s]:   2210.96
ElecMinimize: 	Predicted alpha/alphaT>3.000000, increasing alphaT to 2.398062e-01.
	Linear fluid (dielectric constant: 78.4, screening length: 5.74355 Bohr) occupying 0.698892 of unit cell:	Completed after 0 iterations at t[s]:   2218.49
ElecMinimize: 	Predicted alpha/alphaT>3.000000, increasing alphaT to 7.194185e-01.
	Linear fluid (dielectric constant: 78.4, screening length: 5.74355 Bohr) occupying 0.698892 of unit cell:	Completed after 3 iterations at t[s]:   2226.52
	Linear fluid (dielectric constant: 78.4, screening length: 5.74355 Bohr) occupying 0.698892 of unit cell:	Completed after 0 iterations at t[s]:   2234.07
	FillingsUpdate:  mu: -0.244750400  nElectrons: 610.687055
	SubspaceRotationAdjust: set factor to 0.107
ElecMinimize: Iter:  38  G: -2125.700318176297969  |grad|_K:  4.401e-08  alpha:  1.651e-01  linmin:  3.675e-03  t[s]:   2243.22
ElecMinimize: 	Bad step direction: g.d > 0.
ElecMinimize: 	Undoing step.
	Linear fluid (dielectric constant: 78.4, screening length: 5.74355 Bohr) occupying 0.698892 of unit cell:	Completed after 0 iterations at t[s]:   2250.89
ElecMinimize: 	Step failed: resetting search direction.
	FillingsUpdate:  mu: -0.244750400  nElectrons: 610.687055
	SubspaceRotationAdjust: set factor to 0.103
ElecMinimize: Iter:  39  G: -2125.700318176297969  |grad|_K:  4.089e-08  alpha:  0.000e+00
	Linear fluid (dielectric constant: 78.4, screening length: 5.74355 Bohr) occupying 0.698892 of unit cell:	Completed after 0 iterations at t[s]:   2268.02
ElecMinimize: 	Predicted alpha/alphaT>3.000000, increasing alphaT to 4.952636e-01.
	Linear fluid (dielectric constant: 78.4, screening length: 5.74355 Bohr) occupying 0.698892 of unit cell:	Completed after 0 iterations at t[s]:   2275.67
	Linear fluid (dielectric constant: 78.4, screening length: 5.74355 Bohr) occupying 0.698892 of unit cell:	Completed after 3 iterations at t[s]:   2283.83
ElecMinimize: 	Step increased G by 6.869304e-07, reducing alpha to 1.243771e-01.
	Linear fluid (dielectric constant: 78.4, screening length: 5.74355 Bohr) occupying 0.698892 of unit cell:	Completed after 2 iterations at t[s]:   2300.17
	FillingsUpdate:  mu: -0.244750400  nElectrons: 610.686753
	SubspaceRotationAdjust: set factor to 0.0567
ElecMinimize: Iter:  40  G: -2125.700318192416034  |grad|_K:  2.892e-08  alpha:  1.244e-01  linmin:  8.838e-03  t[s]:   2309.78
	Linear fluid (dielectric constant: 78.4, screening length: 5.74355 Bohr) occupying 0.698892 of unit cell:	Completed after 0 iterations at t[s]:   2317.18
ElecMinimize: 	Predicted alpha/alphaT>3.000000, increasing alphaT to 3.731313e-01.
	Linear fluid (dielectric constant: 78.4, screening length: 5.74355 Bohr) occupying 0.698892 of unit cell:	Completed after 0 iterations at t[s]:   2325.03
	Linear fluid (dielectric constant: 78.4, screening length: 5.74355 Bohr) occupying 0.698892 of unit cell:	Completed after 0 iterations at t[s]:   2332.78
	FillingsUpdate:  mu: -0.244750400  nElectrons: 610.687064
	SubspaceRotationAdjust: set factor to 0.0546
ElecMinimize: Iter:  41  G: -2125.700318206300835  |grad|_K:  2.344e-08  alpha:  3.349e-01  linmin: -2.438e-03  t[s]:   2342.06
	Linear fluid (dielectric constant: 78.4, screening length: 5.74355 Bohr) occupying 0.698892 of unit cell:	Completed after 0 iterations at t[s]:   2350.00
ElecMinimize: 	Predicted alpha/alphaT>3.000000, increasing alphaT to 1.004797e+00.
	Linear fluid (dielectric constant: 78.4, screening length: 5.74355 Bohr) occupying 0.698893 of unit cell:	Completed after 3 iterations at t[s]:   2358.48
	Linear fluid (dielectric constant: 78.4, screening length: 5.74355 Bohr) occupying 0.698892 of unit cell:	Completed after 0 iterations at t[s]:   2365.89
	FillingsUpdate:  mu: -0.244750400  nElectrons: 610.687391
	SubspaceRotationAdjust: set factor to 0.0442
ElecMinimize: Iter:  42  G: -2125.700318260761378  |grad|_K:  6.304e-08  alpha:  1.910e-01  linmin:  5.549e-03  t[s]:   2375.58
ElecMinimize: 	Bad step direction: g.d > 0.
ElecMinimize: 	Undoing step.
	Linear fluid (dielectric constant: 78.4, screening length: 5.74355 Bohr) occupying 0.698892 of unit cell:	Completed after 0 iterations at t[s]:   2383.49
ElecMinimize: 	Step failed: resetting search direction.
	FillingsUpdate:  mu: -0.244750400  nElectrons: 610.687391
	SubspaceRotationAdjust: set factor to 0.0389
ElecMinimize: Iter:  43  G: -2125.700318260754102  |grad|_K:  5.919e-08  alpha:  0.000e+00
	Linear fluid (dielectric constant: 78.4, screening length: 5.74355 Bohr) occupying 0.698892 of unit cell:	Completed after 0 iterations at t[s]:   2400.79
ElecMinimize: 	Predicted alpha/alphaT>3.000000, increasing alphaT to 5.729844e-01.
	Linear fluid (dielectric constant: 78.4, screening length: 5.74355 Bohr) occupying 0.698892 of unit cell:	Completed after 3 iterations at t[s]:   2409.20
	Linear fluid (dielectric constant: 78.4, screening length: 5.74355 Bohr) occupying 0.698892 of unit cell:	Completed after 0 iterations at t[s]:   2416.84
ElecMinimize: 	Step increased G by 3.582863e-08, reducing alpha to 2.220938e-02.
	Linear fluid (dielectric constant: 78.4, screening length: 5.74355 Bohr) occupying 0.698892 of unit cell:	Completed after 0 iterations at t[s]:   2432.70
	FillingsUpdate:  mu: -0.244750400  nElectrons: 610.687339
	SubspaceRotationAdjust: set factor to 0.0295
ElecMinimize: Iter:  44  G: -2125.700318269503896  |grad|_K:  2.621e-08  alpha:  2.221e-02  linmin:  5.497e-03  t[s]:   2442.16
	Linear fluid (dielectric constant: 78.4, screening length: 5.74355 Bohr) occupying 0.698892 of unit cell:	Completed after 0 iterations at t[s]:   2449.84
ElecMinimize: 	Predicted alpha/alphaT>3.000000, increasing alphaT to 6.662815e-02.
	Linear fluid (dielectric constant: 78.4, screening length: 5.74355 Bohr) occupying 0.698892 of unit cell:	Completed after 0 iterations at t[s]:   2457.27
ElecMinimize: 	Predicted alpha/alphaT>3.000000, increasing alphaT to 1.998844e-01.
	Linear fluid (dielectric constant: 78.4, screening length: 5.74355 Bohr) occupying 0.698892 of unit cell:	Completed after 0 iterations at t[s]:   2464.84
ElecMinimize: 	Predicted alpha/alphaT>3.000000, increasing alphaT to 5.996533e-01.
	Linear fluid (dielectric constant: 78.4, screening length: 5.74355 Bohr) occupying 0.698892 of unit cell:	Completed after 2 iterations at t[s]:   2472.98
ElecMinimize: 	Step increased G by 1.597014e-07, reducing alpha to 7.012400e-02.
	Linear fluid (dielectric constant: 78.4, screening length: 5.74355 Bohr) occupying 0.698892 of unit cell:	Completed after 0 iterations at t[s]:   2488.34
ElecMinimize: 	Step increased G by 9.687528e-08, reducing alpha to 7.012400e-03.
	Linear fluid (dielectric constant: 78.4, screening length: 5.74355 Bohr) occupying 0.698892 of unit cell:	Completed after 0 iterations at t[s]:   2504.01
ElecMinimize: 	Step increased G by 9.450741e-08, reducing alpha to 7.012400e-04.
ElecMinimize: 	Step failed to reduce G after 3 attempts. Quitting step.
ElecMinimize: 	Undoing step.
	Linear fluid (dielectric constant: 78.4, screening length: 5.74355 Bohr) occupying 0.698892 of unit cell:	Completed after 0 iterations at t[s]:   2519.48
ElecMinimize: 	Step failed: resetting search direction.
	FillingsUpdate:  mu: -0.244750400  nElectrons: 610.687337
	SubspaceRotationAdjust: set factor to 0.0273
ElecMinimize: Iter:  45  G: -2125.700318175056054  |grad|_K:  1.578e-08  alpha:  7.012e-04
	Linear fluid (dielectric constant: 78.4, screening length: 5.74355 Bohr) occupying 0.698892 of unit cell:	Completed after 0 iterations at t[s]:   2536.83
ElecMinimize: 	Predicted alpha/alphaT>3.000000, increasing alphaT to 6.662815e-02.
	Linear fluid (dielectric constant: 78.4, screening length: 5.74355 Bohr) occupying 0.698892 of unit cell:	Completed after 0 iterations at t[s]:   2544.45
ElecMinimize: 	Predicted alpha/alphaT>3.000000, increasing alphaT to 1.998844e-01.
	Linear fluid (dielectric constant: 78.4, screening length: 5.74355 Bohr) occupying 0.698892 of unit cell:	Completed after 0 iterations at t[s]:   2552.05
ElecMinimize: 	Predicted alpha/alphaT>3.000000, increasing alphaT to 5.996533e-01.
	Linear fluid (dielectric constant: 78.4, screening length: 5.74355 Bohr) occupying 0.698892 of unit cell:	Completed after 0 iterations at t[s]:   2559.43
	FillingsUpdate:  mu: -0.244750400  nElectrons: 610.687170
	SubspaceRotationAdjust: set factor to 0.037
ElecMinimize: Iter:  46  G: -2125.700318197076285  |grad|_K:  9.660e-09  alpha:  6.962e-01  linmin: -4.271e-04  t[s]:   2569.21
	Linear fluid (dielectric constant: 78.4, screening length: 5.74355 Bohr) occupying 0.698892 of unit cell:	Completed after 0 iterations at t[s]:   2577.21
	Linear fluid (dielectric constant: 78.4, screening length: 5.74355 Bohr) occupying 0.698892 of unit cell:	Completed after 0 iterations at t[s]:   2585.11
ElecMinimize: 	Step increased G by 1.408944e-08, reducing alpha to 2.568082e-02.
	Linear fluid (dielectric constant: 78.4, screening length: 5.74355 Bohr) occupying 0.698892 of unit cell:	Completed after 0 iterations at t[s]:   2601.36
ElecMinimize: 	Step increased G by 1.910121e-08, reducing alpha to 2.568082e-03.
	Linear fluid (dielectric constant: 78.4, screening length: 5.74355 Bohr) occupying 0.698892 of unit cell:	Completed after 0 iterations at t[s]:   2617.39
ElecMinimize: 	Step increased G by 1.963235e-08, reducing alpha to 2.568082e-04.
ElecMinimize: 	Step failed to reduce G after 3 attempts. Quitting step.
ElecMinimize: 	Undoing step.
	Linear fluid (dielectric constant: 78.4, screening length: 5.74355 Bohr) occupying 0.698892 of unit cell:	Completed after 0 iterations at t[s]:   2633.15
ElecMinimize: 	Step failed: resetting search direction.
	FillingsUpdate:  mu: -0.244750400  nElectrons: 610.687170
	SubspaceRotationAdjust: set factor to 0.0459
ElecMinimize: Iter:  47  G: -2125.700318177408917  |grad|_K:  1.101e-08  alpha:  2.568e-04
	Linear fluid (dielectric constant: 78.4, screening length: 5.74355 Bohr) occupying 0.698892 of unit cell:	Completed after 0 iterations at t[s]:   2649.86
	Linear fluid (dielectric constant: 78.4, screening length: 5.74355 Bohr) occupying 0.698892 of unit cell:	Completed after 0 iterations at t[s]:   2657.68
	FillingsUpdate:  mu: -0.244750400  nElectrons: 610.686883
	SubspaceRotationAdjust: set factor to 0.0606
ElecMinimize: Iter:  48  G: -2125.700318191785300  |grad|_K:  1.120e-08  alpha:  9.872e-01  linmin:  2.291e-05  t[s]:   2666.86
	Linear fluid (dielectric constant: 78.4, screening length: 5.74355 Bohr) occupying 0.698891 of unit cell:	Completed after 0 iterations at t[s]:   2674.30
ElecMinimize: 	Predicted alpha/alphaT>3.000000, increasing alphaT to 2.961622e+00.
	Linear fluid (dielectric constant: 78.4, screening length: 5.74355 Bohr) occupying 0.698890 of unit cell:	Completed after 0 iterations at t[s]:   2681.78
	Linear fluid (dielectric constant: 78.4, screening length: 5.74355 Bohr) occupying 0.698890 of unit cell:	Completed after 3 iterations at t[s]:   2689.92
ElecMinimize: 	Step increased G by 3.756486e-07, reducing alpha to 4.058345e-01.
	Linear fluid (dielectric constant: 78.4, screening length: 5.74355 Bohr) occupying 0.698891 of unit cell:	Completed after 0 iterations at t[s]:   2705.75
	FillingsUpdate:  mu: -0.244750400  nElectrons: 610.686615
	SubspaceRotationAdjust: set factor to 0.0561
ElecMinimize: Iter:  49  G: -2125.700318426711419  |grad|_K:  7.050e-08  alpha:  4.058e-01  linmin:  2.058e-03  t[s]:   2715.68
ElecMinimize: 	Bad step direction: g.d > 0.
ElecMinimize: 	Undoing step.
	Linear fluid (dielectric constant: 78.4, screening length: 5.74355 Bohr) occupying 0.698891 of unit cell:	Completed after 0 iterations at t[s]:   2723.31
ElecMinimize: 	Step failed: resetting search direction.
	FillingsUpdate:  mu: -0.244750400  nElectrons: 610.686615
	SubspaceRotationAdjust: set factor to 0.0539
ElecMinimize: Iter:  50  G: -2125.700318426725971  |grad|_K:  6.909e-08  alpha:  0.000e+00
	Linear fluid (dielectric constant: 78.4, screening length: 5.74355 Bohr) occupying 0.698892 of unit cell:	Completed after 3 iterations at t[s]:   2741.11
	Linear fluid (dielectric constant: 78.4, screening length: 5.74355 Bohr) occupying 0.698892 of unit cell:	Completed after 0 iterations at t[s]:   2749.15
ElecMinimize: 	Step increased G by 1.594744e-07, reducing alpha to 1.222808e-02.
	Linear fluid (dielectric constant: 78.4, screening length: 5.74355 Bohr) occupying 0.698891 of unit cell:	Completed after 1 iterations at t[s]:   2764.89
ElecMinimize: 	Step increased G by 1.900730e-07, reducing alpha to 1.222808e-03.
	Linear fluid (dielectric constant: 78.4, screening length: 5.74355 Bohr) occupying 0.698891 of unit cell:	Completed after 0 iterations at t[s]:   2780.76
ElecMinimize: 	Step increased G by 1.878157e-07, reducing alpha to 1.222808e-04.
ElecMinimize: 	Step failed to reduce G after 3 attempts. Quitting step.
ElecMinimize: 	Undoing step.
	Linear fluid (dielectric constant: 78.4, screening length: 5.74355 Bohr) occupying 0.698891 of unit cell:	Completed after 0 iterations at t[s]:   2797.00
ElecMinimize: 	Step failed along negative gradient direction.
ElecMinimize: Probably at roundoff error limit. (Stopping)
Setting wave functions to eigenvectors of Hamiltonian

# Ionic positions in lattice coordinates:
ion Bi   0.000749272947232   0.000867119297888   0.499967242850228 0
ion Bi   0.112947345056872   0.110193041173176   0.356602232130179 0
ion Bi   0.222027459913542   0.222611718914851   0.644214701362085 0
ion Bi   0.333333283360215   0.000000072021505   0.508628275907563 0
ion Bi   0.443526252511887   0.110193041173176   0.356602232130179 0
ion Bi   0.564587228990968   0.231254017652258   0.648342215454136 0
ion Bi   0.665050246496816   0.000867119297888   0.499967242850228 0
ion Bi   0.778127482246460   0.110411674249016   0.354501385488478 0
ion Bi   0.870825392098709   0.231254017652258   0.648342215454136 0
ion Bi   0.000749272947232   0.331717035158105   0.499967242850228 0
ion Bi   0.111721154703095   0.443224329335746   0.355402589427930 0
ion Bi   0.224662922267271   0.554335252567977   0.645273675078954 0
ion Bi   0.334200330636598   0.331717035158105   0.499967242850228 0
ion Bi   0.443744885587726   0.444794270907750   0.354501385488478 0
ion Bi   0.564587228990968   0.537492180759998   0.648342215454136 0
ion Bi   0.666666616693548   0.333333405354838   0.500362308057231 0
ion Bi   0.778127482246460   0.444794270907750   0.354501385488478 0
ion Bi   0.887668463906687   0.554335252567977   0.645273675078954 0
ion Bi  -0.000000049973118   0.666666738688172   0.499081457038451 0
ion Bi   0.111721154703095   0.778387943364384   0.355402589427930 0
ion Bi   0.222027459913542   0.888694248574832   0.644214701362085 0
ion Bi   0.334200330636598   0.667416061608522   0.499967242850228 0
ion Bi   0.443526252511887   0.779614133718162   0.356602232130179 0
ion Bi   0.555944930253562   0.888694248574832   0.644214701362085 0
ion Bi   0.665050246496816   0.667416061608522   0.499967242850228 0
ion Bi   0.776557540674456   0.778387943364384   0.355402589427930 0
ion Bi   0.887668463906687   0.891329710928561   0.645273675078954 0
ion Se   0.000409723955715   0.000256913099408   0.298514719610431 0
ion Se  -0.003996310234983   0.005599213190968   0.699969278571846 0
ion Se   0.101778062217805   0.115777682592710   0.567713186745693 0
ion Se   0.223940110902686   0.218786416936564   0.433639997729372 0
ion Se   0.333333283360215   0.000000072021505   0.298869397641418 0
ion Se   0.333333283360215   0.000000072021505   0.700245887615455 0
ion Se   0.449110893931420   0.115777682592710   0.567713186745693 0
ion Se   0.556513483590340   0.223180272251629   0.433663247052969 0
ion Se   0.666000001686813   0.000256913099408   0.298514719610431 0
ion Se   0.665063735785950   0.005599213190968   0.699969278571846 0
ion Se   0.779393937569451   0.107878763603032   0.563492147844441 0
ion Se   0.886972882899966   0.223180272251629   0.433663247052969 0
ion Se   0.000409723955715   0.332666790348102   0.298514719610431 0
ion Se   0.996003689765017   0.331730524447240   0.699969278571846 0
ion Se   0.111000125382477   0.444666387976981   0.564586948193417 0
ion Se   0.222582267469988   0.555375579966618   0.433540800889846 0
ion Se   0.333590124438118   0.332666790348102   0.298514719610431 0
ion Se   0.338932424529678   0.331730524447240   0.699969278571846 0
ion Se   0.441211974941743   0.446060726230741   0.563492147844441 0
ion Se   0.556513483590340   0.553639671561256   0.433663247052969 0
ion Se   0.666666616693548   0.333333405354838   0.298176060842393 0
ion Se   0.779393937569452   0.446060726230741   0.563492147844441 0
ion Se   0.888708791305329   0.555375579966618   0.433540800889846 0
ion Se  -0.000000049973118   0.666666738688172   0.299073215555062 0
ion Se  -0.000000049973118   0.666666738688172   0.700417343954979 0
ion Se   0.111000125382477   0.777666914043767   0.564586948193417 0
ion Se   0.223940110902686   0.890606899563975   0.433639997729372 0
ion Se   0.333590124438118   0.667076512617004   0.298514719610431 0
ion Se   0.338932424529678   0.662670478426307   0.699969278571846 0
ion Se   0.449110893931420   0.768444850879094   0.567713186745693 0
ion Se   0.552119628275274   0.890606899563975   0.433639997729372 0
ion Se   0.666000001686813   0.667076512617004   0.298514719610431 0
ion Se   0.665063735785950   0.662670478426307   0.699969278571846 0
ion Se   0.777999599315692   0.777666914043767   0.564586948193417 0
ion Se   0.888708791305329   0.889249056131278   0.433540800889846 0


# Forces in Lattice coordinates:
force Bi  -0.004491725528861  -0.028689339200012  -0.096155987123122 0
force Bi  -0.023796655807453  -0.000000000000000  -0.387787088913062 0
force Bi   0.000000000000000   0.003748224899988   0.298242327736756 0
force Bi   0.000000000000000   0.000000000000000  -0.156870862041693 0
force Bi   0.023796655807454   0.023796655807454  -0.387787088912607 0
force Bi  -0.142885716835352  -0.142885716835355   0.143851146860615 0
force Bi   0.004491725528861  -0.024197613671150  -0.096155987123119 0
force Bi   0.000000000000000   0.002915888415870  -0.301724838648991 0
force Bi   0.142885716835362   0.000000000000000   0.143851146860160 0
force Bi   0.024197613671150   0.028689339200012  -0.096155987123126 0
force Bi  -0.000000000000000   0.008950704829123  -0.295914920378658 0
force Bi  -0.014983140740781   0.000000000000000   0.252491908234558 0
force Bi  -0.024197613671150   0.004491725528861  -0.096155987123122 0
force Bi   0.002915888415870   0.000000000000000  -0.301724838648991 0
force Bi  -0.000000000000000   0.142885716835359   0.143851146860160 0
force Bi  -0.000000000000000   0.000000000000000  -0.078049610281529 0
force Bi  -0.002915888415870  -0.002915888415870  -0.301724838648990 0
force Bi   0.014983140740781   0.014983140740781   0.252491908234558 0
force Bi  -0.000000000000000   0.000000000000000  -0.022633241458441 0
force Bi  -0.008950704829122  -0.008950704829122  -0.295914920378658 0
force Bi  -0.003748224899988  -0.003748224899989   0.298242327736757 0
force Bi  -0.028689339200012  -0.004491725528861  -0.096155987123115 0
force Bi   0.000000000000000  -0.023796655807453  -0.387787088912607 0
force Bi   0.003748224899988   0.000000000000000   0.298242327736756 0
force Bi   0.028689339200011   0.024197613671150  -0.096155987123122 0
force Bi   0.008950704829122   0.000000000000000  -0.295914920378204 0
force Bi   0.000000000000000  -0.014983140740781   0.252491908234103 0
force Se   0.010889939424777   0.003172711165838   0.062770837236116 0
force Se   0.008191095475993  -0.000428540644735  -0.064698233668700 0
force Se  -0.005315160503676   0.000000000000000  -0.032852476330929 0
force Se  -0.000000000000000   0.010264236556627   0.294982610762094 0
force Se  -0.000000000000000   0.000000000000000   0.063003273049960 0
force Se   0.000000000000000   0.000000000000000  -0.057091266254874 0
force Se   0.005315160503676   0.005315160503677  -0.032852476330929 0
force Se  -0.013352168398535  -0.013352168398536   0.186785236080088 0
force Se  -0.010889939424777  -0.007717228258940   0.062770837235888 0
force Se  -0.008191095475993  -0.008619636120728  -0.064698233668929 0
force Se  -0.000000000000000   0.049986535440365   0.012959994019066 0
force Se   0.013352168398535   0.000000000000000   0.186785236080031 0
force Se   0.007717228258940  -0.003172711165838   0.062770837236116 0
force Se   0.008619636120728   0.000428540644735  -0.064698233668702 0
force Se   0.000000000000000  -0.008162831457358  -0.106880741742704 0
force Se   0.002958298569035   0.000000000000000   0.186974762880414 0
force Se  -0.007717228258940  -0.010889939424777   0.062770837235888 0
force Se  -0.008619636120728  -0.008191095475993  -0.064698233668700 0
force Se   0.049986535440365   0.000000000000000   0.012959994019179 0
force Se  -0.000000000000000   0.013352168398535   0.186785236080031 0
force Se   0.000000000000000   0.000000000000000   0.036340926626734 0
force Se  -0.049986535440366  -0.049986535440365   0.012959994019009 0
force Se  -0.002958298569035  -0.002958298569036   0.186974762880414 0
force Se   0.000000000000000   0.000000000000000   0.057490965061813 0
force Se  -0.000000000000000   0.000000000000000  -0.019997309139665 0
force Se   0.008162831457359   0.008162831457358  -0.106880741742817 0
force Se  -0.010264236556626  -0.010264236556626   0.294982610762094 0
force Se   0.003172711165838   0.010889939424778   0.062770837235661 0
force Se  -0.000428540644735   0.008191095475993  -0.064698233668929 0
force Se  -0.000000000000000  -0.005315160503677  -0.032852476330929 0
force Se   0.010264236556626   0.000000000000000   0.294982610761981 0
force Se  -0.003172711165838   0.007717228258940   0.062770837235888 0
force Se   0.000428540644735   0.008619636120729  -0.064698233668929 0
force Se  -0.008162831457359   0.000000000000000  -0.106880741742704 0
force Se   0.000000000000000   0.002958298569035   0.186974762880414 0

# Energy components:
   A_diel =       -0.2336537740364991
   Eewald =    20391.8087666552200972
       EH =    22167.0158040854366845
     Eloc =   -45432.8636525636538863
      Enl =      702.3767408600970157
      Exc =    -1390.2887730813931739
 Exc_core =      988.8701589063182382
       KE =      298.1388913294305780
  MuShift =        0.0535533031259765
-------------------------------------
     Etot =    -2275.1221642794562285
       TS =        0.0439481844804707
-------------------------------------
        F =    -2275.1661124639367699
      muN =     -149.4657942250014457
-------------------------------------
        G =    -2125.7003182389353242

IonicMinimize: Iter:   0  G: -2125.700318238935324  |grad|_K:  0.000e+00  t[s]:   2814.21
IonicMinimize: Converged (|grad|_K<1.000000e-04).

#--- Lowdin population analysis ---
# oxidation-state Bi +0.655 +0.672 +0.653 +0.564 +0.672 +0.575 +0.655 +0.670 +0.575 +0.655 +0.672 +0.665 +0.655 +0.670 +0.575 +0.652 +0.670 +0.665 +0.656 +0.672 +0.653 +0.655 +0.672 +0.653 +0.655 +0.672 +0.665
# oxidation-state Se -0.144 -0.114 -0.444 -0.508 -0.126 -0.123 -0.444 -0.498 -0.144 -0.114 -0.467 -0.498 -0.144 -0.114 -0.495 -0.503 -0.144 -0.114 -0.467 -0.498 -0.143 -0.467 -0.503 -0.150 -0.148 -0.495 -0.508 -0.144 -0.114 -0.444 -0.508 -0.144 -0.114 -0.495 -0.503


Dumping 'NbTe2.fillings' ... done
Dumping 'NbTe2.wfns' ... done
Dumping 'NbTe2.fluidState' ... done
Dumping 'NbTe2.eigenvals' ... done
End date and time: Wed Jul 15 20:19:43 2020  (Duration: 0-0:46:58.32)
Done!
