
*************** JDFTx 1.5.0  ***************

Start date and time: Wed Jul 15 18:21:04 2020
Executable jdftx_gpu with command-line: -i Neutral.in -o Neutral.out
Running on hosts (process indices):  amax (0-5)
Divided in process groups (process indices):  0 (0)  1 (1)  2 (2)  3 (3)  4 (4)  5 (5)
gpuInit: Found compatible cuda device 0 'Tesla K80'
gpuInit: Found compatible cuda device 1 'Tesla K80'
gpuInit: Found compatible cuda device 2 'Tesla K80'
gpuInit: Found compatible cuda device 3 'Tesla K80'
gpuInit: Found compatible cuda device 4 'Tesla K80'
gpuInit: Found compatible cuda device 5 'Tesla K80'
gpuInit: Selected device 0
Resource initialization completed at t[s]:     20.07
Run totals: 6 processes, 24 threads, 6 GPUs


Input parsed successfully to the following command list (including defaults):

basis kpoint-dependent
cache-projectors no
coords-type Lattice
core-overlap-check none
coulomb-interaction Slab 001
coulomb-truncation-embed 0 0 0.5
davidson-band-ratio 1.1
dump End State
dump-name NbTe2.$VAR
elec-cutoff 20 100
elec-eigen-algo Davidson
elec-ex-corr gga-PBE
elec-smearing Gauss 0.0073499
electronic-minimize  \
	dirUpdateScheme      FletcherReeves \
	linminMethod         DirUpdateRecommended \
	nIterations          500 \
	history              15 \
	knormThreshold       0 \
	energyDiffThreshold  1e-08 \
	nEnergyDiff          2 \
	alphaTstart          1 \
	alphaTmin            1e-10 \
	updateTestStepSize   yes \
	alphaTreduceFactor   0.1 \
	alphaTincreaseFactor 3 \
	nAlphaAdjustMax      3 \
	wolfeEnergy          0.0001 \
	wolfeGradient        0.9 \
	fdTest               no
exchange-regularization WignerSeitzTruncated
fluid LinearPCM 298.000000 1.013250
fluid-anion F- 1 MeanFieldLJ \
	epsBulk 1 \
	pMol 0 \
	epsInf 1 \
	Pvap 0 \
	sigmaBulk 0 \
	Rvdw 2.24877 \
	Res 0 \
	tauNuc 343133
fluid-cation Na+ 1 MeanFieldLJ \
	epsBulk 1 \
	pMol 0 \
	epsInf 1 \
	Pvap 0 \
	sigmaBulk 0 \
	Rvdw 2.19208 \
	Res 0 \
	tauNuc 343133
fluid-ex-corr lda-TF lda-PZ
fluid-gummel-loop 10 1.000000e-05
fluid-minimize  \
	dirUpdateScheme      PolakRibiere \
	linminMethod         DirUpdateRecommended \
	nIterations          400 \
	history              15 \
	knormThreshold       1e-11 \
	energyDiffThreshold  0 \
	nEnergyDiff          2 \
	alphaTstart          1 \
	alphaTmin            1e-10 \
	updateTestStepSize   yes \
	alphaTreduceFactor   0.1 \
	alphaTincreaseFactor 3 \
	nAlphaAdjustMax      6 \
	wolfeEnergy          0.0001 \
	wolfeGradient        0.9 \
	fdTest               no
fluid-solvent H2O 55.338 ScalarEOS \
	epsBulk 78.4 \
	pMol 0.92466 \
	epsInf 1.77 \
	Pvap 1.06736e-10 \
	sigmaBulk 4.62e-05 \
	Rvdw 2.61727 \
	Res 1.42 \
	tauNuc 343133 \
	poleEl 15 7 1
forces-output-coords Positions
initial-state NbTe2.$VAR
ion Bi   0.000747643753684   0.000868730443048   0.499967242850228 0
ion Bi   0.112944068029989   0.110192971485003   0.356602232130179 0
ion Bi   0.222025829053326   0.222608338893345   0.644214701362085 0
ion Bi   0.333329996000003  -0.000000000000000   0.508628275907563 0
ion Bi   0.443522972485003   0.110192971485003   0.356602232130179 0
ion Bi   0.564592253797421   0.231252309797419   0.648342215454136 0
ion Bi   0.665053666803271   0.000868730443048   0.499967242850228 0
ion Bi   0.778129174386246   0.110411621227509   0.354501385488478 0
ion Bi   0.870825482405160   0.231252309797419   0.648342215454136 0
ion Bi   0.000747637753683   0.331713639803266   0.499967242850228 0
ion Bi   0.111719524176215   0.443220952647573   0.355402589427930 0
ion Bi   0.224662976907057   0.554338509546475   0.645273675078954 0
ion Bi   0.334198702443050   0.331713639803266   0.499967242850228 0
ion Bi   0.443741593227510   0.444789226386244   0.354501385488478 0
ion Bi   0.564592310797422   0.537495407405161   0.648342215454136 0
ion Bi   0.666670054000001   0.333330013999998   0.500362308057231 0
ion Bi   0.778129181386243   0.444789226386244   0.354501385488478 0
ion Bi   0.887668567546469   0.554338509546475   0.645273675078954 0
ion Bi   0.000000000999996   0.666670054000001   0.499081457038451 0
ion Bi   0.111719554176211   0.778389528176212   0.355402589427930 0
ion Bi   0.222025840053323   0.888695889053327   0.644214701362085 0
ion Bi   0.334198726443051   0.667417697753685   0.499967242850228 0
ion Bi   0.443522936485007   0.779614061029988   0.356602232130179 0
ion Bi   0.555948330893345   0.888695889053327   0.644214701362085 0
ion Bi   0.665053630803268   0.667417697753685   0.499967242850228 0
ion Bi   0.776560901647572   0.778389528176212   0.355402589427930 0
ion Bi   0.887668558546472   0.891333016907056   0.645273675078954 0
ion Se   0.000408094762166   0.000258524244569   0.298514719610431 0
ion Se  -0.003997939428532   0.005600824336129   0.699969278571846 0
ion Se   0.101774785190921   0.115777612904537   0.567713186745693 0
ion Se   0.223938480042470   0.218783036915057   0.433639997729372 0
ion Se   0.333329996000003  -0.000000000000000   0.298869397641418 0
ion Se   0.333329996000003  -0.000000000000000   0.700245887615455 0
ion Se   0.449107613904537   0.115777612904537   0.567713186745693 0
ion Se   0.556518508396793   0.223178564396790   0.433663247052969 0
ion Se   0.666003421993268   0.000258524244569   0.298514719610431 0
ion Se   0.665067156092406   0.005600824336129   0.699969278571846 0
ion Se   0.779395629709238   0.107878710581525   0.563492147844441 0
ion Se   0.886972973206418   0.223178564396790   0.433663247052969 0
ion Se   0.000408088762166   0.332663394993263   0.298514719610431 0
ion Se   0.996002054571468   0.331727129092400   0.699969278571846 0
ion Se   0.110998494855598   0.444663011288809   0.564586948193417 0
ion Se   0.222582322109773   0.555378836945116   0.433540800889846 0
ion Se   0.333588496244570   0.332663394993263   0.298514719610431 0
ion Se   0.338930796336130   0.331727129092400   0.699969278571846 0
ion Se   0.441208682581527   0.446055681709235   0.563492147844441 0
ion Se   0.556518565396794   0.553642898206419   0.433663247052969 0
ion Se   0.666670054000001   0.333330013999998   0.298176060842393 0
ion Se   0.779395636709235   0.446055681709235   0.563492147844441 0
ion Se   0.888708894945111   0.555378836945116   0.433540800889846 0
ion Se   0.000000000999996   0.666670054000001   0.299073215555062 0
ion Se   0.000000000999996   0.666670054000001   0.700417343954979 0
ion Se   0.110998524855593   0.777668498855594   0.564586948193417 0
ion Se   0.223938491042467   0.890608540042471   0.433639997729372 0
ion Se   0.333588520244572   0.667078148762167   0.298514719610431 0
ion Se   0.338930820336132   0.662672114571469   0.699969278571846 0
ion Se   0.449107577904541   0.768444778190920   0.567713186745693 0
ion Se   0.552123028915057   0.890608540042471   0.433639997729372 0
ion Se   0.666003385993265   0.667078148762167   0.298514719610431 0
ion Se   0.665067120092403   0.662672114571469   0.699969278571846 0
ion Se   0.778002960288808   0.777668498855594   0.564586948193417 0
ion Se   0.888708885945114   0.889252362109773   0.433540800889846 0
ion-species GBRV/$ID_pbe.uspp
ion-width Ecut
ionic-minimize  \
	dirUpdateScheme      L-BFGS \
	linminMethod         DirUpdateRecommended \
	nIterations          0 \
	history              15 \
	knormThreshold       0.0001 \
	energyDiffThreshold  1e-06 \
	nEnergyDiff          2 \
	alphaTstart          1 \
	alphaTmin            1e-10 \
	updateTestStepSize   yes \
	alphaTreduceFactor   0.1 \
	alphaTincreaseFactor 3 \
	nAlphaAdjustMax      3 \
	wolfeEnergy          0.0001 \
	wolfeGradient        0.9 \
	fdTest               no
kpoint   0.000000000000   0.000000000000   0.000000000000  1.00000000000000
kpoint-folding 3 3 1 
latt-move-scale 1 1 1
latt-scale 1 1 1 
lattice Triclinic 24.3894 24.3896 47.7024 90 90 60.0003
lattice-minimize  \
	dirUpdateScheme      L-BFGS \
	linminMethod         DirUpdateRecommended \
	nIterations          0 \
	history              15 \
	knormThreshold       0 \
	energyDiffThreshold  1e-06 \
	nEnergyDiff          2 \
	alphaTstart          1 \
	alphaTmin            1e-10 \
	updateTestStepSize   yes \
	alphaTreduceFactor   0.1 \
	alphaTincreaseFactor 3 \
	nAlphaAdjustMax      3 \
	wolfeEnergy          0.0001 \
	wolfeGradient        0.9 \
	fdTest               no
lcao-params -1 1e-06 0.0073499
pcm-variant CANDLE
spintype no-spin
subspace-rotation-factor 1 yes
symmetries automatic
symmetry-threshold 0.0001



---------- Setting up symmetries ----------

Found 24 point-group symmetries of the bravais lattice
Found 6 space-group symmetries with basis
Applied RMS atom displacement 9.50882e-05 bohrs to make symmetries exact.

---------- Initializing the Grid ----------
R = 
[    24.3894    12.1947          0  ]
[          0     21.122          0  ]
[          0          0    47.7024  ]
unit cell volume = 24574
G =
[    0.25762  -0.148735          0  ]
[          0   0.297471          0  ]
[          0          0   0.131716  ]
Minimum fftbox size, Smin = [  112  112  216  ]
Chosen fftbox size, S = [  112  112  216  ]

---------- Initializing tighter grid for wavefunction operations ----------
R = 
[    24.3894    12.1947          0  ]
[          0     21.122          0  ]
[          0          0    47.7024  ]
unit cell volume = 24574
G =
[    0.25762  -0.148735          0  ]
[          0   0.297471          0  ]
[          0          0   0.131716  ]
Minimum fftbox size, Smin = [  100  100  196  ]
Chosen fftbox size, S = [  100  100  196  ]

---------- Exchange Correlation functional ----------
Initalized PBE GGA exchange.
Initalized PBE GGA correlation.

---------- Setting up pseudopotentials ----------
Width of ionic core gaussian charges (only for fluid interactions / plotting) set to 0.397384

Reading pseudopotential file '/home/guoxy/vasp/jdftx-1.5.0/build/pseudopotentials/GBRV/bi_pbe.uspp':
  Title: Bi.  Created by USPP 7.3.6 on 14-9-2013
  Reference state energy: -92.204004.  15 valence electrons in orbitals:
    |520>  occupation: 10  eigenvalue: -1.293263
    |600>  occupation: 2  eigenvalue: -0.812524
    |610>  occupation: 2  eigenvalue: -0.420386
  lMax: 2  lLocal: 3  QijEcut: 5
  6 projectors sampled on a log grid with 747 points:
    l: 0  eig: -0.812524  rCut: 2.5
    l: 0  eig: 0.500000  rCut: 2.5
    l: 1  eig: -0.420386  rCut: 2.5
    l: 1  eig: 1.000000  rCut: 2.5
    l: 2  eig: -1.293263  rCut: 2.3
    l: 2  eig: -0.500000  rCut: 2.3
  Partial core density with radius 1
  Transforming core density to a uniform radial grid of dG=0.02 with 1614 points.
  Transforming local potential to a uniform radial grid of dG=0.02 with 1614 points.
  Transforming nonlocal projectors to a uniform radial grid of dG=0.02 with 432 points.
  Transforming density augmentations to a uniform radial grid of dG=0.02 with 1614 points.
  Transforming atomic orbitals to a uniform radial grid of dG=0.02 with 432 points.
  Core radius for overlap checks: 2.50 bohrs.

Reading pseudopotential file '/home/guoxy/vasp/jdftx-1.5.0/build/pseudopotentials/GBRV/se_pbe.uspp':
  Title: Se.  Created by USPP 7.3.6 on 14-9-2013
  Reference state energy: -21.672887.  6 valence electrons in orbitals:
    |400>  occupation: 2  eigenvalue: -0.635284
    |410>  occupation: 4  eigenvalue: -0.239295
  lMax: 2  lLocal: 3  QijEcut: 5
  6 projectors sampled on a log grid with 625 points:
    l: 0  eig: -0.635278  rCut: 1.5
    l: 0  eig: 0.500000  rCut: 1.5
    l: 1  eig: -0.239295  rCut: 1.5
    l: 1  eig: 0.500000  rCut: 1.5
    l: 2  eig: 0.000000  rCut: 1.8
    l: 2  eig: 1.000000  rCut: 1.8
  Partial core density with radius 1.2
  Transforming core density to a uniform radial grid of dG=0.02 with 1614 points.
  Transforming local potential to a uniform radial grid of dG=0.02 with 1614 points.
  Transforming nonlocal projectors to a uniform radial grid of dG=0.02 with 432 points.
  Transforming density augmentations to a uniform radial grid of dG=0.02 with 1614 points.
  Transforming atomic orbitals to a uniform radial grid of dG=0.02 with 432 points.
  Core radius for overlap checks: 1.80 bohrs.

Initialized 2 species with 62 total atoms.

Folded 1 k-points by 3x3x1 to 9 k-points.

---------- Setting up k-points, bands, fillings ----------
Adding inversion symmetry to k-mesh for non-inversion-symmetric unit cell.
Reduced to 3 k-points under symmetry. 
Computing the number of bands and number of electrons
Calculating initial fillings.
nElectrons: 615.000000   nBands: 383   nStates: 3

----- Setting up reduced wavefunction bases (one per k-point) -----
average nbasis = 104963.444 , ideal nbasis = 104982.107

---------- Setting up coulomb interaction ----------
Fluid mode embedding: using embedded box, but periodic Coulomb kernel.
(Fluid response is responsible for (approximate) separation between periodic images.)
Setting up double-sized grid for truncated Coulomb potentials:
R = 
[    24.3894    12.1947          0  ]
[          0     21.122          0  ]
[          0          0    95.4047  ]
unit cell volume = 49148
G =
[    0.25762  -0.148735          0  ]
[          0   0.297471          0  ]
[          0          0  0.0658582  ]
Chosen fftbox size, S = [  112  112  432  ]
Integer grid location selected as the embedding center:
   Grid: [  0  0  108  ]
   Lattice: [  0  0  0.5  ]
   Cartesian: [  0  0  23.8512  ]
Constructing Wigner-Seitz cell: 8 faces (6 quadrilaterals, 2 hexagons)
Range-separation parameter for embedded mesh potentials due to point charges: 0.592861 bohrs.

Initializing van der Waals corrections
	NOTE: vdW corrections apply only for interactions with fluid.
	Bi:  C6:  893.28 Eh-a0^6  R0: 3.555 a0 (WARNING: beyond Grimme's data set)
	Se:  C6:  219.24 Eh-a0^6  R0: 3.347 a0

---------- Setting up ewald sum ----------
Optimum gaussian width for ewald sums = 7.345368 bohr.
Real space sum over 605 unit cells with max indices [  5  5  2  ]
Reciprocal space sum over 9675 terms with max indices [  7  7  21  ]

---------- Allocating electronic variables ----------
Initializing wave functions:  linear combination of atomic orbitals
Bi pseudo-atom occupations:   s ( 2 )  p ( 3 )  d ( 10 )
Se pseudo-atom occupations:   s ( 2 )  p ( 4 )
	FillingsUpdate:  mu: -0.284543992  nElectrons: 615.000000
LCAOMinimize: Iter:   0  F: -2271.7935862069516588  |grad|_K:  6.839e-03  alpha:  1.000e+00
	FillingsUpdate:  mu: -0.190490753  nElectrons: 615.000000
LCAOMinimize: Iter:   1  F: -2273.0575897178978266  |grad|_K:  4.906e-03  alpha:  6.894e-02  linmin: -3.074e-01  cgtest:  8.644e-01  t[s]:     59.33
LCAOMinimize: Encountered beta<0, resetting CG.
LCAOMinimize: 	Predicted alpha/alphaT>3.000000, increasing alphaT to 2.068225e-01.
	FillingsUpdate:  mu: +0.011439038  nElectrons: 615.000000
LCAOMinimize: Iter:   2  F: -2274.1883407789641751  |grad|_K:  3.786e-03  alpha:  2.197e-01  linmin:  1.080e-01  cgtest: -2.337e-01  t[s]:     77.73
	FillingsUpdate:  mu: +0.030673022  nElectrons: 615.000000
LCAOMinimize: Iter:   3  F: -2274.4068021141861209  |grad|_K:  3.742e-03  alpha:  9.325e-02  linmin: -1.963e-02  cgtest:  7.835e-01  t[s]:     91.83
	FillingsUpdate:  mu: -0.072502050  nElectrons: 615.000000
LCAOMinimize: Iter:   4  F: -2274.7499849864639145  |grad|_K:  7.028e-04  alpha:  1.088e-01  linmin:  2.732e-02  cgtest: -2.057e-01  t[s]:    106.66
	FillingsUpdate:  mu: -0.071618418  nElectrons: 615.000000
LCAOMinimize: Iter:   5  F: -2274.7593750993587491  |grad|_K:  6.643e-04  alpha:  8.990e-02  linmin:  4.999e-04  cgtest:  7.519e-02  t[s]:    121.04
	FillingsUpdate:  mu: -0.063716773  nElectrons: 615.000000
LCAOMinimize: Iter:   6  F: -2274.7713565777207805  |grad|_K:  1.715e-04  alpha:  1.230e-01  linmin: -1.984e-05  cgtest: -1.056e-01  t[s]:    135.47
	FillingsUpdate:  mu: -0.062984765  nElectrons: 615.000000
LCAOMinimize: Iter:   7  F: -2274.7725024470832977  |grad|_K:  5.809e-05  alpha:  1.763e-01  linmin:  2.647e-03  cgtest:  8.835e-03  t[s]:    150.30
	FillingsUpdate:  mu: -0.063720926  nElectrons: 615.000000
LCAOMinimize: Iter:   8  F: -2274.7726602947577703  |grad|_K:  7.084e-05  alpha:  2.123e-01  linmin:  1.505e-04  cgtest:  3.462e-03  t[s]:    164.48
	FillingsUpdate:  mu: -0.063339156  nElectrons: 615.000000
LCAOMinimize: Iter:   9  F: -2274.7727436446316460  |grad|_K:  3.813e-05  alpha:  7.495e-02  linmin: -4.509e-04  cgtest: -7.477e-04  t[s]:    178.66
	FillingsUpdate:  mu: -0.062261793  nElectrons: 615.000000
LCAOMinimize: Iter:  10  F: -2274.7728020036274756  |grad|_K:  2.300e-05  alpha:  1.816e-01  linmin:  1.467e-03  cgtest: -7.440e-03  t[s]:    193.50
	FillingsUpdate:  mu: -0.062632402  nElectrons: 615.000000
LCAOMinimize: Iter:  11  F: -2274.7728241381505541  |grad|_K:  9.890e-06  alpha:  1.899e-01  linmin: -1.328e-04  cgtest:  1.850e-02  t[s]:    207.54
	FillingsUpdate:  mu: -0.062704451  nElectrons: 615.000000
LCAOMinimize: Iter:  12  F: -2274.7728264424408735  |grad|_K:  9.109e-06  alpha:  1.065e-01  linmin:  4.997e-06  cgtest: -9.923e-04  t[s]:    221.73
	FillingsUpdate:  mu: -0.062676374  nElectrons: 615.000000
LCAOMinimize: Iter:  13  F: -2274.7728279794032460  |grad|_K:  2.025e-06  alpha:  8.375e-02  linmin: -6.716e-05  cgtest:  1.464e-03  t[s]:    236.55
	FillingsUpdate:  mu: -0.062624512  nElectrons: 615.000000
LCAOMinimize: Iter:  14  F: -2274.7728281827367027  |grad|_K:  1.522e-06  alpha:  2.242e-01  linmin: -5.041e-05  cgtest:  1.119e-04  t[s]:    250.84
	FillingsUpdate:  mu: -0.062651478  nElectrons: 615.000000
LCAOMinimize: Iter:  15  F: -2274.7728282767757264  |grad|_K:  1.343e-06  alpha:  1.835e-01  linmin: -2.074e-05  cgtest: -1.354e-04  t[s]:    265.19
LCAOMinimize: Converged (|Delta F|<1.000000e-06 for 2 iters).
----- createFluidSolver() ----- (Fluid-side solver setup)
   Initializing fluid molecule 'H2O'
     Initializing site 'O'
       Electron density: proportional to exp(-r/0.36935)*erfc((r-0.51523)/0.36823) with norm 6.826
       Charge density: gaussian nuclear width 0.478731 with net site charge 0.826
       Polarizability: cuspless exponential with width 0.32 and norm 3.73
       Hard sphere radius: 2.57003 bohrs
       Positions in reference frame:
         [ +0.000000 +0.000000 +0.000000 ]
     Initializing site 'H'
       Electron density: proportional to exp(-r/0.34641)*erfc((r-0)/0.390882) with norm 0.587
       Charge density: gaussian nuclear width 0.377945 with net site charge -0.413
       Polarizability: cuspless exponential with width 0.39 and norm 3.3
       Positions in reference frame:
         [ +0.000000 -1.441945 +1.122523 ]
         [ +0.000000 +1.441945 +1.122523 ]
     Net charge: 0   dipole magnitude: 0.927204
     Initializing spherical shell mfKernel with radius 2.61727 Bohr
     deltaS corrections:
       site 'O': -7.54299
       site 'H': -6.83917
   Initializing fluid molecule 'Na+'
     Initializing site 'Na'
       Electron density: proportional to exp(-r/0.19682)*erfc((r-0.71491)/0.41314) with norm 8.1383
       Charge density: gaussian nuclear width 0.365347 with net site charge -1
       Hard sphere radius: 1.86327 bohrs
       Positions in reference frame:
         [ +0.000000 +0.000000 +0.000000 ]
     Net charge: -1   dipole magnitude: 0
     Initializing gaussian mfKernel with width: 1.55004 Bohr
     deltaS corrections:
       site 'Na': -22.3555
   Initializing fluid molecule 'F-'
     Initializing site 'F'
       Electron density: proportional to exp(-r/0.38886)*erfc((r-0)/0.438782) with norm 8
       Charge density: gaussian nuclear width 0.374796 with net site charge 1
       Hard sphere radius: 2.39995 bohrs
       Positions in reference frame:
         [ +0.000000 +0.000000 +0.000000 ]
     Net charge: 1   dipole magnitude: 0
     Initializing gaussian mfKernel with width: 1.59012 Bohr
     deltaS corrections:
       site 'F': -9.04335

Correction to mu due to finite nuclear width = -0.0124156
   Cavity determined by nc: 0.00142 and sigma: 0.707107
   Nonlocal vdW cavity from gaussian model electron density with norm = 8 and sigma = 0.993594 bohr
   Charge asymmetry in cavity with sensitivity pCavity = 36.5 e-bohr/Eh
   Electrostatic cavity expanded by eta = 1.46 bohrs
   Weighted density cavitation model constrained by Nbulk: 0.0049383 bohr^-3, Pvap: 3.14029 kPa, Rvdw: 2.61727 bohr and sigmaBulk: 4.62e-05 Eh/bohr^2 at T: 298 K.
   Weighted density dispersion model using vdW pair potentials with single solvent site with sqrtC6eff: 0.77 SI.


---- Citations for features of the code used in this run ----

   Software package:
      R. Sundararaman, K. Letchworth-Weaver, K.A. Schwarz, D. Gunceler, Y. Ozhabes and T.A. Arias, 'JDFTx: software for joint density-functional theory', SoftwareX 6, 278 (2017)

   gga-PBE exchange-correlation functional:
      J.P. Perdew, K. Burke and M. Ernzerhof, Phys. Rev. Lett. 77, 3865 (1996)

   Pseudopotentials:
      KF Garrity, JW Bennett, KM Rabe and D Vanderbilt, Comput. Mater. Sci. 81, 446 (2014)

   Truncated Coulomb potentials:
      R. Sundararaman and T.A. Arias, Phys. Rev. B 87, 165122 (2013)

   Van der Waals correction pair-potentials:
      S. Grimme, J. Comput. Chem. 27, 1787 (2006)

   Charge-asymmetric nonlocally-determined local-electric (CANDLE) solvation model:
      R. Sundararaman and W.A. Goddard III, J. Chem. Phys. 142, 064107 (2015)

   Total energy minimization with Auxiliary Hamiltonian:
      C. Freysoldt, S. Boeck, and J. Neugebauer, Phys. Rev. B 79, 241103(R) (2009)

This list may not be complete. Please suggest additional citations or
report any other bugs at https://github.com/shankar1729/jdftx/issues

Initialization completed successfully at t[s]:    269.33

Fluid solver invoked on fresh (partially random / LCAO) wavefunctions
Running a vacuum solve first:

-------- Initial electronic minimization -----------
	FillingsUpdate:  mu: -0.062651478  nElectrons: 615.000000
ElecMinimize: Iter:   0  F: -2274.772828276783002  |grad|_K:  8.618e-05  alpha:  1.000e+00
	FillingsUpdate:  mu: -0.032876241  nElectrons: 615.000000
	SubspaceRotationAdjust: set factor to 1
ElecMinimize: Iter:   1  F: -2275.638210935807820  |grad|_K:  7.200e-05  alpha:  9.641e-01  linmin:  3.189e-06  t[s]:    305.06
	FillingsUpdate:  mu: -0.074358293  nElectrons: 615.000000
	SubspaceRotationAdjust: set factor to 0.627
ElecMinimize: Iter:   2  F: -2275.882742306724140  |grad|_K:  6.664e-05  alpha:  3.982e-01  linmin:  8.349e-05  t[s]:    326.99
	FillingsUpdate:  mu: -0.058895339  nElectrons: 615.000000
	SubspaceRotationAdjust: set factor to 0.452
ElecMinimize: Iter:   3  F: -2275.933156788604265  |grad|_K:  4.598e-05  alpha:  9.834e-02  linmin:  1.606e-04  t[s]:    348.85
	FillingsUpdate:  mu: -0.028307509  nElectrons: 615.000000
	SubspaceRotationAdjust: set factor to 0.33
ElecMinimize: Iter:   4  F: -2275.970126449451072  |grad|_K:  2.921e-05  alpha:  1.479e-01  linmin: -1.065e-04  t[s]:    370.54
	FillingsUpdate:  mu: -0.042949420  nElectrons: 615.000000
	SubspaceRotationAdjust: set factor to 0.219
ElecMinimize: Iter:   5  F: -2276.014493379090709  |grad|_K:  2.671e-05  alpha:  4.225e-01  linmin: -3.055e-06  t[s]:    392.74
	FillingsUpdate:  mu: -0.049118056  nElectrons: 615.000000
	SubspaceRotationAdjust: set factor to 0.19
ElecMinimize: Iter:   6  F: -2276.029846722235561  |grad|_K:  1.454e-05  alpha:  1.738e-01  linmin: -3.623e-05  t[s]:    414.36
	FillingsUpdate:  mu: -0.060591880  nElectrons: 615.000000
	SubspaceRotationAdjust: set factor to 0.149
ElecMinimize: Iter:   7  F: -2276.041491068050163  |grad|_K:  1.376e-05  alpha:  4.505e-01  linmin:  2.767e-05  t[s]:    436.84
	FillingsUpdate:  mu: -0.057064803  nElectrons: 615.000000
	SubspaceRotationAdjust: set factor to 0.167
ElecMinimize: Iter:   8  F: -2276.048149665569326  |grad|_K:  9.333e-06  alpha:  2.924e-01  linmin: -7.761e-07  t[s]:    458.66
	FillingsUpdate:  mu: -0.051427983  nElectrons: 615.000000
	SubspaceRotationAdjust: set factor to 0.145
ElecMinimize: Iter:   9  F: -2276.052470360227744  |grad|_K:  7.851e-06  alpha:  4.108e-01  linmin:  1.502e-05  t[s]:    481.13
	FillingsUpdate:  mu: -0.048066302  nElectrons: 615.000000
	SubspaceRotationAdjust: set factor to 0.154
ElecMinimize: Iter:  10  F: -2276.054636192144244  |grad|_K:  5.271e-06  alpha:  2.910e-01  linmin:  1.680e-06  t[s]:    503.07
	FillingsUpdate:  mu: -0.049137534  nElectrons: 615.000000
	SubspaceRotationAdjust: set factor to 0.118
	SubspaceRotationAdjust: resetting CG because factor has changed by 0.117585
ElecMinimize: 	State modified externally: resetting search direction.
ElecMinimize: Iter:  11  F: -2276.056154329253332  |grad|_K:  4.788e-06  alpha:  4.529e-01
	FillingsUpdate:  mu: -0.049574569  nElectrons: 615.000000
	SubspaceRotationAdjust: set factor to 0.156
ElecMinimize: Iter:  12  F: -2276.057193258782718  |grad|_K:  2.277e-06  alpha:  3.750e-01  linmin:  3.834e-06  t[s]:    559.19
	FillingsUpdate:  mu: -0.052416732  nElectrons: 615.000000
	SubspaceRotationAdjust: set factor to 0.15
ElecMinimize: Iter:  13  F: -2276.057891139434560  |grad|_K:  2.039e-06  alpha:  1.116e+00  linmin:  3.204e-05  t[s]:    580.50
	FillingsUpdate:  mu: -0.049931643  nElectrons: 615.000000
	SubspaceRotationAdjust: set factor to 0.151
ElecMinimize: Iter:  14  F: -2276.058376974386647  |grad|_K:  1.380e-06  alpha:  9.680e-01  linmin:  8.489e-06  t[s]:    602.07
	FillingsUpdate:  mu: -0.050021445  nElectrons: 615.000000
	SubspaceRotationAdjust: set factor to 0.16
ElecMinimize: Iter:  15  F: -2276.058585298991602  |grad|_K:  1.330e-06  alpha:  9.066e-01  linmin:  3.431e-06  t[s]:    624.07
	FillingsUpdate:  mu: -0.050397094  nElectrons: 615.000000
	SubspaceRotationAdjust: set factor to 0.125
ElecMinimize: Iter:  16  F: -2276.058719895882405  |grad|_K:  9.322e-07  alpha:  6.291e-01  linmin:  1.098e-06  t[s]:    645.69
	FillingsUpdate:  mu: -0.050498644  nElectrons: 615.000000
	SubspaceRotationAdjust: set factor to 0.0873
ElecMinimize: Iter:  17  F: -2276.058791651958018  |grad|_K:  7.806e-07  alpha:  6.836e-01  linmin:  9.928e-06  t[s]:    667.63
	FillingsUpdate:  mu: -0.050224415  nElectrons: 615.000000
	SubspaceRotationAdjust: set factor to 0.0833
ElecMinimize: Iter:  18  F: -2276.058838440284035  |grad|_K:  5.475e-07  alpha:  6.364e-01  linmin:  2.418e-06  t[s]:    689.14
	FillingsUpdate:  mu: -0.050287650  nElectrons: 615.000000
	SubspaceRotationAdjust: set factor to 0.0914
ElecMinimize: Iter:  19  F: -2276.058879741051896  |grad|_K:  5.033e-07  alpha:  1.141e+00  linmin:  2.716e-06  t[s]:    711.21
	FillingsUpdate:  mu: -0.050386025  nElectrons: 615.000000
	SubspaceRotationAdjust: set factor to 0.0738
ElecMinimize: Iter:  20  F: -2276.058902251113523  |grad|_K:  4.042e-07  alpha:  7.354e-01  linmin: -2.266e-07  t[s]:    732.70
	FillingsUpdate:  mu: -0.050188826  nElectrons: 615.000000
	SubspaceRotationAdjust: set factor to 0.0805
ElecMinimize: Iter:  21  F: -2276.058929461824846  |grad|_K:  3.671e-07  alpha:  1.379e+00  linmin:  5.721e-07  t[s]:    754.79
	FillingsUpdate:  mu: -0.050317086  nElectrons: 615.000000
	SubspaceRotationAdjust: set factor to 0.0817
ElecMinimize: Iter:  22  F: -2276.058952645151294  |grad|_K:  3.477e-07  alpha:  1.424e+00  linmin: -6.233e-07  t[s]:    776.49
	FillingsUpdate:  mu: -0.050379416  nElectrons: 615.000000
	SubspaceRotationAdjust: set factor to 0.077
ElecMinimize: Iter:  23  F: -2276.058962593556316  |grad|_K:  2.387e-07  alpha:  6.811e-01  linmin:  1.017e-07  t[s]:    798.07
	FillingsUpdate:  mu: -0.050308851  nElectrons: 615.000000
	SubspaceRotationAdjust: set factor to 0.0955
ElecMinimize: Iter:  24  F: -2276.058968051620923  |grad|_K:  1.707e-07  alpha:  7.928e-01  linmin: -5.227e-08  t[s]:    819.95
	FillingsUpdate:  mu: -0.050269138  nElectrons: 615.000000
	SubspaceRotationAdjust: set factor to 0.1
ElecMinimize: Iter:  25  F: -2276.058971357127575  |grad|_K:  1.509e-07  alpha:  9.385e-01  linmin: -5.274e-07  t[s]:    841.29
	FillingsUpdate:  mu: -0.050337680  nElectrons: 615.000000
	SubspaceRotationAdjust: set factor to 0.099
ElecMinimize: Iter:  26  F: -2276.058973983317173  |grad|_K:  1.240e-07  alpha:  9.545e-01  linmin: -4.479e-07  t[s]:    863.11
	FillingsUpdate:  mu: -0.050328184  nElectrons: 615.000000
	SubspaceRotationAdjust: set factor to 0.104
ElecMinimize: Iter:  27  F: -2276.058975989965802  |grad|_K:  1.018e-07  alpha:  1.080e+00  linmin: -1.020e-07  t[s]:    884.80
	FillingsUpdate:  mu: -0.050313787  nElectrons: 615.000000
	SubspaceRotationAdjust: set factor to 0.116
ElecMinimize: Iter:  28  F: -2276.058977049093301  |grad|_K:  8.208e-08  alpha:  8.453e-01  linmin: -3.743e-08  t[s]:    906.92
	FillingsUpdate:  mu: -0.050325048  nElectrons: 615.000000
	SubspaceRotationAdjust: set factor to 0.129
ElecMinimize: Iter:  29  F: -2276.058977667574254  |grad|_K:  6.363e-08  alpha:  7.596e-01  linmin:  7.362e-08  t[s]:    928.55
	FillingsUpdate:  mu: -0.050339002  nElectrons: 615.000000
	SubspaceRotationAdjust: set factor to 0.136
ElecMinimize: Iter:  30  F: -2276.058978061500511  |grad|_K:  4.083e-08  alpha:  8.052e-01  linmin: -3.090e-07  t[s]:    950.60
	FillingsUpdate:  mu: -0.050336808  nElectrons: 615.000000
	SubspaceRotationAdjust: set factor to 0.119
ElecMinimize: Iter:  31  F: -2276.058978249038319  |grad|_K:  3.613e-08  alpha:  9.310e-01  linmin:  2.866e-10  t[s]:    972.37
	FillingsUpdate:  mu: -0.050327829  nElectrons: 615.000000
	SubspaceRotationAdjust: set factor to 0.0868
ElecMinimize: Iter:  32  F: -2276.058978330838272  |grad|_K:  2.457e-08  alpha:  5.187e-01  linmin: -1.003e-07  t[s]:    994.09
	FillingsUpdate:  mu: -0.050332422  nElectrons: 615.000000
	SubspaceRotationAdjust: set factor to 0.0923
ElecMinimize: Iter:  33  F: -2276.058978411670068  |grad|_K:  1.843e-08  alpha:  1.107e+00  linmin: -1.054e-06  t[s]:   1015.60
	FillingsUpdate:  mu: -0.050334416  nElectrons: 615.000000
	SubspaceRotationAdjust: set factor to 0.0914
ElecMinimize: Iter:  34  F: -2276.058978452279462  |grad|_K:  1.673e-08  alpha:  9.885e-01  linmin:  7.368e-07  t[s]:   1037.11
	FillingsUpdate:  mu: -0.050332157  nElectrons: 615.000000
	SubspaceRotationAdjust: set factor to 0.086
ElecMinimize: Iter:  35  F: -2276.058978477338769  |grad|_K:  1.236e-08  alpha:  7.427e-01  linmin: -3.925e-07  t[s]:   1059.33
	FillingsUpdate:  mu: -0.050330792  nElectrons: 615.000000
	SubspaceRotationAdjust: set factor to 0.0933
ElecMinimize: Iter:  36  F: -2276.058978497797398  |grad|_K:  1.207e-08  alpha:  1.108e+00  linmin:  2.425e-07  t[s]:   1080.77
	FillingsUpdate:  mu: -0.050332266  nElectrons: 615.000000
	SubspaceRotationAdjust: set factor to 0.0917
ElecMinimize: Iter:  37  F: -2276.058978517221476  |grad|_K:  1.147e-08  alpha:  1.106e+00  linmin:  9.376e-07  t[s]:   1103.45
	FillingsUpdate:  mu: -0.050329766  nElectrons: 615.000000
	SubspaceRotationAdjust: set factor to 0.0848
ElecMinimize: Iter:  38  F: -2276.058978532837955  |grad|_K:  1.048e-08  alpha:  9.854e-01  linmin: -7.254e-08  t[s]:   1125.03
	FillingsUpdate:  mu: -0.050329245  nElectrons: 615.000000
	SubspaceRotationAdjust: set factor to 0.0958
ElecMinimize: Iter:  39  F: -2276.058978545225727  |grad|_K:  7.819e-09  alpha:  9.356e-01  linmin:  6.630e-07  t[s]:   1147.30
	FillingsUpdate:  mu: -0.050330712  nElectrons: 615.000000
	SubspaceRotationAdjust: set factor to 0.101
ElecMinimize: Iter:  40  F: -2276.058978552368899  |grad|_K:  6.392e-09  alpha:  9.668e-01  linmin:  7.955e-07  t[s]:   1169.16
	FillingsUpdate:  mu: -0.050330821  nElectrons: 615.000000
	SubspaceRotationAdjust: set factor to 0.0966
ElecMinimize: Iter:  41  F: -2276.058978555738122  |grad|_K:  4.738e-09  alpha:  6.878e-01  linmin: -8.313e-07  t[s]:   1191.10
ElecMinimize: Converged (|Delta F|<1.000000e-08 for 2 iters).
Setting wave functions to eigenvectors of Hamiltonian
Vacuum energy after initial minimize, F = -2276.058978555738122

	Linear fluid (dielectric constant: 78.4, screening length: 5.74355 Bohr) occupying 0.690422 of unit cell:	Completed after 23 iterations at t[s]:   1198.85

-------- Electronic minimization -----------
	Linear fluid (dielectric constant: 78.4, screening length: 5.74355 Bohr) occupying 0.690422 of unit cell:	Completed after 0 iterations at t[s]:   1204.19
	FillingsUpdate:  mu: -0.162701401  nElectrons: 615.000000
ElecMinimize: Iter:   0  F: -2276.047465969036693  |grad|_K:  9.535e-07  alpha:  1.000e+00
	Linear fluid (dielectric constant: 78.4, screening length: 5.74355 Bohr) occupying 0.690617 of unit cell:	Completed after 10 iterations at t[s]:   1223.22
	Linear fluid (dielectric constant: 78.4, screening length: 5.74355 Bohr) occupying 0.690733 of unit cell:	Completed after 9 iterations at t[s]:   1232.39
	FillingsUpdate:  mu: -0.162325448  nElectrons: 615.000000
	SubspaceRotationAdjust: set factor to 0.0883
ElecMinimize: Iter:   1  F: -2276.047641351727179  |grad|_K:  6.259e-07  alpha:  1.602e+00  linmin:  1.564e-06  t[s]:   1242.10
	Linear fluid (dielectric constant: 78.4, screening length: 5.74355 Bohr) occupying 0.690920 of unit cell:	Completed after 10 iterations at t[s]:   1251.15
	Linear fluid (dielectric constant: 78.4, screening length: 5.74355 Bohr) occupying 0.690854 of unit cell:	Completed after 6 iterations at t[s]:   1259.38
	FillingsUpdate:  mu: -0.161823672  nElectrons: 615.000000
	SubspaceRotationAdjust: set factor to 0.0851
ElecMinimize: Iter:   2  F: -2276.047689408746919  |grad|_K:  4.060e-07  alpha:  1.028e+00  linmin:  2.263e-07  t[s]:   1274.85
	Linear fluid (dielectric constant: 78.4, screening length: 5.74355 Bohr) occupying 0.690890 of unit cell:	Completed after 4 iterations at t[s]:   1283.25
	Linear fluid (dielectric constant: 78.4, screening length: 5.74355 Bohr) occupying 0.690884 of unit cell:	Completed after 2 iterations at t[s]:   1291.73
	FillingsUpdate:  mu: -0.161767140  nElectrons: 615.000000
	SubspaceRotationAdjust: set factor to 0.0935
ElecMinimize: Iter:   3  F: -2276.047706291650684  |grad|_K:  3.492e-07  alpha:  8.521e-01  linmin:  2.373e-08  t[s]:   1301.35
	Linear fluid (dielectric constant: 78.4, screening length: 5.74355 Bohr) occupying 0.690895 of unit cell:	Completed after 4 iterations at t[s]:   1309.57
	Linear fluid (dielectric constant: 78.4, screening length: 5.74355 Bohr) occupying 0.690892 of unit cell:	Completed after 2 iterations at t[s]:   1317.39
	FillingsUpdate:  mu: -0.161695715  nElectrons: 615.000000
	SubspaceRotationAdjust: set factor to 0.108
ElecMinimize: Iter:   4  F: -2276.047715544249968  |grad|_K:  2.015e-07  alpha:  6.351e-01  linmin: -1.826e-07  t[s]:   1326.64
	Linear fluid (dielectric constant: 78.4, screening length: 5.74355 Bohr) occupying 0.690890 of unit cell:	Completed after 3 iterations at t[s]:   1335.02
	Linear fluid (dielectric constant: 78.4, screening length: 5.74355 Bohr) occupying 0.690887 of unit cell:	Completed after 0 iterations at t[s]:   1342.57
	FillingsUpdate:  mu: -0.161698152  nElectrons: 615.000000
	SubspaceRotationAdjust: set factor to 0.138
ElecMinimize: Iter:   5  F: -2276.047721852929044  |grad|_K:  1.365e-07  alpha:  1.227e+00  linmin: -3.883e-06  t[s]:   1358.37
	Linear fluid (dielectric constant: 78.4, screening length: 5.74355 Bohr) occupying 0.690881 of unit cell:	Completed after 2 iterations at t[s]:   1366.19
	Linear fluid (dielectric constant: 78.4, screening length: 5.74355 Bohr) occupying 0.690882 of unit cell:	Completed after 0 iterations at t[s]:   1383.89
	FillingsUpdate:  mu: -0.161765957  nElectrons: 615.000000
	SubspaceRotationAdjust: set factor to 0.159
ElecMinimize: Iter:   6  F: -2276.047724102308166  |grad|_K:  1.258e-07  alpha:  9.787e-01  linmin: -1.655e-06  t[s]:   1405.15
	Linear fluid (dielectric constant: 78.4, screening length: 5.74355 Bohr) occupying 0.690876 of unit cell:	Completed after 2 iterations at t[s]:   1421.32
	Linear fluid (dielectric constant: 78.4, screening length: 5.74355 Bohr) occupying 0.690878 of unit cell:	Completed after 0 iterations at t[s]:   1440.05
	FillingsUpdate:  mu: -0.161796328  nElectrons: 615.000000
	SubspaceRotationAdjust: set factor to 0.178
ElecMinimize: Iter:   7  F: -2276.047725420354709  |grad|_K:  1.273e-07  alpha:  6.123e-01  linmin:  1.940e-06  t[s]:   1465.71
	Linear fluid (dielectric constant: 78.4, screening length: 5.74355 Bohr) occupying 0.690874 of unit cell:	Completed after 2 iterations at t[s]:   1484.85
	Linear fluid (dielectric constant: 78.4, screening length: 5.74355 Bohr) occupying 0.690874 of unit cell:	Completed after 0 iterations at t[s]:   1507.66
	FillingsUpdate:  mu: -0.161813937  nElectrons: 615.000000
	SubspaceRotationAdjust: set factor to 0.218
ElecMinimize: Iter:   8  F: -2276.047726247844821  |grad|_K:  7.754e-08  alpha:  5.218e-01  linmin: -1.938e-06  t[s]:   1529.40
	Linear fluid (dielectric constant: 78.4, screening length: 5.74355 Bohr) occupying 0.690874 of unit cell:	Completed after 0 iterations at t[s]:   1542.99
	Linear fluid (dielectric constant: 78.4, screening length: 5.74355 Bohr) occupying 0.690873 of unit cell:	Completed after 0 iterations at t[s]:   1563.96
	FillingsUpdate:  mu: -0.161812159  nElectrons: 615.000000
	SubspaceRotationAdjust: set factor to 0.263
ElecMinimize: Iter:   9  F: -2276.047727007578032  |grad|_K:  5.765e-08  alpha:  9.056e-01  linmin: -1.388e-06  t[s]:   1581.82
	Linear fluid (dielectric constant: 78.4, screening length: 5.74355 Bohr) occupying 0.690874 of unit cell:	Completed after 3 iterations at t[s]:   1589.82
	Linear fluid (dielectric constant: 78.4, screening length: 5.74355 Bohr) occupying 0.690873 of unit cell:	Completed after 0 iterations at t[s]:   1605.10
	FillingsUpdate:  mu: -0.161721264  nElectrons: 615.000000
	SubspaceRotationAdjust: set factor to 0.243
ElecMinimize: Iter:  10  F: -2276.047727097937695  |grad|_K:  7.132e-08  alpha:  4.362e-01  linmin:  6.799e-07  t[s]:   1614.97
	Linear fluid (dielectric constant: 78.4, screening length: 5.74355 Bohr) occupying 0.690875 of unit cell:	Completed after 0 iterations at t[s]:   1633.81
	Linear fluid (dielectric constant: 78.4, screening length: 5.74355 Bohr) occupying 0.690875 of unit cell:	Completed after 0 iterations at t[s]:   1642.37
	FillingsUpdate:  mu: -0.161720859  nElectrons: 615.000000
	SubspaceRotationAdjust: set factor to 0.32
ElecMinimize: Iter:  11  F: -2276.047727320082231  |grad|_K:  6.764e-08  alpha:  3.809e-01  linmin: -1.570e-09  t[s]:   1653.13
	Linear fluid (dielectric constant: 78.4, screening length: 5.74355 Bohr) occupying 0.690876 of unit cell:	Completed after 1 iterations at t[s]:   1661.36
	Linear fluid (dielectric constant: 78.4, screening length: 5.74355 Bohr) occupying 0.690875 of unit cell:	Completed after 1 iterations at t[s]:   1670.28
ElecMinimize: 	Step increased F by 5.206311e-08, reducing alpha to 1.336633e-02.
	Linear fluid (dielectric constant: 78.4, screening length: 5.74355 Bohr) occupying 0.690875 of unit cell:	Completed after 0 iterations at t[s]:   1687.20
ElecMinimize: 	Step increased F by 2.466686e-08, reducing alpha to 1.336633e-03.
	Linear fluid (dielectric constant: 78.4, screening length: 5.74355 Bohr) occupying 0.690875 of unit cell:	Completed after 0 iterations at t[s]:   1704.57
ElecMinimize: 	Step increased F by 2.370552e-08, reducing alpha to 1.336633e-04.
ElecMinimize: 	Step failed to reduce F after 3 attempts. Quitting step.
ElecMinimize: 	Undoing step.
	Linear fluid (dielectric constant: 78.4, screening length: 5.74355 Bohr) occupying 0.690875 of unit cell:	Completed after 0 iterations at t[s]:   1721.72
ElecMinimize: 	Step failed: resetting search direction.
	FillingsUpdate:  mu: -0.161763305  nElectrons: 615.000000
	SubspaceRotationAdjust: set factor to 0.29
ElecMinimize: Iter:  12  F: -2276.047727296348512  |grad|_K:  5.345e-08  alpha:  1.337e-04
	Linear fluid (dielectric constant: 78.4, screening length: 5.74355 Bohr) occupying 0.690875 of unit cell:	Completed after 0 iterations at t[s]:   1742.68
	Linear fluid (dielectric constant: 78.4, screening length: 5.74355 Bohr) occupying 0.690875 of unit cell:	Completed after 1 iterations at t[s]:   1752.56
ElecMinimize: 	Step increased F by 1.950912e-08, reducing alpha to 6.469368e-02.
	Linear fluid (dielectric constant: 78.4, screening length: 5.74355 Bohr) occupying 0.690875 of unit cell:	Completed after 0 iterations at t[s]:   1771.84
	FillingsUpdate:  mu: -0.161741259  nElectrons: 615.000000
	SubspaceRotationAdjust: set factor to 0.257
ElecMinimize: Iter:  13  F: -2276.047727351809044  |grad|_K:  4.181e-08  alpha:  6.469e-02  linmin: -9.670e-05  t[s]:   1784.37
	Linear fluid (dielectric constant: 78.4, screening length: 5.74355 Bohr) occupying 0.690875 of unit cell:	Completed after 0 iterations at t[s]:   1797.60
ElecMinimize: 	Predicted alpha/alphaT>3.000000, increasing alphaT to 1.940810e-01.
	Linear fluid (dielectric constant: 78.4, screening length: 5.74355 Bohr) occupying 0.690875 of unit cell:	Completed after 0 iterations at t[s]:   1807.93
	Linear fluid (dielectric constant: 78.4, screening length: 5.74355 Bohr) occupying 0.690876 of unit cell:	Completed after 0 iterations at t[s]:   1817.64
	FillingsUpdate:  mu: -0.161741392  nElectrons: 615.000000
	SubspaceRotationAdjust: set factor to 0.344
ElecMinimize: Iter:  14  F: -2276.047727481263337  |grad|_K:  3.806e-08  alpha:  4.855e-01  linmin:  1.172e-07  t[s]:   1830.69
	Linear fluid (dielectric constant: 78.4, screening length: 5.74355 Bohr) occupying 0.690876 of unit cell:	Completed after 2 iterations at t[s]:   1845.76
	Linear fluid (dielectric constant: 78.4, screening length: 5.74355 Bohr) occupying 0.690876 of unit cell:	Completed after 0 iterations at t[s]:   1856.95
ElecMinimize: 	Step increased F by 2.520073e-08, reducing alpha to 1.272971e-02.
	Linear fluid (dielectric constant: 78.4, screening length: 5.74355 Bohr) occupying 0.690876 of unit cell:	Completed after 0 iterations at t[s]:   1882.64
	FillingsUpdate:  mu: -0.161791717  nElectrons: 615.000000
	SubspaceRotationAdjust: set factor to 0.262
ElecMinimize: Iter:  15  F: -2276.047727483304243  |grad|_K:  4.242e-08  alpha:  1.273e-02  linmin:  7.712e-05  t[s]:   1898.48
	Linear fluid (dielectric constant: 78.4, screening length: 5.74355 Bohr) occupying 0.690876 of unit cell:	Completed after 0 iterations at t[s]:   1915.79
ElecMinimize: 	Predicted alpha/alphaT>3.000000, increasing alphaT to 3.818913e-02.
	Linear fluid (dielectric constant: 78.4, screening length: 5.74355 Bohr) occupying 0.690876 of unit cell:	Completed after 0 iterations at t[s]:   1927.63
ElecMinimize: 	Predicted alpha/alphaT>3.000000, increasing alphaT to 1.145674e-01.
	Linear fluid (dielectric constant: 78.4, screening length: 5.74355 Bohr) occupying 0.690876 of unit cell:	Completed after 0 iterations at t[s]:   1938.74
	Linear fluid (dielectric constant: 78.4, screening length: 5.74355 Bohr) occupying 0.690876 of unit cell:	Completed after 0 iterations at t[s]:   1957.09
	FillingsUpdate:  mu: -0.161791726  nElectrons: 615.000000
	SubspaceRotationAdjust: set factor to 0.238
ElecMinimize: Iter:  16  F: -2276.047727505477724  |grad|_K:  3.882e-08  alpha:  2.549e-01  linmin:  4.824e-07  t[s]:   1971.62
	Linear fluid (dielectric constant: 78.4, screening length: 5.74355 Bohr) occupying 0.690877 of unit cell:	Completed after 0 iterations at t[s]:   1984.33
	Linear fluid (dielectric constant: 78.4, screening length: 5.74355 Bohr) occupying 0.690877 of unit cell:	Completed after 0 iterations at t[s]:   1994.64
	FillingsUpdate:  mu: -0.161791037  nElectrons: 615.000000
	SubspaceRotationAdjust: set factor to 0.239
ElecMinimize: Iter:  17  F: -2276.047727530411521  |grad|_K:  3.042e-08  alpha:  2.017e-01  linmin: -5.840e-05  t[s]:   2007.30
	Linear fluid (dielectric constant: 78.4, screening length: 5.74355 Bohr) occupying 0.690877 of unit cell:	Completed after 0 iterations at t[s]:   2020.85
	Linear fluid (dielectric constant: 78.4, screening length: 5.74355 Bohr) occupying 0.690877 of unit cell:	Completed after 0 iterations at t[s]:   2030.64
	FillingsUpdate:  mu: -0.161789074  nElectrons: 615.000000
	SubspaceRotationAdjust: set factor to 0.252
ElecMinimize: Iter:  18  F: -2276.047727554180710  |grad|_K:  2.394e-08  alpha:  1.757e-01  linmin: -1.277e-04  t[s]:   2043.27
	Linear fluid (dielectric constant: 78.4, screening length: 5.74355 Bohr) occupying 0.690877 of unit cell:	Completed after 2 iterations at t[s]:   2057.44
	Linear fluid (dielectric constant: 78.4, screening length: 5.74355 Bohr) occupying 0.690877 of unit cell:	Completed after 0 iterations at t[s]:   2067.39
ElecMinimize: 	Step increased F by 1.082385e-07, reducing alpha to 2.001479e-03.
	Linear fluid (dielectric constant: 78.4, screening length: 5.74355 Bohr) occupying 0.690877 of unit cell:	Completed after 0 iterations at t[s]:   2089.27
ElecMinimize: 	Step increased F by 1.026465e-07, reducing alpha to 2.001479e-04.
	Linear fluid (dielectric constant: 78.4, screening length: 5.74355 Bohr) occupying 0.690877 of unit cell:	Completed after 0 iterations at t[s]:   2111.78
ElecMinimize: 	Step increased F by 1.020712e-07, reducing alpha to 2.001479e-05.
ElecMinimize: 	Step failed to reduce F after 3 attempts. Quitting step.
ElecMinimize: 	Undoing step.
	Linear fluid (dielectric constant: 78.4, screening length: 5.74355 Bohr) occupying 0.690877 of unit cell:	Completed after 0 iterations at t[s]:   2134.60
ElecMinimize: 	Step failed: resetting search direction.
	FillingsUpdate:  mu: -0.161757382  nElectrons: 615.000000
	SubspaceRotationAdjust: set factor to 0.2
ElecMinimize: Iter:  19  F: -2276.047727452071740  |grad|_K:  4.311e-08  alpha:  2.001e-05
	Linear fluid (dielectric constant: 78.4, screening length: 5.74355 Bohr) occupying 0.690877 of unit cell:	Completed after 0 iterations at t[s]:   2162.16
ElecMinimize: 	Predicted alpha/alphaT>3.000000, increasing alphaT to 5.270477e-01.
	Linear fluid (dielectric constant: 78.4, screening length: 5.74355 Bohr) occupying 0.690877 of unit cell:	Completed after 2 iterations at t[s]:   2172.84
	Linear fluid (dielectric constant: 78.4, screening length: 5.74355 Bohr) occupying 0.690877 of unit cell:	Completed after 0 iterations at t[s]:   2182.95
	FillingsUpdate:  mu: -0.161772936  nElectrons: 615.000000
	SubspaceRotationAdjust: set factor to 0.0965
ElecMinimize: Iter:  20  F: -2276.047727507762829  |grad|_K:  1.383e-08  alpha:  3.213e-01  linmin:  4.605e-04  t[s]:   2196.76
	Linear fluid (dielectric constant: 78.4, screening length: 5.74355 Bohr) occupying 0.690877 of unit cell:	Completed after 0 iterations at t[s]:   2212.24
ElecMinimize: 	Predicted alpha/alphaT>3.000000, increasing alphaT to 9.639498e-01.
	Linear fluid (dielectric constant: 78.4, screening length: 5.74355 Bohr) occupying 0.690876 of unit cell:	Completed after 0 iterations at t[s]:   2222.99
	Linear fluid (dielectric constant: 78.4, screening length: 5.74355 Bohr) occupying 0.690876 of unit cell:	Completed after 0 iterations at t[s]:   2233.69
	FillingsUpdate:  mu: -0.161772981  nElectrons: 615.000000
	SubspaceRotationAdjust: set factor to 0.16
ElecMinimize: Iter:  21  F: -2276.047727528726682  |grad|_K:  8.594e-09  alpha:  1.005e+00  linmin: -5.166e-07  t[s]:   2248.59
	Linear fluid (dielectric constant: 78.4, screening length: 5.74355 Bohr) occupying 0.690876 of unit cell:	Completed after 0 iterations at t[s]:   2264.61
	Linear fluid (dielectric constant: 78.4, screening length: 5.74355 Bohr) occupying 0.690876 of unit cell:	Completed after 0 iterations at t[s]:   2275.42
	FillingsUpdate:  mu: -0.161773356  nElectrons: 615.000000
	SubspaceRotationAdjust: set factor to 0.19
ElecMinimize: Iter:  22  F: -2276.047727545779708  |grad|_K:  9.943e-09  alpha:  1.915e+00  linmin: -6.074e-08  t[s]:   2289.49
	Linear fluid (dielectric constant: 78.4, screening length: 5.74355 Bohr) occupying 0.690876 of unit cell:	Completed after 3 iterations at t[s]:   2305.93
	Linear fluid (dielectric constant: 78.4, screening length: 5.74355 Bohr) occupying 0.690876 of unit cell:	Completed after 0 iterations at t[s]:   2316.65
ElecMinimize: 	Step increased F by 2.538536e-08, reducing alpha to 1.289605e-02.
	Linear fluid (dielectric constant: 78.4, screening length: 5.74355 Bohr) occupying 0.690876 of unit cell:	Completed after 0 iterations at t[s]:   2341.47
ElecMinimize: 	Step increased F by 9.728410e-09, reducing alpha to 1.289605e-03.
	Linear fluid (dielectric constant: 78.4, screening length: 5.74355 Bohr) occupying 0.690876 of unit cell:	Completed after 0 iterations at t[s]:   2365.68
ElecMinimize: 	Step increased F by 8.150437e-09, reducing alpha to 1.289605e-04.
ElecMinimize: 	Step failed to reduce F after 3 attempts. Quitting step.
ElecMinimize: 	Undoing step.
	Linear fluid (dielectric constant: 78.4, screening length: 5.74355 Bohr) occupying 0.690876 of unit cell:	Completed after 0 iterations at t[s]:   2389.59
ElecMinimize: 	Step failed: resetting search direction.
	FillingsUpdate:  mu: -0.161750582  nElectrons: 615.000000
	SubspaceRotationAdjust: set factor to 0.142
ElecMinimize: Iter:  23  F: -2276.047727537647461  |grad|_K:  5.305e-08  alpha:  1.290e-04
	Linear fluid (dielectric constant: 78.4, screening length: 5.74355 Bohr) occupying 0.690876 of unit cell:	Completed after 5 iterations at t[s]:   2418.45
	Linear fluid (dielectric constant: 78.4, screening length: 5.74355 Bohr) occupying 0.690876 of unit cell:	Completed after 2 iterations at t[s]:   2429.22
	FillingsUpdate:  mu: -0.161787875  nElectrons: 615.000000
	SubspaceRotationAdjust: set factor to 0.0697
ElecMinimize: Iter:  24  F: -2276.047727573346037  |grad|_K:  3.505e-08  alpha:  3.663e-01  linmin:  6.562e-03  t[s]:   2442.67
	Linear fluid (dielectric constant: 78.4, screening length: 5.74355 Bohr) occupying 0.690876 of unit cell:	Completed after 0 iterations at t[s]:   2457.32
ElecMinimize: 	Predicted alpha/alphaT>3.000000, increasing alphaT to 1.098843e+00.
	Linear fluid (dielectric constant: 78.4, screening length: 5.74355 Bohr) occupying 0.690877 of unit cell:	Completed after 1 iterations at t[s]:   2467.96
	Linear fluid (dielectric constant: 78.4, screening length: 5.74355 Bohr) occupying 0.690876 of unit cell:	Completed after 0 iterations at t[s]:   2478.62
ElecMinimize: 	Step increased F by 1.212493e-08, reducing alpha to 5.078293e-02.
	Linear fluid (dielectric constant: 78.4, screening length: 5.74355 Bohr) occupying 0.690876 of unit cell:	Completed after 0 iterations at t[s]:   2502.66
ElecMinimize: 	Step increased F by 2.820207e-08, reducing alpha to 5.078293e-03.
	Linear fluid (dielectric constant: 78.4, screening length: 5.74355 Bohr) occupying 0.690876 of unit cell:	Completed after 0 iterations at t[s]:   2527.39
ElecMinimize: 	Step increased F by 3.059449e-08, reducing alpha to 5.078293e-04.
ElecMinimize: 	Step failed to reduce F after 3 attempts. Quitting step.
ElecMinimize: 	Undoing step.
	Linear fluid (dielectric constant: 78.4, screening length: 5.74355 Bohr) occupying 0.690876 of unit cell:	Completed after 0 iterations at t[s]:   2550.62
ElecMinimize: 	Step failed: resetting search direction.
	FillingsUpdate:  mu: -0.161787210  nElectrons: 615.000000
	SubspaceRotationAdjust: set factor to 0.0714
ElecMinimize: Iter:  25  F: -2276.047727542678786  |grad|_K:  2.108e-08  alpha:  5.078e-04
	Linear fluid (dielectric constant: 78.4, screening length: 5.74355 Bohr) occupying 0.690876 of unit cell:	Completed after 0 iterations at t[s]:   2577.17
	Linear fluid (dielectric constant: 78.4, screening length: 5.74355 Bohr) occupying 0.690876 of unit cell:	Completed after 0 iterations at t[s]:   2586.98
	FillingsUpdate:  mu: -0.161786165  nElectrons: 615.000000
	SubspaceRotationAdjust: set factor to 0.0585
ElecMinimize: Iter:  26  F: -2276.047727545969792  |grad|_K:  1.840e-08  alpha:  2.661e-01  linmin: -7.416e-03  t[s]:   2599.07
	Linear fluid (dielectric constant: 78.4, screening length: 5.74355 Bohr) occupying 0.690876 of unit cell:	Completed after 0 iterations at t[s]:   2610.62
ElecMinimize: 	Predicted alpha/alphaT>3.000000, increasing alphaT to 7.984182e-01.
	Linear fluid (dielectric constant: 78.4, screening length: 5.74355 Bohr) occupying 0.690876 of unit cell:	Completed after 0 iterations at t[s]:   2619.80
	Linear fluid (dielectric constant: 78.4, screening length: 5.74355 Bohr) occupying 0.690877 of unit cell:	Completed after 3 iterations at t[s]:   2630.04
ElecMinimize: 	Step increased F by 4.552867e-07, reducing alpha to 1.634190e-01.
	Linear fluid (dielectric constant: 78.4, screening length: 5.74355 Bohr) occupying 0.690876 of unit cell:	Completed after 1 iterations at t[s]:   2649.22
	FillingsUpdate:  mu: -0.161766190  nElectrons: 615.000000
	SubspaceRotationAdjust: set factor to 0.0379
ElecMinimize: Iter:  27  F: -2276.047727575423778  |grad|_K:  1.880e-08  alpha:  1.634e-01  linmin:  5.007e-03  t[s]:   2660.59
ElecMinimize: 	Bad step direction: g.d > 0.
ElecMinimize: 	Undoing step.
	Linear fluid (dielectric constant: 78.4, screening length: 5.74355 Bohr) occupying 0.690876 of unit cell:	Completed after 0 iterations at t[s]:   2670.90
ElecMinimize: 	Step failed: resetting search direction.
	FillingsUpdate:  mu: -0.161766190  nElectrons: 615.000000
	SubspaceRotationAdjust: set factor to 0.0544
ElecMinimize: Iter:  28  F: -2276.047727575429690  |grad|_K:  1.763e-08  alpha:  0.000e+00
	Linear fluid (dielectric constant: 78.4, screening length: 5.74355 Bohr) occupying 0.690876 of unit cell:	Completed after 0 iterations at t[s]:   2692.62
ElecMinimize: 	Predicted alpha/alphaT>3.000000, increasing alphaT to 4.902571e-01.
	Linear fluid (dielectric constant: 78.4, screening length: 5.74355 Bohr) occupying 0.690876 of unit cell:	Completed after 0 iterations at t[s]:   2701.88
ElecMinimize: 	Predicted alpha/alphaT>3.000000, increasing alphaT to 1.470771e+00.
	Linear fluid (dielectric constant: 78.4, screening length: 5.74355 Bohr) occupying 0.690876 of unit cell:	Completed after 2 iterations at t[s]:   2711.42
	Linear fluid (dielectric constant: 78.4, screening length: 5.74355 Bohr) occupying 0.690876 of unit cell:	Completed after 0 iterations at t[s]:   2720.82
ElecMinimize: 	Step increased F by 4.388176e-08, reducing alpha to 3.485286e-02.
	Linear fluid (dielectric constant: 78.4, screening length: 5.74355 Bohr) occupying 0.690876 of unit cell:	Completed after 0 iterations at t[s]:   2739.15
ElecMinimize: 	Step increased F by 2.921934e-08, reducing alpha to 3.485286e-03.
	Linear fluid (dielectric constant: 78.4, screening length: 5.74355 Bohr) occupying 0.690876 of unit cell:	Completed after 0 iterations at t[s]:   2758.31
ElecMinimize: 	Step increased F by 2.793104e-08, reducing alpha to 3.485286e-04.
ElecMinimize: 	Step failed to reduce F after 3 attempts. Quitting step.
ElecMinimize: 	Undoing step.
	Linear fluid (dielectric constant: 78.4, screening length: 5.74355 Bohr) occupying 0.690876 of unit cell:	Completed after 0 iterations at t[s]:   2777.35
ElecMinimize: 	Step failed along negative gradient direction.
ElecMinimize: Probably at roundoff error limit. (Stopping)
Setting wave functions to eigenvectors of Hamiltonian
Single-point solvation energy estimate, DeltaF = +0.011251008250838

# Ionic positions in lattice coordinates:
ion Bi   0.000749272947232   0.000867119297888   0.499967242850228 0
ion Bi   0.112947345056872   0.110193041173176   0.356602232130179 0
ion Bi   0.222027459913542   0.222611718914851   0.644214701362085 0
ion Bi   0.333333283360215   0.000000072021505   0.508628275907563 0
ion Bi   0.443526252511887   0.110193041173176   0.356602232130179 0
ion Bi   0.564587228990968   0.231254017652258   0.648342215454136 0
ion Bi   0.665050246496816   0.000867119297888   0.499967242850228 0
ion Bi   0.778127482246460   0.110411674249016   0.354501385488478 0
ion Bi   0.870825392098709   0.231254017652258   0.648342215454136 0
ion Bi   0.000749272947232   0.331717035158105   0.499967242850228 0
ion Bi   0.111721154703095   0.443224329335746   0.355402589427930 0
ion Bi   0.224662922267271   0.554335252567977   0.645273675078954 0
ion Bi   0.334200330636598   0.331717035158105   0.499967242850228 0
ion Bi   0.443744885587726   0.444794270907750   0.354501385488478 0
ion Bi   0.564587228990968   0.537492180759998   0.648342215454136 0
ion Bi   0.666666616693548   0.333333405354838   0.500362308057231 0
ion Bi   0.778127482246460   0.444794270907750   0.354501385488478 0
ion Bi   0.887668463906687   0.554335252567977   0.645273675078954 0
ion Bi  -0.000000049973118   0.666666738688172   0.499081457038451 0
ion Bi   0.111721154703095   0.778387943364384   0.355402589427930 0
ion Bi   0.222027459913542   0.888694248574832   0.644214701362085 0
ion Bi   0.334200330636598   0.667416061608522   0.499967242850228 0
ion Bi   0.443526252511887   0.779614133718162   0.356602232130179 0
ion Bi   0.555944930253562   0.888694248574832   0.644214701362085 0
ion Bi   0.665050246496816   0.667416061608522   0.499967242850228 0
ion Bi   0.776557540674456   0.778387943364384   0.355402589427930 0
ion Bi   0.887668463906687   0.891329710928561   0.645273675078954 0
ion Se   0.000409723955715   0.000256913099408   0.298514719610431 0
ion Se  -0.003996310234983   0.005599213190968   0.699969278571846 0
ion Se   0.101778062217805   0.115777682592710   0.567713186745693 0
ion Se   0.223940110902686   0.218786416936564   0.433639997729372 0
ion Se   0.333333283360215   0.000000072021505   0.298869397641418 0
ion Se   0.333333283360215   0.000000072021505   0.700245887615455 0
ion Se   0.449110893931420   0.115777682592710   0.567713186745693 0
ion Se   0.556513483590340   0.223180272251629   0.433663247052969 0
ion Se   0.666000001686813   0.000256913099408   0.298514719610431 0
ion Se   0.665063735785950   0.005599213190968   0.699969278571846 0
ion Se   0.779393937569451   0.107878763603032   0.563492147844441 0
ion Se   0.886972882899966   0.223180272251629   0.433663247052969 0
ion Se   0.000409723955715   0.332666790348102   0.298514719610431 0
ion Se   0.996003689765017   0.331730524447240   0.699969278571846 0
ion Se   0.111000125382477   0.444666387976981   0.564586948193417 0
ion Se   0.222582267469988   0.555375579966618   0.433540800889846 0
ion Se   0.333590124438118   0.332666790348102   0.298514719610431 0
ion Se   0.338932424529678   0.331730524447240   0.699969278571846 0
ion Se   0.441211974941743   0.446060726230741   0.563492147844441 0
ion Se   0.556513483590340   0.553639671561256   0.433663247052969 0
ion Se   0.666666616693548   0.333333405354838   0.298176060842393 0
ion Se   0.779393937569452   0.446060726230741   0.563492147844441 0
ion Se   0.888708791305329   0.555375579966618   0.433540800889846 0
ion Se  -0.000000049973118   0.666666738688172   0.299073215555062 0
ion Se  -0.000000049973118   0.666666738688172   0.700417343954979 0
ion Se   0.111000125382477   0.777666914043767   0.564586948193417 0
ion Se   0.223940110902686   0.890606899563975   0.433639997729372 0
ion Se   0.333590124438118   0.667076512617004   0.298514719610431 0
ion Se   0.338932424529678   0.662670478426307   0.699969278571846 0
ion Se   0.449110893931420   0.768444850879094   0.567713186745693 0
ion Se   0.552119628275274   0.890606899563975   0.433639997729372 0
ion Se   0.666000001686813   0.667076512617004   0.298514719610431 0
ion Se   0.665063735785950   0.662670478426307   0.699969278571846 0
ion Se   0.777999599315692   0.777666914043767   0.564586948193417 0
ion Se   0.888708791305329   0.889249056131278   0.433540800889846 0


# Forces in Lattice coordinates:
force Bi  -0.004444704623084  -0.012588962831312  -0.036856388714091 0
force Bi  -0.014762052290263  -0.000000000000000  -0.052503437227873 0
force Bi   0.000000000000000   0.000439519937137   0.031560002120626 0
force Bi   0.000000000000000   0.000000000000000  -0.001414407441338 0
force Bi   0.014762052290263   0.014762052290263  -0.052503437227418 0
force Bi   0.002422234645641   0.002422234645644   0.012639285854128 0
force Bi   0.004444704623084  -0.008144258208228  -0.036856388714091 0
force Bi   0.000000000000000   0.002953520586270  -0.028382456592491 0
force Bi  -0.002422234645640   0.000000000000000   0.012639285853673 0
force Bi   0.008144258208228   0.012588962831312  -0.036856388714091 0
force Bi  -0.000000000000000   0.004373698253772  -0.020720927956486 0
force Bi   0.000065834007246   0.000000000000000   0.020116696699928 0
force Bi  -0.008144258208228   0.004444704623084  -0.036856388714088 0
force Bi   0.002953520586271  -0.000000000000000  -0.028382456592491 0
force Bi  -0.000000000000000  -0.002422234645644   0.012639285853673 0
force Bi   0.000000000000000   0.000000000000000  -0.025926941703613 0
force Bi  -0.002953520586270  -0.002953520586270  -0.028382456592491 0
force Bi  -0.000065834007246  -0.000065834007246   0.020116696699930 0
force Bi  -0.000000000000000   0.000000000000000  -0.008861752207646 0
force Bi  -0.004373698253772  -0.004373698253772  -0.020720927956486 0
force Bi  -0.000439519937138  -0.000439519937135   0.031560002120626 0
force Bi  -0.012588962831312  -0.004444704623084  -0.036856388714091 0
force Bi  -0.000000000000000  -0.014762052290262  -0.052503437227418 0
force Bi   0.000439519937138   0.000000000000000   0.031560002120626 0
force Bi   0.012588962831312   0.008144258208228  -0.036856388714084 0
force Bi   0.004373698253772   0.000000000000000  -0.020720927956031 0
force Bi   0.000000000000000   0.000065834007246   0.020116696699473 0
force Se   0.005692310070429  -0.004346777753852  -0.031315849290548 0
force Se  -0.005043405805657  -0.004979158543049   0.045508824672463 0
force Se   0.019812777653994   0.000000000000000   0.039633664378607 0
force Se   0.000000000000000  -0.001609249403721  -0.002343727397123 0
force Se   0.000000000000000   0.000000000000000  -0.059128094349637 0
force Se   0.000000000000000   0.000000000000000   0.048617780720181 0
force Se  -0.019812777653995  -0.019812777653993   0.039633664378607 0
force Se  -0.010014740554116  -0.010014740554116  -0.051995886554547 0
force Se  -0.005692310070430  -0.010039087824281  -0.031315849290777 0
force Se   0.005043405805657   0.000064247262608   0.045508824672463 0
force Se   0.000000000000000   0.017617817375505   0.083793150858493 0
force Se   0.010014740554116   0.000000000000000  -0.051995886554547 0
force Se   0.010039087824281   0.004346777753852  -0.031315849290549 0
force Se  -0.000064247262608   0.004979158543049   0.045508824672463 0
force Se   0.000000000000000  -0.000729171030018   0.051872911664037 0
force Se   0.003184678781752   0.000000000000000  -0.033865960728052 0
force Se  -0.010039087824281  -0.005692310070429  -0.031315849290548 0
force Se   0.000064247262609   0.005043405805657   0.045508824672234 0
force Se   0.017617817375505   0.000000000000000   0.083793150858493 0
force Se   0.000000000000000   0.010014740554116  -0.051995886554490 0
force Se  -0.000000000000000   0.000000000000000  -0.043609378283572 0
force Se  -0.017617817375505  -0.017617817375505   0.083793150858493 0
force Se  -0.003184678781752  -0.003184678781751  -0.033865960728052 0
force Se  -0.000000000000000   0.000000000000000  -0.017381741729248 0
force Se  -0.000000000000000   0.000000000000000   0.055543973694617 0
force Se   0.000729171030018   0.000729171030018   0.051872911664037 0
force Se   0.001609249403722   0.001609249403722  -0.002343727397123 0
force Se  -0.004346777753852   0.005692310070430  -0.031315849290776 0
force Se  -0.004979158543049  -0.005043405805657   0.045508824672463 0
force Se   0.000000000000000   0.019812777653993   0.039633664378607 0
force Se  -0.001609249403722   0.000000000000000  -0.002343727397123 0
force Se   0.004346777753852   0.010039087824281  -0.031315849290548 0
force Se   0.004979158543048  -0.000064247262609   0.045508824672462 0
force Se  -0.000729171030018   0.000000000000000   0.051872911664037 0
force Se  -0.000000000000000   0.003184678781752  -0.033865960727938 0

# Energy components:
   A_diel =        0.0108345660871785
   Eewald =    20391.8087666552200972
       EH =    22377.6436128120294597
     Eloc =   -45644.5715505351909087
      Enl =      702.5624371120028400
      Exc =    -1391.4487310691602033
 Exc_core =      988.8701589063182382
       KE =      299.1405219097281929
-------------------------------------
     Etot =    -2275.9839496429599421
       TS =        0.0637779045272533
-------------------------------------
        F =    -2276.0477275474872840

IonicMinimize: Iter:   0  F: -2276.047727547487284  |grad|_K:  0.000e+00  t[s]:   2799.17
IonicMinimize: Converged (|grad|_K<1.000000e-04).

#--- Lowdin population analysis ---
# oxidation-state Bi +0.617 +0.660 +0.625 +0.538 +0.660 +0.405 +0.617 +0.656 +0.405 +0.617 +0.662 +0.653 +0.617 +0.656 +0.405 +0.618 +0.656 +0.653 +0.616 +0.662 +0.625 +0.617 +0.660 +0.625 +0.617 +0.662 +0.653
# oxidation-state Se -0.356 -0.333 -0.431 -0.505 -0.341 -0.336 -0.431 -0.493 -0.356 -0.333 -0.451 -0.493 -0.356 -0.333 -0.487 -0.498 -0.356 -0.333 -0.451 -0.493 -0.353 -0.451 -0.498 -0.358 -0.361 -0.487 -0.505 -0.356 -0.333 -0.431 -0.505 -0.356 -0.333 -0.487 -0.498


Dumping 'NbTe2.fillings' ... done
Dumping 'NbTe2.wfns' ... done
Dumping 'NbTe2.fluidState' ... done
Dumping 'NbTe2.eigenvals' ... done
End date and time: Wed Jul 15 19:07:49 2020  (Duration: 0-0:46:44.87)
Done!
