
*************** JDFTx 1.5.0  ***************

Start date and time: Wed Jul  8 14:14:26 2020
Executable jdftx_gpu with command-line: -i Charged.in -o Charged.out
Running on hosts (process indices):  amax (0)
Divided in process groups (process indices):  0 (0)
gpuInit: Found compatible cuda device 0 'Tesla K80'
gpuInit: Selected device 0
Resource initialization completed at t[s]:      5.39
Run totals: 1 processes, 24 threads, 1 GPUs


Input parsed successfully to the following command list (including defaults):

basis kpoint-dependent
cache-projectors no
coords-type Lattice
core-overlap-check none
coulomb-interaction Slab 001
coulomb-truncation-embed 0 0 0.5
davidson-band-ratio 1.1
dump End State
dump-name NbTe2.$VAR
elec-cutoff 20 100
elec-eigen-algo Davidson
elec-ex-corr gga-PBE
elec-smearing Gauss 0.0073499
electronic-minimize  \
	dirUpdateScheme      FletcherReeves \
	linminMethod         DirUpdateRecommended \
	nIterations          100 \
	history              15 \
	knormThreshold       0 \
	energyDiffThreshold  1e-08 \
	nEnergyDiff          2 \
	alphaTstart          1 \
	alphaTmin            1e-10 \
	updateTestStepSize   yes \
	alphaTreduceFactor   0.1 \
	alphaTincreaseFactor 3 \
	nAlphaAdjustMax      3 \
	wolfeEnergy          0.0001 \
	wolfeGradient        0.9 \
	fdTest               no
electronic-scf  \
	nIterations	500 \
	energyDiffThreshold	1e-08 \
	residualThreshold	1e-07 \
	mixFraction	0.5 \
	qMetric	0.8 \
	history	10 \
	nEigSteps	2 \
	eigDiffThreshold	1e-08 \
	mixedVariable	Density \
	qKerker	0.8 \
	qKappa	-1 \
	verbose	no \
	mixFractionMag	1.5
exchange-regularization WignerSeitzTruncated
fluid LinearPCM 298.000000 1.013250
fluid-anion F- 1 MeanFieldLJ \
	epsBulk 1 \
	pMol 0 \
	epsInf 1 \
	Pvap 0 \
	sigmaBulk 0 \
	Rvdw 2.24877 \
	Res 0 \
	tauNuc 343133
fluid-cation Na+ 1 MeanFieldLJ \
	epsBulk 1 \
	pMol 0 \
	epsInf 1 \
	Pvap 0 \
	sigmaBulk 0 \
	Rvdw 2.19208 \
	Res 0 \
	tauNuc 343133
fluid-ex-corr lda-TF lda-PZ
fluid-gummel-loop 10 1.000000e-05
fluid-minimize  \
	dirUpdateScheme      PolakRibiere \
	linminMethod         DirUpdateRecommended \
	nIterations          400 \
	history              15 \
	knormThreshold       1e-11 \
	energyDiffThreshold  0 \
	nEnergyDiff          2 \
	alphaTstart          1 \
	alphaTmin            1e-10 \
	updateTestStepSize   yes \
	alphaTreduceFactor   0.1 \
	alphaTincreaseFactor 3 \
	nAlphaAdjustMax      6 \
	wolfeEnergy          0.0001 \
	wolfeGradient        0.9 \
	fdTest               no
fluid-solvent H2O 55.338 ScalarEOS \
	epsBulk 78.4 \
	pMol 0.92466 \
	epsInf 1.77 \
	Pvap 1.06736e-10 \
	sigmaBulk 4.62e-05 \
	Rvdw 2.61727 \
	Res 1.42 \
	tauNuc 343133 \
	poleEl 15 7 1
forces-output-coords Positions
initial-state NbTe2.$VAR
ion Ge   0.999998998941443   0.000001896778649   0.648236304376131 0
ion Ge   0.499998998941443   0.000001896778649   0.648236304376131 0
ion Ge   0.999998998941443   0.500001896778649   0.648236304376131 0
ion Ge   0.499998998941443   0.500001896778649   0.648236304376131 0
ion Ge   0.333335060451901   0.333331644203582   0.450570377457483 0
ion Ge   0.833335060451901   0.333331644203582   0.450570377457483 0
ion Ge   0.333335060451901   0.833331644203582   0.450570377457483 0
ion Ge   0.833335060451901   0.833331644203582   0.450570377457483 0
ion Ge   0.166668214032818   0.166665784379177   0.549425718718949 0
ion Ge   0.666668214032818   0.166665784379177   0.549425718718949 0
ion Ge   0.166668214032818   0.666665784379177   0.549425718718949 0
ion Ge   0.666668214032818   0.666665784379177   0.549425718718949 0
ion Ge   0.999999969694706   0.000001107361619   0.351764333555838 0
ion Ge   0.499999969694706   0.000001107361619   0.351764333555838 0
ion Ge   0.999999969694706   0.500001107361619   0.351764333555838 0
ion Ge   0.499999969694706   0.500001107361619   0.351764333555838 0
ion Te   0.000002986358524   0.999995760172801   0.790675792507680 0
ion Te   0.500002986358524   0.999995760172801   0.790675792507680 0
ion Te   0.000002986358524   0.499995760172801   0.790675792507680 0
ion Te   0.500002986358524   0.499995760172801   0.790675792507680 0
ion Te   0.166659314438419   0.166671239158951   0.695959464463567 0
ion Te   0.666659314438419   0.166671239158951   0.695959464463567 0
ion Te   0.166659314438419   0.666671239158951   0.695959464463567 0
ion Te   0.666659314438419   0.666671239158951   0.695959464463567 0
ion Te   0.333333742787424   0.333333049771383   0.304042051239431 0
ion Te   0.833333742787424   0.333333049771383   0.304042051239431 0
ion Te   0.333333742787424   0.833333049771383   0.304042051239431 0
ion Te   0.833333742787424   0.833333049771383   0.304042051239431 0
ion Te   0.000001629077950   0.999997315878311   0.209326720208840 0
ion Te   0.500001629077950   0.999997315878311   0.209326720208840 0
ion Te   0.000001629077950   0.499997315878311   0.209326720208840 0
ion Te   0.500001629077950   0.499997315878311   0.209326720208840 0
ion Te   0.999999770075682   0.000000747962915   0.500001274999924 0
ion Te   0.499999770075682   0.000000747962915   0.500001274999924 0
ion Te   0.999999770075682   0.500000747962915   0.500001274999924 0
ion Te   0.499999770075682   0.500000747962915   0.500001274999924 0
ion Te   0.166666703091799   0.166667082161268   0.401807643676373 0
ion Te   0.666666703091799   0.166667082161268   0.401807643676373 0
ion Te   0.166666703091799   0.666667082161268   0.401807643676373 0
ion Te   0.666666703091799   0.666667082161268   0.401807643676373 0
ion Te   0.333332413528332   0.333334559865420   0.598188922225523 0
ion Te   0.833332413528332   0.333334559865420   0.598188922225523 0
ion Te   0.333332413528332   0.833334559865420   0.598188922225523 0
ion Te   0.833332413528332   0.833334559865420   0.598188922225523 0
ion As   0.166667112428698   0.166666506017769   0.251976132571137 0
ion As   0.666667112428698   0.166666506017769   0.251976132571137 0
ion As   0.166667112428698   0.666666506017769   0.251976132571137 0
ion As   0.666667112428698   0.666666506017769   0.251976132571137 0
ion As   0.333334085092304   0.333333306288147   0.748025263999132 0
ion As   0.833334085092304   0.333333306288147   0.748025263999132 0
ion As   0.333334085092304   0.833333306288147   0.748025263999132 0
ion As   0.833334085092304   0.833333306288147   0.748025263999132 0
ion-species GBRV/$ID_pbe.uspp
ion-width Ecut
ionic-minimize  \
	dirUpdateScheme      L-BFGS \
	linminMethod         DirUpdateRecommended \
	nIterations          0 \
	history              15 \
	knormThreshold       0.0001 \
	energyDiffThreshold  1e-06 \
	nEnergyDiff          2 \
	alphaTstart          1 \
	alphaTmin            1e-10 \
	updateTestStepSize   yes \
	alphaTreduceFactor   0.1 \
	alphaTincreaseFactor 3 \
	nAlphaAdjustMax      3 \
	wolfeEnergy          0.0001 \
	wolfeGradient        0.9 \
	fdTest               no
kpoint   0.000000000000   0.000000000000   0.000000000000  1.00000000000000
kpoint-folding 5 5 1 
latt-move-scale 1 1 1
latt-scale 1 1 1 
lattice Triclinic 15.686 15.686 67.6496 90 90 60
lattice-minimize  \
	dirUpdateScheme      L-BFGS \
	linminMethod         DirUpdateRecommended \
	nIterations          0 \
	history              15 \
	knormThreshold       0 \
	energyDiffThreshold  1e-06 \
	nEnergyDiff          2 \
	alphaTstart          1 \
	alphaTmin            1e-10 \
	updateTestStepSize   yes \
	alphaTreduceFactor   0.1 \
	alphaTincreaseFactor 3 \
	nAlphaAdjustMax      3 \
	wolfeEnergy          0.0001 \
	wolfeGradient        0.9 \
	fdTest               no
lcao-params -1 1e-06 0.0073499
pcm-variant CANDLE
spintype no-spin
subspace-rotation-factor 1 yes
symmetries automatic
symmetry-threshold 0.0005
target-mu -0.24475 no




---------- Setting up symmetries ----------

Found 24 point-group symmetries of the bravais lattice
Found 48 space-group symmetries with basis
Applied RMS atom displacement 9.29025e-05 bohrs to make symmetries exact.

---------- Initializing the Grid ----------
R = 
[     15.686      7.843          0  ]
[          0    13.5845          0  ]
[          0          0    67.6496  ]
unit cell volume = 14415.2
G =
[   0.400561  -0.231264          0  ]
[          0   0.462527          0  ]
[          0          0  0.0928784  ]
Minimum fftbox size, Smin = [  72  72  308  ]
Chosen fftbox size, S = [  72  72  320  ]

---------- Initializing tighter grid for wavefunction operations ----------
R = 
[     15.686      7.843          0  ]
[          0    13.5845          0  ]
[          0          0    67.6496  ]
unit cell volume = 14415.2
G =
[   0.400561  -0.231264          0  ]
[          0   0.462527          0  ]
[          0          0  0.0928784  ]
Minimum fftbox size, Smin = [  64  64  276  ]
Chosen fftbox size, S = [  64  64  280  ]

---------- Exchange Correlation functional ----------
Initalized PBE GGA exchange.
Initalized PBE GGA correlation.

---------- Setting up pseudopotentials ----------
Width of ionic core gaussian charges (only for fluid interactions / plotting) set to 0.397384

Reading pseudopotential file '/home/guoxy/vasp/jdftx-1.5.0/build/pseudopotentials/GBRV/ge_pbe.uspp':
  Title: Ge.  Created by USPP 7.3.6 on 31-3-15
  Reference state energy: -106.660278.  14 valence electrons in orbitals:
    |320>  occupation: 10  eigenvalue: -1.077168
    |400>  occupation: 2  eigenvalue: -0.431112
    |410>  occupation: 2  eigenvalue: -0.143157
  lMax: 2  lLocal: 3  QijEcut: 6
  6 projectors sampled on a log grid with 621 points:
    l: 0  eig: -0.431110  rCut: 1.9
    l: 0  eig: 1.000000  rCut: 1.9
    l: 1  eig: -0.143157  rCut: 1.9
    l: 1  eig: 1.000000  rCut: 1.9
    l: 2  eig: -1.077168  rCut: 1.7
    l: 2  eig: 0.000000  rCut: 1.7
  Partial core density with radius 0.8
  Transforming core density to a uniform radial grid of dG=0.02 with 1628 points.
  Transforming local potential to a uniform radial grid of dG=0.02 with 1628 points.
  Transforming nonlocal projectors to a uniform radial grid of dG=0.02 with 432 points.
  Transforming density augmentations to a uniform radial grid of dG=0.02 with 1628 points.
  Transforming atomic orbitals to a uniform radial grid of dG=0.02 with 432 points.
  Core radius for overlap checks: 2.00 bohrs.

Reading pseudopotential file '/home/guoxy/vasp/jdftx-1.5.0/build/pseudopotentials/GBRV/te_pbe.uspp':
  Title: Te.  Created by USPP 7.3.6 on 14-9-2013
  Reference state energy: -13.134220.  6 valence electrons in orbitals:
    |500>  occupation: 2  eigenvalue: -0.555231
    |510>  occupation: 4  eigenvalue: -0.218781
  lMax: 2  lLocal: 2  QijEcut: 5
  5 projectors sampled on a log grid with 723 points:
    l: 0  eig: -0.555229  rCut: 2.1
    l: 0  eig: 1.000000  rCut: 2.1
    l: 1  eig: -0.218780  rCut: 2.1
    l: 1  eig: 1.000000  rCut: 2.1
    l: 2  eig: 1.000000  rCut: 2.6
  Partial core density with radius 1.8
  Transforming core density to a uniform radial grid of dG=0.02 with 1628 points.
  Transforming local potential to a uniform radial grid of dG=0.02 with 1628 points.
  Transforming nonlocal projectors to a uniform radial grid of dG=0.02 with 432 points.
  Transforming density augmentations to a uniform radial grid of dG=0.02 with 1628 points.
  Transforming atomic orbitals to a uniform radial grid of dG=0.02 with 432 points.
  Core radius for overlap checks: 2.60 bohrs.

Reading pseudopotential file '/home/guoxy/vasp/jdftx-1.5.0/build/pseudopotentials/GBRV/as_pbe.uspp':
  Title: As.  Created by USPP 7.3.6 on 14-9-2013
  Reference state energy: -19.965231.  5 valence electrons in orbitals:
    |400>  occupation: 2  eigenvalue: -0.532639
    |410>  occupation: 3  eigenvalue: -0.190915
  lMax: 2  lLocal: 2  QijEcut: 5
  6 projectors sampled on a log grid with 623 points:
    l: 0  eig: -0.532635  rCut: 1.5
    l: 0  eig: 0.500000  rCut: 1.5
    l: 1  eig: -0.190916  rCut: 1.5
    l: 1  eig: 0.500000  rCut: 1.5
    l: 2  eig: 0.000000  rCut: 1.9
    l: 2  eig: 1.000000  rCut: 1.9
  Partial core density with radius 1.2
  Transforming core density to a uniform radial grid of dG=0.02 with 1628 points.
  Transforming local potential to a uniform radial grid of dG=0.02 with 1628 points.
  Transforming nonlocal projectors to a uniform radial grid of dG=0.02 with 432 points.
  Transforming density augmentations to a uniform radial grid of dG=0.02 with 1628 points.
  Transforming atomic orbitals to a uniform radial grid of dG=0.02 with 432 points.
  Core radius for overlap checks: 1.90 bohrs.

Initialized 3 species with 52 total atoms.

Folded 1 k-points by 5x5x1 to 25 k-points.

---------- Setting up k-points, bands, fillings ----------
Reduced to 5 k-points under symmetry. 
Computing the number of bands and number of electrons
Reading initial fillings from file NbTe2.fillings.
nElectrons: 432.000000   nBands: 288   nStates: 5

----- Setting up reduced wavefunction bases (one per k-point) -----
average nbasis = 61577.720 , ideal nbasis = 61582.624

---------- Setting up coulomb interaction ----------
Fluid mode embedding: using embedded box, but periodic Coulomb kernel.
(Fluid response is responsible for (approximate) separation between periodic images.)
Setting up double-sized grid for truncated Coulomb potentials:
R = 
[     15.686      7.843          0  ]
[          0    13.5845          0  ]
[          0          0    135.299  ]
unit cell volume = 28830.3
G =
[   0.400561  -0.231264          0  ]
[          0   0.462527          0  ]
[          0          0  0.0464392  ]
Chosen fftbox size, S = [  72  72  640  ]
Integer grid location selected as the embedding center:
   Grid: [  0  0  160  ]
   Lattice: [  0  0  0.5  ]
   Cartesian: [  0  0  33.8248  ]
Constructing Wigner-Seitz cell: 8 faces (6 quadrilaterals, 2 hexagons)
Range-separation parameter for embedded mesh potentials due to point charges: 0.588843 bohrs.

Initializing van der Waals corrections
	NOTE: vdW corrections apply only for interactions with fluid.
	Ge:  C6:  296.60 Eh-a0^6  R0: 3.264 a0
	Te:  C6:  550.54 Eh-a0^6  R0: 3.575 a0
	As:  C6:  283.94 Eh-a0^6  R0: 3.326 a0

---------- Setting up ewald sum ----------
Optimum gaussian width for ewald sums = 6.331781 bohr.
Real space sum over 845 unit cells with max indices [  6  6  2  ]
Reciprocal space sum over 8349 terms with max indices [  5  5  34  ]

---------- Allocating electronic variables ----------
Initializing wave functions:  reading from 'NbTe2.wfns'
----- createFluidSolver() ----- (Fluid-side solver setup)
   Initializing fluid molecule 'H2O'
     Initializing site 'O'
       Electron density: proportional to exp(-r/0.36935)*erfc((r-0.51523)/0.36823) with norm 6.826
       Charge density: gaussian nuclear width 0.478731 with net site charge 0.826
       Polarizability: cuspless exponential with width 0.32 and norm 3.73
       Hard sphere radius: 2.57003 bohrs
       Positions in reference frame:
         [ +0.000000 +0.000000 +0.000000 ]
     Initializing site 'H'
       Electron density: proportional to exp(-r/0.34641)*erfc((r-0)/0.390882) with norm 0.587
       Charge density: gaussian nuclear width 0.377945 with net site charge -0.413
       Polarizability: cuspless exponential with width 0.39 and norm 3.3
       Positions in reference frame:
         [ +0.000000 -1.441945 +1.122523 ]
         [ +0.000000 +1.441945 +1.122523 ]
     Net charge: 0   dipole magnitude: 0.927204
     Initializing spherical shell mfKernel with radius 2.61727 Bohr
     deltaS corrections:
       site 'O': -7.54299
       site 'H': -6.83917
   Initializing fluid molecule 'Na+'
     Initializing site 'Na'
       Electron density: proportional to exp(-r/0.19682)*erfc((r-0.71491)/0.41314) with norm 8.1383
       Charge density: gaussian nuclear width 0.365347 with net site charge -1
       Hard sphere radius: 1.86327 bohrs
       Positions in reference frame:
         [ +0.000000 +0.000000 +0.000000 ]
     Net charge: -1   dipole magnitude: 0
     Initializing gaussian mfKernel with width: 1.55004 Bohr
     deltaS corrections:
       site 'Na': -22.3555
   Initializing fluid molecule 'F-'
     Initializing site 'F'
       Electron density: proportional to exp(-r/0.38886)*erfc((r-0)/0.438782) with norm 8
       Charge density: gaussian nuclear width 0.374796 with net site charge 1
       Hard sphere radius: 2.39995 bohrs
       Positions in reference frame:
         [ +0.000000 +0.000000 +0.000000 ]
     Net charge: 1   dipole magnitude: 0
     Initializing gaussian mfKernel with width: 1.59012 Bohr
     deltaS corrections:
       site 'F': -9.04335

Correction to mu due to finite nuclear width = -0.0148674
   Cavity determined by nc: 0.00142 and sigma: 0.707107
   Nonlocal vdW cavity from gaussian model electron density with norm = 8 and sigma = 0.993594 bohr
   Charge asymmetry in cavity with sensitivity pCavity = 36.5 e-bohr/Eh
   Electrostatic cavity expanded by eta = 1.46 bohrs
   Weighted density cavitation model constrained by Nbulk: 0.0049383 bohr^-3, Pvap: 3.14029 kPa, Rvdw: 2.61727 bohr and sigmaBulk: 4.62e-05 Eh/bohr^2 at T: 298 K.
   Weighted density dispersion model using vdW pair potentials with single solvent site with sqrtC6eff: 0.77 SI.
Reading fluid state from 'NbTe2.fluidState'


---- Citations for features of the code used in this run ----

   Software package:
      R. Sundararaman, K. Letchworth-Weaver, K.A. Schwarz, D. Gunceler, Y. Ozhabes and T.A. Arias, 'JDFTx: software for joint density-functional theory', SoftwareX 6, 278 (2017)

   gga-PBE exchange-correlation functional:
      J.P. Perdew, K. Burke and M. Ernzerhof, Phys. Rev. Lett. 77, 3865 (1996)

   Pseudopotentials:
      KF Garrity, JW Bennett, KM Rabe and D Vanderbilt, Comput. Mater. Sci. 81, 446 (2014)

   Truncated Coulomb potentials:
      R. Sundararaman and T.A. Arias, Phys. Rev. B 87, 165122 (2013)

   Van der Waals correction pair-potentials:
      S. Grimme, J. Comput. Chem. 27, 1787 (2006)

   Charge-asymmetric nonlocally-determined local-electric (CANDLE) solvation model:
      R. Sundararaman and W.A. Goddard III, J. Chem. Phys. 142, 064107 (2015)

   Grand-canonical (fixed-potential) DFT:
      R. Sundararaman, W. A. Goddard III and T. A. Arias, J. Chem. Phys. 146, 114104 (2017)

This list may not be complete. Please suggest additional citations or
report any other bugs at https://github.com/shankar1729/jdftx/issues

Initialization completed successfully at t[s]:     18.08

Shifting auxilliary hamiltonian by -0.093465 to set nElectrons=432.000000
	Linear fluid (dielectric constant: 78.4, screening length: 5.74355 Bohr) occupying 0.624955 of unit cell:	Completed after 0 iterations at t[s]:     29.25

-------- Electronic minimization -----------
Will mix electronic density at each iteration.
	FillingsUpdate:  mu: -0.244750400  nElectrons: 432.000000
	Linear fluid (dielectric constant: 78.4, screening length: 5.74355 Bohr) occupying 0.624955 of unit cell:	Completed after 0 iterations at t[s]:     35.92
	FillingsUpdate:  mu: -0.244750400  nElectrons: 356.230673
	Linear fluid (dielectric constant: 78.4, screening length: 5.74355 Bohr) occupying 0.634009 of unit cell:	Completed after 400 iterations at t[s]:    114.45
SCF: Cycle:  0   G: -1249.930566922367007   dG: +4.379e+02   |Residual|: 9.565e-01   |deigs|: 3.401e-06  t[s]:    115.79
	Linear fluid (dielectric constant: 78.4, screening length: 5.74355 Bohr) occupying 0.613052 of unit cell:	Completed after 28 iterations at t[s]:    118.29
	FillingsUpdate:  mu: -0.244750400  nElectrons: 576.000000
	Linear fluid (dielectric constant: 78.4, screening length: 5.74355 Bohr) occupying 0.667000 of unit cell:	Completed after 193 iterations at t[s]:    190.06
SCF: Cycle:  1   G: +1966.979850083313067   dG: +3.217e+03   |Residual|: 2.263e+00   |deigs|: 5.952e-01  t[s]:    191.21
	Linear fluid (dielectric constant: 78.4, screening length: 5.74355 Bohr) occupying 0.609408 of unit cell:	Completed after 28 iterations at t[s]:    193.63
	FillingsUpdate:  mu: -0.244750400  nElectrons: 481.854942
	Linear fluid (dielectric constant: 78.4, screening length: 5.74355 Bohr) occupying 0.658742 of unit cell:	Completed after 29 iterations at t[s]:    254.11
SCF: Cycle:  2   G: -1482.140040982887967   dG: -3.449e+03   |Residual|: 7.230e-01   |deigs|: 4.366e-01  t[s]:    255.29
	Linear fluid (dielectric constant: 78.4, screening length: 5.74355 Bohr) occupying 0.611583 of unit cell:	Completed after 26 iterations at t[s]:    257.65
	FillingsUpdate:  mu: -0.244750400  nElectrons: 432.154899
	Linear fluid (dielectric constant: 78.4, screening length: 5.74355 Bohr) occupying 0.629745 of unit cell:	Completed after 27 iterations at t[s]:    319.20
SCF: Cycle:  3   G: -1686.974985668342924   dG: -2.048e+02   |Residual|: 2.432e-01   |deigs|: 6.689e-02  t[s]:    320.57
	Linear fluid (dielectric constant: 78.4, screening length: 5.74355 Bohr) occupying 0.610896 of unit cell:	Completed after 22 iterations at t[s]:    322.70
	FillingsUpdate:  mu: -0.244750400  nElectrons: 431.867996
	Linear fluid (dielectric constant: 78.4, screening length: 5.74355 Bohr) occupying 0.629529 of unit cell:	Completed after 26 iterations at t[s]:    383.03
SCF: Cycle:  4   G: -1687.289534808185181   dG: -3.145e-01   |Residual|: 1.701e-01   |deigs|: 3.926e-03  t[s]:    384.43
	Linear fluid (dielectric constant: 78.4, screening length: 5.74355 Bohr) occupying 0.607851 of unit cell:	Completed after 21 iterations at t[s]:    386.50
	FillingsUpdate:  mu: -0.244750400  nElectrons: 425.557915
	Linear fluid (dielectric constant: 78.4, screening length: 5.74355 Bohr) occupying 0.629475 of unit cell:	Completed after 27 iterations at t[s]:    447.68
SCF: Cycle:  5   G: -1684.498913681760769   dG: +2.791e+00   |Residual|: 7.575e-02   |deigs|: 1.707e-02  t[s]:    448.96
	Linear fluid (dielectric constant: 78.4, screening length: 5.74355 Bohr) occupying 0.604655 of unit cell:	Completed after 22 iterations at t[s]:    450.94
	FillingsUpdate:  mu: -0.244750400  nElectrons: 426.152263
	Linear fluid (dielectric constant: 78.4, screening length: 5.74355 Bohr) occupying 0.629592 of unit cell:	Completed after 26 iterations at t[s]:    511.08
SCF: Cycle:  6   G: -1685.406076387790108   dG: -9.072e-01   |Residual|: 6.316e-02   |deigs|: 1.099e-03  t[s]:    512.31
	Linear fluid (dielectric constant: 78.4, screening length: 5.74355 Bohr) occupying 0.602098 of unit cell:	Completed after 22 iterations at t[s]:    514.40
	FillingsUpdate:  mu: -0.244750400  nElectrons: 425.558456
	Linear fluid (dielectric constant: 78.4, screening length: 5.74355 Bohr) occupying 0.629847 of unit cell:	Completed after 26 iterations at t[s]:    574.20
SCF: Cycle:  7   G: -1684.642630020137631   dG: +7.634e-01   |Residual|: 6.983e-02   |deigs|: 1.154e-03  t[s]:    575.39
	Linear fluid (dielectric constant: 78.4, screening length: 5.74355 Bohr) occupying 0.598792 of unit cell:	Completed after 21 iterations at t[s]:    579.64
	FillingsUpdate:  mu: -0.244750400  nElectrons: 425.107352
	Linear fluid (dielectric constant: 78.4, screening length: 5.74355 Bohr) occupying 0.630264 of unit cell:	Completed after 27 iterations at t[s]:    646.91
SCF: Cycle:  8   G: -1684.050228003818347   dG: +5.924e-01   |Residual|: 7.858e-02   |deigs|: 5.326e-04  t[s]:    648.05
	Linear fluid (dielectric constant: 78.4, screening length: 5.74355 Bohr) occupying 0.595713 of unit cell:	Completed after 21 iterations at t[s]:    650.06
	FillingsUpdate:  mu: -0.244750400  nElectrons: 426.778780
	Linear fluid (dielectric constant: 78.4, screening length: 5.74355 Bohr) occupying 0.630787 of unit cell:	Completed after 26 iterations at t[s]:    709.99
SCF: Cycle:  9   G: -1686.253348190791030   dG: -2.203e+00   |Residual|: 5.381e-02   |deigs|: 2.776e-03  t[s]:    711.12
	Linear fluid (dielectric constant: 78.4, screening length: 5.74355 Bohr) occupying 0.595424 of unit cell:	Completed after 21 iterations at t[s]:    713.10
	FillingsUpdate:  mu: -0.244750400  nElectrons: 427.209272
	Linear fluid (dielectric constant: 78.4, screening length: 5.74355 Bohr) occupying 0.631295 of unit cell:	Completed after 25 iterations at t[s]:    773.37
SCF: Cycle: 10   G: -1686.705269135997469   dG: -4.519e-01   |Residual|: 4.382e-02   |deigs|: 7.226e-04  t[s]:    774.64
	Linear fluid (dielectric constant: 78.4, screening length: 5.74355 Bohr) occupying 0.607360 of unit cell:	Completed after 29 iterations at t[s]:    777.31
	FillingsUpdate:  mu: -0.244750400  nElectrons: 428.036556
	Linear fluid (dielectric constant: 78.4, screening length: 5.74355 Bohr) occupying 0.632250 of unit cell:	Completed after 24 iterations at t[s]:    838.01
SCF: Cycle: 11   G: -1687.436811913323709   dG: -7.315e-01   |Residual|: 2.633e-02   |deigs|: 1.417e-03  t[s]:    839.30
	Linear fluid (dielectric constant: 78.4, screening length: 5.74355 Bohr) occupying 0.615728 of unit cell:	Completed after 23 iterations at t[s]:    841.48
	FillingsUpdate:  mu: -0.244750400  nElectrons: 429.403010
	Linear fluid (dielectric constant: 78.4, screening length: 5.74355 Bohr) occupying 0.632568 of unit cell:	Completed after 24 iterations at t[s]:    901.83
SCF: Cycle: 12   G: -1687.921008759222786   dG: -4.842e-01   |Residual|: 1.053e-02   |deigs|: 3.506e-03  t[s]:    903.04
	Linear fluid (dielectric constant: 78.4, screening length: 5.74355 Bohr) occupying 0.624941 of unit cell:	Completed after 23 iterations at t[s]:    905.15
	FillingsUpdate:  mu: -0.244750400  nElectrons: 431.198577
	Linear fluid (dielectric constant: 78.4, screening length: 5.74355 Bohr) occupying 0.632719 of unit cell:	Completed after 24 iterations at t[s]:    965.14
SCF: Cycle: 13   G: -1687.699880245602344   dG: +2.211e-01   |Residual|: 1.963e-02   |deigs|: 7.397e-03  t[s]:    966.27
	Linear fluid (dielectric constant: 78.4, screening length: 5.74355 Bohr) occupying 0.626045 of unit cell:	Completed after 23 iterations at t[s]:    968.50
	FillingsUpdate:  mu: -0.244750400  nElectrons: 430.936443
	Linear fluid (dielectric constant: 78.4, screening length: 5.74355 Bohr) occupying 0.632227 of unit cell:	Completed after 23 iterations at t[s]:   1028.74
SCF: Cycle: 14   G: -1687.822070568458457   dG: -1.222e-01   |Residual|: 1.448e-02   |deigs|: 1.829e-03  t[s]:   1029.99
	Linear fluid (dielectric constant: 78.4, screening length: 5.74355 Bohr) occupying 0.628377 of unit cell:	Completed after 22 iterations at t[s]:   1032.05
	FillingsUpdate:  mu: -0.244750400  nElectrons: 429.414477
	Linear fluid (dielectric constant: 78.4, screening length: 5.74355 Bohr) occupying 0.632117 of unit cell:	Completed after 23 iterations at t[s]:   1092.86
SCF: Cycle: 15   G: -1687.900059710060987   dG: -7.799e-02   |Residual|: 1.220e-02   |deigs|: 5.487e-03  t[s]:   1094.16
	Linear fluid (dielectric constant: 78.4, screening length: 5.74355 Bohr) occupying 0.630630 of unit cell:	Completed after 24 iterations at t[s]:   1096.45
	FillingsUpdate:  mu: -0.244750400  nElectrons: 428.505581
	Linear fluid (dielectric constant: 78.4, screening length: 5.74355 Bohr) occupying 0.632188 of unit cell:	Completed after 23 iterations at t[s]:   1156.85
SCF: Cycle: 16   G: -1687.640957140916271   dG: +2.591e-01   |Residual|: 2.124e-02   |deigs|: 2.359e-03  t[s]:   1157.99
	Linear fluid (dielectric constant: 78.4, screening length: 5.74355 Bohr) occupying 0.631890 of unit cell:	Completed after 24 iterations at t[s]:   1160.24
	FillingsUpdate:  mu: -0.244750400  nElectrons: 429.107267
	Linear fluid (dielectric constant: 78.4, screening length: 5.74355 Bohr) occupying 0.632351 of unit cell:	Completed after 23 iterations at t[s]:   1220.61
SCF: Cycle: 17   G: -1687.861255090136183   dG: -2.203e-01   |Residual|: 1.149e-02   |deigs|: 1.513e-03  t[s]:   1221.80
	Linear fluid (dielectric constant: 78.4, screening length: 5.74355 Bohr) occupying 0.632760 of unit cell:	Completed after 24 iterations at t[s]:   1224.02
	FillingsUpdate:  mu: -0.244750400  nElectrons: 429.486536
	Linear fluid (dielectric constant: 78.4, screening length: 5.74355 Bohr) occupying 0.632519 of unit cell:	Completed after 23 iterations at t[s]:   1284.66
SCF: Cycle: 18   G: -1687.932931095102731   dG: -7.168e-02   |Residual|: 5.755e-03   |deigs|: 1.118e-03  t[s]:   1285.66
	Linear fluid (dielectric constant: 78.4, screening length: 5.74355 Bohr) occupying 0.633003 of unit cell:	Completed after 21 iterations at t[s]:   1287.63
	FillingsUpdate:  mu: -0.244750400  nElectrons: 429.998462
	Linear fluid (dielectric constant: 78.4, screening length: 5.74355 Bohr) occupying 0.632632 of unit cell:	Completed after 20 iterations at t[s]:   1347.81
SCF: Cycle: 19   G: -1687.952370140520543   dG: -1.944e-02   |Residual|: 2.235e-03   |deigs|: 1.642e-03  t[s]:   1348.88
	Linear fluid (dielectric constant: 78.4, screening length: 5.74355 Bohr) occupying 0.632803 of unit cell:	Completed after 21 iterations at t[s]:   1350.94
	FillingsUpdate:  mu: -0.244750400  nElectrons: 429.874412
	Linear fluid (dielectric constant: 78.4, screening length: 5.74355 Bohr) occupying 0.632615 of unit cell:	Completed after 16 iterations at t[s]:   1406.19
SCF: Cycle: 20   G: -1687.955280219569886   dG: -2.910e-03   |Residual|: 5.946e-04   |deigs|: 4.219e-04  t[s]:   1407.40
	Linear fluid (dielectric constant: 78.4, screening length: 5.74355 Bohr) occupying 0.632710 of unit cell:	Completed after 16 iterations at t[s]:   1409.16
	FillingsUpdate:  mu: -0.244750400  nElectrons: 429.872470
	Linear fluid (dielectric constant: 78.4, screening length: 5.74355 Bohr) occupying 0.632610 of unit cell:	Completed after 17 iterations at t[s]:   1451.79
SCF: Cycle: 21   G: -1687.955297591248609   dG: -1.737e-05   |Residual|: 3.403e-04   |deigs|: 1.997e-05  t[s]:   1453.06
	Linear fluid (dielectric constant: 78.4, screening length: 5.74355 Bohr) occupying 0.632618 of unit cell:	Completed after 15 iterations at t[s]:   1454.66
	FillingsUpdate:  mu: -0.244750400  nElectrons: 429.864318
	Linear fluid (dielectric constant: 78.4, screening length: 5.74355 Bohr) occupying 0.632601 of unit cell:	Completed after 14 iterations at t[s]:   1494.21
SCF: Cycle: 22   G: -1687.955316187667677   dG: -1.860e-05   |Residual|: 1.519e-04   |deigs|: 3.673e-05  t[s]:   1495.47
	Linear fluid (dielectric constant: 78.4, screening length: 5.74355 Bohr) occupying 0.632618 of unit cell:	Completed after 16 iterations at t[s]:   1497.10
	FillingsUpdate:  mu: -0.244750400  nElectrons: 429.860935
	Linear fluid (dielectric constant: 78.4, screening length: 5.74355 Bohr) occupying 0.632602 of unit cell:	Completed after 13 iterations at t[s]:   1536.11
SCF: Cycle: 23   G: -1687.955317067452370   dG: -8.798e-07   |Residual|: 1.115e-04   |deigs|: 1.990e-05  t[s]:   1537.31
	Linear fluid (dielectric constant: 78.4, screening length: 5.74355 Bohr) occupying 0.632604 of unit cell:	Completed after 15 iterations at t[s]:   1538.86
	FillingsUpdate:  mu: -0.244750400  nElectrons: 429.859562
	Linear fluid (dielectric constant: 78.4, screening length: 5.74355 Bohr) occupying 0.632601 of unit cell:	Completed after 14 iterations at t[s]:   1586.09
SCF: Cycle: 24   G: -1687.955312774335880   dG: +4.293e-06   |Residual|: 1.306e-04   |deigs|: 8.714e-06  t[s]:   1587.45
	Linear fluid (dielectric constant: 78.4, screening length: 5.74355 Bohr) occupying 0.632604 of unit cell:	Completed after 13 iterations at t[s]:   1588.85
	FillingsUpdate:  mu: -0.244750400  nElectrons: 429.865056
	Linear fluid (dielectric constant: 78.4, screening length: 5.74355 Bohr) occupying 0.632601 of unit cell:	Completed after 10 iterations at t[s]:   1627.64
SCF: Cycle: 25   G: -1687.955315741321328   dG: -2.967e-06   |Residual|: 1.750e-04   |deigs|: 2.665e-05  t[s]:   1629.00
	Linear fluid (dielectric constant: 78.4, screening length: 5.74355 Bohr) occupying 0.632599 of unit cell:	Completed after 9 iterations at t[s]:   1630.13
	FillingsUpdate:  mu: -0.244750400  nElectrons: 429.883707
	Linear fluid (dielectric constant: 78.4, screening length: 5.74355 Bohr) occupying 0.632602 of unit cell:	Completed after 15 iterations at t[s]:   1669.87
SCF: Cycle: 26   G: -1687.955228185239321   dG: +8.756e-05   |Residual|: 3.385e-04   |deigs|: 7.173e-05  t[s]:   1671.16
	Linear fluid (dielectric constant: 78.4, screening length: 5.74355 Bohr) occupying 0.632595 of unit cell:	Completed after 14 iterations at t[s]:   1672.77
	FillingsUpdate:  mu: -0.244750400  nElectrons: 429.853403
	Linear fluid (dielectric constant: 78.4, screening length: 5.74355 Bohr) occupying 0.632598 of unit cell:	Completed after 13 iterations at t[s]:   1709.53
SCF: Cycle: 27   G: -1687.955303918304253   dG: -7.573e-05   |Residual|: 1.915e-04   |deigs|: 1.033e-04  t[s]:   1710.74
	Linear fluid (dielectric constant: 78.4, screening length: 5.74355 Bohr) occupying 0.632603 of unit cell:	Completed after 13 iterations at t[s]:   1712.07
	FillingsUpdate:  mu: -0.244750400  nElectrons: 429.860233
	Linear fluid (dielectric constant: 78.4, screening length: 5.74355 Bohr) occupying 0.632601 of unit cell:	Completed after 11 iterations at t[s]:   1750.71
SCF: Cycle: 28   G: -1687.955317124977228   dG: -1.321e-05   |Residual|: 6.308e-05   |deigs|: 2.388e-05  t[s]:   1751.84
	Linear fluid (dielectric constant: 78.4, screening length: 5.74355 Bohr) occupying 0.632601 of unit cell:	Completed after 10 iterations at t[s]:   1753.07
	FillingsUpdate:  mu: -0.244750400  nElectrons: 429.858822
	Linear fluid (dielectric constant: 78.4, screening length: 5.74355 Bohr) occupying 0.632600 of unit cell:	Completed after 15 iterations at t[s]:   1790.48
SCF: Cycle: 29   G: -1687.955311080643924   dG: +6.044e-06   |Residual|: 1.340e-04   |deigs|: 7.745e-06  t[s]:   1791.79
	Linear fluid (dielectric constant: 78.4, screening length: 5.74355 Bohr) occupying 0.632602 of unit cell:	Completed after 14 iterations at t[s]:   1793.28
	FillingsUpdate:  mu: -0.244750400  nElectrons: 429.857219
	Linear fluid (dielectric constant: 78.4, screening length: 5.74355 Bohr) occupying 0.632601 of unit cell:	Completed after 15 iterations at t[s]:   1831.75
SCF: Cycle: 30   G: -1687.955302841615776   dG: +8.239e-06   |Residual|: 1.949e-04   |deigs|: 1.438e-05  t[s]:   1833.05
	Linear fluid (dielectric constant: 78.4, screening length: 5.74355 Bohr) occupying 0.632601 of unit cell:	Completed after 18 iterations at t[s]:   1834.91
	FillingsUpdate:  mu: -0.244750400  nElectrons: 429.854297
	Linear fluid (dielectric constant: 78.4, screening length: 5.74355 Bohr) occupying 0.632601 of unit cell:	Completed after 13 iterations at t[s]:   1873.94
SCF: Cycle: 31   G: -1687.955302185704113   dG: +6.559e-07   |Residual|: 1.544e-04   |deigs|: 1.726e-05  t[s]:   1875.17
	Linear fluid (dielectric constant: 78.4, screening length: 5.74355 Bohr) occupying 0.632602 of unit cell:	Completed after 14 iterations at t[s]:   1876.72
	FillingsUpdate:  mu: -0.244750400  nElectrons: 429.856878
	Linear fluid (dielectric constant: 78.4, screening length: 5.74355 Bohr) occupying 0.632602 of unit cell:	Completed after 16 iterations at t[s]:   1919.74
SCF: Cycle: 32   G: -1687.955306284770586   dG: -4.099e-06   |Residual|: 1.477e-04   |deigs|: 1.379e-05  t[s]:   1920.95
	Linear fluid (dielectric constant: 78.4, screening length: 5.74355 Bohr) occupying 0.632602 of unit cell:	Completed after 14 iterations at t[s]:   1922.45
	FillingsUpdate:  mu: -0.244750400  nElectrons: 429.856554
	Linear fluid (dielectric constant: 78.4, screening length: 5.74355 Bohr) occupying 0.632602 of unit cell:	Completed after 17 iterations at t[s]:   1962.17
SCF: Cycle: 33   G: -1687.955304755983434   dG: +1.529e-06   |Residual|: 2.055e-04   |deigs|: 1.740e-05  t[s]:   1963.55
	Linear fluid (dielectric constant: 78.4, screening length: 5.74355 Bohr) occupying 0.632601 of unit cell:	Completed after 15 iterations at t[s]:   1965.11
	FillingsUpdate:  mu: -0.244750400  nElectrons: 429.858248
	Linear fluid (dielectric constant: 78.4, screening length: 5.74355 Bohr) occupying 0.632601 of unit cell:	Completed after 17 iterations at t[s]:   2004.42
SCF: Cycle: 34   G: -1687.955297257553184   dG: +7.498e-06   |Residual|: 2.520e-04   |deigs|: 2.304e-05  t[s]:   2005.50
	Linear fluid (dielectric constant: 78.4, screening length: 5.74355 Bohr) occupying 0.632601 of unit cell:	Completed after 17 iterations at t[s]:   2007.10
	FillingsUpdate:  mu: -0.244750400  nElectrons: 429.855037
	Linear fluid (dielectric constant: 78.4, screening length: 5.74355 Bohr) occupying 0.632601 of unit cell:	Completed after 15 iterations at t[s]:   2046.20
SCF: Cycle: 35   G: -1687.955303409069529   dG: -6.152e-06   |Residual|: 1.666e-04   |deigs|: 2.241e-05  t[s]:   2047.63
	Linear fluid (dielectric constant: 78.4, screening length: 5.74355 Bohr) occupying 0.632603 of unit cell:	Completed after 14 iterations at t[s]:   2049.24
	FillingsUpdate:  mu: -0.244750400  nElectrons: 429.859078
	Linear fluid (dielectric constant: 78.4, screening length: 5.74355 Bohr) occupying 0.632602 of unit cell:	Completed after 16 iterations at t[s]:   2088.08
SCF: Cycle: 36   G: -1687.955307584041975   dG: -4.175e-06   |Residual|: 1.955e-04   |deigs|: 2.278e-05  t[s]:   2089.44
	Linear fluid (dielectric constant: 78.4, screening length: 5.74355 Bohr) occupying 0.632605 of unit cell:	Completed after 16 iterations at t[s]:   2091.17
	FillingsUpdate:  mu: -0.244750400  nElectrons: 429.862760
	Linear fluid (dielectric constant: 78.4, screening length: 5.74355 Bohr) occupying 0.632602 of unit cell:	Completed after 15 iterations at t[s]:   2130.78
SCF: Cycle: 37   G: -1687.955315467392211   dG: -7.883e-06   |Residual|: 1.347e-04   |deigs|: 1.791e-05  t[s]:   2132.09
	Linear fluid (dielectric constant: 78.4, screening length: 5.74355 Bohr) occupying 0.632604 of unit cell:	Completed after 14 iterations at t[s]:   2133.67
	FillingsUpdate:  mu: -0.244750400  nElectrons: 429.863422
	Linear fluid (dielectric constant: 78.4, screening length: 5.74355 Bohr) occupying 0.632602 of unit cell:	Completed after 13 iterations at t[s]:   2171.64
SCF: Cycle: 38   G: -1687.955315919964505   dG: -4.526e-07   |Residual|: 1.139e-04   |deigs|: 1.186e-05  t[s]:   2172.89
	Linear fluid (dielectric constant: 78.4, screening length: 5.74355 Bohr) occupying 0.632605 of unit cell:	Completed after 11 iterations at t[s]:   2174.22
	FillingsUpdate:  mu: -0.244750400  nElectrons: 429.897146
	Linear fluid (dielectric constant: 78.4, screening length: 5.74355 Bohr) occupying 0.632606 of unit cell:	Completed after 17 iterations at t[s]:   2234.71
SCF: Cycle: 39   G: -1687.955102300776616   dG: +2.136e-04   |Residual|: 5.095e-04   |deigs|: 1.173e-04  t[s]:   2235.83
	Linear fluid (dielectric constant: 78.4, screening length: 5.74355 Bohr) occupying 0.632602 of unit cell:	Completed after 18 iterations at t[s]:   2237.60
	FillingsUpdate:  mu: -0.244750400  nElectrons: 429.857360
	Linear fluid (dielectric constant: 78.4, screening length: 5.74355 Bohr) occupying 0.632601 of unit cell:	Completed after 13 iterations at t[s]:   2277.70
SCF: Cycle: 40   G: -1687.955311440394780   dG: -2.091e-04   |Residual|: 1.123e-04   |deigs|: 1.362e-04  t[s]:   2278.89
	Linear fluid (dielectric constant: 78.4, screening length: 5.74355 Bohr) occupying 0.632602 of unit cell:	Completed after 14 iterations at t[s]:   2280.40
	FillingsUpdate:  mu: -0.244750400  nElectrons: 429.856849
	Linear fluid (dielectric constant: 78.4, screening length: 5.74355 Bohr) occupying 0.632602 of unit cell:	Completed after 17 iterations at t[s]:   2336.09
SCF: Cycle: 41   G: -1687.955299660475475   dG: +1.178e-05   |Residual|: 2.060e-04   |deigs|: 1.918e-05  t[s]:   2337.26
	Linear fluid (dielectric constant: 78.4, screening length: 5.74355 Bohr) occupying 0.632602 of unit cell:	Completed after 16 iterations at t[s]:   2338.92
	FillingsUpdate:  mu: -0.244750400  nElectrons: 429.857150
	Linear fluid (dielectric constant: 78.4, screening length: 5.74355 Bohr) occupying 0.632601 of unit cell:	Completed after 15 iterations at t[s]:   2399.05
SCF: Cycle: 42   G: -1687.955306025696927   dG: -6.365e-06   |Residual|: 1.743e-04   |deigs|: 1.642e-05  t[s]:   2400.24
	Linear fluid (dielectric constant: 78.4, screening length: 5.74355 Bohr) occupying 0.632603 of unit cell:	Completed after 15 iterations at t[s]:   2401.75
	FillingsUpdate:  mu: -0.244750400  nElectrons: 429.860557
	Linear fluid (dielectric constant: 78.4, screening length: 5.74355 Bohr) occupying 0.632602 of unit cell:	Completed after 17 iterations at t[s]:   2457.80
SCF: Cycle: 43   G: -1687.955306578958471   dG: -5.533e-07   |Residual|: 2.134e-04   |deigs|: 2.486e-05  t[s]:   2459.75
	Linear fluid (dielectric constant: 78.4, screening length: 5.74355 Bohr) occupying 0.632603 of unit cell:	Completed after 17 iterations at t[s]:   2464.11
	FillingsUpdate:  mu: -0.244750400  nElectrons: 429.858371
	Linear fluid (dielectric constant: 78.4, screening length: 5.74355 Bohr) occupying 0.632602 of unit cell:	Completed after 15 iterations at t[s]:   2547.34
SCF: Cycle: 44   G: -1687.955310218153954   dG: -3.639e-06   |Residual|: 1.134e-04   |deigs|: 1.659e-05  t[s]:   2549.40
	Linear fluid (dielectric constant: 78.4, screening length: 5.74355 Bohr) occupying 0.632603 of unit cell:	Completed after 13 iterations at t[s]:   2553.69
	FillingsUpdate:  mu: -0.244750400  nElectrons: 429.860612
	Linear fluid (dielectric constant: 78.4, screening length: 5.74355 Bohr) occupying 0.632602 of unit cell:	Completed after 14 iterations at t[s]:   2600.78
SCF: Cycle: 45   G: -1687.955314003655303   dG: -3.786e-06   |Residual|: 8.439e-05   |deigs|: 8.023e-06  t[s]:   2602.18
	Linear fluid (dielectric constant: 78.4, screening length: 5.74355 Bohr) occupying 0.632602 of unit cell:	Completed after 13 iterations at t[s]:   2603.74
	FillingsUpdate:  mu: -0.244750400  nElectrons: 429.860472
	Linear fluid (dielectric constant: 78.4, screening length: 5.74355 Bohr) occupying 0.632602 of unit cell:	Completed after 14 iterations at t[s]:   2646.77
SCF: Cycle: 46   G: -1687.955314780311710   dG: -7.767e-07   |Residual|: 7.408e-05   |deigs|: 1.903e-06  t[s]:   2648.83
	Linear fluid (dielectric constant: 78.4, screening length: 5.74355 Bohr) occupying 0.632603 of unit cell:	Completed after 13 iterations at t[s]:   2650.74
	FillingsUpdate:  mu: -0.244750400  nElectrons: 429.864105
	Linear fluid (dielectric constant: 78.4, screening length: 5.74355 Bohr) occupying 0.632603 of unit cell:	Completed after 7 iterations at t[s]:   2703.09
SCF: Cycle: 47   G: -1687.955316109527985   dG: -1.329e-06   |Residual|: 9.093e-05   |deigs|: 1.182e-05  t[s]:   2704.40
	Linear fluid (dielectric constant: 78.4, screening length: 5.74355 Bohr) occupying 0.632603 of unit cell:	Completed after 7 iterations at t[s]:   2705.55
	FillingsUpdate:  mu: -0.244750400  nElectrons: 429.886219
	Linear fluid (dielectric constant: 78.4, screening length: 5.74355 Bohr) occupying 0.632604 of unit cell:	Completed after 16 iterations at t[s]:   2769.83
SCF: Cycle: 48   G: -1687.955206084519659   dG: +1.100e-04   |Residual|: 3.784e-04   |deigs|: 7.847e-05  t[s]:   2771.12
	Linear fluid (dielectric constant: 78.4, screening length: 5.74355 Bohr) occupying 0.632603 of unit cell:	Completed after 18 iterations at t[s]:   2772.94
	FillingsUpdate:  mu: -0.244750400  nElectrons: 429.861015
	Linear fluid (dielectric constant: 78.4, screening length: 5.74355 Bohr) occupying 0.632602 of unit cell:	Completed after 10 iterations at t[s]:   2842.98
SCF: Cycle: 49   G: -1687.955315619630028   dG: -1.095e-04   |Residual|: 4.464e-05   |deigs|: 8.770e-05  t[s]:   2847.38
	Linear fluid (dielectric constant: 78.4, screening length: 5.74355 Bohr) occupying 0.632603 of unit cell:	Completed after 10 iterations at t[s]:   2851.25
	FillingsUpdate:  mu: -0.244750400  nElectrons: 429.875959
	Linear fluid (dielectric constant: 78.4, screening length: 5.74355 Bohr) occupying 0.632604 of unit cell:	Completed after 13 iterations at t[s]:   2905.98
SCF: Cycle: 50   G: -1687.955294722711187   dG: +2.090e-05   |Residual|: 2.143e-04   |deigs|: 5.206e-05  t[s]:   2907.69
	Linear fluid (dielectric constant: 78.4, screening length: 5.74355 Bohr) occupying 0.632603 of unit cell:	Completed after 13 iterations at t[s]:   2909.71
	FillingsUpdate:  mu: -0.244750400  nElectrons: 429.859601
	Linear fluid (dielectric constant: 78.4, screening length: 5.74355 Bohr) occupying 0.632602 of unit cell:	Completed after 15 iterations at t[s]:   2952.95
SCF: Cycle: 51   G: -1687.955311234301007   dG: -1.651e-05   |Residual|: 1.298e-04   |deigs|: 5.580e-05  t[s]:   2954.68
	Linear fluid (dielectric constant: 78.4, screening length: 5.74355 Bohr) occupying 0.632603 of unit cell:	Completed after 15 iterations at t[s]:   2956.24
	FillingsUpdate:  mu: -0.244750400  nElectrons: 429.860927
	Linear fluid (dielectric constant: 78.4, screening length: 5.74355 Bohr) occupying 0.632602 of unit cell:	Completed after 15 iterations at t[s]:   2997.22
SCF: Cycle: 52   G: -1687.955313220893913   dG: -1.987e-06   |Residual|: 1.162e-04   |deigs|: 9.512e-06  t[s]:   2998.79
	Linear fluid (dielectric constant: 78.4, screening length: 5.74355 Bohr) occupying 0.632603 of unit cell:	Completed after 14 iterations at t[s]:   3000.51
	FillingsUpdate:  mu: -0.244750400  nElectrons: 429.863146
	Linear fluid (dielectric constant: 78.4, screening length: 5.74355 Bohr) occupying 0.632602 of unit cell:	Completed after 16 iterations at t[s]:   3049.32
SCF: Cycle: 53   G: -1687.955313067087218   dG: +1.538e-07   |Residual|: 1.497e-04   |deigs|: 1.888e-05  t[s]:   3051.26
	Linear fluid (dielectric constant: 78.4, screening length: 5.74355 Bohr) occupying 0.632603 of unit cell:	Completed after 13 iterations at t[s]:   3052.86
	FillingsUpdate:  mu: -0.244750400  nElectrons: 429.883596
	Linear fluid (dielectric constant: 78.4, screening length: 5.74355 Bohr) occupying 0.632604 of unit cell:	Completed after 14 iterations at t[s]:   3121.56
SCF: Cycle: 54   G: -1687.955259194931386   dG: +5.387e-05   |Residual|: 2.833e-04   |deigs|: 6.972e-05  t[s]:   3123.62
	Linear fluid (dielectric constant: 78.4, screening length: 5.74355 Bohr) occupying 0.632603 of unit cell:	Completed after 16 iterations at t[s]:   3125.77
	FillingsUpdate:  mu: -0.244750400  nElectrons: 429.860634
	Linear fluid (dielectric constant: 78.4, screening length: 5.74355 Bohr) occupying 0.632601 of unit cell:	Completed after 10 iterations at t[s]:   3169.94
SCF: Cycle: 55   G: -1687.955315377241050   dG: -5.618e-05   |Residual|: 7.733e-05   |deigs|: 7.494e-05  t[s]:   3171.71
	Linear fluid (dielectric constant: 78.4, screening length: 5.74355 Bohr) occupying 0.632602 of unit cell:	Completed after 9 iterations at t[s]:   3172.96
	FillingsUpdate:  mu: -0.244750400  nElectrons: 429.897225
	Linear fluid (dielectric constant: 78.4, screening length: 5.74355 Bohr) occupying 0.632604 of unit cell:	Completed after 15 iterations at t[s]:   3217.64
SCF: Cycle: 56   G: -1687.955037403170763   dG: +2.780e-04   |Residual|: 5.958e-04   |deigs|: 1.270e-04  t[s]:   3219.75
	Linear fluid (dielectric constant: 78.4, screening length: 5.74355 Bohr) occupying 0.632602 of unit cell:	Completed after 14 iterations at t[s]:   3221.97
	FillingsUpdate:  mu: -0.244750400  nElectrons: 429.860386
	Linear fluid (dielectric constant: 78.4, screening length: 5.74355 Bohr) occupying 0.632601 of unit cell:	Completed after 12 iterations at t[s]:   3266.66
SCF: Cycle: 57   G: -1687.955314201531110   dG: -2.768e-04   |Residual|: 5.926e-05   |deigs|: 1.298e-04  t[s]:   3268.28
	Linear fluid (dielectric constant: 78.4, screening length: 5.74355 Bohr) occupying 0.632603 of unit cell:	Completed after 12 iterations at t[s]:   3269.88
	FillingsUpdate:  mu: -0.244750400  nElectrons: 429.865371
	Linear fluid (dielectric constant: 78.4, screening length: 5.74355 Bohr) occupying 0.632603 of unit cell:	Completed after 3 iterations at t[s]:   3314.03
SCF: Cycle: 58   G: -1687.955315309874777   dG: -1.108e-06   |Residual|: 1.294e-04   |deigs|: 1.786e-05  t[s]:   3315.19
	Linear fluid (dielectric constant: 78.4, screening length: 5.74355 Bohr) occupying 0.632603 of unit cell:	Completed after 3 iterations at t[s]:   3315.85
	FillingsUpdate:  mu: -0.244750400  nElectrons: 429.862352
	Linear fluid (dielectric constant: 78.4, screening length: 5.74355 Bohr) occupying 0.632601 of unit cell:	Completed after 3 iterations at t[s]:   3360.02
SCF: Cycle: 59   G: -1687.955315823243609   dG: -5.134e-07   |Residual|: 4.905e-05   |deigs|: 1.392e-05  t[s]:   3361.08
	Linear fluid (dielectric constant: 78.4, screening length: 5.74355 Bohr) occupying 0.632602 of unit cell:	Completed after 3 iterations at t[s]:   3361.77
	FillingsUpdate:  mu: -0.244750400  nElectrons: 429.857735
	Linear fluid (dielectric constant: 78.4, screening length: 5.74355 Bohr) occupying 0.632602 of unit cell:	Completed after 13 iterations at t[s]:   3405.47
SCF: Cycle: 60   G: -1687.955309112194300   dG: +6.711e-06   |Residual|: 9.806e-05   |deigs|: 1.778e-05  t[s]:   3406.92
	Linear fluid (dielectric constant: 78.4, screening length: 5.74355 Bohr) occupying 0.632602 of unit cell:	Completed after 13 iterations at t[s]:   3408.35
	FillingsUpdate:  mu: -0.244750400  nElectrons: 429.859502
	Linear fluid (dielectric constant: 78.4, screening length: 5.74355 Bohr) occupying 0.632602 of unit cell:	Completed after 14 iterations at t[s]:   3444.78
SCF: Cycle: 61   G: -1687.955311979546650   dG: -2.867e-06   |Residual|: 7.998e-05   |deigs|: 6.394e-06  t[s]:   3445.94
	Linear fluid (dielectric constant: 78.4, screening length: 5.74355 Bohr) occupying 0.632602 of unit cell:	Completed after 13 iterations at t[s]:   3447.61
	FillingsUpdate:  mu: -0.244750400  nElectrons: 429.861187
	Linear fluid (dielectric constant: 78.4, screening length: 5.74355 Bohr) occupying 0.632602 of unit cell:	Completed after 15 iterations at t[s]:   3490.39
SCF: Cycle: 62   G: -1687.955313528431816   dG: -1.549e-06   |Residual|: 8.784e-05   |deigs|: 7.939e-06  t[s]:   3491.63
	Linear fluid (dielectric constant: 78.4, screening length: 5.74355 Bohr) occupying 0.632602 of unit cell:	Completed after 14 iterations at t[s]:   3493.20
	FillingsUpdate:  mu: -0.244750400  nElectrons: 429.861568
	Linear fluid (dielectric constant: 78.4, screening length: 5.74355 Bohr) occupying 0.632602 of unit cell:	Completed after 15 iterations at t[s]:   3537.27
SCF: Cycle: 63   G: -1687.955311423302874   dG: +2.105e-06   |Residual|: 1.418e-04   |deigs|: 1.537e-05  t[s]:   3538.59
	Linear fluid (dielectric constant: 78.4, screening length: 5.74355 Bohr) occupying 0.632602 of unit cell:	Completed after 16 iterations at t[s]:   3540.26
	FillingsUpdate:  mu: -0.244750400  nElectrons: 429.863185
	Linear fluid (dielectric constant: 78.4, screening length: 5.74355 Bohr) occupying 0.632602 of unit cell:	Completed after 15 iterations at t[s]:   3583.02
SCF: Cycle: 64   G: -1687.955314078157244   dG: -2.655e-06   |Residual|: 1.081e-04   |deigs|: 1.132e-05  t[s]:   3584.46
	Linear fluid (dielectric constant: 78.4, screening length: 5.74355 Bohr) occupying 0.632602 of unit cell:	Completed after 14 iterations at t[s]:   3586.06
	FillingsUpdate:  mu: -0.244750400  nElectrons: 429.861105
	Linear fluid (dielectric constant: 78.4, screening length: 5.74355 Bohr) occupying 0.632602 of unit cell:	Completed after 13 iterations at t[s]:   3627.91
SCF: Cycle: 65   G: -1687.955313546160141   dG: +5.320e-07   |Residual|: 7.612e-05   |deigs|: 7.991e-06  t[s]:   3629.36
	Linear fluid (dielectric constant: 78.4, screening length: 5.74355 Bohr) occupying 0.632602 of unit cell:	Completed after 14 iterations at t[s]:   3630.88
	FillingsUpdate:  mu: -0.244750400  nElectrons: 429.862034
	Linear fluid (dielectric constant: 78.4, screening length: 5.74355 Bohr) occupying 0.632602 of unit cell:	Completed after 15 iterations at t[s]:   3674.14
SCF: Cycle: 66   G: -1687.955313823710412   dG: -2.776e-07   |Residual|: 1.007e-04   |deigs|: 1.027e-05  t[s]:   3675.62
	Linear fluid (dielectric constant: 78.4, screening length: 5.74355 Bohr) occupying 0.632602 of unit cell:	Completed after 14 iterations at t[s]:   3677.21
	FillingsUpdate:  mu: -0.244750400  nElectrons: 429.866576
	Linear fluid (dielectric constant: 78.4, screening length: 5.74355 Bohr) occupying 0.632602 of unit cell:	Completed after 9 iterations at t[s]:   3738.26
SCF: Cycle: 67   G: -1687.955313135342749   dG: +6.884e-07   |Residual|: 1.545e-04   |deigs|: 2.420e-05  t[s]:   3739.47
	Linear fluid (dielectric constant: 78.4, screening length: 5.74355 Bohr) occupying 0.632602 of unit cell:	Completed after 8 iterations at t[s]:   3740.49
	FillingsUpdate:  mu: -0.244750400  nElectrons: 429.842263
	Linear fluid (dielectric constant: 78.4, screening length: 5.74355 Bohr) occupying 0.632600 of unit cell:	Completed after 14 iterations at t[s]:   3784.91
SCF: Cycle: 68   G: -1687.955226098372350   dG: +8.704e-05   |Residual|: 3.318e-04   |deigs|: 8.151e-05  t[s]:   3786.01
	Linear fluid (dielectric constant: 78.4, screening length: 5.74355 Bohr) occupying 0.632602 of unit cell:	Completed after 15 iterations at t[s]:   3787.58
	FillingsUpdate:  mu: -0.244750400  nElectrons: 429.859592
	Linear fluid (dielectric constant: 78.4, screening length: 5.74355 Bohr) occupying 0.632602 of unit cell:	Completed after 11 iterations at t[s]:   3828.05
SCF: Cycle: 69   G: -1687.955312782436295   dG: -8.668e-05   |Residual|: 7.275e-05   |deigs|: 5.981e-05  t[s]:   3829.11
	Linear fluid (dielectric constant: 78.4, screening length: 5.74355 Bohr) occupying 0.632602 of unit cell:	Completed after 13 iterations at t[s]:   3830.50
	FillingsUpdate:  mu: -0.244750400  nElectrons: 429.861982
	Linear fluid (dielectric constant: 78.4, screening length: 5.74355 Bohr) occupying 0.632602 of unit cell:	Completed after 17 iterations at t[s]:   3873.52
SCF: Cycle: 70   G: -1687.955308101750916   dG: +4.681e-06   |Residual|: 1.907e-04   |deigs|: 2.175e-05  t[s]:   3874.77
	Linear fluid (dielectric constant: 78.4, screening length: 5.74355 Bohr) occupying 0.632602 of unit cell:	Completed after 18 iterations at t[s]:   3876.70
	FillingsUpdate:  mu: -0.244750400  nElectrons: 429.859143
	Linear fluid (dielectric constant: 78.4, screening length: 5.74355 Bohr) occupying 0.632602 of unit cell:	Completed after 13 iterations at t[s]:   3919.13
SCF: Cycle: 71   G: -1687.955309830137367   dG: -1.728e-06   |Residual|: 1.060e-04   |deigs|: 1.620e-05  t[s]:   3920.39
	Linear fluid (dielectric constant: 78.4, screening length: 5.74355 Bohr) occupying 0.632602 of unit cell:	Completed after 15 iterations at t[s]:   3922.25
	FillingsUpdate:  mu: -0.244750400  nElectrons: 429.859859
	Linear fluid (dielectric constant: 78.4, screening length: 5.74355 Bohr) occupying 0.632602 of unit cell:	Completed after 14 iterations at t[s]:   3965.78
SCF: Cycle: 72   G: -1687.955311481145600   dG: -1.651e-06   |Residual|: 8.256e-05   |deigs|: 4.459e-06  t[s]:   3967.02
	Linear fluid (dielectric constant: 78.4, screening length: 5.74355 Bohr) occupying 0.632602 of unit cell:	Completed after 14 iterations at t[s]:   3968.58
	FillingsUpdate:  mu: -0.244750400  nElectrons: 429.859052
	Linear fluid (dielectric constant: 78.4, screening length: 5.74355 Bohr) occupying 0.632602 of unit cell:	Completed after 13 iterations at t[s]:   4008.94
SCF: Cycle: 73   G: -1687.955311180955505   dG: +3.002e-07   |Residual|: 7.290e-05   |deigs|: 3.559e-06  t[s]:   4010.24
	Linear fluid (dielectric constant: 78.4, screening length: 5.74355 Bohr) occupying 0.632602 of unit cell:	Completed after 12 iterations at t[s]:   4011.64
	FillingsUpdate:  mu: -0.244750400  nElectrons: 429.861431
	Linear fluid (dielectric constant: 78.4, screening length: 5.74355 Bohr) occupying 0.632602 of unit cell:	Completed after 14 iterations at t[s]:   4055.65
SCF: Cycle: 74   G: -1687.955313476682932   dG: -2.296e-06   |Residual|: 7.198e-05   |deigs|: 1.060e-05  t[s]:   4057.07
	Linear fluid (dielectric constant: 78.4, screening length: 5.74355 Bohr) occupying 0.632602 of unit cell:	Completed after 14 iterations at t[s]:   4058.65
	FillingsUpdate:  mu: -0.244750400  nElectrons: 429.863032
	Linear fluid (dielectric constant: 78.4, screening length: 5.74355 Bohr) occupying 0.632602 of unit cell:	Completed after 15 iterations at t[s]:   4102.13
SCF: Cycle: 75   G: -1687.955313394470522   dG: +8.221e-08   |Residual|: 1.111e-04   |deigs|: 1.093e-05  t[s]:   4103.34
	Linear fluid (dielectric constant: 78.4, screening length: 5.74355 Bohr) occupying 0.632602 of unit cell:	Completed after 14 iterations at t[s]:   4104.93
	FillingsUpdate:  mu: -0.244750400  nElectrons: 429.866243
	Linear fluid (dielectric constant: 78.4, screening length: 5.74355 Bohr) occupying 0.632602 of unit cell:	Completed after 13 iterations at t[s]:   4166.06
SCF: Cycle: 76   G: -1687.955313782802023   dG: -3.883e-07   |Residual|: 1.014e-04   |deigs|: 1.662e-05  t[s]:   4167.36
	Linear fluid (dielectric constant: 78.4, screening length: 5.74355 Bohr) occupying 0.632602 of unit cell:	Completed after 10 iterations at t[s]:   4168.56
	FillingsUpdate:  mu: -0.244750400  nElectrons: 429.819504
	Linear fluid (dielectric constant: 78.4, screening length: 5.74355 Bohr) occupying 0.632600 of unit cell:	Completed after 16 iterations at t[s]:   4230.17
SCF: Cycle: 77   G: -1687.954852973380866   dG: +4.608e-04   |Residual|: 7.659e-04   |deigs|: 1.627e-04  t[s]:   4231.54
	Linear fluid (dielectric constant: 78.4, screening length: 5.74355 Bohr) occupying 0.632602 of unit cell:	Completed after 15 iterations at t[s]:   4233.13
	FillingsUpdate:  mu: -0.244750400  nElectrons: 429.859348
	Linear fluid (dielectric constant: 78.4, screening length: 5.74355 Bohr) occupying 0.632602 of unit cell:	Completed after 10 iterations at t[s]:   4274.93
SCF: Cycle: 78   G: -1687.955311650986687   dG: -4.587e-04   |Residual|: 1.056e-04   |deigs|: 1.416e-04  t[s]:   4276.18
	Linear fluid (dielectric constant: 78.4, screening length: 5.74355 Bohr) occupying 0.632602 of unit cell:	Completed after 10 iterations at t[s]:   4277.44
	FillingsUpdate:  mu: -0.244750400  nElectrons: 429.863702
	Linear fluid (dielectric constant: 78.4, screening length: 5.74355 Bohr) occupying 0.632603 of unit cell:	Completed after 17 iterations at t[s]:   4320.39
SCF: Cycle: 79   G: -1687.955305973650638   dG: +5.677e-06   |Residual|: 2.354e-04   |deigs|: 2.901e-05  t[s]:   4321.70
	Linear fluid (dielectric constant: 78.4, screening length: 5.74355 Bohr) occupying 0.632602 of unit cell:	Completed after 18 iterations at t[s]:   4323.59
	FillingsUpdate:  mu: -0.244750400  nElectrons: 429.859362
	Linear fluid (dielectric constant: 78.4, screening length: 5.74355 Bohr) occupying 0.632602 of unit cell:	Completed after 14 iterations at t[s]:   4365.80
SCF: Cycle: 80   G: -1687.955309844150406   dG: -3.870e-06   |Residual|: 1.032e-04   |deigs|: 2.227e-05  t[s]:   4367.17
	Linear fluid (dielectric constant: 78.4, screening length: 5.74355 Bohr) occupying 0.632602 of unit cell:	Completed after 15 iterations at t[s]:   4368.81
	FillingsUpdate:  mu: -0.244750400  nElectrons: 429.859485
	Linear fluid (dielectric constant: 78.4, screening length: 5.74355 Bohr) occupying 0.632602 of unit cell:	Completed after 13 iterations at t[s]:   4407.94
SCF: Cycle: 81   G: -1687.955310203599311   dG: -3.594e-07   |Residual|: 8.906e-05   |deigs|: 2.594e-06  t[s]:   4409.25
	Linear fluid (dielectric constant: 78.4, screening length: 5.74355 Bohr) occupying 0.632602 of unit cell:	Completed after 14 iterations at t[s]:   4410.87
	FillingsUpdate:  mu: -0.244750400  nElectrons: 429.859390
	Linear fluid (dielectric constant: 78.4, screening length: 5.74355 Bohr) occupying 0.632602 of unit cell:	Completed after 12 iterations at t[s]:   4455.57
SCF: Cycle: 82   G: -1687.955310995931086   dG: -7.923e-07   |Residual|: 6.985e-05   |deigs|: 2.357e-06  t[s]:   4457.13
	Linear fluid (dielectric constant: 78.4, screening length: 5.74355 Bohr) occupying 0.632602 of unit cell:	Completed after 12 iterations at t[s]:   4458.49
	FillingsUpdate:  mu: -0.244750400  nElectrons: 429.860288
	Linear fluid (dielectric constant: 78.4, screening length: 5.74355 Bohr) occupying 0.632602 of unit cell:	Completed after 13 iterations at t[s]:   4497.96
SCF: Cycle: 83   G: -1687.955312295196109   dG: -1.299e-06   |Residual|: 5.561e-05   |deigs|: 3.093e-06  t[s]:   4499.22
	Linear fluid (dielectric constant: 78.4, screening length: 5.74355 Bohr) occupying 0.632602 of unit cell:	Completed after 11 iterations at t[s]:   4500.62
	FillingsUpdate:  mu: -0.244750400  nElectrons: 429.862378
	Linear fluid (dielectric constant: 78.4, screening length: 5.74355 Bohr) occupying 0.632602 of unit cell:	Completed after 10 iterations at t[s]:   4541.28
SCF: Cycle: 84   G: -1687.955313775894410   dG: -1.481e-06   |Residual|: 5.053e-05   |deigs|: 8.486e-06  t[s]:   4542.43
	Linear fluid (dielectric constant: 78.4, screening length: 5.74355 Bohr) occupying 0.632602 of unit cell:	Completed after 9 iterations at t[s]:   4543.55
	FillingsUpdate:  mu: -0.244750400  nElectrons: 429.891307
	Linear fluid (dielectric constant: 78.4, screening length: 5.74355 Bohr) occupying 0.632605 of unit cell:	Completed after 17 iterations at t[s]:   4584.93
SCF: Cycle: 85   G: -1687.955167974635060   dG: +1.458e-04   |Residual|: 4.255e-04   |deigs|: 9.931e-05  t[s]:   4586.48
	Linear fluid (dielectric constant: 78.4, screening length: 5.74355 Bohr) occupying 0.632602 of unit cell:	Completed after 17 iterations at t[s]:   4588.42
	FillingsUpdate:  mu: -0.244750400  nElectrons: 429.860500
	Linear fluid (dielectric constant: 78.4, screening length: 5.74355 Bohr) occupying 0.632601 of unit cell:	Completed after 11 iterations at t[s]:   4630.15
SCF: Cycle: 86   G: -1687.955313056784917   dG: -1.451e-04   |Residual|: 8.390e-05   |deigs|: 1.058e-04  t[s]:   4631.99
	Linear fluid (dielectric constant: 78.4, screening length: 5.74355 Bohr) occupying 0.632602 of unit cell:	Completed after 9 iterations at t[s]:   4633.44
	FillingsUpdate:  mu: -0.244750400  nElectrons: 429.873406
	Linear fluid (dielectric constant: 78.4, screening length: 5.74355 Bohr) occupying 0.632602 of unit cell:	Completed after 16 iterations at t[s]:   4675.44
SCF: Cycle: 87   G: -1687.955277836490723   dG: +3.522e-05   |Residual|: 2.406e-04   |deigs|: 4.834e-05  t[s]:   4677.28
	Linear fluid (dielectric constant: 78.4, screening length: 5.74355 Bohr) occupying 0.632602 of unit cell:	Completed after 13 iterations at t[s]:   4678.95
	FillingsUpdate:  mu: -0.244750400  nElectrons: 429.860218
	Linear fluid (dielectric constant: 78.4, screening length: 5.74355 Bohr) occupying 0.632602 of unit cell:	Completed after 13 iterations at t[s]:   4722.28
SCF: Cycle: 88   G: -1687.955311472054063   dG: -3.364e-05   |Residual|: 1.566e-04   |deigs|: 5.182e-05  t[s]:   4723.69
	Linear fluid (dielectric constant: 78.4, screening length: 5.74355 Bohr) occupying 0.632602 of unit cell:	Completed after 15 iterations at t[s]:   4725.60
	FillingsUpdate:  mu: -0.244750400  nElectrons: 429.863126
	Linear fluid (dielectric constant: 78.4, screening length: 5.74355 Bohr) occupying 0.632603 of unit cell:	Completed after 9 iterations at t[s]:   4769.75
SCF: Cycle: 89   G: -1687.955313590339074   dG: -2.118e-06   |Residual|: 8.271e-05   |deigs|: 1.049e-05  t[s]:   4771.23
	Linear fluid (dielectric constant: 78.4, screening length: 5.74355 Bohr) occupying 0.632602 of unit cell:	Completed after 8 iterations at t[s]:   4772.55
	FillingsUpdate:  mu: -0.244750400  nElectrons: 429.893246
	Linear fluid (dielectric constant: 78.4, screening length: 5.74355 Bohr) occupying 0.632605 of unit cell:	Completed after 16 iterations at t[s]:   4817.16
SCF: Cycle: 90   G: -1687.955130253733387   dG: +1.833e-04   |Residual|: 4.714e-04   |deigs|: 1.059e-04  t[s]:   4818.63
	Linear fluid (dielectric constant: 78.4, screening length: 5.74355 Bohr) occupying 0.632602 of unit cell:	Completed after 16 iterations at t[s]:   4820.66
	FillingsUpdate:  mu: -0.244750400  nElectrons: 429.859642
	Linear fluid (dielectric constant: 78.4, screening length: 5.74355 Bohr) occupying 0.632601 of unit cell:	Completed after 14 iterations at t[s]:   4862.91
SCF: Cycle: 91   G: -1687.955310756833796   dG: -1.805e-04   |Residual|: 1.752e-04   |deigs|: 1.158e-04  t[s]:   4864.79
	Linear fluid (dielectric constant: 78.4, screening length: 5.74355 Bohr) occupying 0.632602 of unit cell:	Completed after 14 iterations at t[s]:   4866.94
	FillingsUpdate:  mu: -0.244750400  nElectrons: 429.877081
	Linear fluid (dielectric constant: 78.4, screening length: 5.74355 Bohr) occupying 0.632602 of unit cell:	Completed after 15 iterations at t[s]:   4909.66
SCF: Cycle: 92   G: -1687.955255174796548   dG: +5.558e-05   |Residual|: 2.943e-04   |deigs|: 6.312e-05  t[s]:   4911.25
	Linear fluid (dielectric constant: 78.4, screening length: 5.74355 Bohr) occupying 0.632602 of unit cell:	Completed after 14 iterations at t[s]:   4912.96
	FillingsUpdate:  mu: -0.244750400  nElectrons: 429.859538
	Linear fluid (dielectric constant: 78.4, screening length: 5.74355 Bohr) occupying 0.632602 of unit cell:	Completed after 12 iterations at t[s]:   4953.99
SCF: Cycle: 93   G: -1687.955311610485751   dG: -5.644e-05   |Residual|: 9.312e-05   |deigs|: 6.459e-05  t[s]:   4955.74
	Linear fluid (dielectric constant: 78.4, screening length: 5.74355 Bohr) occupying 0.632602 of unit cell:	Completed after 11 iterations at t[s]:   4957.23
	FillingsUpdate:  mu: -0.244750400  nElectrons: 429.863732
	Linear fluid (dielectric constant: 78.4, screening length: 5.74355 Bohr) occupying 0.632603 of unit cell:	Completed after 16 iterations at t[s]:   5031.05
SCF: Cycle: 94   G: -1687.955310851587683   dG: +7.589e-07   |Residual|: 1.437e-04   |deigs|: 2.271e-05  t[s]:   5033.07
	Linear fluid (dielectric constant: 78.4, screening length: 5.74355 Bohr) occupying 0.632602 of unit cell:	Completed after 16 iterations at t[s]:   5035.13
	FillingsUpdate:  mu: -0.244750400  nElectrons: 429.865076
	Linear fluid (dielectric constant: 78.4, screening length: 5.74355 Bohr) occupying 0.632602 of unit cell:	Completed after 3 iterations at t[s]:   5082.93
SCF: Cycle: 95   G: -1687.955313596149153   dG: -2.745e-06   |Residual|: 8.686e-05   |deigs|: 1.519e-05  t[s]:   5085.46
	Linear fluid (dielectric constant: 78.4, screening length: 5.74355 Bohr) occupying 0.632602 of unit cell:	Completed after 3 iterations at t[s]:   5086.39
	FillingsUpdate:  mu: -0.244750400  nElectrons: 429.859837
	Linear fluid (dielectric constant: 78.4, screening length: 5.74355 Bohr) occupying 0.632601 of unit cell:	Completed after 10 iterations at t[s]:   5134.61
SCF: Cycle: 96   G: -1687.955311911752460   dG: +1.684e-06   |Residual|: 7.495e-05   |deigs|: 1.779e-05  t[s]:   5136.24
	Linear fluid (dielectric constant: 78.4, screening length: 5.74355 Bohr) occupying 0.632602 of unit cell:	Completed after 14 iterations at t[s]:   5138.19
	FillingsUpdate:  mu: -0.244750400  nElectrons: 429.860055
	Linear fluid (dielectric constant: 78.4, screening length: 5.74355 Bohr) occupying 0.632602 of unit cell:	Completed after 14 iterations at t[s]:   5185.37
SCF: Cycle: 97   G: -1687.955310451341120   dG: +1.460e-06   |Residual|: 8.234e-05   |deigs|: 5.018e-06  t[s]:   5187.42
	Linear fluid (dielectric constant: 78.4, screening length: 5.74355 Bohr) occupying 0.632602 of unit cell:	Completed after 14 iterations at t[s]:   5189.59
	FillingsUpdate:  mu: -0.244750400  nElectrons: 429.859925
	Linear fluid (dielectric constant: 78.4, screening length: 5.74355 Bohr) occupying 0.632601 of unit cell:	Completed after 13 iterations at t[s]:   5234.83
SCF: Cycle: 98   G: -1687.955310877083321   dG: -4.257e-07   |Residual|: 7.004e-05   |deigs|: 2.597e-06  t[s]:   5236.46
	Linear fluid (dielectric constant: 78.4, screening length: 5.74355 Bohr) occupying 0.632602 of unit cell:	Completed after 12 iterations at t[s]:   5238.12
	FillingsUpdate:  mu: -0.244750400  nElectrons: 429.862437
	Linear fluid (dielectric constant: 78.4, screening length: 5.74355 Bohr) occupying 0.632603 of unit cell:	Completed after 9 iterations at t[s]:   5286.81
SCF: Cycle: 99   G: -1687.955312935034044   dG: -2.058e-06   |Residual|: 7.379e-05   |deigs|: 1.040e-05  t[s]:   5288.62
	Linear fluid (dielectric constant: 78.4, screening length: 5.74355 Bohr) occupying 0.632602 of unit cell:	Completed after 8 iterations at t[s]:   5290.13
	FillingsUpdate:  mu: -0.244750400  nElectrons: 429.895815
	Linear fluid (dielectric constant: 78.4, screening length: 5.74355 Bohr) occupying 0.632605 of unit cell:	Completed after 18 iterations at t[s]:   5339.71
SCF: Cycle: 100   G: -1687.955101786884597   dG: +2.111e-04   |Residual|: 5.083e-04   |deigs|: 1.159e-04  t[s]:   5341.42
	Linear fluid (dielectric constant: 78.4, screening length: 5.74355 Bohr) occupying 0.632602 of unit cell:	Completed after 17 iterations at t[s]:   5343.47
	FillingsUpdate:  mu: -0.244750400  nElectrons: 429.860910
	Linear fluid (dielectric constant: 78.4, screening length: 5.74355 Bohr) occupying 0.632602 of unit cell:	Completed after 12 iterations at t[s]:   5387.94
SCF: Cycle: 101   G: -1687.955312302549146   dG: -2.105e-04   |Residual|: 6.021e-05   |deigs|: 1.215e-04  t[s]:   5389.65
	Linear fluid (dielectric constant: 78.4, screening length: 5.74355 Bohr) occupying 0.632602 of unit cell:	Completed after 12 iterations at t[s]:   5391.40
	FillingsUpdate:  mu: -0.244750400  nElectrons: 429.870395
	Linear fluid (dielectric constant: 78.4, screening length: 5.74355 Bohr) occupying 0.632603 of unit cell:	Completed after 13 iterations at t[s]:   5438.76
SCF: Cycle: 102   G: -1687.955308246834647   dG: +4.056e-06   |Residual|: 1.354e-04   |deigs|: 3.287e-05  t[s]:   5440.55
	Linear fluid (dielectric constant: 78.4, screening length: 5.74355 Bohr) occupying 0.632602 of unit cell:	Completed after 13 iterations at t[s]:   5442.61
	FillingsUpdate:  mu: -0.244750400  nElectrons: 429.853151
	Linear fluid (dielectric constant: 78.4, screening length: 5.74355 Bohr) occupying 0.632602 of unit cell:	Completed after 18 iterations at t[s]:   5491.28
SCF: Cycle: 103   G: -1687.955270134175635   dG: +3.811e-05   |Residual|: 2.887e-04   |deigs|: 6.260e-05  t[s]:   5493.11
	Linear fluid (dielectric constant: 78.4, screening length: 5.74355 Bohr) occupying 0.632602 of unit cell:	Completed after 16 iterations at t[s]:   5495.27
	FillingsUpdate:  mu: -0.244750400  nElectrons: 429.860369
	Linear fluid (dielectric constant: 78.4, screening length: 5.74355 Bohr) occupying 0.632602 of unit cell:	Completed after 14 iterations at t[s]:   5542.59
SCF: Cycle: 104   G: -1687.955310461620456   dG: -4.033e-05   |Residual|: 1.045e-04   |deigs|: 3.212e-05  t[s]:   5544.54
	Linear fluid (dielectric constant: 78.4, screening length: 5.74355 Bohr) occupying 0.632602 of unit cell:	Completed after 14 iterations at t[s]:   5546.39
	FillingsUpdate:  mu: -0.244750400  nElectrons: 429.864260
	Linear fluid (dielectric constant: 78.4, screening length: 5.74355 Bohr) occupying 0.632602 of unit cell:	Completed after 15 iterations at t[s]:   5594.39
SCF: Cycle: 105   G: -1687.955308688459354   dG: +1.773e-06   |Residual|: 1.965e-04   |deigs|: 2.552e-05  t[s]:   5596.04
	Linear fluid (dielectric constant: 78.4, screening length: 5.74355 Bohr) occupying 0.632602 of unit cell:	Completed after 12 iterations at t[s]:   5597.68
	FillingsUpdate:  mu: -0.244750400  nElectrons: 429.902745
	Linear fluid (dielectric constant: 78.4, screening length: 5.74355 Bohr) occupying 0.632606 of unit cell:	Completed after 16 iterations at t[s]:   5645.48
SCF: Cycle: 106   G: -1687.955034435782636   dG: +2.743e-04   |Residual|: 5.680e-04   |deigs|: 1.346e-04  t[s]:   5647.06
	Linear fluid (dielectric constant: 78.4, screening length: 5.74355 Bohr) occupying 0.632602 of unit cell:	Completed after 18 iterations at t[s]:   5649.30
	FillingsUpdate:  mu: -0.244750400  nElectrons: 429.860657
	Linear fluid (dielectric constant: 78.4, screening length: 5.74355 Bohr) occupying 0.632602 of unit cell:	Completed after 9 iterations at t[s]:   5693.77
SCF: Cycle: 107   G: -1687.955311975299310   dG: -2.775e-04   |Residual|: 5.580e-05   |deigs|: 1.431e-04  t[s]:   5695.36
	Linear fluid (dielectric constant: 78.4, screening length: 5.74355 Bohr) occupying 0.632602 of unit cell:	Completed after 12 iterations at t[s]:   5697.21
	FillingsUpdate:  mu: -0.244750400  nElectrons: 429.866766
	Linear fluid (dielectric constant: 78.4, screening length: 5.74355 Bohr) occupying 0.632603 of unit cell:	Completed after 10 iterations at t[s]:   5745.22
SCF: Cycle: 108   G: -1687.955310312885786   dG: +1.662e-06   |Residual|: 1.725e-04   |deigs|: 2.739e-05  t[s]:   5747.04
	Linear fluid (dielectric constant: 78.4, screening length: 5.74355 Bohr) occupying 0.632602 of unit cell:	Completed after 9 iterations at t[s]:   5748.67
	FillingsUpdate:  mu: -0.244750400  nElectrons: 429.834367
	Linear fluid (dielectric constant: 78.4, screening length: 5.74355 Bohr) occupying 0.632600 of unit cell:	Completed after 15 iterations at t[s]:   5798.03
SCF: Cycle: 109   G: -1687.955131543557400   dG: +1.788e-04   |Residual|: 4.719e-04   |deigs|: 1.100e-04  t[s]:   5799.65
	Linear fluid (dielectric constant: 78.4, screening length: 5.74355 Bohr) occupying 0.632602 of unit cell:	Completed after 14 iterations at t[s]:   5801.60
	FillingsUpdate:  mu: -0.244750400  nElectrons: 429.860110
	Linear fluid (dielectric constant: 78.4, screening length: 5.74355 Bohr) occupying 0.632602 of unit cell:	Completed after 12 iterations at t[s]:   5846.18
SCF: Cycle: 110   G: -1687.955311370386426   dG: -1.798e-04   |Residual|: 4.879e-05   |deigs|: 8.901e-05  t[s]:   5847.98
	Linear fluid (dielectric constant: 78.4, screening length: 5.74355 Bohr) occupying 0.632602 of unit cell:	Completed after 12 iterations at t[s]:   5849.58
	FillingsUpdate:  mu: -0.244750400  nElectrons: 429.861826
	Linear fluid (dielectric constant: 78.4, screening length: 5.74355 Bohr) occupying 0.632602 of unit cell:	Completed after 13 iterations at t[s]:   5886.87
SCF: Cycle: 111   G: -1687.955311499140862   dG: -1.288e-07   |Residual|: 9.036e-05   |deigs|: 9.927e-06  t[s]:   5888.16
	Linear fluid (dielectric constant: 78.4, screening length: 5.74355 Bohr) occupying 0.632602 of unit cell:	Completed after 14 iterations at t[s]:   5889.89
	FillingsUpdate:  mu: -0.244750400  nElectrons: 429.870198
	Linear fluid (dielectric constant: 78.4, screening length: 5.74355 Bohr) occupying 0.632603 of unit cell:	Completed after 11 iterations at t[s]:   5947.57
SCF: Cycle: 112   G: -1687.955307772659808   dG: +3.726e-06   |Residual|: 1.141e-04   |deigs|: 2.816e-05  t[s]:   5948.94
	Linear fluid (dielectric constant: 78.4, screening length: 5.74355 Bohr) occupying 0.632602 of unit cell:	Completed after 11 iterations at t[s]:   5950.48
	FillingsUpdate:  mu: -0.244750400  nElectrons: 429.852234
	Linear fluid (dielectric constant: 78.4, screening length: 5.74355 Bohr) occupying 0.632602 of unit cell:	Completed after 17 iterations at t[s]:   5996.37
SCF: Cycle: 113   G: -1687.955258273179425   dG: +4.950e-05   |Residual|: 3.564e-04   |deigs|: 6.679e-05  t[s]:   5998.02
	Linear fluid (dielectric constant: 78.4, screening length: 5.74355 Bohr) occupying 0.632602 of unit cell:	Completed after 17 iterations at t[s]:   6000.12
	FillingsUpdate:  mu: -0.244750400  nElectrons: 429.860207
	Linear fluid (dielectric constant: 78.4, screening length: 5.74355 Bohr) occupying 0.632602 of unit cell:	Completed after 14 iterations at t[s]:   6045.77
SCF: Cycle: 114   G: -1687.955310345015732   dG: -5.207e-05   |Residual|: 8.762e-05   |deigs|: 3.850e-05  t[s]:   6047.60
	Linear fluid (dielectric constant: 78.4, screening length: 5.74355 Bohr) occupying 0.632602 of unit cell:	Completed after 13 iterations at t[s]:   6049.18
	FillingsUpdate:  mu: -0.244750400  nElectrons: 429.862622
	Linear fluid (dielectric constant: 78.4, screening length: 5.74355 Bohr) occupying 0.632602 of unit cell:	Completed after 14 iterations at t[s]:   6090.22
SCF: Cycle: 115   G: -1687.955311934994825   dG: -1.590e-06   |Residual|: 7.522e-05   |deigs|: 8.097e-06  t[s]:   6091.84
	Linear fluid (dielectric constant: 78.4, screening length: 5.74355 Bohr) occupying 0.632602 of unit cell:	Completed after 13 iterations at t[s]:   6093.43
	FillingsUpdate:  mu: -0.244750400  nElectrons: 429.866080
	Linear fluid (dielectric constant: 78.4, screening length: 5.74355 Bohr) occupying 0.632603 of unit cell:	Completed after 10 iterations at t[s]:   6151.39
SCF: Cycle: 116   G: -1687.955311763270629   dG: +1.717e-07   |Residual|: 5.059e-05   |deigs|: 1.339e-05  t[s]:   6153.14
	Linear fluid (dielectric constant: 78.4, screening length: 5.74355 Bohr) occupying 0.632602 of unit cell:	Completed after 10 iterations at t[s]:   6154.56
	FillingsUpdate:  mu: -0.244750400  nElectrons: 429.856824
	Linear fluid (dielectric constant: 78.4, screening length: 5.74355 Bohr) occupying 0.632602 of unit cell:	Completed after 15 iterations at t[s]:   6223.56
SCF: Cycle: 117   G: -1687.955297167784693   dG: +1.460e-05   |Residual|: 2.071e-04   |deigs|: 3.600e-05  t[s]:   6225.58
	Linear fluid (dielectric constant: 78.4, screening length: 5.74355 Bohr) occupying 0.632602 of unit cell:	Completed after 16 iterations at t[s]:   6230.34
	FillingsUpdate:  mu: -0.244750400  nElectrons: 429.860952
	Linear fluid (dielectric constant: 78.4, screening length: 5.74355 Bohr) occupying 0.632602 of unit cell:	Completed after 14 iterations at t[s]:   6311.07
SCF: Cycle: 118   G: -1687.955309979895674   dG: -1.281e-05   |Residual|: 1.045e-04   |deigs|: 1.872e-05  t[s]:   6316.30
	Linear fluid (dielectric constant: 78.4, screening length: 5.74355 Bohr) occupying 0.632602 of unit cell:	Completed after 14 iterations at t[s]:   6321.98
	FillingsUpdate:  mu: -0.244750400  nElectrons: 429.863379
	Linear fluid (dielectric constant: 78.4, screening length: 5.74355 Bohr) occupying 0.632602 of unit cell:	Completed after 9 iterations at t[s]:   6370.09
SCF: Cycle: 119   G: -1687.955311959362007   dG: -1.979e-06   |Residual|: 8.714e-05   |deigs|: 1.192e-05  t[s]:   6371.73
	Linear fluid (dielectric constant: 78.4, screening length: 5.74355 Bohr) occupying 0.632602 of unit cell:	Completed after 8 iterations at t[s]:   6373.12
	FillingsUpdate:  mu: -0.244750400  nElectrons: 429.893943
	Linear fluid (dielectric constant: 78.4, screening length: 5.74355 Bohr) occupying 0.632605 of unit cell:	Completed after 18 iterations at t[s]:   6420.23
SCF: Cycle: 120   G: -1687.955115707623690   dG: +1.963e-04   |Residual|: 5.018e-04   |deigs|: 1.076e-04  t[s]:   6421.89
	Linear fluid (dielectric constant: 78.4, screening length: 5.74355 Bohr) occupying 0.632602 of unit cell:	Completed after 17 iterations at t[s]:   6423.98
	FillingsUpdate:  mu: -0.244750400  nElectrons: 429.860755
	Linear fluid (dielectric constant: 78.4, screening length: 5.74355 Bohr) occupying 0.632602 of unit cell:	Completed after 11 iterations at t[s]:   6484.65
SCF: Cycle: 121   G: -1687.955311632242683   dG: -1.959e-04   |Residual|: 5.268e-05   |deigs|: 1.154e-04  t[s]:   6490.55
	Linear fluid (dielectric constant: 78.4, screening length: 5.74355 Bohr) occupying 0.632602 of unit cell:	Completed after 10 iterations at t[s]:   6492.29
	FillingsUpdate:  mu: -0.244750400  nElectrons: 429.874640
	Linear fluid (dielectric constant: 78.4, screening length: 5.74355 Bohr) occupying 0.632604 of unit cell:	Completed after 17 iterations at t[s]:   6547.74
SCF: Cycle: 122   G: -1687.955298985142690   dG: +1.265e-05   |Residual|: 2.246e-04   |deigs|: 4.973e-05  t[s]:   6549.20
	Linear fluid (dielectric constant: 78.4, screening length: 5.74355 Bohr) occupying 0.632602 of unit cell:	Completed after 16 iterations at t[s]:   6551.31
	FillingsUpdate:  mu: -0.244750400  nElectrons: 429.854848
	Linear fluid (dielectric constant: 78.4, screening length: 5.74355 Bohr) occupying 0.632602 of unit cell:	Completed after 16 iterations at t[s]:   6594.98
SCF: Cycle: 123   G: -1687.955279005985631   dG: +1.998e-05   |Residual|: 2.651e-04   |deigs|: 7.022e-05  t[s]:   6596.39
	Linear fluid (dielectric constant: 78.4, screening length: 5.74355 Bohr) occupying 0.632602 of unit cell:	Completed after 15 iterations at t[s]:   6598.17
	FillingsUpdate:  mu: -0.244750400  nElectrons: 429.861372
[...]

Initialized 3 species with 52 total atoms.

Folded 1 k-points by 5x5x1 to 25 k-points.

---------- Setting up k-points, bands, fillings ----------
Reduced to 5 k-points under symmetry. 
Computing the number of bands and number of electrons
Reading initial fillings from file NbTe2.fillings.
nElectrons: 429.848139   nBands: 288   nStates: 5

----- Setting up reduced wavefunction bases (one per k-point) -----
average nbasis = 61577.720 , ideal nbasis = 61582.624

---------- Setting up coulomb interaction ----------
Fluid mode embedding: using embedded box, but periodic Coulomb kernel.
(Fluid response is responsible for (approximate) separation between periodic images.)
Setting up double-sized grid for truncated Coulomb potentials:
R = 
[     15.686      7.843          0  ]
[          0    13.5845          0  ]
[          0          0    135.299  ]
unit cell volume = 28830.3
G =
[   0.400561  -0.231264          0  ]
[          0   0.462527          0  ]
[          0          0  0.0464392  ]
Chosen fftbox size, S = [  72  72  640  ]
Integer grid location selected as the embedding center:
   Grid: [  0  0  160  ]
   Lattice: [  0  0  0.5  ]
   Cartesian: [  0  0  33.8248  ]
Constructing Wigner-Seitz cell: 8 faces (6 quadrilaterals, 2 hexagons)
Range-separation parameter for embedded mesh potentials due to point charges: 0.588843 bohrs.

Initializing van der Waals corrections
	NOTE: vdW corrections apply only for interactions with fluid.
	Ge:  C6:  296.60 Eh-a0^6  R0: 3.264 a0
	Te:  C6:  550.54 Eh-a0^6  R0: 3.575 a0
	As:  C6:  283.94 Eh-a0^6  R0: 3.326 a0

---------- Setting up ewald sum ----------
Optimum gaussian width for ewald sums = 6.331781 bohr.
Real space sum over 845 unit cells with max indices [  6  6  2  ]
Reciprocal space sum over 8349 terms with max indices [  5  5  34  ]

---------- Allocating electronic variables ----------
Initializing wave functions:  reading from 'NbTe2.wfns'
----- createFluidSolver() ----- (Fluid-side solver setup)
   Initializing fluid molecule 'H2O'
     Initializing site 'O'
       Electron density: proportional to exp(-r/0.36935)*erfc((r-0.51523)/0.36823) with norm 6.826
       Charge density: gaussian nuclear width 0.478731 with net site charge 0.826
       Polarizability: cuspless exponential with width 0.32 and norm 3.73
       Hard sphere radius: 2.57003 bohrs
       Positions in reference frame:
         [ +0.000000 +0.000000 +0.000000 ]
     Initializing site 'H'
       Electron density: proportional to exp(-r/0.34641)*erfc((r-0)/0.390882) with norm 0.587
       Charge density: gaussian nuclear width 0.377945 with net site charge -0.413
       Polarizability: cuspless exponential with width 0.39 and norm 3.3
       Positions in reference frame:
         [ +0.000000 -1.441945 +1.122523 ]
         [ +0.000000 +1.441945 +1.122523 ]
     Net charge: 0   dipole magnitude: 0.927204
     Initializing spherical shell mfKernel with radius 2.61727 Bohr
     deltaS corrections:
       site 'O': -7.54299
       site 'H': -6.83917
   Initializing fluid molecule 'Na+'
     Initializing site 'Na'
       Electron density: proportional to exp(-r/0.19682)*erfc((r-0.71491)/0.41314) with norm 8.1383
       Charge density: gaussian nuclear width 0.365347 with net site charge -1
       Hard sphere radius: 1.86327 bohrs
       Positions in reference frame:
         [ +0.000000 +0.000000 +0.000000 ]
     Net charge: -1   dipole magnitude: 0
     Initializing gaussian mfKernel with width: 1.55004 Bohr
     deltaS corrections:
       site 'Na': -22.3555
   Initializing fluid molecule 'F-'
     Initializing site 'F'
       Electron density: proportional to exp(-r/0.38886)*erfc((r-0)/0.438782) with norm 8
       Charge density: gaussian nuclear width 0.374796 with net site charge 1
       Hard sphere radius: 2.39995 bohrs
       Positions in reference frame:
         [ +0.000000 +0.000000 +0.000000 ]
     Net charge: 1   dipole magnitude: 0
     Initializing gaussian mfKernel with width: 1.59012 Bohr
     deltaS corrections:
       site 'F': -9.04335

Correction to mu due to finite nuclear width = -0.0148674
   Cavity determined by nc: 0.00142 and sigma: 0.707107
   Nonlocal vdW cavity from gaussian model electron density with norm = 8 and sigma = 0.993594 bohr
   Charge asymmetry in cavity with sensitivity pCavity = 36.5 e-bohr/Eh
   Electrostatic cavity expanded by eta = 1.46 bohrs
   Weighted density cavitation model constrained by Nbulk: 0.0049383 bohr^-3, Pvap: 3.14029 kPa, Rvdw: 2.61727 bohr and sigmaBulk: 4.62e-05 Eh/bohr^2 at T: 298 K.
   Weighted density dispersion model using vdW pair potentials with single solvent site with sqrtC6eff: 0.77 SI.
Reading fluid state from 'NbTe2.fluidState'


---- Citations for features of the code used in this run ----

   Software package:
      R. Sundararaman, K. Letchworth-Weaver, K.A. Schwarz, D. Gunceler, Y. Ozhabes and T.A. Arias, 'JDFTx: software for joint density-functional theory', SoftwareX 6, 278 (2017)

   gga-PBE exchange-correlation functional:
      J.P. Perdew, K. Burke and M. Ernzerhof, Phys. Rev. Lett. 77, 3865 (1996)

   Pseudopotentials:
      KF Garrity, JW Bennett, KM Rabe and D Vanderbilt, Comput. Mater. Sci. 81, 446 (2014)

   Truncated Coulomb potentials:
      R. Sundararaman and T.A. Arias, Phys. Rev. B 87, 165122 (2013)

   Van der Waals correction pair-potentials:
      S. Grimme, J. Comput. Chem. 27, 1787 (2006)

   Charge-asymmetric nonlocally-determined local-electric (CANDLE) solvation model:
      R. Sundararaman and W.A. Goddard III, J. Chem. Phys. 142, 064107 (2015)

   Total energy minimization with Auxiliary Hamiltonian:
      C. Freysoldt, S. Boeck, and J. Neugebauer, Phys. Rev. B 79, 241103(R) (2009)

   Grand-canonical (fixed-potential) DFT:
      R. Sundararaman, W. A. Goddard III and T. A. Arias, J. Chem. Phys. 146, 114104 (2017)

This list may not be complete. Please suggest additional citations or
report any other bugs at https://github.com/shankar1729/jdftx/issues

Initialization completed successfully at t[s]:     35.75

Shifting auxilliary hamiltonian by -0.000000 to set nElectrons=429.848139
	Linear fluid (dielectric constant: 78.4, screening length: 5.74355 Bohr) occupying 0.632601 of unit cell:	Completed after 15 iterations at t[s]:     41.71

-------- Electronic minimization -----------
	Linear fluid (dielectric constant: 78.4, screening length: 5.74355 Bohr) occupying 0.632601 of unit cell:	Completed after 0 iterations at t[s]:     45.68
	FillingsUpdate:  mu: -0.244750400  nElectrons: 429.848139
ElecMinimize: Iter:   0  G: -1687.955240575599419  |grad|_K:  8.919e-06  alpha:  1.000e+00
	Linear fluid (dielectric constant: 78.4, screening length: 5.74355 Bohr) occupying 0.632714 of unit cell:	Completed after 22 iterations at t[s]:     61.98
	Linear fluid (dielectric constant: 78.4, screening length: 5.74355 Bohr) occupying 0.632602 of unit cell:	Completed after 21 iterations at t[s]:     71.41
	FillingsUpdate:  mu: -0.244750400  nElectrons: 429.873980
	SubspaceRotationAdjust: set factor to 0.414
ElecMinimize: Iter:   1  G: -1687.955288485259416  |grad|_K:  4.735e-06  alpha:  1.451e-02  linmin:  7.893e-02  t[s]:     78.75
	Linear fluid (dielectric constant: 78.4, screening length: 5.74355 Bohr) occupying 0.632602 of unit cell:	Completed after 15 iterations at t[s]:     86.84
	Linear fluid (dielectric constant: 78.4, screening length: 5.74355 Bohr) occupying 0.632602 of unit cell:	Completed after 10 iterations at t[s]:     94.24
	FillingsUpdate:  mu: -0.244750400  nElectrons: 429.864452
	SubspaceRotationAdjust: set factor to 0.237
ElecMinimize: Iter:   2  G: -1687.955307498514003  |grad|_K:  9.797e-08  alpha:  2.021e-02  linmin: -2.922e-03  t[s]:    101.21
	Linear fluid (dielectric constant: 78.4, screening length: 5.74355 Bohr) occupying 0.632602 of unit cell:	Completed after 0 iterations at t[s]:    107.80
	Linear fluid (dielectric constant: 78.4, screening length: 5.74355 Bohr) occupying 0.632602 of unit cell:	Completed after 0 iterations at t[s]:    114.29
	FillingsUpdate:  mu: -0.244750400  nElectrons: 429.864147
	SubspaceRotationAdjust: set factor to 0.149
ElecMinimize: Iter:   3  G: -1687.955307565425755  |grad|_K:  7.459e-08  alpha:  4.460e-02  linmin: -3.254e-02  t[s]:    121.36
	Linear fluid (dielectric constant: 78.4, screening length: 5.74355 Bohr) occupying 0.632602 of unit cell:	Completed after 0 iterations at t[s]:    127.14
ElecMinimize: 	Predicted alpha/alphaT>3.000000, increasing alphaT to 1.337929e-01.
	Linear fluid (dielectric constant: 78.4, screening length: 5.74355 Bohr) occupying 0.632601 of unit cell:	Completed after 3 iterations at t[s]:    134.78
	Linear fluid (dielectric constant: 78.4, screening length: 5.74355 Bohr) occupying 0.632601 of unit cell:	Completed after 0 iterations at t[s]:    141.66
	FillingsUpdate:  mu: -0.244750400  nElectrons: 429.863415
	SubspaceRotationAdjust: set factor to 0.111
	SubspaceRotationAdjust: resetting CG because factor has changed by 0.11081
	Linear fluid (dielectric constant: 78.4, screening length: 5.74355 Bohr) occupying 0.632601 of unit cell:	Completed after 0 iterations at t[s]:    152.08
ElecMinimize: 	State modified externally: resetting search direction.
ElecMinimize: Iter:   4  G: -1687.955307633398661  |grad|_K:  1.968e-08  alpha:  9.613e-02
	Linear fluid (dielectric constant: 78.4, screening length: 5.74355 Bohr) occupying 0.632601 of unit cell:	Completed after 0 iterations at t[s]:    165.23
ElecMinimize: 	Predicted alpha/alphaT>3.000000, increasing alphaT to 2.883923e-01.
	Linear fluid (dielectric constant: 78.4, screening length: 5.74355 Bohr) occupying 0.632601 of unit cell:	Completed after 0 iterations at t[s]:    171.10
ElecMinimize: 	Predicted alpha/alphaT>3.000000, increasing alphaT to 8.651770e-01.
	Linear fluid (dielectric constant: 78.4, screening length: 5.74355 Bohr) occupying 0.632600 of unit cell:	Completed after 0 iterations at t[s]:    177.18
ElecMinimize: 	Predicted alpha/alphaT>3.000000, increasing alphaT to 2.595531e+00.
	Linear fluid (dielectric constant: 78.4, screening length: 5.74355 Bohr) occupying 0.632595 of unit cell:	Completed after 11 iterations at t[s]:    185.48
ElecMinimize: 	Step increased G by 1.417065e-06, reducing alpha to 4.191543e-01.
	Linear fluid (dielectric constant: 78.4, screening length: 5.74355 Bohr) occupying 0.632601 of unit cell:	Completed after 10 iterations at t[s]:    199.51
ElecMinimize: 	Step increased G by 1.191506e-08, reducing alpha to 4.191543e-02.
	Linear fluid (dielectric constant: 78.4, screening length: 5.74355 Bohr) occupying 0.632601 of unit cell:	Completed after 0 iterations at t[s]:    212.45
ElecMinimize: 	Step increased G by 9.558789e-10, reducing alpha to 4.191543e-03.
ElecMinimize: 	Step failed to reduce G after 3 attempts. Quitting step.
ElecMinimize: 	Undoing step.
	Linear fluid (dielectric constant: 78.4, screening length: 5.74355 Bohr) occupying 0.632601 of unit cell:	Completed after 0 iterations at t[s]:    224.82
ElecMinimize: 	Step failed along negative gradient direction.
ElecMinimize: Probably at roundoff error limit. (Stopping)
Setting wave functions to eigenvectors of Hamiltonian

# Ionic positions in lattice coordinates:
ion Ge   1.000000000000000  -0.000000000000001   0.648235985410147 0
ion Ge   0.500000000000000  -0.000000000000001   0.648235985410147 0
ion Ge   1.000000000000000   0.500000000000000   0.648235985410147 0
ion Ge   0.500000000000000   0.500000000000000   0.648235985410147 0
ion Ge   0.333333333333333   0.333333333333333   0.450572329369268 0
ion Ge   0.833333333333333   0.333333333333333   0.450572329369268 0
ion Ge   0.333333333333333   0.833333333333333   0.450572329369268 0
ion Ge   0.833333333333333   0.833333333333333   0.450572329369268 0
ion Ge   0.166666666666667   0.166666666666666   0.549427670630734 0
ion Ge   0.666666666666667   0.166666666666666   0.549427670630734 0
ion Ge   0.166666666666667   0.666666666666666   0.549427670630734 0
ion Ge   0.666666666666667   0.666666666666666   0.549427670630734 0
ion Ge   1.000000000000000  -0.000000000000001   0.351764014589854 0
ion Ge   0.500000000000000  -0.000000000000001   0.351764014589854 0
ion Ge   1.000000000000000   0.499999999999999   0.351764014589854 0
ion Ge   0.500000000000000   0.499999999999999   0.351764014589854 0
ion Te  -0.000000000000000   0.999999999999999   0.790674536149421 0
ion Te   0.500000000000000   0.999999999999999   0.790674536149421 0
ion Te  -0.000000000000000   0.499999999999999   0.790674536149421 0
ion Te   0.500000000000000   0.499999999999999   0.790674536149421 0
ion Te   0.166666666666667   0.166666666666666   0.695958706612069 0
ion Te   0.666666666666667   0.166666666666666   0.695958706612069 0
ion Te   0.166666666666667   0.666666666666666   0.695958706612069 0
ion Te   0.666666666666667   0.666666666666666   0.695958706612069 0
ion Te   0.333333333333333   0.333333333333333   0.304041293387933 0
ion Te   0.833333333333333   0.333333333333333   0.304041293387933 0
ion Te   0.333333333333333   0.833333333333333   0.304041293387933 0
ion Te   0.833333333333333   0.833333333333333   0.304041293387933 0
ion Te  -0.000000000000000   0.999999999999999   0.209325463850580 0
ion Te   0.500000000000000   0.999999999999999   0.209325463850580 0
ion Te  -0.000000000000000   0.499999999999999   0.209325463850580 0
ion Te   0.500000000000000   0.499999999999999   0.209325463850580 0
ion Te   1.000000000000000  -0.000000000000001   0.500000000000001 0
ion Te   0.500000000000000  -0.000000000000001   0.500000000000001 0
ion Te   1.000000000000000   0.500000000000000   0.500000000000001 0
ion Te   0.500000000000000   0.500000000000000   0.500000000000001 0
ion Te   0.166666666666667   0.166666666666666   0.401809360725426 0
ion Te   0.666666666666667   0.166666666666666   0.401809360725426 0
ion Te   0.166666666666667   0.666666666666666   0.401809360725426 0
ion Te   0.666666666666667   0.666666666666666   0.401809360725426 0
ion Te   0.333333333333333   0.333333333333333   0.598190639274576 0
ion Te   0.833333333333333   0.333333333333333   0.598190639274576 0
ion Te   0.333333333333333   0.833333333333333   0.598190639274576 0
ion Te   0.833333333333333   0.833333333333333   0.598190639274576 0
ion As   0.166666666666667   0.166666666666666   0.251975434286003 0
ion As   0.666666666666667   0.166666666666666   0.251975434286003 0
ion As   0.166666666666667   0.666666666666666   0.251975434286003 0
ion As   0.666666666666667   0.666666666666666   0.251975434286003 0
ion As   0.333333333333333   0.333333333333333   0.748024565713998 0
ion As   0.833333333333333   0.333333333333333   0.748024565713998 0
ion As   0.333333333333333   0.833333333333333   0.748024565713998 0
ion As   0.833333333333333   0.833333333333333   0.748024565713998 0


# Forces in Lattice coordinates:
force Ge  -0.000000000000000   0.000000000000000   0.319599318778556 0
force Ge  -0.000000000000000  -0.000000000000000   0.319599318779465 0
force Ge   0.000000000000000   0.000000000000000   0.319599318778556 0
force Ge   0.000000000000000   0.000000000000000   0.319599318780375 0
force Ge  -0.000000000000000   0.000000000000000  -0.080442383250202 0
force Ge  -0.000000000000000   0.000000000000000  -0.080442383250202 0
force Ge  -0.000000000000000   0.000000000000000  -0.080442383250430 0
force Ge  -0.000000000000000   0.000000000000000  -0.080442383250202 0
force Ge  -0.000000000000000   0.000000000000000   0.080442383249293 0
force Ge   0.000000000000000   0.000000000000000   0.080442383249293 0
force Ge  -0.000000000000000  -0.000000000000000   0.080442383249293 0
force Ge  -0.000000000000000   0.000000000000000   0.080442383249293 0
force Ge  -0.000000000000000  -0.000000000000000  -0.319599318777646 0
force Ge   0.000000000000000   0.000000000000000  -0.319599318777646 0
force Ge   0.000000000000000  -0.000000000000000  -0.319599318778556 0
force Ge  -0.000000000000000  -0.000000000000000  -0.319599318777646 0
force Te  -0.000000000000000  -0.000000000000000   0.007279016323197 0
force Te   0.000000000000000  -0.000000000000000   0.007279016323199 0
force Te   0.000000000000000   0.000000000000000   0.007279016322743 0
force Te  -0.000000000000000   0.000000000000000   0.007279016323197 0
force Te   0.000000000000000  -0.000000000000000  -0.495410792719847 0
force Te   0.000000000000000  -0.000000000000000  -0.495410792719847 0
force Te   0.000000000000000   0.000000000000000  -0.495410792719847 0
force Te   0.000000000000000  -0.000000000000000  -0.495410792719847 0
force Te  -0.000000000000000  -0.000000000000000   0.495410792719847 0
force Te   0.000000000000000  -0.000000000000000   0.495410792720302 0
force Te   0.000000000000000   0.000000000000000   0.495410792720302 0
force Te  -0.000000000000000  -0.000000000000000   0.495410792720302 0
force Te   0.000000000000000   0.000000000000000  -0.007279016322743 0
force Te   0.000000000000000  -0.000000000000000  -0.007279016322743 0
force Te  -0.000000000000000   0.000000000000000  -0.007279016321833 0
force Te   0.000000000000000   0.000000000000000  -0.007279016322741 0
force Te  -0.000000000000000  -0.000000000000000  -0.000000000000000 0
force Te  -0.000000000000000   0.000000000000000   0.000000000000000 0
force Te  -0.000000000000000   0.000000000000000   0.000000000000000 0
force Te   0.000000000000000   0.000000000000000  -0.000000000000000 0
force Te  -0.000000000000000   0.000000000000000   0.217045942465656 0
force Te   0.000000000000000  -0.000000000000000   0.217045942466110 0
force Te   0.000000000000000  -0.000000000000000   0.217045942466110 0
force Te  -0.000000000000000   0.000000000000000   0.217045942466110 0
force Te  -0.000000000000000   0.000000000000000  -0.217045942465201 0
force Te  -0.000000000000000   0.000000000000000  -0.217045942465201 0
force Te  -0.000000000000000   0.000000000000000  -0.217045942465201 0
force Te  -0.000000000000000   0.000000000000000  -0.217045942465201 0
force As  -0.000000000000000   0.000000000000000  -0.388000465742381 0
force As  -0.000000000000000  -0.000000000000000  -0.388000465742834 0
force As  -0.000000000000000  -0.000000000000000  -0.388000465742381 0
force As  -0.000000000000000  -0.000000000000000  -0.388000465742381 0
force As   0.000000000000000  -0.000000000000000   0.388000465742381 0
force As   0.000000000000000   0.000000000000000   0.388000465742838 0
force As   0.000000000000000  -0.000000000000000   0.388000465742836 0
force As   0.000000000000000   0.000000000000000   0.388000465742838 0

# Energy components:
   A_diel =       -0.1696325372856905
   Eewald =    30903.8101710898590682
       EH =    32390.4190109908704471
     Eloc =   -65067.8227325437619584
      Enl =      120.8191390044256650
      Exc =     -793.1860805847217080
 Exc_core =      447.7733735763675895
       KE =      205.1935264641345213
  MuShift =        0.0317658045065179
-------------------------------------
     Etot =    -1793.1314587356102948
       TS =        0.0330850010391452
-------------------------------------
        F =    -1793.1645437366494207
      muN =     -105.2092361040646153
-------------------------------------
        G =    -1687.9553076325848906

IonicMinimize: Iter:   0  G: -1687.955307632584891  |grad|_K:  0.000e+00  t[s]:    237.53
IonicMinimize: Converged (|grad|_K<1.000000e-04).

#--- Lowdin population analysis ---
# oxidation-state Ge -0.101 -0.101 -0.101 -0.101 -0.098 -0.098 -0.098 -0.098 -0.098 -0.098 -0.098 -0.098 -0.101 -0.101 -0.101 -0.101
# oxidation-state Te +0.349 +0.349 +0.349 +0.349 +0.092 +0.092 +0.092 +0.092 +0.092 +0.092 +0.092 +0.092 +0.349 +0.349 +0.349 +0.349 +0.152 +0.152 +0.152 +0.152 +0.151 +0.151 +0.151 +0.151 +0.151 +0.151 +0.151 +0.151
# oxidation-state As +0.018 +0.018 +0.018 +0.018 +0.018 +0.018 +0.018 +0.018


Dumping 'NbTe2.fillings' ... done
Dumping 'NbTe2.wfns' ... done
Dumping 'NbTe2.fluidState' ... done
Dumping 'NbTe2.eigenvals' ... done
End date and time: Sat Jul 11 14:13:49 2020  (Duration: 0-0:04:00.85)
Done!
