
*************** JDFTx 1.5.0  ***************

Start date and time: Wed Jul  8 11:26:39 2020
Executable jdftx_gpu with command-line: -i Neutral.in -o Neutral.out
Running on hosts (process indices):  amax (0)
Divided in process groups (process indices):  0 (0)
gpuInit: Found compatible cuda device 0 'Tesla K80'
gpuInit: Selected device 0
Resource initialization completed at t[s]:      5.70
Run totals: 1 processes, 24 threads, 1 GPUs


Input parsed successfully to the following command list (including defaults):

basis kpoint-dependent
cache-projectors no
coords-type Lattice
core-overlap-check none
coulomb-interaction Slab 001
coulomb-truncation-embed 0 0 0.5
davidson-band-ratio 1.1
dump End State
dump-name NbTe2.$VAR
elec-cutoff 20 100
elec-eigen-algo Davidson
elec-ex-corr gga-PBE
elec-smearing Gauss 0.0073499
electronic-minimize  \
	dirUpdateScheme      FletcherReeves \
	linminMethod         DirUpdateRecommended \
	nIterations          100 \
	history              15 \
	knormThreshold       0 \
	energyDiffThreshold  1e-08 \
	nEnergyDiff          2 \
	alphaTstart          1 \
	alphaTmin            1e-10 \
	updateTestStepSize   yes \
	alphaTreduceFactor   0.1 \
	alphaTincreaseFactor 3 \
	nAlphaAdjustMax      3 \
	wolfeEnergy          0.0001 \
	wolfeGradient        0.9 \
	fdTest               no
electronic-scf  \
	nIterations	500 \
	energyDiffThreshold	1e-08 \
	residualThreshold	1e-07 \
	mixFraction	0.5 \
	qMetric	0.8 \
	history	10 \
	nEigSteps	2 \
	eigDiffThreshold	1e-08 \
	mixedVariable	Density \
	qKerker	0.8 \
	qKappa	-1 \
	verbose	no \
	mixFractionMag	1.5
exchange-regularization WignerSeitzTruncated
fluid LinearPCM 298.000000 1.013250
fluid-anion F- 1 MeanFieldLJ \
	epsBulk 1 \
	pMol 0 \
	epsInf 1 \
	Pvap 0 \
	sigmaBulk 0 \
	Rvdw 2.24877 \
	Res 0 \
	tauNuc 343133
fluid-cation Na+ 1 MeanFieldLJ \
	epsBulk 1 \
	pMol 0 \
	epsInf 1 \
	Pvap 0 \
	sigmaBulk 0 \
	Rvdw 2.19208 \
	Res 0 \
	tauNuc 343133
fluid-ex-corr lda-TF lda-PZ
fluid-gummel-loop 10 1.000000e-05
fluid-minimize  \
	dirUpdateScheme      PolakRibiere \
	linminMethod         DirUpdateRecommended \
	nIterations          400 \
	history              15 \
	knormThreshold       1e-11 \
	energyDiffThreshold  0 \
	nEnergyDiff          2 \
	alphaTstart          1 \
	alphaTmin            1e-10 \
	updateTestStepSize   yes \
	alphaTreduceFactor   0.1 \
	alphaTincreaseFactor 3 \
	nAlphaAdjustMax      6 \
	wolfeEnergy          0.0001 \
	wolfeGradient        0.9 \
	fdTest               no
fluid-solvent H2O 55.338 ScalarEOS \
	epsBulk 78.4 \
	pMol 0.92466 \
	epsInf 1.77 \
	Pvap 1.06736e-10 \
	sigmaBulk 4.62e-05 \
	Rvdw 2.61727 \
	Res 1.42 \
	tauNuc 343133 \
	poleEl 15 7 1
forces-output-coords Positions
initial-state NbTe2.$VAR
ion Ge   0.999998998941443   0.000001896778649   0.648236304376131 0
ion Ge   0.499998998941443   0.000001896778649   0.648236304376131 0
ion Ge   0.999998998941443   0.500001896778649   0.648236304376131 0
ion Ge   0.499998998941443   0.500001896778649   0.648236304376131 0
ion Ge   0.333335060451901   0.333331644203582   0.450570377457483 0
ion Ge   0.833335060451901   0.333331644203582   0.450570377457483 0
ion Ge   0.333335060451901   0.833331644203582   0.450570377457483 0
ion Ge   0.833335060451901   0.833331644203582   0.450570377457483 0
ion Ge   0.166668214032818   0.166665784379177   0.549425718718949 0
ion Ge   0.666668214032818   0.166665784379177   0.549425718718949 0
ion Ge   0.166668214032818   0.666665784379177   0.549425718718949 0
ion Ge   0.666668214032818   0.666665784379177   0.549425718718949 0
ion Ge   0.999999969694706   0.000001107361619   0.351764333555838 0
ion Ge   0.499999969694706   0.000001107361619   0.351764333555838 0
ion Ge   0.999999969694706   0.500001107361619   0.351764333555838 0
ion Ge   0.499999969694706   0.500001107361619   0.351764333555838 0
ion Te   0.000002986358524   0.999995760172801   0.790675792507680 0
ion Te   0.500002986358524   0.999995760172801   0.790675792507680 0
ion Te   0.000002986358524   0.499995760172801   0.790675792507680 0
ion Te   0.500002986358524   0.499995760172801   0.790675792507680 0
ion Te   0.166659314438419   0.166671239158951   0.695959464463567 0
ion Te   0.666659314438419   0.166671239158951   0.695959464463567 0
ion Te   0.166659314438419   0.666671239158951   0.695959464463567 0
ion Te   0.666659314438419   0.666671239158951   0.695959464463567 0
ion Te   0.333333742787424   0.333333049771383   0.304042051239431 0
ion Te   0.833333742787424   0.333333049771383   0.304042051239431 0
ion Te   0.333333742787424   0.833333049771383   0.304042051239431 0
ion Te   0.833333742787424   0.833333049771383   0.304042051239431 0
ion Te   0.000001629077950   0.999997315878311   0.209326720208840 0
ion Te   0.500001629077950   0.999997315878311   0.209326720208840 0
ion Te   0.000001629077950   0.499997315878311   0.209326720208840 0
ion Te   0.500001629077950   0.499997315878311   0.209326720208840 0
ion Te   0.999999770075682   0.000000747962915   0.500001274999924 0
ion Te   0.499999770075682   0.000000747962915   0.500001274999924 0
ion Te   0.999999770075682   0.500000747962915   0.500001274999924 0
ion Te   0.499999770075682   0.500000747962915   0.500001274999924 0
ion Te   0.166666703091799   0.166667082161268   0.401807643676373 0
ion Te   0.666666703091799   0.166667082161268   0.401807643676373 0
ion Te   0.166666703091799   0.666667082161268   0.401807643676373 0
ion Te   0.666666703091799   0.666667082161268   0.401807643676373 0
ion Te   0.333332413528332   0.333334559865420   0.598188922225523 0
ion Te   0.833332413528332   0.333334559865420   0.598188922225523 0
ion Te   0.333332413528332   0.833334559865420   0.598188922225523 0
ion Te   0.833332413528332   0.833334559865420   0.598188922225523 0
ion As   0.166667112428698   0.166666506017769   0.251976132571137 0
ion As   0.666667112428698   0.166666506017769   0.251976132571137 0
ion As   0.166667112428698   0.666666506017769   0.251976132571137 0
ion As   0.666667112428698   0.666666506017769   0.251976132571137 0
ion As   0.333334085092304   0.333333306288147   0.748025263999132 0
ion As   0.833334085092304   0.333333306288147   0.748025263999132 0
ion As   0.333334085092304   0.833333306288147   0.748025263999132 0
ion As   0.833334085092304   0.833333306288147   0.748025263999132 0
ion-species GBRV/$ID_pbe.uspp
ion-width Ecut
ionic-minimize  \
	dirUpdateScheme      L-BFGS \
	linminMethod         DirUpdateRecommended \
	nIterations          0 \
	history              15 \
	knormThreshold       0.0001 \
	energyDiffThreshold  1e-06 \
	nEnergyDiff          2 \
	alphaTstart          1 \
	alphaTmin            1e-10 \
	updateTestStepSize   yes \
	alphaTreduceFactor   0.1 \
	alphaTincreaseFactor 3 \
	nAlphaAdjustMax      3 \
	wolfeEnergy          0.0001 \
	wolfeGradient        0.9 \
	fdTest               no
kpoint   0.000000000000   0.000000000000   0.000000000000  1.00000000000000
kpoint-folding 5 5 1 
latt-move-scale 1 1 1
latt-scale 1 1 1 
lattice Triclinic 15.686 15.686 67.6496 90 90 60
lattice-minimize  \
	dirUpdateScheme      L-BFGS \
	linminMethod         DirUpdateRecommended \
	nIterations          0 \
	history              15 \
	knormThreshold       0 \
	energyDiffThreshold  1e-06 \
	nEnergyDiff          2 \
	alphaTstart          1 \
	alphaTmin            1e-10 \
	updateTestStepSize   yes \
	alphaTreduceFactor   0.1 \
	alphaTincreaseFactor 3 \
	nAlphaAdjustMax      3 \
	wolfeEnergy          0.0001 \
	wolfeGradient        0.9 \
	fdTest               no
lcao-params -1 1e-06 0.0073499
pcm-variant CANDLE
spintype no-spin
subspace-rotation-factor 1 yes
symmetries automatic
symmetry-threshold 0.0001



---------- Setting up symmetries ----------

Found 24 point-group symmetries of the bravais lattice
Found 48 space-group symmetries with basis
Atom positions are marginally symmetric (errors comparable to detection threshold).
Use command symmetry-threshold to either increase tolerance and include marginal
symmetries, or reduce tolerance and exclude marginal symmetries, as appropriate.

End date and time: Wed Jul  8 11:26:45 2020  (Duration: 0-0:00:05.77)
Failed.

*************** JDFTx 1.5.0  ***************

Start date and time: Wed Jul  8 11:33:22 2020
Executable jdftx_gpu with command-line: -i Neutral.in -o Neutral.out
Running on hosts (process indices):  amax (0)
Divided in process groups (process indices):  0 (0)
gpuInit: Found compatible cuda device 0 'Tesla K80'
gpuInit: Selected device 0
Resource initialization completed at t[s]:      6.04
Run totals: 1 processes, 24 threads, 1 GPUs


Input parsed successfully to the following command list (including defaults):

basis kpoint-dependent
cache-projectors no
coords-type Lattice
core-overlap-check none
coulomb-interaction Slab 001
coulomb-truncation-embed 0 0 0.5
davidson-band-ratio 1.1
dump End State
dump-name NbTe2.$VAR
elec-cutoff 20 100
elec-eigen-algo Davidson
elec-ex-corr gga-PBE
elec-smearing Gauss 0.0073499
electronic-minimize  \
	dirUpdateScheme      FletcherReeves \
	linminMethod         DirUpdateRecommended \
	nIterations          100 \
	history              15 \
	knormThreshold       0 \
	energyDiffThreshold  1e-08 \
	nEnergyDiff          2 \
	alphaTstart          1 \
	alphaTmin            1e-10 \
	updateTestStepSize   yes \
	alphaTreduceFactor   0.1 \
	alphaTincreaseFactor 3 \
	nAlphaAdjustMax      3 \
	wolfeEnergy          0.0001 \
	wolfeGradient        0.9 \
	fdTest               no
electronic-scf  \
	nIterations	500 \
	energyDiffThreshold	1e-08 \
	residualThreshold	1e-07 \
	mixFraction	0.5 \
	qMetric	0.8 \
	history	10 \
	nEigSteps	2 \
	eigDiffThreshold	1e-08 \
	mixedVariable	Density \
	qKerker	0.8 \
	qKappa	-1 \
	verbose	no \
	mixFractionMag	1.5
exchange-regularization WignerSeitzTruncated
fluid LinearPCM 298.000000 1.013250
fluid-anion F- 1 MeanFieldLJ \
	epsBulk 1 \
	pMol 0 \
	epsInf 1 \
	Pvap 0 \
	sigmaBulk 0 \
	Rvdw 2.24877 \
	Res 0 \
	tauNuc 343133
fluid-cation Na+ 1 MeanFieldLJ \
	epsBulk 1 \
	pMol 0 \
	epsInf 1 \
	Pvap 0 \
	sigmaBulk 0 \
	Rvdw 2.19208 \
	Res 0 \
	tauNuc 343133
fluid-ex-corr lda-TF lda-PZ
fluid-gummel-loop 10 1.000000e-05
fluid-minimize  \
	dirUpdateScheme      PolakRibiere \
	linminMethod         DirUpdateRecommended \
	nIterations          400 \
	history              15 \
	knormThreshold       1e-11 \
	energyDiffThreshold  0 \
	nEnergyDiff          2 \
	alphaTstart          1 \
	alphaTmin            1e-10 \
	updateTestStepSize   yes \
	alphaTreduceFactor   0.1 \
	alphaTincreaseFactor 3 \
	nAlphaAdjustMax      6 \
	wolfeEnergy          0.0001 \
	wolfeGradient        0.9 \
	fdTest               no
fluid-solvent H2O 55.338 ScalarEOS \
	epsBulk 78.4 \
	pMol 0.92466 \
	epsInf 1.77 \
	Pvap 1.06736e-10 \
	sigmaBulk 4.62e-05 \
	Rvdw 2.61727 \
	Res 1.42 \
	tauNuc 343133 \
	poleEl 15 7 1
forces-output-coords Positions
initial-state NbTe2.$VAR
ion Ge   0.999998998941443   0.000001896778649   0.648236304376131 0
ion Ge   0.499998998941443   0.000001896778649   0.648236304376131 0
ion Ge   0.999998998941443   0.500001896778649   0.648236304376131 0
ion Ge   0.499998998941443   0.500001896778649   0.648236304376131 0
ion Ge   0.333335060451901   0.333331644203582   0.450570377457483 0
ion Ge   0.833335060451901   0.333331644203582   0.450570377457483 0
ion Ge   0.333335060451901   0.833331644203582   0.450570377457483 0
ion Ge   0.833335060451901   0.833331644203582   0.450570377457483 0
ion Ge   0.166668214032818   0.166665784379177   0.549425718718949 0
ion Ge   0.666668214032818   0.166665784379177   0.549425718718949 0
ion Ge   0.166668214032818   0.666665784379177   0.549425718718949 0
ion Ge   0.666668214032818   0.666665784379177   0.549425718718949 0
ion Ge   0.999999969694706   0.000001107361619   0.351764333555838 0
ion Ge   0.499999969694706   0.000001107361619   0.351764333555838 0
ion Ge   0.999999969694706   0.500001107361619   0.351764333555838 0
ion Ge   0.499999969694706   0.500001107361619   0.351764333555838 0
ion Te   0.000002986358524   0.999995760172801   0.790675792507680 0
ion Te   0.500002986358524   0.999995760172801   0.790675792507680 0
ion Te   0.000002986358524   0.499995760172801   0.790675792507680 0
ion Te   0.500002986358524   0.499995760172801   0.790675792507680 0
ion Te   0.166659314438419   0.166671239158951   0.695959464463567 0
ion Te   0.666659314438419   0.166671239158951   0.695959464463567 0
ion Te   0.166659314438419   0.666671239158951   0.695959464463567 0
ion Te   0.666659314438419   0.666671239158951   0.695959464463567 0
ion Te   0.333333742787424   0.333333049771383   0.304042051239431 0
ion Te   0.833333742787424   0.333333049771383   0.304042051239431 0
ion Te   0.333333742787424   0.833333049771383   0.304042051239431 0
ion Te   0.833333742787424   0.833333049771383   0.304042051239431 0
ion Te   0.000001629077950   0.999997315878311   0.209326720208840 0
ion Te   0.500001629077950   0.999997315878311   0.209326720208840 0
ion Te   0.000001629077950   0.499997315878311   0.209326720208840 0
ion Te   0.500001629077950   0.499997315878311   0.209326720208840 0
ion Te   0.999999770075682   0.000000747962915   0.500001274999924 0
ion Te   0.499999770075682   0.000000747962915   0.500001274999924 0
ion Te   0.999999770075682   0.500000747962915   0.500001274999924 0
ion Te   0.499999770075682   0.500000747962915   0.500001274999924 0
ion Te   0.166666703091799   0.166667082161268   0.401807643676373 0
ion Te   0.666666703091799   0.166667082161268   0.401807643676373 0
ion Te   0.166666703091799   0.666667082161268   0.401807643676373 0
ion Te   0.666666703091799   0.666667082161268   0.401807643676373 0
ion Te   0.333332413528332   0.333334559865420   0.598188922225523 0
ion Te   0.833332413528332   0.333334559865420   0.598188922225523 0
ion Te   0.333332413528332   0.833334559865420   0.598188922225523 0
ion Te   0.833332413528332   0.833334559865420   0.598188922225523 0
ion As   0.166667112428698   0.166666506017769   0.251976132571137 0
ion As   0.666667112428698   0.166666506017769   0.251976132571137 0
ion As   0.166667112428698   0.666666506017769   0.251976132571137 0
ion As   0.666667112428698   0.666666506017769   0.251976132571137 0
ion As   0.333334085092304   0.333333306288147   0.748025263999132 0
ion As   0.833334085092304   0.333333306288147   0.748025263999132 0
ion As   0.333334085092304   0.833333306288147   0.748025263999132 0
ion As   0.833334085092304   0.833333306288147   0.748025263999132 0
ion-species GBRV/$ID_pbe.uspp
ion-width Ecut
ionic-minimize  \
	dirUpdateScheme      L-BFGS \
	linminMethod         DirUpdateRecommended \
	nIterations          0 \
	history              15 \
	knormThreshold       0.0001 \
	energyDiffThreshold  1e-06 \
	nEnergyDiff          2 \
	alphaTstart          1 \
	alphaTmin            1e-10 \
	updateTestStepSize   yes \
	alphaTreduceFactor   0.1 \
	alphaTincreaseFactor 3 \
	nAlphaAdjustMax      3 \
	wolfeEnergy          0.0001 \
	wolfeGradient        0.9 \
	fdTest               no
kpoint   0.000000000000   0.000000000000   0.000000000000  1.00000000000000
kpoint-folding 5 5 1 
latt-move-scale 1 1 1
latt-scale 1 1 1 
lattice Triclinic 15.686 15.686 67.6496 90 90 60
lattice-minimize  \
	dirUpdateScheme      L-BFGS \
	linminMethod         DirUpdateRecommended \
	nIterations          0 \
	history              15 \
	knormThreshold       0 \
	energyDiffThreshold  1e-06 \
	nEnergyDiff          2 \
	alphaTstart          1 \
	alphaTmin            1e-10 \
	updateTestStepSize   yes \
	alphaTreduceFactor   0.1 \
	alphaTincreaseFactor 3 \
	nAlphaAdjustMax      3 \
	wolfeEnergy          0.0001 \
	wolfeGradient        0.9 \
	fdTest               no
lcao-params -1 1e-06 0.0073499
pcm-variant CANDLE
spintype no-spin
subspace-rotation-factor 1 yes
symmetries automatic
symmetry-threshold 0.0005



---------- Setting up symmetries ----------

Found 24 point-group symmetries of the bravais lattice
Found 48 space-group symmetries with basis
Applied RMS atom displacement 9.29025e-05 bohrs to make symmetries exact.

---------- Initializing the Grid ----------
R = 
[     15.686      7.843          0  ]
[          0    13.5845          0  ]
[          0          0    67.6496  ]
unit cell volume = 14415.2
G =
[   0.400561  -0.231264          0  ]
[          0   0.462527          0  ]
[          0          0  0.0928784  ]
Minimum fftbox size, Smin = [  72  72  308  ]
Chosen fftbox size, S = [  72  72  320  ]

---------- Initializing tighter grid for wavefunction operations ----------
R = 
[     15.686      7.843          0  ]
[          0    13.5845          0  ]
[          0          0    67.6496  ]
unit cell volume = 14415.2
G =
[   0.400561  -0.231264          0  ]
[          0   0.462527          0  ]
[          0          0  0.0928784  ]
Minimum fftbox size, Smin = [  64  64  276  ]
Chosen fftbox size, S = [  64  64  280  ]

---------- Exchange Correlation functional ----------
Initalized PBE GGA exchange.
Initalized PBE GGA correlation.

---------- Setting up pseudopotentials ----------
Width of ionic core gaussian charges (only for fluid interactions / plotting) set to 0.397384

Reading pseudopotential file '/home/guoxy/vasp/jdftx-1.5.0/build/pseudopotentials/GBRV/ge_pbe.uspp':
  Title: Ge.  Created by USPP 7.3.6 on 31-3-15
  Reference state energy: -106.660278.  14 valence electrons in orbitals:
    |320>  occupation: 10  eigenvalue: -1.077168
    |400>  occupation: 2  eigenvalue: -0.431112
    |410>  occupation: 2  eigenvalue: -0.143157
  lMax: 2  lLocal: 3  QijEcut: 6
  6 projectors sampled on a log grid with 621 points:
    l: 0  eig: -0.431110  rCut: 1.9
    l: 0  eig: 1.000000  rCut: 1.9
    l: 1  eig: -0.143157  rCut: 1.9
    l: 1  eig: 1.000000  rCut: 1.9
    l: 2  eig: -1.077168  rCut: 1.7
    l: 2  eig: 0.000000  rCut: 1.7
  Partial core density with radius 0.8
  Transforming core density to a uniform radial grid of dG=0.02 with 1628 points.
  Transforming local potential to a uniform radial grid of dG=0.02 with 1628 points.
  Transforming nonlocal projectors to a uniform radial grid of dG=0.02 with 432 points.
  Transforming density augmentations to a uniform radial grid of dG=0.02 with 1628 points.
  Transforming atomic orbitals to a uniform radial grid of dG=0.02 with 432 points.
  Core radius for overlap checks: 2.00 bohrs.

Reading pseudopotential file '/home/guoxy/vasp/jdftx-1.5.0/build/pseudopotentials/GBRV/te_pbe.uspp':
  Title: Te.  Created by USPP 7.3.6 on 14-9-2013
  Reference state energy: -13.134220.  6 valence electrons in orbitals:
    |500>  occupation: 2  eigenvalue: -0.555231
    |510>  occupation: 4  eigenvalue: -0.218781
  lMax: 2  lLocal: 2  QijEcut: 5
  5 projectors sampled on a log grid with 723 points:
    l: 0  eig: -0.555229  rCut: 2.1
    l: 0  eig: 1.000000  rCut: 2.1
    l: 1  eig: -0.218780  rCut: 2.1
    l: 1  eig: 1.000000  rCut: 2.1
    l: 2  eig: 1.000000  rCut: 2.6
  Partial core density with radius 1.8
  Transforming core density to a uniform radial grid of dG=0.02 with 1628 points.
  Transforming local potential to a uniform radial grid of dG=0.02 with 1628 points.
  Transforming nonlocal projectors to a uniform radial grid of dG=0.02 with 432 points.
  Transforming density augmentations to a uniform radial grid of dG=0.02 with 1628 points.
  Transforming atomic orbitals to a uniform radial grid of dG=0.02 with 432 points.
  Core radius for overlap checks: 2.60 bohrs.

Reading pseudopotential file '/home/guoxy/vasp/jdftx-1.5.0/build/pseudopotentials/GBRV/as_pbe.uspp':
  Title: As.  Created by USPP 7.3.6 on 14-9-2013
  Reference state energy: -19.965231.  5 valence electrons in orbitals:
    |400>  occupation: 2  eigenvalue: -0.532639
    |410>  occupation: 3  eigenvalue: -0.190915
  lMax: 2  lLocal: 2  QijEcut: 5
  6 projectors sampled on a log grid with 623 points:
    l: 0  eig: -0.532635  rCut: 1.5
    l: 0  eig: 0.500000  rCut: 1.5
    l: 1  eig: -0.190916  rCut: 1.5
    l: 1  eig: 0.500000  rCut: 1.5
    l: 2  eig: 0.000000  rCut: 1.9
    l: 2  eig: 1.000000  rCut: 1.9
  Partial core density with radius 1.2
  Transforming core density to a uniform radial grid of dG=0.02 with 1628 points.
  Transforming local potential to a uniform radial grid of dG=0.02 with 1628 points.
  Transforming nonlocal projectors to a uniform radial grid of dG=0.02 with 432 points.
  Transforming density augmentations to a uniform radial grid of dG=0.02 with 1628 points.
  Transforming atomic orbitals to a uniform radial grid of dG=0.02 with 432 points.
  Core radius for overlap checks: 1.90 bohrs.

Initialized 3 species with 52 total atoms.

Folded 1 k-points by 5x5x1 to 25 k-points.

---------- Setting up k-points, bands, fillings ----------
Reduced to 5 k-points under symmetry. 
Computing the number of bands and number of electrons
Calculating initial fillings.
nElectrons: 432.000000   nBands: 288   nStates: 5

----- Setting up reduced wavefunction bases (one per k-point) -----
average nbasis = 61577.720 , ideal nbasis = 61582.624

---------- Setting up coulomb interaction ----------
Fluid mode embedding: using embedded box, but periodic Coulomb kernel.
(Fluid response is responsible for (approximate) separation between periodic images.)
Setting up double-sized grid for truncated Coulomb potentials:
R = 
[     15.686      7.843          0  ]
[          0    13.5845          0  ]
[          0          0    135.299  ]
unit cell volume = 28830.3
G =
[   0.400561  -0.231264          0  ]
[          0   0.462527          0  ]
[          0          0  0.0464392  ]
Chosen fftbox size, S = [  72  72  640  ]
Integer grid location selected as the embedding center:
   Grid: [  0  0  160  ]
   Lattice: [  0  0  0.5  ]
   Cartesian: [  0  0  33.8248  ]
Constructing Wigner-Seitz cell: 8 faces (6 quadrilaterals, 2 hexagons)
Range-separation parameter for embedded mesh potentials due to point charges: 0.588843 bohrs.

Initializing van der Waals corrections
	NOTE: vdW corrections apply only for interactions with fluid.
	Ge:  C6:  296.60 Eh-a0^6  R0: 3.264 a0
	Te:  C6:  550.54 Eh-a0^6  R0: 3.575 a0
	As:  C6:  283.94 Eh-a0^6  R0: 3.326 a0

---------- Setting up ewald sum ----------
Optimum gaussian width for ewald sums = 6.331781 bohr.
Real space sum over 845 unit cells with max indices [  6  6  2  ]
Reciprocal space sum over 8349 terms with max indices [  5  5  34  ]

---------- Allocating electronic variables ----------
Initializing wave functions:  linear combination of atomic orbitals
Ge pseudo-atom occupations:   s ( 2 )  p ( 2 )  d ( 10 )
Te pseudo-atom occupations:   s ( 2 )  p ( 4 )
As pseudo-atom occupations:   s ( 2 )  p ( 3 )
	FillingsUpdate:  mu: +0.219961942  nElectrons: 432.000000
LCAOMinimize: Iter:   0  F: -1792.2120900392626481  |grad|_K:  6.272e-03  alpha:  1.000e+00
	FillingsUpdate:  mu: +0.043792477  nElectrons: 432.000000
LCAOMinimize: Iter:   1  F: -1792.4783860593418012  |grad|_K:  2.969e-03  alpha:  2.167e-02  linmin: -2.405e-01  cgtest:  9.435e-01  t[s]:     80.61
LCAOMinimize: Encountered beta<0, resetting CG.
	FillingsUpdate:  mu: -0.058233021  nElectrons: 432.000000
LCAOMinimize: Iter:   2  F: -1792.5543645816753724  |grad|_K:  9.793e-04  alpha:  4.331e-02  linmin:  9.212e-02  cgtest: -2.943e-01  t[s]:    102.43
LCAOMinimize: 	Predicted alpha/alphaT>3.000000, increasing alphaT to 1.299447e-01.
	FillingsUpdate:  mu: -0.062703800  nElectrons: 432.000000
LCAOMinimize: Iter:   3  F: -1792.5885265268639159  |grad|_K:  1.116e-03  alpha:  2.125e-01  linmin:  9.345e-03  cgtest:  5.485e-01  t[s]:    130.69
	FillingsUpdate:  mu: -0.030269435  nElectrons: 432.000000
LCAOMinimize: Iter:   4  F: -1792.5976616371465298  |grad|_K:  2.948e-04  alpha:  3.363e-02  linmin: -6.763e-02  cgtest:  2.501e-01  t[s]:    152.87
LCAOMinimize: 	Predicted alpha/alphaT>3.000000, increasing alphaT to 1.008778e-01.
	FillingsUpdate:  mu: -0.027795290  nElectrons: 432.000000
LCAOMinimize: Iter:   5  F: -1792.6010556137646290  |grad|_K:  1.706e-04  alpha:  1.870e-01  linmin:  2.964e-03  cgtest: -1.812e-02  t[s]:    182.62
	FillingsUpdate:  mu: -0.029418772  nElectrons: 432.000000
LCAOMinimize: Iter:   6  F: -1792.6020856697120962  |grad|_K:  9.631e-05  alpha:  1.704e-01  linmin:  8.208e-04  cgtest:  2.324e-02  t[s]:    208.10
	FillingsUpdate:  mu: -0.032860601  nElectrons: 432.000000
LCAOMinimize: Iter:   7  F: -1792.6022924622011487  |grad|_K:  1.194e-04  alpha:  1.067e-01  linmin: -6.230e-05  cgtest: -2.016e-03  t[s]:    233.91
	FillingsUpdate:  mu: -0.028252977  nElectrons: 432.000000
LCAOMinimize: Iter:   8  F: -1792.6025702552392431  |grad|_K:  2.500e-05  alpha:  9.313e-02  linmin:  5.922e-03  cgtest: -4.682e-02  t[s]:    260.27
LCAOMinimize: 	Predicted alpha/alphaT>3.000000, increasing alphaT to 2.794021e-01.
	FillingsUpdate:  mu: -0.028114691  nElectrons: 432.000000
LCAOMinimize: Iter:   9  F: -1792.6026348743212111  |grad|_K:  2.188e-05  alpha:  4.982e-01  linmin:  6.069e-05  cgtest:  2.559e-02  t[s]:    293.68
	FillingsUpdate:  mu: -0.027604082  nElectrons: 432.000000
LCAOMinimize: Iter:  10  F: -1792.6026407236086015  |grad|_K:  1.359e-05  alpha:  5.889e-02  linmin:  9.687e-04  cgtest: -6.046e-03  t[s]:    320.73
	FillingsUpdate:  mu: -0.028043069  nElectrons: 432.000000
LCAOMinimize: Iter:  11  F: -1792.6026430308907038  |grad|_K:  2.966e-06  alpha:  6.013e-02  linmin: -3.702e-05  cgtest:  3.174e-02  t[s]:    347.44
LCAOMinimize: 	Predicted alpha/alphaT>3.000000, increasing alphaT to 1.803978e-01.
	FillingsUpdate:  mu: -0.027997629  nElectrons: 432.000000
LCAOMinimize: Iter:  12  F: -1792.6026438214300924  |grad|_K:  9.716e-07  alpha:  4.301e-01  linmin: -1.541e-04  cgtest: -3.018e-03  t[s]:    381.02
	FillingsUpdate:  mu: -0.027997768  nElectrons: 432.000000
LCAOMinimize: Iter:  13  F: -1792.6026438846940891  |grad|_K:  1.388e-06  alpha:  3.209e-01  linmin: -1.116e-05  cgtest: -1.537e-04  t[s]:    407.78
LCAOMinimize: Converged (|Delta F|<1.000000e-06 for 2 iters).
----- createFluidSolver() ----- (Fluid-side solver setup)
   Initializing fluid molecule 'H2O'
     Initializing site 'O'
       Electron density: proportional to exp(-r/0.36935)*erfc((r-0.51523)/0.36823) with norm 6.826
       Charge density: gaussian nuclear width 0.478731 with net site charge 0.826
       Polarizability: cuspless exponential with width 0.32 and norm 3.73
       Hard sphere radius: 2.57003 bohrs
       Positions in reference frame:
         [ +0.000000 +0.000000 +0.000000 ]
     Initializing site 'H'
       Electron density: proportional to exp(-r/0.34641)*erfc((r-0)/0.390882) with norm 0.587
       Charge density: gaussian nuclear width 0.377945 with net site charge -0.413
       Polarizability: cuspless exponential with width 0.39 and norm 3.3
       Positions in reference frame:
         [ +0.000000 -1.441945 +1.122523 ]
         [ +0.000000 +1.441945 +1.122523 ]
     Net charge: 0   dipole magnitude: 0.927204
     Initializing spherical shell mfKernel with radius 2.61727 Bohr
     deltaS corrections:
       site 'O': -7.54299
       site 'H': -6.83917
   Initializing fluid molecule 'Na+'
     Initializing site 'Na'
       Electron density: proportional to exp(-r/0.19682)*erfc((r-0.71491)/0.41314) with norm 8.1383
       Charge density: gaussian nuclear width 0.365347 with net site charge -1
       Hard sphere radius: 1.86327 bohrs
       Positions in reference frame:
         [ +0.000000 +0.000000 +0.000000 ]
     Net charge: -1   dipole magnitude: 0
     Initializing gaussian mfKernel with width: 1.55004 Bohr
     deltaS corrections:
       site 'Na': -22.3555
   Initializing fluid molecule 'F-'
     Initializing site 'F'
       Electron density: proportional to exp(-r/0.38886)*erfc((r-0)/0.438782) with norm 8
       Charge density: gaussian nuclear width 0.374796 with net site charge 1
       Hard sphere radius: 2.39995 bohrs
       Positions in reference frame:
         [ +0.000000 +0.000000 +0.000000 ]
     Net charge: 1   dipole magnitude: 0
     Initializing gaussian mfKernel with width: 1.59012 Bohr
     deltaS corrections:
       site 'F': -9.04335

Correction to mu due to finite nuclear width = -0.0148674
   Cavity determined by nc: 0.00142 and sigma: 0.707107
   Nonlocal vdW cavity from gaussian model electron density with norm = 8 and sigma = 0.993594 bohr
   Charge asymmetry in cavity with sensitivity pCavity = 36.5 e-bohr/Eh
   Electrostatic cavity expanded by eta = 1.46 bohrs
   Weighted density cavitation model constrained by Nbulk: 0.0049383 bohr^-3, Pvap: 3.14029 kPa, Rvdw: 2.61727 bohr and sigmaBulk: 4.62e-05 Eh/bohr^2 at T: 298 K.
   Weighted density dispersion model using vdW pair potentials with single solvent site with sqrtC6eff: 0.77 SI.


---- Citations for features of the code used in this run ----

   Software package:
      R. Sundararaman, K. Letchworth-Weaver, K.A. Schwarz, D. Gunceler, Y. Ozhabes and T.A. Arias, 'JDFTx: software for joint density-functional theory', SoftwareX 6, 278 (2017)

   gga-PBE exchange-correlation functional:
      J.P. Perdew, K. Burke and M. Ernzerhof, Phys. Rev. Lett. 77, 3865 (1996)

   Pseudopotentials:
      KF Garrity, JW Bennett, KM Rabe and D Vanderbilt, Comput. Mater. Sci. 81, 446 (2014)

   Truncated Coulomb potentials:
      R. Sundararaman and T.A. Arias, Phys. Rev. B 87, 165122 (2013)

   Van der Waals correction pair-potentials:
      S. Grimme, J. Comput. Chem. 27, 1787 (2006)

   Charge-asymmetric nonlocally-determined local-electric (CANDLE) solvation model:
      R. Sundararaman and W.A. Goddard III, J. Chem. Phys. 142, 064107 (2015)

This list may not be complete. Please suggest additional citations or
report any other bugs at https://github.com/shankar1729/jdftx/issues

Initialization completed successfully at t[s]:    415.16

Fluid solver invoked on fresh (partially random / LCAO) wavefunctions
Running a vacuum solve first:

-------- Initial electronic minimization -----------
Will mix electronic density at each iteration.
	FillingsUpdate:  mu: -0.027997768  nElectrons: 432.000000
	FillingsUpdate:  mu: -0.039721041  nElectrons: 432.000000
SCF: Cycle:  0   F: -1793.490260238505243   dF: -8.876e-01   |Residual|: 1.697e-01   |deigs|: 1.365e-02  t[s]:    505.45
	FillingsUpdate:  mu: -0.037662765  nElectrons: 432.000000
SCF: Cycle:  1   F: -1793.562100171300017   dF: -7.184e-02   |Residual|: 9.100e-02   |deigs|: 3.173e-03  t[s]:    578.03
	FillingsUpdate:  mu: -0.034104048  nElectrons: 432.000000
SCF: Cycle:  2   F: -1793.592899896291328   dF: -3.080e-02   |Residual|: 2.715e-02   |deigs|: 3.059e-03  t[s]:    651.04
	FillingsUpdate:  mu: -0.032700362  nElectrons: 432.000000
SCF: Cycle:  3   F: -1793.593757694914302   dF: -8.578e-04   |Residual|: 1.195e-02   |deigs|: 1.239e-03  t[s]:    722.35
	FillingsUpdate:  mu: -0.031007775  nElectrons: 432.000000
SCF: Cycle:  4   F: -1793.596415296660780   dF: -2.658e-03   |Residual|: 6.682e-03   |deigs|: 1.841e-03  t[s]:    794.14
	FillingsUpdate:  mu: -0.029465658  nElectrons: 432.000000
SCF: Cycle:  5   F: -1793.596665759679354   dF: -2.505e-04   |Residual|: 4.324e-03   |deigs|: 1.522e-03  t[s]:    866.99
	FillingsUpdate:  mu: -0.027006781  nElectrons: 432.000000
SCF: Cycle:  6   F: -1793.597182234036154   dF: -5.165e-04   |Residual|: 2.829e-03   |deigs|: 2.453e-03  t[s]:    940.09
	FillingsUpdate:  mu: -0.025193301  nElectrons: 432.000000
SCF: Cycle:  7   F: -1793.597315509703776   dF: -1.333e-04   |Residual|: 1.897e-03   |deigs|: 1.819e-03  t[s]:   1012.78
	FillingsUpdate:  mu: -0.023446908  nElectrons: 432.000000
SCF: Cycle:  8   F: -1793.597369551590191   dF: -5.404e-05   |Residual|: 1.371e-03   |deigs|: 1.742e-03  t[s]:   1085.92
	FillingsUpdate:  mu: -0.021418296  nElectrons: 432.000000
SCF: Cycle:  9   F: -1793.597375517789715   dF: -5.966e-06   |Residual|: 9.713e-04   |deigs|: 2.053e-03  t[s]:   1156.76
	FillingsUpdate:  mu: -0.019662139  nElectrons: 432.000000
SCF: Cycle: 10   F: -1793.597386964373982   dF: -1.145e-05   |Residual|: 7.962e-04   |deigs|: 1.787e-03  t[s]:   1230.08
	FillingsUpdate:  mu: -0.018529166  nElectrons: 432.000000
SCF: Cycle: 11   F: -1793.597393373903060   dF: -6.410e-06   |Residual|: 5.470e-04   |deigs|: 1.147e-03  t[s]:   1303.41
	FillingsUpdate:  mu: -0.017844194  nElectrons: 432.000000
SCF: Cycle: 12   F: -1793.597396890424534   dF: -3.517e-06   |Residual|: 3.264e-04   |deigs|: 6.880e-04  t[s]:   1373.97
	FillingsUpdate:  mu: -0.017369769  nElectrons: 432.000000
SCF: Cycle: 13   F: -1793.597398097535006   dF: -1.207e-06   |Residual|: 1.637e-04   |deigs|: 4.746e-04  t[s]:   1446.64
	FillingsUpdate:  mu: -0.017308396  nElectrons: 432.000000
SCF: Cycle: 14   F: -1793.597398372577118   dF: -2.750e-07   |Residual|: 7.505e-05   |deigs|: 7.311e-05  t[s]:   1516.99
	FillingsUpdate:  mu: -0.017236952  nElectrons: 432.000000
SCF: Cycle: 15   F: -1793.597398458902489   dF: -8.633e-08   |Residual|: 2.732e-05   |deigs|: 7.662e-05  t[s]:   1589.32
	FillingsUpdate:  mu: -0.017244612  nElectrons: 432.000000
SCF: Cycle: 16   F: -1793.597398487462442   dF: -2.856e-08   |Residual|: 1.655e-05   |deigs|: 2.123e-05  t[s]:   1659.69
	FillingsUpdate:  mu: -0.017239958  nElectrons: 432.000000
SCF: Cycle: 17   F: -1793.597398504912235   dF: -1.745e-08   |Residual|: 1.080e-05   |deigs|: 8.732e-06  t[s]:   1725.30
	FillingsUpdate:  mu: -0.017241451  nElectrons: 432.000000
SCF: Cycle: 18   F: -1793.597398511773235   dF: -6.861e-09   |Residual|: 4.206e-06   |deigs|: 5.374e-06  t[s]:   1790.93
	FillingsUpdate:  mu: -0.017241635  nElectrons: 432.000000
SCF: Cycle: 19   F: -1793.597398508170500   dF: +3.603e-09   |Residual|: 3.906e-06   |deigs|: 1.511e-06  t[s]:   1856.09
	FillingsUpdate:  mu: -0.017241317  nElectrons: 432.000000
SCF: Cycle: 20   F: -1793.597398514128145   dF: -5.958e-09   |Residual|: 7.060e-06   |deigs|: 1.021e-06  t[s]:   1919.89
	FillingsUpdate:  mu: -0.017241057  nElectrons: 432.000000
SCF: Cycle: 21   F: -1793.597398514862562   dF: -7.344e-10   |Residual|: 1.074e-05   |deigs|: 1.378e-06  t[s]:   1983.36
SCF: Converged (|Delta E|<1.000000e-08 for 2 iters).

Vacuum energy after initial minimize, F = -1793.597398514862562

	FillingsUpdate:  mu: -0.017241057  nElectrons: 432.000000
	Linear fluid (dielectric constant: 78.4, screening length: 5.74355 Bohr) occupying 0.624505 of unit cell:	Completed after 23 iterations at t[s]:   1994.15

-------- Electronic minimization -----------
Will mix electronic density at each iteration.
	FillingsUpdate:  mu: -0.017241057  nElectrons: 432.000000
	Linear fluid (dielectric constant: 78.4, screening length: 5.74355 Bohr) occupying 0.624505 of unit cell:	Completed after 0 iterations at t[s]:   2002.08
	FillingsUpdate:  mu: -0.153150556  nElectrons: 432.000000
	Linear fluid (dielectric constant: 78.4, screening length: 5.74355 Bohr) occupying 0.625035 of unit cell:	Completed after 17 iterations at t[s]:   2079.09
SCF: Cycle:  0   F: -1793.592880201250864   dF: +6.769e-05   |Residual|: 1.346e-03   |deigs|: 6.358e-05  t[s]:   2080.25
	Linear fluid (dielectric constant: 78.4, screening length: 5.74355 Bohr) occupying 0.624464 of unit cell:	Completed after 16 iterations at t[s]:   2081.92
	FillingsUpdate:  mu: -0.152743500  nElectrons: 432.000000
	Linear fluid (dielectric constant: 78.4, screening length: 5.74355 Bohr) occupying 0.625008 of unit cell:	Completed after 18 iterations at t[s]:   2152.00
SCF: Cycle:  1   F: -1793.593012245827140   dF: -1.320e-04   |Residual|: 1.032e-03   |deigs|: 4.287e-04  t[s]:   2153.27
	Linear fluid (dielectric constant: 78.4, screening length: 5.74355 Bohr) occupying 0.624475 of unit cell:	Completed after 16 iterations at t[s]:   2154.91
	FillingsUpdate:  mu: -0.152490278  nElectrons: 432.000000
	Linear fluid (dielectric constant: 78.4, screening length: 5.74355 Bohr) occupying 0.624998 of unit cell:	Completed after 18 iterations at t[s]:   2226.02
SCF: Cycle:  2   F: -1793.593018937824354   dF: -6.692e-06   |Residual|: 7.229e-04   |deigs|: 2.556e-04  t[s]:   2227.36
	Linear fluid (dielectric constant: 78.4, screening length: 5.74355 Bohr) occupying 0.624530 of unit cell:	Completed after 17 iterations at t[s]:   2229.17
	FillingsUpdate:  mu: -0.152149691  nElectrons: 432.000000
	Linear fluid (dielectric constant: 78.4, screening length: 5.74355 Bohr) occupying 0.624986 of unit cell:	Completed after 13 iterations at t[s]:   2300.46
SCF: Cycle:  3   F: -1793.593014986166963   dF: +3.952e-06   |Residual|: 4.050e-04   |deigs|: 3.359e-04  t[s]:   2301.67
	Linear fluid (dielectric constant: 78.4, screening length: 5.74355 Bohr) occupying 0.624601 of unit cell:	Completed after 10 iterations at t[s]:   2302.88
	FillingsUpdate:  mu: -0.151822016  nElectrons: 432.000000
	Linear fluid (dielectric constant: 78.4, screening length: 5.74355 Bohr) occupying 0.624974 of unit cell:	Completed after 15 iterations at t[s]:   2374.24
SCF: Cycle:  4   F: -1793.593027273508369   dF: -1.229e-05   |Residual|: 3.374e-04   |deigs|: 3.338e-04  t[s]:   2375.42
	Linear fluid (dielectric constant: 78.4, screening length: 5.74355 Bohr) occupying 0.624779 of unit cell:	Completed after 12 iterations at t[s]:   2376.84
	FillingsUpdate:  mu: -0.151488815  nElectrons: 432.000000
	Linear fluid (dielectric constant: 78.4, screening length: 5.74355 Bohr) occupying 0.624963 of unit cell:	Completed after 16 iterations at t[s]:   2448.11
SCF: Cycle:  5   F: -1793.593015932140361   dF: +1.134e-05   |Residual|: 5.378e-04   |deigs|: 3.484e-04  t[s]:   2449.43
	Linear fluid (dielectric constant: 78.4, screening length: 5.74355 Bohr) occupying 0.624869 of unit cell:	Completed after 15 iterations at t[s]:   2451.16
	FillingsUpdate:  mu: -0.151502925  nElectrons: 432.000000
	Linear fluid (dielectric constant: 78.4, screening length: 5.74355 Bohr) occupying 0.624969 of unit cell:	Completed after 15 iterations at t[s]:   2515.42
SCF: Cycle:  6   F: -1793.593022000119845   dF: -6.068e-06   |Residual|: 2.324e-04   |deigs|: 5.949e-05  t[s]:   2516.73
	Linear fluid (dielectric constant: 78.4, screening length: 5.74355 Bohr) occupying 0.624902 of unit cell:	Completed after 14 iterations at t[s]:   2518.30
	FillingsUpdate:  mu: -0.151429757  nElectrons: 432.000000
	Linear fluid (dielectric constant: 78.4, screening length: 5.74355 Bohr) occupying 0.624966 of unit cell:	Completed after 12 iterations at t[s]:   2582.03
SCF: Cycle:  7   F: -1793.593030042599594   dF: -8.042e-06   |Residual|: 1.795e-04   |deigs|: 8.655e-05  t[s]:   2583.22
	Linear fluid (dielectric constant: 78.4, screening length: 5.74355 Bohr) occupying 0.624953 of unit cell:	Completed after 11 iterations at t[s]:   2584.57
	FillingsUpdate:  mu: -0.151276758  nElectrons: 432.000000
	Linear fluid (dielectric constant: 78.4, screening length: 5.74355 Bohr) occupying 0.624955 of unit cell:	Completed after 17 iterations at t[s]:   2655.26
SCF: Cycle:  8   F: -1793.592975702870262   dF: +5.434e-05   |Residual|: 7.062e-04   |deigs|: 1.807e-04  t[s]:   2656.59
	Linear fluid (dielectric constant: 78.4, screening length: 5.74355 Bohr) occupying 0.625007 of unit cell:	Completed after 17 iterations at t[s]:   2658.39
	FillingsUpdate:  mu: -0.151365008  nElectrons: 432.000000
	Linear fluid (dielectric constant: 78.4, screening length: 5.74355 Bohr) occupying 0.624964 of unit cell:	Completed after 12 iterations at t[s]:   2721.35
SCF: Cycle:  9   F: -1793.593030748992305   dF: -5.505e-05   |Residual|: 1.458e-04   |deigs|: 1.203e-04  t[s]:   2722.58
	Linear fluid (dielectric constant: 78.4, screening length: 5.74355 Bohr) occupying 0.625021 of unit cell:	Completed after 9 iterations at t[s]:   2723.78
	FillingsUpdate:  mu: -0.151194198  nElectrons: 432.000000
	Linear fluid (dielectric constant: 78.4, screening length: 5.74355 Bohr) occupying 0.624952 of unit cell:	Completed after 15 iterations at t[s]:   2788.91
SCF: Cycle: 10   F: -1793.593018314323444   dF: +1.243e-05   |Residual|: 3.391e-04   |deigs|: 1.879e-04  t[s]:   2790.15
	Linear fluid (dielectric constant: 78.4, screening length: 5.74355 Bohr) occupying 0.624996 of unit cell:	Completed after 16 iterations at t[s]:   2791.98
	FillingsUpdate:  mu: -0.151430875  nElectrons: 432.000000
	Linear fluid (dielectric constant: 78.4, screening length: 5.74355 Bohr) occupying 0.624967 of unit cell:	Completed after 7 iterations at t[s]:   2858.50
SCF: Cycle: 11   F: -1793.593029153870702   dF: -1.084e-05   |Residual|: 2.061e-04   |deigs|: 2.480e-04  t[s]:   2859.76
	Linear fluid (dielectric constant: 78.4, screening length: 5.74355 Bohr) occupying 0.625001 of unit cell:	Completed after 7 iterations at t[s]:   2860.79
	FillingsUpdate:  mu: -0.151400014  nElectrons: 432.000000
	Linear fluid (dielectric constant: 78.4, screening length: 5.74355 Bohr) occupying 0.624966 of unit cell:	Completed after 14 iterations at t[s]:   2925.52
SCF: Cycle: 12   F: -1793.593024722662676   dF: +4.431e-06   |Residual|: 2.499e-04   |deigs|: 5.765e-05  t[s]:   2926.69
	Linear fluid (dielectric constant: 78.4, screening length: 5.74355 Bohr) occupying 0.624982 of unit cell:	Completed after 13 iterations at t[s]:   2928.24
	FillingsUpdate:  mu: -0.151350621  nElectrons: 432.000000
	Linear fluid (dielectric constant: 78.4, screening length: 5.74355 Bohr) occupying 0.624962 of unit cell:	Completed after 12 iterations at t[s]:   2996.24
SCF: Cycle: 13   F: -1793.593030414066789   dF: -5.691e-06   |Residual|: 1.025e-04   |deigs|: 8.119e-05  t[s]:   2997.50
	Linear fluid (dielectric constant: 78.4, screening length: 5.74355 Bohr) occupying 0.624971 of unit cell:	Completed after 13 iterations at t[s]:   2999.01
	FillingsUpdate:  mu: -0.151355832  nElectrons: 432.000000
	Linear fluid (dielectric constant: 78.4, screening length: 5.74355 Bohr) occupying 0.624962 of unit cell:	Completed after 7 iterations at t[s]:   3063.12
SCF: Cycle: 14   F: -1793.593027786911534   dF: +2.627e-06   |Residual|: 2.768e-04   |deigs|: 4.141e-05  t[s]:   3064.36
	Linear fluid (dielectric constant: 78.4, screening length: 5.74355 Bohr) occupying 0.624973 of unit cell:	Completed after 6 iterations at t[s]:   3065.30
	FillingsUpdate:  mu: -0.151290270  nElectrons: 432.000000
	Linear fluid (dielectric constant: 78.4, screening length: 5.74355 Bohr) occupying 0.624958 of unit cell:	Completed after 11 iterations at t[s]:   3135.53
SCF: Cycle: 15   F: -1793.593030623609366   dF: -2.837e-06   |Residual|: 1.647e-04   |deigs|: 7.397e-05  t[s]:   3136.67
	Linear fluid (dielectric constant: 78.4, screening length: 5.74355 Bohr) occupying 0.624961 of unit cell:	Completed after 11 iterations at t[s]:   3138.05
	FillingsUpdate:  mu: -0.151269179  nElectrons: 432.000000
	Linear fluid (dielectric constant: 78.4, screening length: 5.74355 Bohr) occupying 0.624955 of unit cell:	Completed after 13 iterations at t[s]:   3202.47
SCF: Cycle: 16   F: -1793.593030483204075   dF: +1.404e-07   |Residual|: 9.419e-05   |deigs|: 3.886e-05  t[s]:   3203.66
	Linear fluid (dielectric constant: 78.4, screening length: 5.74355 Bohr) occupying 0.624962 of unit cell:	Completed after 14 iterations at t[s]:   3205.26
	FillingsUpdate:  mu: -0.151345547  nElectrons: 432.000000
	Linear fluid (dielectric constant: 78.4, screening length: 5.74355 Bohr) occupying 0.624960 of unit cell:	Completed after 10 iterations at t[s]:   3280.27
SCF: Cycle: 17   F: -1793.593031328996403   dF: -8.458e-07   |Residual|: 5.453e-05   |deigs|: 8.471e-05  t[s]:   3281.51
	Linear fluid (dielectric constant: 78.4, screening length: 5.74355 Bohr) occupying 0.624958 of unit cell:	Completed after 6 iterations at t[s]:   3282.48
	FillingsUpdate:  mu: -0.151106857  nElectrons: 432.000000
	Linear fluid (dielectric constant: 78.4, screening length: 5.74355 Bohr) occupying 0.624942 of unit cell:	Completed after 16 iterations at t[s]:   3356.74
SCF: Cycle: 18   F: -1793.592995199145662   dF: +3.613e-05   |Residual|: 4.682e-04   |deigs|: 2.592e-04  t[s]:   3357.97
	Linear fluid (dielectric constant: 78.4, screening length: 5.74355 Bohr) occupying 0.624961 of unit cell:	Completed after 16 iterations at t[s]:   3359.80
	FillingsUpdate:  mu: -0.151307615  nElectrons: 432.000000
	Linear fluid (dielectric constant: 78.4, screening length: 5.74355 Bohr) occupying 0.624957 of unit cell:	Completed after 3 iterations at t[s]:   3408.90
SCF: Cycle: 19   F: -1793.593031493711578   dF: -3.629e-05   |Residual|: 9.714e-05   |deigs|: 2.202e-04  t[s]:   3410.05
	Linear fluid (dielectric constant: 78.4, screening length: 5.74355 Bohr) occupying 0.624960 of unit cell:	Completed after 3 iterations at t[s]:   3410.77
	FillingsUpdate:  mu: -0.151285693  nElectrons: 432.000000
	Linear fluid (dielectric constant: 78.4, screening length: 5.74355 Bohr) occupying 0.624955 of unit cell:	Completed after 0 iterations at t[s]:   3455.94
SCF: Cycle: 20   F: -1793.593031899547441   dF: -4.058e-07   |Residual|: 4.191e-05   |deigs|: 2.472e-05  t[s]:   3457.35
	Linear fluid (dielectric constant: 78.4, screening length: 5.74355 Bohr) occupying 0.624960 of unit cell:	Completed after 0 iterations at t[s]:   3457.81
	FillingsUpdate:  mu: -0.151285667  nElectrons: 432.000000
	Linear fluid (dielectric constant: 78.4, screening length: 5.74355 Bohr) occupying 0.624955 of unit cell:	Completed after 0 iterations at t[s]:   3522.50
SCF: Cycle: 21   F: -1793.593031901126551   dF: -1.579e-09   |Residual|: 4.138e-05   |deigs|: 7.756e-06  t[s]:   3523.76
	Linear fluid (dielectric constant: 78.4, screening length: 5.74355 Bohr) occupying 0.624958 of unit cell:	Completed after 0 iterations at t[s]:   3524.20
	FillingsUpdate:  mu: -0.151285649  nElectrons: 432.000000
	Linear fluid (dielectric constant: 78.4, screening length: 5.74355 Bohr) occupying 0.624955 of unit cell:	Completed after 0 iterations at t[s]:   3582.40
SCF: Cycle: 22   F: -1793.593031902928260   dF: -1.802e-09   |Residual|: 4.158e-05   |deigs|: 1.887e-06  t[s]:   3583.57
SCF: Converged (|Delta E|<1.000000e-08 for 2 iters).

Single-point solvation energy estimate, DeltaF = +0.004366611934302

# Ionic positions in lattice coordinates:
ion Ge   1.000000000000000  -0.000000000000001   0.648235985410147 0
ion Ge   0.500000000000000  -0.000000000000001   0.648235985410147 0
ion Ge   1.000000000000000   0.500000000000000   0.648235985410147 0
ion Ge   0.500000000000000   0.500000000000000   0.648235985410147 0
ion Ge   0.333333333333333   0.333333333333333   0.450572329369268 0
ion Ge   0.833333333333333   0.333333333333333   0.450572329369268 0
ion Ge   0.333333333333333   0.833333333333333   0.450572329369268 0
ion Ge   0.833333333333333   0.833333333333333   0.450572329369268 0
ion Ge   0.166666666666667   0.166666666666666   0.549427670630734 0
ion Ge   0.666666666666667   0.166666666666666   0.549427670630734 0
ion Ge   0.166666666666667   0.666666666666666   0.549427670630734 0
ion Ge   0.666666666666667   0.666666666666666   0.549427670630734 0
ion Ge   1.000000000000000  -0.000000000000001   0.351764014589854 0
ion Ge   0.500000000000000  -0.000000000000001   0.351764014589854 0
ion Ge   1.000000000000000   0.499999999999999   0.351764014589854 0
ion Ge   0.500000000000000   0.499999999999999   0.351764014589854 0
ion Te  -0.000000000000000   0.999999999999999   0.790674536149421 0
ion Te   0.500000000000000   0.999999999999999   0.790674536149421 0
ion Te  -0.000000000000000   0.499999999999999   0.790674536149421 0
ion Te   0.500000000000000   0.499999999999999   0.790674536149421 0
ion Te   0.166666666666667   0.166666666666666   0.695958706612069 0
ion Te   0.666666666666667   0.166666666666666   0.695958706612069 0
ion Te   0.166666666666667   0.666666666666666   0.695958706612069 0
ion Te   0.666666666666667   0.666666666666666   0.695958706612069 0
ion Te   0.333333333333333   0.333333333333333   0.304041293387933 0
ion Te   0.833333333333333   0.333333333333333   0.304041293387933 0
ion Te   0.333333333333333   0.833333333333333   0.304041293387933 0
ion Te   0.833333333333333   0.833333333333333   0.304041293387933 0
ion Te  -0.000000000000000   0.999999999999999   0.209325463850580 0
ion Te   0.500000000000000   0.999999999999999   0.209325463850580 0
ion Te  -0.000000000000000   0.499999999999999   0.209325463850580 0
ion Te   0.500000000000000   0.499999999999999   0.209325463850580 0
ion Te   1.000000000000000  -0.000000000000001   0.500000000000001 0
ion Te   0.500000000000000  -0.000000000000001   0.500000000000001 0
ion Te   1.000000000000000   0.500000000000000   0.500000000000001 0
ion Te   0.500000000000000   0.500000000000000   0.500000000000001 0
ion Te   0.166666666666667   0.166666666666666   0.401809360725426 0
ion Te   0.666666666666667   0.166666666666666   0.401809360725426 0
ion Te   0.166666666666667   0.666666666666666   0.401809360725426 0
ion Te   0.666666666666667   0.666666666666666   0.401809360725426 0
ion Te   0.333333333333333   0.333333333333333   0.598190639274576 0
ion Te   0.833333333333333   0.333333333333333   0.598190639274576 0
ion Te   0.333333333333333   0.833333333333333   0.598190639274576 0
ion Te   0.833333333333333   0.833333333333333   0.598190639274576 0
ion As   0.166666666666667   0.166666666666666   0.251975434286003 0
ion As   0.666666666666667   0.166666666666666   0.251975434286003 0
ion As   0.166666666666667   0.666666666666666   0.251975434286003 0
ion As   0.666666666666667   0.666666666666666   0.251975434286003 0
ion As   0.333333333333333   0.333333333333333   0.748024565713998 0
ion As   0.833333333333333   0.333333333333333   0.748024565713998 0
ion As   0.333333333333333   0.833333333333333   0.748024565713998 0
ion As   0.833333333333333   0.833333333333333   0.748024565713998 0


# Forces in Lattice coordinates:
force Ge   0.000000000000000   0.000000000000000   0.006196931842940 0
force Ge   0.000000000000000   0.000000000000000   0.006196931842030 0
force Ge   0.000000000000000  -0.000000000000000   0.006196931841121 0
force Ge  -0.000000000000000  -0.000000000000000   0.006196931842030 0
force Ge   0.000000000000000  -0.000000000000000   0.003200681112772 0
force Ge   0.000000000000000  -0.000000000000000   0.003200681112318 0
force Ge  -0.000000000000000  -0.000000000000000   0.003200681112318 0
force Ge  -0.000000000000000   0.000000000000000   0.003200681112772 0
force Ge   0.000000000000000   0.000000000000000  -0.003200681112772 0
force Ge  -0.000000000000000  -0.000000000000000  -0.003200681112318 0
force Ge   0.000000000000000  -0.000000000000000  -0.003200681112772 0
force Ge   0.000000000000000   0.000000000000000  -0.003200681112772 0
force Ge  -0.000000000000000  -0.000000000000000  -0.006196931841120 0
force Ge  -0.000000000000000  -0.000000000000000  -0.006196931842939 0
force Ge  -0.000000000000000   0.000000000000000  -0.006196931841120 0
force Ge  -0.000000000000000   0.000000000000000  -0.006196931842939 0
force Te  -0.000000000000000   0.000000000000000   0.059517083855376 0
force Te   0.000000000000000   0.000000000000000   0.059517083855377 0
force Te   0.000000000000000  -0.000000000000000   0.059517083855376 0
force Te  -0.000000000000000  -0.000000000000000   0.059517083854922 0
force Te   0.000000000000000   0.000000000000000  -0.010582615399239 0
force Te   0.000000000000000  -0.000000000000000  -0.010582615399239 0
force Te  -0.000000000000000   0.000000000000000  -0.010582615399239 0
force Te   0.000000000000000  -0.000000000000000  -0.010582615399239 0
force Te   0.000000000000000  -0.000000000000000   0.010582615399694 0
force Te  -0.000000000000000   0.000000000000000   0.010582615399694 0
force Te  -0.000000000000000  -0.000000000000000   0.010582615399694 0
force Te  -0.000000000000000  -0.000000000000000   0.010582615399694 0
force Te   0.000000000000000  -0.000000000000000  -0.059517083854918 0
force Te   0.000000000000000   0.000000000000000  -0.059517083854918 0
force Te  -0.000000000000000   0.000000000000000  -0.059517083854463 0
force Te   0.000000000000000  -0.000000000000000  -0.059517083855373 0
force Te   0.000000000000000   0.000000000000000  -0.000000000000000 0
force Te  -0.000000000000000   0.000000000000000  -0.000000000000000 0
force Te  -0.000000000000000   0.000000000000000  -0.000000000000000 0
force Te   0.000000000000000  -0.000000000000000  -0.000000000000000 0
force Te  -0.000000000000000  -0.000000000000000   0.042028566721004 0
force Te  -0.000000000000000  -0.000000000000000   0.042028566720777 0
force Te   0.000000000000000   0.000000000000000   0.042028566721004 0
force Te  -0.000000000000000  -0.000000000000000   0.042028566721004 0
force Te   0.000000000000000   0.000000000000000  -0.042028566721004 0
force Te   0.000000000000000  -0.000000000000000  -0.042028566721459 0
force Te   0.000000000000000  -0.000000000000000  -0.042028566721459 0
force Te   0.000000000000000   0.000000000000000  -0.042028566721459 0
force As   0.000000000000000  -0.000000000000000  -0.031676209128237 0
force As   0.000000000000000  -0.000000000000000  -0.031676209128236 0
force As  -0.000000000000000   0.000000000000000  -0.031676209128236 0
force As   0.000000000000000   0.000000000000000  -0.031676209128235 0
force As   0.000000000000000  -0.000000000000000   0.031676209127326 0
force As  -0.000000000000000  -0.000000000000000   0.031676209128235 0
force As   0.000000000000000  -0.000000000000000   0.031676209128690 0
force As  -0.000000000000000  -0.000000000000000   0.031676209128236 0

# Energy components:
   A_diel =        0.0042817642218631
   Eewald =    30903.8101710898590682
       EH =    32531.1801117961585987
     Eloc =   -65208.8754417990057846
      Enl =      120.6709665138430267
      Exc =     -793.7403934085846231
 Exc_core =      447.7733735763675895
       KE =      205.6020496235313999
-------------------------------------
     Etot =    -1793.5748808436101172
       TS =        0.0181510593181690
-------------------------------------
        F =    -1793.5930319029282600

IonicMinimize: Iter:   0  F: -1793.593031902928260  |grad|_K:  0.000e+00  t[s]:   3596.55
IonicMinimize: Converged (|grad|_K<1.000000e-04).

#--- Lowdin population analysis ---
# oxidation-state Ge -0.100 -0.100 -0.100 -0.100 -0.091 -0.091 -0.091 -0.091 -0.091 -0.091 -0.091 -0.091 -0.100 -0.100 -0.100 -0.100
# oxidation-state Te +0.053 +0.053 +0.053 +0.053 +0.084 +0.084 +0.084 +0.084 +0.084 +0.084 +0.084 +0.084 +0.053 +0.053 +0.053 +0.053 +0.142 +0.142 +0.142 +0.142 +0.143 +0.143 +0.143 +0.143 +0.143 +0.143 +0.143 +0.143
# oxidation-state As +0.040 +0.040 +0.040 +0.040 +0.040 +0.040 +0.040 +0.040


Dumping 'NbTe2.fillings' ... done
Dumping 'NbTe2.wfns' ... done
Dumping 'NbTe2.fluidState' ... done
Dumping 'NbTe2.eigenvals' ... done
End date and time: Wed Jul  8 12:33:25 2020  (Duration: 0-1:00:03.09)
Done!
