
*************** JDFTx 1.5.0  ***************

Start date and time: Fri Jan 15 17:21:53 2021
Executable jdftx_gpu with command-line: -i Charged.in -o Charged.out
Running on hosts (process indices):  amax (0-4)
Divided in process groups (process indices):  0 (0)  1 (1)  2 (2)  3 (3)  4 (4)
gpuInit: Found compatible cuda device 0 'Tesla K80'
gpuInit: Found compatible cuda device 1 'Tesla K80'
gpuInit: Found compatible cuda device 2 'Tesla K80'
gpuInit: Found compatible cuda device 3 'Tesla K80'
gpuInit: Found compatible cuda device 4 'Tesla K80'
gpuInit: Selected device 0
Resource initialization completed at t[s]:      2.80
Run totals: 5 processes, 24 threads, 5 GPUs


Input parsed successfully to the following command list (including defaults):

basis kpoint-dependent
cache-projectors no
coords-type Lattice
core-overlap-check none
coulomb-interaction Slab 001
coulomb-truncation-embed 0.5 0.5 0.5
davidson-band-ratio 1.1
dump End State
dump-name NbTe2.$VAR
elec-cutoff 20
elec-eigen-algo Davidson
elec-ex-corr gga-PBE
elec-initial-charge 0.500000
elec-initial-magnetization 30.000000 no
elec-smearing Gauss 0.0073499
electronic-minimize  \
	dirUpdateScheme      FletcherReeves \
	linminMethod         DirUpdateRecommended \
	nIterations          200 \
	history              15 \
	knormThreshold       0 \
	energyDiffThreshold  1e-08 \
	nEnergyDiff          2 \
	alphaTstart          1 \
	alphaTmin            1e-10 \
	updateTestStepSize   yes \
	alphaTreduceFactor   0.1 \
	alphaTincreaseFactor 3 \
	nAlphaAdjustMax      3 \
	wolfeEnergy          0.0001 \
	wolfeGradient        0.9 \
	fdTest               no
exchange-regularization WignerSeitzTruncated
fluid LinearPCM 298.000000 1.013250
fluid-anion F- 1 MeanFieldLJ \
	epsBulk 1 \
	pMol 0 \
	epsInf 1 \
	Pvap 0 \
	sigmaBulk 0 \
	Rvdw 2.24877 \
	Res 0 \
	tauNuc 343133
fluid-cation Na+ 1 MeanFieldLJ \
	epsBulk 1 \
	pMol 0 \
	epsInf 1 \
	Pvap 0 \
	sigmaBulk 0 \
	Rvdw 2.19208 \
	Res 0 \
	tauNuc 343133
fluid-ex-corr lda-TF lda-PZ
fluid-gummel-loop 10 1.000000e-05
fluid-minimize  \
	dirUpdateScheme      PolakRibiere \
	linminMethod         DirUpdateRecommended \
	nIterations          400 \
	history              15 \
	knormThreshold       1e-11 \
	energyDiffThreshold  0 \
	nEnergyDiff          2 \
	alphaTstart          1 \
	alphaTmin            1e-10 \
	updateTestStepSize   yes \
	alphaTreduceFactor   0.1 \
	alphaTincreaseFactor 3 \
	nAlphaAdjustMax      6 \
	wolfeEnergy          0.0001 \
	wolfeGradient        0.9 \
	fdTest               no
fluid-solvent H2O 55.338 ScalarEOS \
	epsBulk 78.4 \
	pMol 0.92466 \
	epsInf 1.77 \
	Pvap 1.06736e-10 \
	sigmaBulk 4.62e-05 \
	Rvdw 2.61727 \
	Res 1.42 \
	tauNuc 343133 \
	poleEl 15 7 1
forces-output-coords Positions
initial-state NbTe2.$VAR
ion Ti   0.166670001000000   0.083329999000000   0.565165827130296 1
ion Ti   0.083329997000000   0.166669997000000   0.434834172869704 1
ion Ti   0.416670001000000   0.083329999000000   0.565165827130296 1
ion Ti   0.333329978000002   0.166669997000000   0.434834172869704 1
ion Ti   0.666670001000000   0.083329999000000   0.565165827130296 1
ion Ti   0.583329978000002   0.166669997000000   0.434834172869704 1
ion Ti   0.916670040000000   0.083329999000000   0.565165827130296 1
ion Ti   0.833330017000002   0.166669997000000   0.434834172869704 1
ion Ti   0.166670003999997   0.333330007000001   0.565165827130296 1
ion Ti   0.083329997000000   0.416670015000001   0.434834172869704 1
ion Ti   0.416670023999998   0.333330007000001   0.565165827130296 1
ion Ti   0.333329986999999   0.416670015000001   0.434834172869704 1
ion Ti   0.666670023999998   0.333330007000001   0.565165827130296 1
ion Ti   0.583330007000001   0.416670015000001   0.434834172869704 1
ion Ti   0.916670062999998   0.333330007000001   0.565165827130296 1
ion Ti   0.833329966999997   0.416670015000001   0.434834172869704 1
ion Ti   0.166670007999997   0.583330013999998   0.565165827130296 1
ion Ti   0.083329990999999   0.666670023000002   0.434834172869704 1
ion Ti   0.416670027999999   0.583330013999998   0.565165827130296 1
ion Ti   0.333329990999999   0.666670023000002   0.434834172869704 1
ion Ti   0.666670046999997   0.583330013999998   0.565165827130296 1
ion Ti   0.583329990999999   0.666670023000002   0.434834172869704 1
ion Ti   0.916670086000003   0.583330013999998   0.565165827130296 1
ion Ti   0.833329990999999   0.666670023000002   0.434834172869704 1
ion Ti   0.166669988999999   0.833329976000002   0.565165827130296 1
ion Ti   0.083329974999998   0.916670029999999   0.434834172869704 1
ion Ti   0.416670009000001   0.833329976000002   0.565165827130296 1
ion Ti   0.333329974999998   0.916670029999999   0.434834172869704 1
ion Ti   0.666670009000001   0.833329976000002   0.565165827130296 1
ion Ti   0.583329974999998   0.916670029999999   0.434834172869704 1
ion Ti   0.916670048000000   0.833329976000002   0.565165827130296 1
ion Ti   0.833329974999998   0.916670029999999   0.434834172869704 1
ion C  -0.000000000000000  -0.000000000000000   0.500000000000000 1
ion C   0.250000000000000  -0.000000000000000   0.500000000000000 1
ion C   0.500000000000000  -0.000000000000000   0.500000000000000 1
ion C   0.750000039000000  -0.000000000000000   0.500000000000000 1
ion C   0.000000004000000   0.250000006999997   0.500000000000000 1
ion C   0.250000004000000   0.250000006999997   0.500000000000000 1
ion C   0.500000022999998   0.250000006999997   0.500000000000000 1
ion C   0.750000061999998   0.250000006999997   0.500000000000000 1
ion C   0.000000006999997   0.500000014999998   0.500000000000000 1
ion C   0.250000006999997   0.500000014999998   0.500000000000000 1
ion C   0.500000006999997   0.500000014999998   0.500000000000000 1
ion C   0.750000047000000   0.500000014999998   0.500000000000000 1
ion C   0.999999991000003   0.750000022000002   0.500000000000000 1
ion C   0.249999991000003   0.750000022000002   0.500000000000000 1
ion C   0.499999991000003   0.750000022000002   0.500000000000000 1
ion C   0.750000030999999   0.750000022000002   0.500000000000000 1
ion-species GBRV/$ID_pbe.uspp
ion-width Ecut
ionic-minimize  \
	dirUpdateScheme      L-BFGS \
	linminMethod         DirUpdateRecommended \
	nIterations          500 \
	history              15 \
	knormThreshold       0.0001 \
	energyDiffThreshold  1e-06 \
	nEnergyDiff          2 \
	alphaTstart          1 \
	alphaTmin            1e-10 \
	updateTestStepSize   yes \
	alphaTreduceFactor   0.1 \
	alphaTincreaseFactor 3 \
	nAlphaAdjustMax      3 \
	wolfeEnergy          0.0001 \
	wolfeGradient        0.9 \
	fdTest               no
kpoint   0.000000000000   0.000000000000   0.000000000000  1.00000000000000
kpoint-folding 5 5 1 
latt-move-scale 1 1 1
latt-scale 1.88973 1.88973 1.88973 
lattice Triclinic 12.1569 12.1569 17.2781 90 90 120
lattice-minimize  \
	dirUpdateScheme      L-BFGS \
	linminMethod         DirUpdateRecommended \
	nIterations          0 \
	history              15 \
	knormThreshold       0 \
	energyDiffThreshold  1e-06 \
	nEnergyDiff          2 \
	alphaTstart          1 \
	alphaTmin            1e-10 \
	updateTestStepSize   yes \
	alphaTreduceFactor   0.1 \
	alphaTincreaseFactor 3 \
	nAlphaAdjustMax      3 \
	wolfeEnergy          0.0001 \
	wolfeGradient        0.9 \
	fdTest               no
lcao-params -1 1e-06 0.0073499
pcm-variant CANDLE
spintype z-spin
subspace-rotation-factor 1 yes
symmetries automatic
symmetry-threshold 0.0001



---------- Setting up symmetries ----------

Found 24 point-group symmetries of the bravais lattice
Found 64 space-group symmetries with basis
Applied RMS atom displacement 5.50116e-07 bohrs to make symmetries exact.

---------- Initializing the Grid ----------
R = 
[    22.9732   -11.4866          0  ]
[          0    19.8954          0  ]
[          0          0    32.6508  ]
unit cell volume = 14923.4
G =
[   0.273501   0.157906         -0  ]
[          0   0.315811          0  ]
[          0         -0   0.192436  ]
Minimum fftbox size, Smin = [  96  96  132  ]
Chosen fftbox size, S = [  96  96  140  ]

---------- Exchange Correlation functional ----------
Initalized PBE GGA exchange.
Initalized PBE GGA correlation.

---------- Setting up pseudopotentials ----------
Width of ionic core gaussian charges (only for fluid interactions / plotting) set to 0.397384

Reading pseudopotential file '/home/guoxy/vasp/jdftx-1.5.0/build/pseudopotentials/GBRV/ti_pbe.uspp':
  Title: Ti.  Created by USPP 7.3.6 on 31-3-15
  Reference state energy: -59.020943.  12 valence electrons in orbitals:
    |300>  occupation: 2  eigenvalue: -2.777623
    |310>  occupation: 6  eigenvalue: -1.894596
    |400>  occupation: 2  eigenvalue: -0.438610
    |320>  occupation: 1  eigenvalue: -0.583119
  lMax: 2  lLocal: 3  QijEcut: 6
  6 projectors sampled on a log grid with 597 points:
    l: 0  eig: -2.777624  rCut: 1.8
    l: 0  eig: -0.438611  rCut: 1.8
    l: 1  eig: -1.894596  rCut: 1.8
    l: 1  eig: 0.500000  rCut: 1.8
    l: 2  eig: -0.583118  rCut: 1.8
    l: 2  eig: 0.150000  rCut: 1.8
  Partial core density with radius 0.8
  Transforming core density to a uniform radial grid of dG=0.02 with 1481 points.
  Transforming local potential to a uniform radial grid of dG=0.02 with 1481 points.
  Transforming nonlocal projectors to a uniform radial grid of dG=0.02 with 432 points.
  Transforming density augmentations to a uniform radial grid of dG=0.02 with 1481 points.
  Transforming atomic orbitals to a uniform radial grid of dG=0.02 with 432 points.
  Core radius for overlap checks: 1.80 bohrs.

Reading pseudopotential file '/home/guoxy/vasp/jdftx-1.5.0/build/pseudopotentials/GBRV/c_pbe.uspp':
  Title: C.  Created by USPP 7.3.6 on 3-2-2014
  Reference state energy: -5.406344.  4 valence electrons in orbitals:
    |200>  occupation: 2  eigenvalue: -0.504890
    |210>  occupation: 2  eigenvalue: -0.194356
  lMax: 1  lLocal: 2  QijEcut: 5
  4 projectors sampled on a log grid with 503 points:
    l: 0  eig: -0.504890  rCut: 1.3
    l: 0  eig: 0.000000  rCut: 1.3
    l: 1  eig: -0.194357  rCut: 1.3
    l: 1  eig: 0.000000  rCut: 1.3
  Partial core density with radius 1.1
  Transforming core density to a uniform radial grid of dG=0.02 with 1481 points.
  Transforming local potential to a uniform radial grid of dG=0.02 with 1481 points.
  Transforming nonlocal projectors to a uniform radial grid of dG=0.02 with 432 points.
  Transforming density augmentations to a uniform radial grid of dG=0.02 with 1481 points.
  Transforming atomic orbitals to a uniform radial grid of dG=0.02 with 432 points.
  Core radius for overlap checks: 1.30 bohrs.

Initialized 2 species with 48 total atoms.

Folded 1 k-points by 5x5x1 to 25 k-points.

---------- Setting up k-points, bands, fillings ----------
Reduced to 9 k-points under symmetry. 
Computing the number of bands and number of electrons
Calculating initial fillings.
nElectrons: 448.500000   nBands: 384   nStates: 18

----- Setting up reduced wavefunction bases (one per k-point) -----
average nbasis = 63729.080 , ideal nbasis = 63753.870

---------- Setting up coulomb interaction ----------
Fluid mode embedding: using embedded box, but periodic Coulomb kernel.
(Fluid response is responsible for (approximate) separation between periodic images.)
Setting up double-sized grid for truncated Coulomb potentials:
R = 
[    22.9732   -11.4866          0  ]
[          0    19.8954          0  ]
[          0          0    65.3016  ]
unit cell volume = 29846.8
G =
[   0.273501   0.157906         -0  ]
[          0   0.315811          0  ]
[          0         -0   0.096218  ]
Chosen fftbox size, S = [  96  96  280  ]
Integer grid location selected as the embedding center:
   Grid: [  48  48  70  ]
   Lattice: [  0.5  0.5  0.5  ]
   Cartesian: [  5.7433  9.94769  16.3254  ]
Constructing Wigner-Seitz cell: 8 faces (6 quadrilaterals, 2 hexagons)
Range-separation parameter for embedded mesh potentials due to point charges: 0.617142 bohrs.

Initializing van der Waals corrections
	NOTE: vdW corrections apply only for interactions with fluid.
	Ti:  C6:  187.33 Eh-a0^6  R0: 2.952 a0
	 C:  C6:   30.35 Eh-a0^6  R0: 2.744 a0

---------- Setting up ewald sum ----------
Optimum gaussian width for ewald sums = 6.491360 bohr.
Real space sum over 605 unit cells with max indices [  5  5  2  ]
Reciprocal space sum over 7875 terms with max indices [  7  7  17  ]

---------- Allocating electronic variables ----------
Initializing wave functions:  linear combination of atomic orbitals
Ti pseudo-atom occupations:   s ( 2 0 )  p ( 6 )  d ( 4 )
C pseudo-atom occupations:   s ( 2 )  p ( 2 )
	FillingsUpdate:  mu: +0.424088655  nElectrons: 448.500000  magneticMoment: [ Abs: 46.43154  Tot: +46.42937 ]
LCAOMinimize: Iter:   0  F: -1840.7817093941389430  |grad|_K:  1.071e-02  alpha:  1.000e+00
	FillingsUpdate:  mu: +0.104950077  nElectrons: 448.500000  magneticMoment: [ Abs: 8.90122  Tot: +8.89393 ]
LCAOMinimize: Iter:   1  F: -1917.3033206381333002  |grad|_K:  4.783e-03  alpha:  6.033e-01  linmin:  1.648e-01  cgtest: -1.367e+00  t[s]:    335.83
LCAOMinimize: 	Bad step direction: g.d > 0.
LCAOMinimize: 	Undoing step.
LCAOMinimize: 	Step failed: resetting search direction.
	FillingsUpdate:  mu: +0.104950077  nElectrons: 448.500000  magneticMoment: [ Abs: 8.90122  Tot: +8.89393 ]
LCAOMinimize: Iter:   2  F: -1917.3033206381333002  |grad|_K:  4.783e-03  alpha:  0.000e+00
	FillingsUpdate:  mu: +0.232576917  nElectrons: 448.500000  magneticMoment: [ Abs: 10.48631  Tot: +9.95449 ]
LCAOMinimize: Iter:   3  F: -1945.8600091717867144  |grad|_K:  3.469e-03  alpha:  3.076e-01  linmin: -3.721e-01  cgtest:  4.371e-01  t[s]:    515.10
	FillingsUpdate:  mu: +0.267773837  nElectrons: 448.500000  magneticMoment: [ Abs: 11.79446  Tot: +10.89804 ]
LCAOMinimize: Iter:   4  F: -1950.9603373849893160  |grad|_K:  5.345e-04  alpha:  1.464e-01  linmin: -4.186e-01  cgtest:  7.362e-01  t[s]:    620.58
LCAOMinimize: Encountered beta<0, resetting CG.
	FillingsUpdate:  mu: +0.268254479  nElectrons: 448.500000  magneticMoment: [ Abs: 10.85819  Tot: +9.97925 ]
LCAOMinimize: Iter:   5  F: -1951.0637592967589171  |grad|_K:  1.697e-04  alpha:  2.810e-01  linmin:  4.718e-02  cgtest: -2.487e-01  t[s]:    725.96
LCAOMinimize: 	Predicted alpha/alphaT>3.000000, increasing alphaT to 8.430126e-01.
	FillingsUpdate:  mu: +0.261802145  nElectrons: 448.500000  magneticMoment: [ Abs: 5.88608  Tot: +5.07715 ]
LCAOMinimize: Iter:   6  F: -1951.0933029234765854  |grad|_K:  1.288e-04  alpha:  8.866e-01  linmin:  1.783e-02  cgtest:  4.595e-01  t[s]:    861.52
	FillingsUpdate:  mu: +0.261852635  nElectrons: 448.500000  magneticMoment: [ Abs: 4.74178  Tot: +4.01959 ]
LCAOMinimize: Iter:   7  F: -1951.0992395897708320  |grad|_K:  5.664e-05  alpha:  2.805e-01  linmin:  9.018e-03  cgtest:  2.285e-02  t[s]:    965.96
LCAOMinimize: 	Predicted alpha/alphaT>3.000000, increasing alphaT to 8.414949e-01.
	FillingsUpdate:  mu: +0.265269048  nElectrons: 448.500000  magneticMoment: [ Abs: 2.01978  Tot: +1.63411 ]
LCAOMinimize: Iter:   8  F: -1951.1034626833986749  |grad|_K:  2.507e-05  alpha:  9.972e-01  linmin: -7.331e-03  cgtest: -2.855e-02  t[s]:   1102.52
	FillingsUpdate:  mu: +0.262904963  nElectrons: 448.500000  magneticMoment: [ Abs: 0.54339  Tot: +0.41358 ]
LCAOMinimize: Iter:   9  F: -1951.1043476827251197  |grad|_K:  1.240e-05  alpha:  1.042e+00  linmin: -3.167e-03  cgtest: -4.079e-02  t[s]:   1208.14
	FillingsUpdate:  mu: +0.263345340  nElectrons: 448.500000  magneticMoment: [ Abs: 0.29276  Tot: +0.21700 ]
LCAOMinimize: Iter:  10  F: -1951.1044335589410821  |grad|_K:  7.364e-06  alpha:  4.169e-01  linmin:  5.380e-05  cgtest: -9.360e-03  t[s]:   1314.04
	FillingsUpdate:  mu: +0.263893812  nElectrons: 448.500000  magneticMoment: [ Abs: 0.13913  Tot: +0.10201 ]
LCAOMinimize: Iter:  11  F: -1951.1044668002743947  |grad|_K:  2.794e-06  alpha:  4.596e-01  linmin:  8.505e-04  cgtest:  3.106e-03  t[s]:   1419.70
	FillingsUpdate:  mu: +0.263700299  nElectrons: 448.500000  magneticMoment: [ Abs: 0.06463  Tot: +0.04904 ]
LCAOMinimize: Iter:  12  F: -1951.1044745245462764  |grad|_K:  5.846e-07  alpha:  7.430e-01  linmin:  1.707e-04  cgtest:  1.503e-02  t[s]:   1524.94
	FillingsUpdate:  mu: +0.263686774  nElectrons: 448.500000  magneticMoment: [ Abs: 0.05381  Tot: +0.04089 ]
LCAOMinimize: Iter:  13  F: -1951.1044747295359230  |grad|_K:  4.902e-07  alpha:  4.497e-01  linmin:  4.189e-05  cgtest: -1.071e-04  t[s]:   1629.81
	FillingsUpdate:  mu: +0.263681784  nElectrons: 448.500000  magneticMoment: [ Abs: 0.03031  Tot: +0.02141 ]
LCAOMinimize: Iter:  14  F: -1951.1044749820312063  |grad|_K:  1.606e-07  alpha:  7.874e-01  linmin: -4.859e-04  cgtest:  1.331e-03  t[s]:   1734.47
LCAOMinimize: Converged (|Delta F|<1.000000e-06 for 2 iters).
----- createFluidSolver() ----- (Fluid-side solver setup)
   Initializing fluid molecule 'H2O'
     Initializing site 'O'
       Electron density: proportional to exp(-r/0.36935)*erfc((r-0.51523)/0.36823) with norm 6.826
       Charge density: gaussian nuclear width 0.478731 with net site charge 0.826
       Polarizability: cuspless exponential with width 0.32 and norm 3.73
       Hard sphere radius: 2.57003 bohrs
       Positions in reference frame:
         [ +0.000000 +0.000000 +0.000000 ]
     Initializing site 'H'
       Electron density: proportional to exp(-r/0.34641)*erfc((r-0)/0.390882) with norm 0.587
       Charge density: gaussian nuclear width 0.377945 with net site charge -0.413
       Polarizability: cuspless exponential with width 0.39 and norm 3.3
       Positions in reference frame:
         [ +0.000000 -1.441945 +1.122523 ]
         [ +0.000000 +1.441945 +1.122523 ]
     Net charge: 0   dipole magnitude: 0.927204
     Initializing spherical shell mfKernel with radius 2.61727 Bohr
     deltaS corrections:
       site 'O': -7.54299
       site 'H': -6.83917
   Initializing fluid molecule 'Na+'
     Initializing site 'Na'
       Electron density: proportional to exp(-r/0.19682)*erfc((r-0.71491)/0.41314) with norm 8.1383
       Charge density: gaussian nuclear width 0.365347 with net site charge -1
       Hard sphere radius: 1.86327 bohrs
       Positions in reference frame:
         [ +0.000000 +0.000000 +0.000000 ]
     Net charge: -1   dipole magnitude: 0
     Initializing gaussian mfKernel with width: 1.55004 Bohr
     deltaS corrections:
       site 'Na': -22.3555
   Initializing fluid molecule 'F-'
     Initializing site 'F'
       Electron density: proportional to exp(-r/0.38886)*erfc((r-0)/0.438782) with norm 8
       Charge density: gaussian nuclear width 0.374796 with net site charge 1
       Hard sphere radius: 2.39995 bohrs
       Positions in reference frame:
         [ +0.000000 +0.000000 +0.000000 ]
     Net charge: 1   dipole magnitude: 0
     Initializing gaussian mfKernel with width: 1.59012 Bohr
     deltaS corrections:
       site 'F': -9.04335

Correction to mu due to finite nuclear width = -0.0148929
   Cavity determined by nc: 0.00142 and sigma: 0.707107
   Nonlocal vdW cavity from gaussian model electron density with norm = 8 and sigma = 0.993594 bohr
   Charge asymmetry in cavity with sensitivity pCavity = 36.5 e-bohr/Eh
   Electrostatic cavity expanded by eta = 1.46 bohrs
   Weighted density cavitation model constrained by Nbulk: 0.0049383 bohr^-3, Pvap: 3.14029 kPa, Rvdw: 2.61727 bohr and sigmaBulk: 4.62e-05 Eh/bohr^2 at T: 298 K.
   Weighted density dispersion model using vdW pair potentials with single solvent site with sqrtC6eff: 0.77 SI.


---- Citations for features of the code used in this run ----

   Software package:
      R. Sundararaman, K. Letchworth-Weaver, K.A. Schwarz, D. Gunceler, Y. Ozhabes and T.A. Arias, 'JDFTx: software for joint density-functional theory', SoftwareX 6, 278 (2017)

   gga-PBE exchange-correlation functional:
      J.P. Perdew, K. Burke and M. Ernzerhof, Phys. Rev. Lett. 77, 3865 (1996)

   Pseudopotentials:
      KF Garrity, JW Bennett, KM Rabe and D Vanderbilt, Comput. Mater. Sci. 81, 446 (2014)

   Truncated Coulomb potentials:
      R. Sundararaman and T.A. Arias, Phys. Rev. B 87, 165122 (2013)

   Van der Waals correction pair-potentials:
      S. Grimme, J. Comput. Chem. 27, 1787 (2006)

   Charge-asymmetric nonlocally-determined local-electric (CANDLE) solvation model:
      R. Sundararaman and W.A. Goddard III, J. Chem. Phys. 142, 064107 (2015)

   Total energy minimization with Auxiliary Hamiltonian:
      C. Freysoldt, S. Boeck, and J. Neugebauer, Phys. Rev. B 79, 241103(R) (2009)

This list may not be complete. Please suggest additional citations or
report any other bugs at https://github.com/shankar1729/jdftx/issues

Initialization completed successfully at t[s]:   1748.48

Fluid solver invoked on fresh (partially random / LCAO) wavefunctions
Running a vacuum solve first:

-------- Initial electronic minimization -----------
	FillingsUpdate:  mu: +0.263681784  nElectrons: 448.500000  magneticMoment: [ Abs: 0.03031  Tot: +0.02141 ]
ElecMinimize: Iter:   0  F: -1951.104474982027568  |grad|_K:  1.467e-04  alpha:  1.000e+00
	FillingsUpdate:  mu: +0.089791134  nElectrons: 448.500000  magneticMoment: [ Abs: 0.02811  Tot: +0.01991 ]
	SubspaceRotationAdjust: set factor to 1
ElecMinimize: Iter:   1  F: -1954.479532620094687  |grad|_K:  8.592e-05  alpha:  3.615e-01  linmin:  6.603e-05  t[s]:   1981.22
	FillingsUpdate:  mu: +0.092985244  nElectrons: 448.500000  magneticMoment: [ Abs: 0.01858  Tot: +0.01344 ]
	SubspaceRotationAdjust: set factor to 0.771
ElecMinimize: Iter:   2  F: -1956.262581423378151  |grad|_K:  5.796e-05  alpha:  5.535e-01  linmin: -8.659e-05  t[s]:   2124.41
	FillingsUpdate:  mu: +0.054342983  nElectrons: 448.500000  magneticMoment: [ Abs: 0.01213  Tot: +0.00689 ]
	SubspaceRotationAdjust: set factor to 0.608
ElecMinimize: Iter:   3  F: -1957.064565856710033  |grad|_K:  3.841e-05  alpha:  5.314e-01  linmin:  5.966e-05  t[s]:   2267.87
	FillingsUpdate:  mu: -0.025742563  nElectrons: 448.500000  magneticMoment: [ Abs: 0.00903  Tot: +0.00190 ]
	SubspaceRotationAdjust: set factor to 0.524
ElecMinimize: Iter:   4  F: -1957.421440383339359  |grad|_K:  2.186e-05  alpha:  5.534e-01  linmin:  5.929e-04  t[s]:   2411.39
	FillingsUpdate:  mu: -0.011431907  nElectrons: 448.500000  magneticMoment: [ Abs: 0.00748  Tot: -0.00010 ]
	SubspaceRotationAdjust: set factor to 0.568
ElecMinimize: Iter:   5  F: -1957.546939708642640  |grad|_K:  1.436e-05  alpha:  6.380e-01  linmin:  7.145e-05  t[s]:   2554.97
	FillingsUpdate:  mu: -0.007476503  nElectrons: 448.500000  magneticMoment: [ Abs: 0.00679  Tot: -0.00175 ]
	SubspaceRotationAdjust: set factor to 0.592
ElecMinimize: Iter:   6  F: -1957.593787525384414  |grad|_K:  1.052e-05  alpha:  5.335e-01  linmin:  7.454e-06  t[s]:   2698.24
	FillingsUpdate:  mu: -0.019115768  nElectrons: 448.500000  magneticMoment: [ Abs: 0.00589  Tot: -0.00287 ]
	SubspaceRotationAdjust: set factor to 0.749
ElecMinimize: Iter:   7  F: -1957.621044275312215  |grad|_K:  6.843e-06  alpha:  5.607e-01  linmin:  1.241e-05  t[s]:   2841.59
	FillingsUpdate:  mu: -0.027448410  nElectrons: 448.500000  magneticMoment: [ Abs: 0.00487  Tot: -0.00351 ]
	SubspaceRotationAdjust: set factor to 0.86
ElecMinimize: Iter:   8  F: -1957.634046941720726  |grad|_K:  5.577e-06  alpha:  6.335e-01  linmin:  5.132e-06  t[s]:   2985.50
	FillingsUpdate:  mu: -0.025590478  nElectrons: 448.500000  magneticMoment: [ Abs: 0.00463  Tot: -0.00393 ]
	SubspaceRotationAdjust: set factor to 0.94
ElecMinimize: Iter:   9  F: -1957.640205442679417  |grad|_K:  3.438e-06  alpha:  4.500e-01  linmin: -1.591e-06  t[s]:   3128.80
	FillingsUpdate:  mu: -0.025804381  nElectrons: 448.500000  magneticMoment: [ Abs: 0.00486  Tot: -0.00435 ]
	SubspaceRotationAdjust: set factor to 1.09
ElecMinimize: Iter:  10  F: -1957.643116629300948  |grad|_K:  2.515e-06  alpha:  5.569e-01  linmin: -9.626e-06  t[s]:   3272.33
	FillingsUpdate:  mu: -0.029266486  nElectrons: 448.500000  magneticMoment: [ Abs: 0.00522  Tot: -0.00478 ]
	SubspaceRotationAdjust: set factor to 0.989
ElecMinimize: Iter:  11  F: -1957.644472160671057  |grad|_K:  1.987e-06  alpha:  4.842e-01  linmin: -1.357e-06  t[s]:   3415.84
	FillingsUpdate:  mu: -0.027720016  nElectrons: 448.500000  magneticMoment: [ Abs: 0.00564  Tot: -0.00529 ]
	SubspaceRotationAdjust: set factor to 0.965
ElecMinimize: Iter:  12  F: -1957.645256580708519  |grad|_K:  1.404e-06  alpha:  4.493e-01  linmin: -7.361e-07  t[s]:   3559.76
	FillingsUpdate:  mu: -0.028365165  nElectrons: 448.500000  magneticMoment: [ Abs: 0.00617  Tot: -0.00585 ]
	SubspaceRotationAdjust: set factor to 1.18
ElecMinimize: Iter:  13  F: -1957.645701594863112  |grad|_K:  9.612e-07  alpha:  5.111e-01  linmin:  5.182e-06  t[s]:   3703.46
	FillingsUpdate:  mu: -0.028612762  nElectrons: 448.500000  magneticMoment: [ Abs: 0.00679  Tot: -0.00648 ]
	SubspaceRotationAdjust: set factor to 1.23
ElecMinimize: Iter:  14  F: -1957.645937134396036  |grad|_K:  7.806e-07  alpha:  5.776e-01  linmin:  2.026e-06  t[s]:   3847.13
	FillingsUpdate:  mu: -0.028193859  nElectrons: 448.500000  magneticMoment: [ Abs: 0.00740  Tot: -0.00708 ]
	SubspaceRotationAdjust: set factor to 1.14
ElecMinimize: Iter:  15  F: -1957.646047254748510  |grad|_K:  5.510e-07  alpha:  4.093e-01  linmin:  4.189e-08  t[s]:   3989.79
	FillingsUpdate:  mu: -0.028818820  nElectrons: 448.500000  magneticMoment: [ Abs: 0.00815  Tot: -0.00781 ]
	SubspaceRotationAdjust: set factor to 1.09
ElecMinimize: Iter:  16  F: -1957.646110851942012  |grad|_K:  4.207e-07  alpha:  4.742e-01  linmin:  1.022e-06  t[s]:   4133.24
	FillingsUpdate:  mu: -0.028389934  nElectrons: 448.500000  magneticMoment: [ Abs: 0.00884  Tot: -0.00850 ]
	SubspaceRotationAdjust: set factor to 1.06
ElecMinimize: Iter:  17  F: -1957.646141770863778  |grad|_K:  3.036e-07  alpha:  3.957e-01  linmin: -4.551e-08  t[s]:   4276.18
	FillingsUpdate:  mu: -0.028637819  nElectrons: 448.500000  magneticMoment: [ Abs: 0.00976  Tot: -0.00939 ]
	SubspaceRotationAdjust: set factor to 1.12
ElecMinimize: Iter:  18  F: -1957.646162754671195  |grad|_K:  2.179e-07  alpha:  5.154e-01  linmin: -1.044e-08  t[s]:   4419.02
	FillingsUpdate:  mu: -0.028732682  nElectrons: 448.500000  magneticMoment: [ Abs: 0.01066  Tot: -0.01028 ]
	SubspaceRotationAdjust: set factor to 1.3
ElecMinimize: Iter:  19  F: -1957.646173135247636  |grad|_K:  1.575e-07  alpha:  4.949e-01  linmin:  7.073e-08  t[s]:   4562.75
	FillingsUpdate:  mu: -0.028555410  nElectrons: 448.500000  magneticMoment: [ Abs: 0.01171  Tot: -0.01130 ]
	SubspaceRotationAdjust: set factor to 1.26
ElecMinimize: Iter:  20  F: -1957.646178861939688  |grad|_K:  1.324e-07  alpha:  5.223e-01  linmin:  3.452e-07  t[s]:   4705.62
	FillingsUpdate:  mu: -0.028715363  nElectrons: 448.500000  magneticMoment: [ Abs: 0.01265  Tot: -0.01221 ]
	SubspaceRotationAdjust: set factor to 1.12
ElecMinimize: Iter:  21  F: -1957.646181531315733  |grad|_K:  9.449e-08  alpha:  3.447e-01  linmin: -6.846e-08  t[s]:   4848.85
	FillingsUpdate:  mu: -0.028631208  nElectrons: 448.500000  magneticMoment: [ Abs: 0.01396  Tot: -0.01349 ]
	SubspaceRotationAdjust: set factor to 1.1
ElecMinimize: Iter:  22  F: -1957.646183417631619  |grad|_K:  6.893e-08  alpha:  4.783e-01  linmin:  3.115e-07  t[s]:   4992.25
	FillingsUpdate:  mu: -0.028657801  nElectrons: 448.500000  magneticMoment: [ Abs: 0.01533  Tot: -0.01481 ]
	SubspaceRotationAdjust: set factor to 1.22
ElecMinimize: Iter:  23  F: -1957.646184452549051  |grad|_K:  5.160e-08  alpha:  4.932e-01  linmin:  5.085e-08  t[s]:   5135.34
	FillingsUpdate:  mu: -0.028694338  nElectrons: 448.500000  magneticMoment: [ Abs: 0.01690  Tot: -0.01633 ]
	SubspaceRotationAdjust: set factor to 1.3
ElecMinimize: Iter:  24  F: -1957.646185071791251  |grad|_K:  4.152e-08  alpha:  5.265e-01  linmin:  4.183e-08  t[s]:   5278.66
	FillingsUpdate:  mu: -0.028648838  nElectrons: 448.500000  magneticMoment: [ Abs: 0.01842  Tot: -0.01780 ]
	SubspaceRotationAdjust: set factor to 1.23
ElecMinimize: Iter:  25  F: -1957.646185389638276  |grad|_K:  3.148e-08  alpha:  4.173e-01  linmin:  4.387e-08  t[s]:   5422.25
	FillingsUpdate:  mu: -0.028691211  nElectrons: 448.500000  magneticMoment: [ Abs: 0.01998  Tot: -0.01930 ]
	SubspaceRotationAdjust: set factor to 1.05
ElecMinimize: Iter:  26  F: -1957.646185556340697  |grad|_K:  2.432e-08  alpha:  3.808e-01  linmin:  2.108e-08  t[s]:   5565.52
	FillingsUpdate:  mu: -0.028679352  nElectrons: 448.500000  magneticMoment: [ Abs: 0.02195  Tot: -0.02120 ]
	SubspaceRotationAdjust: set factor to 1.08
ElecMinimize: Iter:  27  F: -1957.646185671416788  |grad|_K:  1.630e-08  alpha:  4.405e-01  linmin: -2.283e-08  t[s]:   5709.18
	FillingsUpdate:  mu: -0.028675685  nElectrons: 448.500000  magneticMoment: [ Abs: 0.02413  Tot: -0.02331 ]
	SubspaceRotationAdjust: set factor to 1.26
ElecMinimize: Iter:  28  F: -1957.646185736911548  |grad|_K:  1.374e-08  alpha:  5.580e-01  linmin: -9.680e-08  t[s]:   5851.74
	FillingsUpdate:  mu: -0.028688353  nElectrons: 448.500000  magneticMoment: [ Abs: 0.02645  Tot: -0.02554 ]
	SubspaceRotationAdjust: set factor to 1.29
ElecMinimize: Iter:  29  F: -1957.646185776071661  |grad|_K:  1.101e-08  alpha:  4.692e-01  linmin:  1.944e-07  t[s]:   5994.52
	FillingsUpdate:  mu: -0.028673069  nElectrons: 448.500000  magneticMoment: [ Abs: 0.02881  Tot: -0.02783 ]
	SubspaceRotationAdjust: set factor to 1.14
ElecMinimize: Iter:  30  F: -1957.646185797390672  |grad|_K:  9.518e-09  alpha:  3.986e-01  linmin: -1.067e-07  t[s]:   6137.42
	FillingsUpdate:  mu: -0.028682520  nElectrons: 448.500000  magneticMoment: [ Abs: 0.03259  Tot: -0.03148 ]
	SubspaceRotationAdjust: set factor to 1.24
ElecMinimize: Iter:  31  F: -1957.646185817528021  |grad|_K:  7.284e-09  alpha:  5.031e-01  linmin: -3.652e-08  t[s]:   6280.16
	FillingsUpdate:  mu: -0.028683235  nElectrons: 448.500000  magneticMoment: [ Abs: 0.03764  Tot: -0.03637 ]
	SubspaceRotationAdjust: set factor to 1.52
ElecMinimize: Iter:  32  F: -1957.646185833401660  |grad|_K:  7.617e-09  alpha:  6.774e-01  linmin:  3.393e-07  t[s]:   6422.99
	FillingsUpdate:  mu: -0.028678382  nElectrons: 448.500000  magneticMoment: [ Abs: 0.04562  Tot: -0.04408 ]
	SubspaceRotationAdjust: set factor to 1.56
ElecMinimize: Iter:  33  F: -1957.646185850407164  |grad|_K:  8.782e-09  alpha:  6.651e-01  linmin:  4.225e-08  t[s]:   6565.94
	FillingsUpdate:  mu: -0.028690177  nElectrons: 448.500000  magneticMoment: [ Abs: 0.05798  Tot: -0.05604 ]
	SubspaceRotationAdjust: set factor to 1.54
ElecMinimize: Iter:  34  F: -1957.646185869822602  |grad|_K:  1.196e-08  alpha:  5.711e-01  linmin:  1.142e-07  t[s]:   6708.88
	FillingsUpdate:  mu: -0.028666807  nElectrons: 448.500000  magneticMoment: [ Abs: 0.08978  Tot: -0.08685 ]
	SubspaceRotationAdjust: set factor to 1.55
ElecMinimize: Iter:  35  F: -1957.646185912044075  |grad|_K:  1.914e-08  alpha:  6.705e-01  linmin:  5.831e-07  t[s]:   6851.62
ElecMinimize: 	Predicted alpha/alphaT>3.000000, increasing alphaT to 2.011395e+00.
	FillingsUpdate:  mu: -0.028666807  nElectrons: 448.500000  magneticMoment: [ Abs: 0.08979  Tot: -0.08685 ]
	SubspaceRotationAdjust: set factor to 1.55
ElecMinimize: Iter:  36  F: -1957.646185912072724  |grad|_K:  1.917e-08  alpha:  1.980e-05  linmin: -3.285e-05  t[s]:   7035.38
	FillingsUpdate:  mu: -0.028666808  nElectrons: 448.500000  magneticMoment: [ Abs: 0.08979  Tot: -0.08685 ]
	SubspaceRotationAdjust: set factor to 1.55
ElecMinimize: Iter:  37  F: -1957.646185912082728  |grad|_K:  1.919e-08  alpha:  4.283e-06  linmin: -6.867e-05  t[s]:   7178.72
ElecMinimize: Converged (|Delta F|<1.000000e-08 for 2 iters).
Setting wave functions to eigenvectors of Hamiltonian
Vacuum energy after initial minimize, F = -1957.646185912082728

	Linear fluid (dielectric constant: 78.4, screening length: 5.74355 Bohr) occupying 0.723847 of unit cell:	Completed after 12 iterations at t[s]:   7211.17

-------- Electronic minimization -----------
	Linear fluid (dielectric constant: 78.4, screening length: 5.74355 Bohr) occupying 0.723847 of unit cell:	Completed after 0 iterations at t[s]:   7244.59
	FillingsUpdate:  mu: -0.145557281  nElectrons: 448.500000  magneticMoment: [ Abs: 0.09688  Tot: -0.09384 ]
ElecMinimize: Iter:   0  F: -1957.680602072547799  |grad|_K:  8.327e-07  alpha:  1.000e+00
	Linear fluid (dielectric constant: 78.4, screening length: 5.74355 Bohr) occupying 0.724637 of unit cell:	Completed after 9 iterations at t[s]:   7355.13
	Linear fluid (dielectric constant: 78.4, screening length: 5.74355 Bohr) occupying 0.724110 of unit cell:	Completed after 8 iterations at t[s]:   7401.19
	FillingsUpdate:  mu: -0.146885979  nElectrons: 448.500000  magneticMoment: [ Abs: 0.10058  Tot: -0.09740 ]
	SubspaceRotationAdjust: set factor to 0.986
ElecMinimize: Iter:   1  F: -1957.680697308512435  |grad|_K:  7.836e-07  alpha:  3.115e-01  linmin:  1.672e-07  t[s]:   7461.73
	Linear fluid (dielectric constant: 78.4, screening length: 5.74355 Bohr) occupying 0.724842 of unit cell:	Completed after 8 iterations at t[s]:   7507.08
	Linear fluid (dielectric constant: 78.4, screening length: 5.74355 Bohr) occupying 0.724946 of unit cell:	Completed after 6 iterations at t[s]:   7553.64
	FillingsUpdate:  mu: -0.145241522  nElectrons: 448.500000  magneticMoment: [ Abs: 0.10884  Tot: -0.10535 ]
	SubspaceRotationAdjust: set factor to 0.568
ElecMinimize: Iter:   2  F: -1957.680794766756435  |grad|_K:  2.921e-07  alpha:  3.574e-01  linmin: -2.811e-06  t[s]:   7614.61
	Linear fluid (dielectric constant: 78.4, screening length: 5.74355 Bohr) occupying 0.725027 of unit cell:	Completed after 2 iterations at t[s]:   7660.27
	Linear fluid (dielectric constant: 78.4, screening length: 5.74355 Bohr) occupying 0.725136 of unit cell:	Completed after 3 iterations at t[s]:   7705.03
	FillingsUpdate:  mu: -0.145549611  nElectrons: 448.500000  magneticMoment: [ Abs: 0.11864  Tot: -0.11472 ]
	SubspaceRotationAdjust: set factor to 0.522
ElecMinimize: Iter:   3  F: -1957.680827323285712  |grad|_K:  3.241e-07  alpha:  8.322e-01  linmin: -8.797e-07  t[s]:   7765.74
	Linear fluid (dielectric constant: 78.4, screening length: 5.74355 Bohr) occupying 0.725425 of unit cell:	Completed after 2 iterations at t[s]:   7811.36
	Linear fluid (dielectric constant: 78.4, screening length: 5.74355 Bohr) occupying 0.725328 of unit cell:	Completed after 2 iterations at t[s]:   7856.17
	FillingsUpdate:  mu: -0.145618260  nElectrons: 448.500000  magneticMoment: [ Abs: 0.12977  Tot: -0.12530 ]
	SubspaceRotationAdjust: set factor to 0.779
ElecMinimize: Iter:   4  F: -1957.680852965669146  |grad|_K:  2.008e-07  alpha:  5.525e-01  linmin: -6.993e-08  t[s]:   7917.07
	Linear fluid (dielectric constant: 78.4, screening length: 5.74355 Bohr) occupying 0.725420 of unit cell:	Completed after 2 iterations at t[s]:   7962.63
	Linear fluid (dielectric constant: 78.4, screening length: 5.74355 Bohr) occupying 0.725453 of unit cell:	Completed after 1 iterations at t[s]:   8007.48
	FillingsUpdate:  mu: -0.145531894  nElectrons: 448.500000  magneticMoment: [ Abs: 0.13995  Tot: -0.13499 ]
	SubspaceRotationAdjust: set factor to 0.838
ElecMinimize: Iter:   5  F: -1957.680866304218625  |grad|_K:  1.394e-07  alpha:  7.501e-01  linmin:  3.972e-07  t[s]:   8067.22
	Linear fluid (dielectric constant: 78.4, screening length: 5.74355 Bohr) occupying 0.725506 of unit cell:	Completed after 6 iterations at t[s]:   8113.61
	Linear fluid (dielectric constant: 78.4, screening length: 5.74355 Bohr) occupying 0.725492 of unit cell:	Completed after 1 iterations at t[s]:   8159.14
	FillingsUpdate:  mu: -0.145190028  nElectrons: 448.500000  magneticMoment: [ Abs: 0.14886  Tot: -0.14358 ]
	SubspaceRotationAdjust: set factor to 0.708
ElecMinimize: Iter:   6  F: -1957.680871015733828  |grad|_K:  1.234e-07  alpha:  5.568e-01  linmin:  4.825e-07  t[s]:   8219.48
	Linear fluid (dielectric constant: 78.4, screening length: 5.74355 Bohr) occupying 0.725453 of unit cell:	Completed after 6 iterations at t[s]:   8265.65
	Linear fluid (dielectric constant: 78.4, screening length: 5.74355 Bohr) occupying 0.725460 of unit cell:	Completed after 0 iterations at t[s]:   8310.52
	FillingsUpdate:  mu: -0.145485318  nElectrons: 448.500000  magneticMoment: [ Abs: 0.15937  Tot: -0.15375 ]
	SubspaceRotationAdjust: set factor to 0.479
ElecMinimize: Iter:   7  F: -1957.680874049148997  |grad|_K:  7.754e-08  alpha:  4.503e-01  linmin:  5.007e-06  t[s]:   8370.46
	Linear fluid (dielectric constant: 78.4, screening length: 5.74355 Bohr) occupying 0.725461 of unit cell:	Completed after 2 iterations at t[s]:   8416.14
	Linear fluid (dielectric constant: 78.4, screening length: 5.74355 Bohr) occupying 0.725461 of unit cell:	Completed after 0 iterations at t[s]:   8460.49
	FillingsUpdate:  mu: -0.145395315  nElectrons: 448.500000  magneticMoment: [ Abs: 0.16806  Tot: -0.16217 ]
	SubspaceRotationAdjust: set factor to 0.476
ElecMinimize: Iter:   8  F: -1957.680875185021023  |grad|_K:  5.181e-08  alpha:  4.553e-01  linmin: -3.121e-05  t[s]:   8520.48
	Linear fluid (dielectric constant: 78.4, screening length: 5.74355 Bohr) occupying 0.725459 of unit cell:	Completed after 2 iterations at t[s]:   8566.08
	Linear fluid (dielectric constant: 78.4, screening length: 5.74355 Bohr) occupying 0.725458 of unit cell:	Completed after 0 iterations at t[s]:   8610.54
	FillingsUpdate:  mu: -0.145385398  nElectrons: 448.500000  magneticMoment: [ Abs: 0.17699  Tot: -0.17078 ]
	SubspaceRotationAdjust: set factor to 0.607
ElecMinimize: Iter:   9  F: -1957.680875958697698  |grad|_K:  3.775e-08  alpha:  5.717e-01  linmin: -1.463e-05  t[s]:   8670.01
	Linear fluid (dielectric constant: 78.4, screening length: 5.74355 Bohr) occupying 0.725455 of unit cell:	Completed after 0 iterations at t[s]:   8715.66
	Linear fluid (dielectric constant: 78.4, screening length: 5.74355 Bohr) occupying 0.725454 of unit cell:	Completed after 1 iterations at t[s]:   8760.71
	FillingsUpdate:  mu: -0.145387394  nElectrons: 448.500000  magneticMoment: [ Abs: 0.19033  Tot: -0.18362 ]
	SubspaceRotationAdjust: set factor to 0.704
ElecMinimize: Iter:  10  F: -1957.680876493163396  |grad|_K:  2.962e-08  alpha:  8.460e-01  linmin:  4.127e-06  t[s]:   8820.82
	Linear fluid (dielectric constant: 78.4, screening length: 5.74355 Bohr) occupying 0.725455 of unit cell:	Completed after 1 iterations at t[s]:   8866.64
	Linear fluid (dielectric constant: 78.4, screening length: 5.74355 Bohr) occupying 0.725455 of unit cell:	Completed after 0 iterations at t[s]:   8910.83
	FillingsUpdate:  mu: -0.145399385  nElectrons: 448.500000  magneticMoment: [ Abs: 0.20122  Tot: -0.19414 ]
	SubspaceRotationAdjust: set factor to 0.844
ElecMinimize: Iter:  11  F: -1957.680876682530197  |grad|_K:  2.727e-08  alpha:  5.460e-01  linmin: -7.049e-07  t[s]:   8970.75
	Linear fluid (dielectric constant: 78.4, screening length: 5.74355 Bohr) occupying 0.725459 of unit cell:	Completed after 0 iterations at t[s]:   9016.62
	Linear fluid (dielectric constant: 78.4, screening length: 5.74355 Bohr) occupying 0.725461 of unit cell:	Completed after 1 iterations at t[s]:   9061.35
	FillingsUpdate:  mu: -0.145384830  nElectrons: 448.500000  magneticMoment: [ Abs: 0.22491  Tot: -0.21707 ]
	SubspaceRotationAdjust: set factor to 1.05
ElecMinimize: Iter:  12  F: -1957.680876920825767  |grad|_K:  3.000e-08  alpha:  8.045e-01  linmin:  2.936e-06  t[s]:   9121.54
	Linear fluid (dielectric constant: 78.4, screening length: 5.74355 Bohr) occupying 0.725468 of unit cell:	Completed after 2 iterations at t[s]:   9167.09
	Linear fluid (dielectric constant: 78.4, screening length: 5.74355 Bohr) occupying 0.725466 of unit cell:	Completed after 0 iterations at t[s]:   9211.41
	FillingsUpdate:  mu: -0.145325877  nElectrons: 448.500000  magneticMoment: [ Abs: 0.25566  Tot: -0.24686 ]
	SubspaceRotationAdjust: set factor to 0.871
ElecMinimize: Iter:  13  F: -1957.680877124191511  |grad|_K:  5.292e-08  alpha:  5.882e-01  linmin: -7.454e-07  t[s]:   9271.28
	Linear fluid (dielectric constant: 78.4, screening length: 5.74355 Bohr) occupying 0.725460 of unit cell:	Completed after 1 iterations at t[s]:   9317.24
	Linear fluid (dielectric constant: 78.4, screening length: 5.74355 Bohr) occupying 0.725462 of unit cell:	Completed after 0 iterations at t[s]:   9361.48
	FillingsUpdate:  mu: -0.145336010  nElectrons: 448.500000  magneticMoment: [ Abs: 0.33430  Tot: -0.32314 ]
	SubspaceRotationAdjust: set factor to 1.01
ElecMinimize: Iter:  14  F: -1957.680877649527702  |grad|_K:  6.237e-08  alpha:  4.232e-01  linmin:  2.936e-06  t[s]:   9421.29
	Linear fluid (dielectric constant: 78.4, screening length: 5.74355 Bohr) occupying 0.725441 of unit cell:	Completed after 2 iterations at t[s]:   9467.70
	Linear fluid (dielectric constant: 78.4, screening length: 5.74355 Bohr) occupying 0.725399 of unit cell:	Completed after 3 iterations at t[s]:   9512.97
	FillingsUpdate:  mu: -0.145523124  nElectrons: 448.500000  magneticMoment: [ Abs: 0.69020  Tot: -0.66904 ]
	SubspaceRotationAdjust: set factor to 1.05
ElecMinimize: Iter:  15  F: -1957.680879405982978  |grad|_K:  1.721e-07  alpha:  1.261e+00  linmin:  1.951e-05  t[s]:   9573.96
	Linear fluid (dielectric constant: 78.4, screening length: 5.74355 Bohr) occupying 0.698728 of unit cell:	Completed after 9 iterations at t[s]:   9622.58
	Linear fluid (dielectric constant: 78.4, screening length: 5.74355 Bohr) occupying 0.725399 of unit cell:	Completed after 11 iterations at t[s]:   9671.16
ElecMinimize: 	Step increased F by 6.443588e-08, reducing alpha to 1.050748e-06.
	Linear fluid (dielectric constant: 78.4, screening length: 5.74355 Bohr) occupying 0.725399 of unit cell:	Completed after 0 iterations at t[s]:   9772.71
ElecMinimize: 	Step increased F by 6.455548e-08, reducing alpha to 1.050748e-07.
	Linear fluid (dielectric constant: 78.4, screening length: 5.74355 Bohr) occupying 0.725399 of unit cell:	Completed after 0 iterations at t[s]:   9871.57
ElecMinimize: 	Step increased F by 6.453365e-08, reducing alpha to 1.050748e-08.
ElecMinimize: 	Step failed to reduce F after 3 attempts. Quitting step.
ElecMinimize: 	Undoing step.
	Linear fluid (dielectric constant: 78.4, screening length: 5.74355 Bohr) occupying 0.725399 of unit cell:	Completed after 0 iterations at t[s]:   9971.88
ElecMinimize: 	Step failed: resetting search direction.
	FillingsUpdate:  mu: -0.145564335  nElectrons: 448.500000  magneticMoment: [ Abs: 0.69020  Tot: -0.66904 ]
	SubspaceRotationAdjust: set factor to 1.14
ElecMinimize: Iter:  16  F: -1957.680879341434547  |grad|_K:  1.748e-07  alpha:  1.051e-08
	Linear fluid (dielectric constant: 78.4, screening length: 5.74355 Bohr) occupying 0.725508 of unit cell:	Completed after 8 iterations at t[s]:  10079.92
	Linear fluid (dielectric constant: 78.4, screening length: 5.74355 Bohr) occupying 0.725427 of unit cell:	Completed after 8 iterations at t[s]:  10127.86
	FillingsUpdate:  mu: -0.145243238  nElectrons: 448.500000  magneticMoment: [ Abs: 0.71038  Tot: -0.68844 ]
	SubspaceRotationAdjust: set factor to 0.872
ElecMinimize: Iter:  17  F: -1957.680883765006683  |grad|_K:  1.293e-07  alpha:  3.312e-01  linmin:  4.785e-06  t[s]:  10189.59
	Linear fluid (dielectric constant: 78.4, screening length: 5.74355 Bohr) occupying 0.725409 of unit cell:	Completed after 2 iterations at t[s]:  10236.80
	Linear fluid (dielectric constant: 78.4, screening length: 5.74355 Bohr) occupying 0.725390 of unit cell:	Completed after 3 iterations at t[s]:  10283.18
	FillingsUpdate:  mu: -0.145498188  nElectrons: 448.500000  magneticMoment: [ Abs: 0.78275  Tot: -0.75819 ]
	SubspaceRotationAdjust: set factor to 0.795
ElecMinimize: Iter:  18  F: -1957.680889029030141  |grad|_K:  1.202e-07  alpha:  7.162e-01  linmin: -2.172e-06  t[s]:  10343.97
	Linear fluid (dielectric constant: 78.4, screening length: 5.74355 Bohr) occupying 0.725408 of unit cell:	Completed after 2 iterations at t[s]:  10390.73
	Linear fluid (dielectric constant: 78.4, screening length: 5.74355 Bohr) occupying 0.725409 of unit cell:	Completed after 0 iterations at t[s]:  10435.30
	FillingsUpdate:  mu: -0.145392663  nElectrons: 448.500000  magneticMoment: [ Abs: 0.89272  Tot: -0.86384 ]
	SubspaceRotationAdjust: set factor to 0.904
ElecMinimize: Iter:  19  F: -1957.680893959290188  |grad|_K:  1.333e-07  alpha:  7.569e-01  linmin: -4.371e-06  t[s]:  10496.15
	Linear fluid (dielectric constant: 78.4, screening length: 5.74355 Bohr) occupying 0.725446 of unit cell:	Completed after 2 iterations at t[s]:  10543.42
	Linear fluid (dielectric constant: 78.4, screening length: 5.74355 Bohr) occupying 0.725449 of unit cell:	Completed after 0 iterations at t[s]:  10588.26
	FillingsUpdate:  mu: -0.145330101  nElectrons: 448.500000  magneticMoment: [ Abs: 1.08890  Tot: -1.05207 ]
	SubspaceRotationAdjust: set factor to 1.05
ElecMinimize: Iter:  20  F: -1957.680900610313756  |grad|_K:  1.640e-07  alpha:  8.181e-01  linmin: -5.100e-06  t[s]:  10649.31
	Linear fluid (dielectric constant: 78.4, screening length: 5.74355 Bohr) occupying 0.725503 of unit cell:	Completed after 3 iterations at t[s]:  10695.98
ElecMinimize: 	Predicted alpha/alphaT>3.000000, increasing alphaT to 2.454321e+00.
	Linear fluid (dielectric constant: 78.4, screening length: 5.74355 Bohr) occupying 0.725615 of unit cell:	Completed after 2 iterations at t[s]:  10742.02
ElecMinimize: 	Predicted alpha/alphaT>3.000000, increasing alphaT to 7.362962e+00.
	Linear fluid (dielectric constant: 78.4, screening length: 5.74355 Bohr) occupying 0.627715 of unit cell:	Completed after 7 iterations at t[s]:  10787.49
	Linear fluid (dielectric constant: 78.4, screening length: 5.74355 Bohr) occupying 0.725449 of unit cell:	Completed after 10 iterations at t[s]:  10834.46
ElecMinimize: 	Step increased F by 3.002128e-08, reducing alpha to 1.694556e-04.
	Linear fluid (dielectric constant: 78.4, screening length: 5.74355 Bohr) occupying 0.725449 of unit cell:	Completed after 0 iterations at t[s]:  10936.10
ElecMinimize: 	Step increased F by 6.678010e-08, reducing alpha to 1.694556e-05.
	Linear fluid (dielectric constant: 78.4, screening length: 5.74355 Bohr) occupying 0.725449 of unit cell:	Completed after 0 iterations at t[s]:  11036.22
ElecMinimize: 	Step increased F by 7.053245e-08, reducing alpha to 1.694556e-06.
ElecMinimize: 	Step failed to reduce F after 3 attempts. Quitting step.
ElecMinimize: 	Undoing step.
	Linear fluid (dielectric constant: 78.4, screening length: 5.74355 Bohr) occupying 0.725449 of unit cell:	Completed after 0 iterations at t[s]:  11134.85
ElecMinimize: 	Step failed: resetting search direction.
	FillingsUpdate:  mu: -0.145248972  nElectrons: 448.500000  magneticMoment: [ Abs: 1.08891  Tot: -1.05208 ]
	SubspaceRotationAdjust: set factor to 1.34
ElecMinimize: Iter:  21  F: -1957.680900539693766  |grad|_K:  1.765e-07  alpha:  1.695e-06
	Linear fluid (dielectric constant: 78.4, screening length: 5.74355 Bohr) occupying 0.725413 of unit cell:	Completed after 6 iterations at t[s]:  11242.10
	Linear fluid (dielectric constant: 78.4, screening length: 5.74355 Bohr) occupying 0.725430 of unit cell:	Completed after 3 iterations at t[s]:  11288.59
	FillingsUpdate:  mu: -0.145551135  nElectrons: 448.500000  magneticMoment: [ Abs: 1.13062  Tot: -1.09247 ]
	SubspaceRotationAdjust: set factor to 0.919
ElecMinimize: Iter:  22  F: -1957.680906343650804  |grad|_K:  1.654e-07  alpha:  4.239e-01  linmin:  4.332e-06  t[s]:  11349.91
	Linear fluid (dielectric constant: 78.4, screening length: 5.74355 Bohr) occupying 0.725473 of unit cell:	Completed after 5 iterations at t[s]:  11397.54
	Linear fluid (dielectric constant: 78.4, screening length: 5.74355 Bohr) occupying 0.725485 of unit cell:	Completed after 2 iterations at t[s]:  11443.51
	FillingsUpdate:  mu: -0.145210502  nElectrons: 448.500000  magneticMoment: [ Abs: 1.24808  Tot: -1.20659 ]
	SubspaceRotationAdjust: set factor to 0.889
ElecMinimize: Iter:  23  F: -1957.680912910805091  |grad|_K:  1.817e-07  alpha:  5.431e-01  linmin: -3.984e-06  t[s]:  11504.32
	Linear fluid (dielectric constant: 78.4, screening length: 5.74355 Bohr) occupying 0.725512 of unit cell:	Completed after 3 iterations at t[s]:  11551.28
	Linear fluid (dielectric constant: 78.4, screening length: 5.74355 Bohr) occupying 0.725490 of unit cell:	Completed after 1 iterations at t[s]:  11598.64
	FillingsUpdate:  mu: -0.145223047  nElectrons: 448.500000  magneticMoment: [ Abs: 1.29205  Tot: -1.24925 ]
	SubspaceRotationAdjust: set factor to 0.924
ElecMinimize: Iter:  24  F: -1957.680916361945719  |grad|_K:  1.638e-07  alpha:  1.228e-01  linmin: -1.001e-04  t[s]:  11658.97
	Linear fluid (dielectric constant: 78.4, screening length: 5.74355 Bohr) occupying 0.725486 of unit cell:	Completed after 2 iterations at t[s]:  11706.21
ElecMinimize: 	Predicted alpha/alphaT>3.000000, increasing alphaT to 3.685160e-01.
	Linear fluid (dielectric constant: 78.4, screening length: 5.74355 Bohr) occupying 0.725477 of unit cell:	Completed after 3 iterations at t[s]:  11751.70
	Linear fluid (dielectric constant: 78.4, screening length: 5.74355 Bohr) occupying 0.725475 of unit cell:	Completed after 3 iterations at t[s]:  11797.58
	FillingsUpdate:  mu: -0.145580372  nElectrons: 448.500000  magneticMoment: [ Abs: 1.45585  Tot: -1.40795 ]
	SubspaceRotationAdjust: set factor to 0.923
ElecMinimize: Iter:  25  F: -1957.680925614536818  |grad|_K:  2.393e-07  alpha:  4.224e-01  linmin:  1.298e-05  t[s]:  11858.64
	Linear fluid (dielectric constant: 78.4, screening length: 5.74355 Bohr) occupying 0.725405 of unit cell:	Completed after 6 iterations at t[s]:  11905.74
	Linear fluid (dielectric constant: 78.4, screening length: 5.74355 Bohr) occupying 0.725475 of unit cell:	Completed after 5 iterations at t[s]:  11953.12
	FillingsUpdate:  mu: -0.145612658  nElectrons: 448.500000  magneticMoment: [ Abs: 1.46337  Tot: -1.41523 ]
	SubspaceRotationAdjust: set factor to 0.922
ElecMinimize: Iter:  26  F: -1957.680925966950099  |grad|_K:  2.404e-07  alpha:  7.983e-03  linmin: -2.083e-04  t[s]:  12014.43
	Linear fluid (dielectric constant: 78.4, screening length: 5.74355 Bohr) occupying 0.725476 of unit cell:	Completed after 0 iterations at t[s]:  12061.16
ElecMinimize: 	Predicted alpha/alphaT>3.000000, increasing alphaT to 2.394791e-02.
	Linear fluid (dielectric constant: 78.4, screening length: 5.74355 Bohr) occupying 0.725479 of unit cell:	Completed after 0 iterations at t[s]:  12105.67
ElecMinimize: 	Predicted alpha/alphaT>3.000000, increasing alphaT to 7.184373e-02.
	Linear fluid (dielectric constant: 78.4, screening length: 5.74355 Bohr) occupying 0.725485 of unit cell:	Completed after 1 iterations at t[s]:  12151.58
ElecMinimize: 	Predicted alpha/alphaT>3.000000, increasing alphaT to 2.155312e-01.
	Linear fluid (dielectric constant: 78.4, screening length: 5.74355 Bohr) occupying 0.725565 of unit cell:	Completed after 6 iterations at t[s]:  12197.83
	FillingsUpdate:  mu: -0.144995452  nElectrons: 448.500000  magneticMoment: [ Abs: 2.15176  Tot: -2.08186 ]
	SubspaceRotationAdjust: set factor to 0.934
ElecMinimize: Iter:  27  F: -1957.680957262931997  |grad|_K:  4.982e-07  alpha:  6.469e-01  linmin: -2.783e-06  t[s]:  12259.98
	Linear fluid (dielectric constant: 78.4, screening length: 5.74355 Bohr) occupying 0.725853 of unit cell:	Completed after 8 iterations at t[s]:  12306.62
	Linear fluid (dielectric constant: 78.4, screening length: 5.74355 Bohr) occupying 0.725808 of unit cell:	Completed after 5 iterations at t[s]:  12354.10
	FillingsUpdate:  mu: -0.143335904  nElectrons: 448.500000  magneticMoment: [ Abs: 4.78749  Tot: -4.63463 ]
	SubspaceRotationAdjust: set factor to 1.01
ElecMinimize: Iter:  28  F: -1957.681021023554877  |grad|_K:  1.719e-06  alpha:  5.588e-01  linmin:  2.831e-05  t[s]:  12415.65
	Linear fluid (dielectric constant: 78.4, screening length: 5.74355 Bohr) occupying 0.731196 of unit cell:	Completed after 11 iterations at t[s]:  12463.96
	Linear fluid (dielectric constant: 78.4, screening length: 5.74355 Bohr) occupying 0.725824 of unit cell:	Completed after 10 iterations at t[s]:  12511.89
	FillingsUpdate:  mu: -0.143263900  nElectrons: 448.500000  magneticMoment: [ Abs: 4.96438  Tot: -4.80599 ]
	SubspaceRotationAdjust: set factor to 1.33
ElecMinimize: Iter:  29  F: -1957.681028589437801  |grad|_K:  1.806e-06  alpha:  3.148e-03  linmin: -2.746e-04  t[s]:  12574.62
	Linear fluid (dielectric constant: 78.4, screening length: 5.74355 Bohr) occupying 0.725837 of unit cell:	Completed after 2 iterations at t[s]:  12620.68
ElecMinimize: 	Wrong curvature in test step, increasing alphaT to 9.444517e-03.
	Linear fluid (dielectric constant: 78.4, screening length: 5.74355 Bohr) occupying 0.725837 of unit cell:	Completed after 0 iterations at t[s]:  12654.91
	FillingsUpdate:  mu: -0.143204274  nElectrons: 448.500000  magneticMoment: [ Abs: 5.16056  Tot: -4.99603 ]
	SubspaceRotationAdjust: set factor to 1.73
ElecMinimize: Iter:  30  F: -1957.681046160035294  |grad|_K:  1.946e-06  alpha: -1.184e-01  linmin: -4.861e-04  t[s]:  12715.78
	Linear fluid (dielectric constant: 78.4, screening length: 5.74355 Bohr) occupying 0.731404 of unit cell:	Completed after 12 iterations at t[s]:  12764.63
	Linear fluid (dielectric constant: 78.4, screening length: 5.74355 Bohr) occupying 0.725870 of unit cell:	Completed after 11 iterations at t[s]:  12812.91
	FillingsUpdate:  mu: -0.143037267  nElectrons: 448.500000  magneticMoment: [ Abs: 5.78686  Tot: -5.60274 ]
	SubspaceRotationAdjust: set factor to 1.97
ElecMinimize: Iter:  31  F: -1957.681135344023687  |grad|_K:  2.156e-06  alpha:  8.619e-03  linmin: -6.278e-04  t[s]:  12875.18
	Linear fluid (dielectric constant: 78.4, screening length: 5.74355 Bohr) occupying 0.725897 of unit cell:	Completed after 2 iterations at t[s]:  12921.94
ElecMinimize: 	Wrong curvature in test step, increasing alphaT to 2.585597e-02.
	Linear fluid (dielectric constant: 78.4, screening length: 5.74355 Bohr) occupying 0.725897 of unit cell:	Completed after 0 iterations at t[s]:  12956.31
	FillingsUpdate:  mu: -0.142986795  nElectrons: 448.500000  magneticMoment: [ Abs: 6.55831  Tot: -6.35014 ]
	SubspaceRotationAdjust: set factor to 2.2
ElecMinimize: Iter:  32  F: -1957.681290235619144  |grad|_K:  2.249e-06  alpha: -1.133e-01  linmin: -7.201e-04  t[s]:  13017.46
	Linear fluid (dielectric constant: 78.4, screening length: 5.74355 Bohr) occupying 0.723540 of unit cell:	Completed after 10 iterations at t[s]:  13065.70
	Linear fluid (dielectric constant: 78.4, screening length: 5.74355 Bohr) occupying 0.725933 of unit cell:	Completed after 11 iterations at t[s]:  13115.72
	FillingsUpdate:  mu: -0.142996530  nElectrons: 448.500000  magneticMoment: [ Abs: 8.08546  Tot: -7.82979 ]
	SubspaceRotationAdjust: set factor to 2.7
ElecMinimize: Iter:  33  F: -1957.681690667440080  |grad|_K:  2.228e-06  alpha:  1.569e-02  linmin: -7.819e-04  t[s]:  13179.78
	Linear fluid (dielectric constant: 78.4, screening length: 5.74355 Bohr) occupying 0.725956 of unit cell:	Completed after 2 iterations at t[s]:  13226.70
ElecMinimize: 	Predicted alpha/alphaT>3.000000, increasing alphaT to 4.706993e-02.
	Linear fluid (dielectric constant: 78.4, screening length: 5.74355 Bohr) occupying 0.726062 of unit cell:	Completed after 4 iterations at t[s]:  13271.65
ElecMinimize: 	Predicted alpha/alphaT>3.000000, increasing alphaT to 1.412098e-01.
	Linear fluid (dielectric constant: 78.4, screening length: 5.74355 Bohr) occupying 0.726754 of unit cell:	Completed after 8 iterations at t[s]:  13318.19
	Linear fluid (dielectric constant: 78.4, screening length: 5.74355 Bohr) occupying 0.726315 of unit cell:	Completed after 8 iterations at t[s]:  13365.32
	FillingsUpdate:  mu: -0.142744893  nElectrons: 448.500000  magneticMoment: [ Abs: 16.19348  Tot: -15.67898 ]
	SubspaceRotationAdjust: set factor to 2.59
ElecMinimize: Iter:  34  F: -1957.683515563670198  |grad|_K:  2.950e-06  alpha:  8.961e-02  linmin:  1.013e-05  t[s]:  13426.86
	Linear fluid (dielectric constant: 78.4, screening length: 5.74355 Bohr) occupying 0.727965 of unit cell:	Completed after 11 iterations at t[s]:  13474.92
	Linear fluid (dielectric constant: 78.4, screening length: 5.74355 Bohr) occupying 0.726353 of unit cell:	Completed after 10 iterations at t[s]:  13523.63
	FillingsUpdate:  mu: -0.142623315  nElectrons: 448.500000  magneticMoment: [ Abs: 16.57852  Tot: -16.05070 ]
	SubspaceRotationAdjust: set factor to 3.19
ElecMinimize: Iter:  35  F: -1957.683531393138765  |grad|_K:  3.002e-06  alpha:  2.607e-03  linmin: -4.171e-05  t[s]:  13586.02
	Linear fluid (dielectric constant: 78.4, screening length: 5.74355 Bohr) occupying 0.726398 of unit cell:	Completed after 6 iterations at t[s]:  13632.97
	Linear fluid (dielectric constant: 78.4, screening length: 5.74355 Bohr) occupying 0.726454 of unit cell:	Completed after 6 iterations at t[s]:  13680.78
	FillingsUpdate:  mu: -0.142185163  nElectrons: 448.500000  magneticMoment: [ Abs: 17.44847  Tot: -16.88931 ]
	SubspaceRotationAdjust: set factor to 3.41
ElecMinimize: Iter:  36  F: -1957.683563982724991  |grad|_K:  3.258e-06  alpha:  5.732e-03  linmin:  5.783e-06  t[s]:  13742.92
	Linear fluid (dielectric constant: 78.4, screening length: 5.74355 Bohr) occupying 0.726594 of unit cell:	Completed after 7 iterations at t[s]:  13789.87
	Linear fluid (dielectric constant: 78.4, screening length: 5.74355 Bohr) occupying 0.726522 of unit cell:	Completed after 6 iterations at t[s]:  13836.93
	FillingsUpdate:  mu: -0.141838918  nElectrons: 448.500000  magneticMoment: [ Abs: 17.94536  Tot: -17.36746 ]
	SubspaceRotationAdjust: set factor to 3.53
ElecMinimize: Iter:  37  F: -1957.683576597431056  |grad|_K:  3.343e-06  alpha:  2.811e-03  linmin: -6.553e-07  t[s]:  13898.61
	Linear fluid (dielectric constant: 78.4, screening length: 5.74355 Bohr) occupying 0.726602 of unit cell:	Completed after 7 iterations at t[s]:  13945.55
	Linear fluid (dielectric constant: 78.4, screening length: 5.74355 Bohr) occupying 0.726601 of unit cell:	Completed after 0 iterations at t[s]:  13992.33
	FillingsUpdate:  mu: -0.141414415  nElectrons: 448.500000  magneticMoment: [ Abs: 18.45595  Tot: -17.85794 ]
	SubspaceRotationAdjust: set factor to 3.65
ElecMinimize: Iter:  38  F: -1957.683590354520675  |grad|_K:  3.359e-06  alpha:  2.765e-03  linmin:  1.387e-06  t[s]:  14053.83
	Linear fluid (dielectric constant: 78.4, screening length: 5.74355 Bohr) occupying 0.726689 of unit cell:	Completed after 6 iterations at t[s]:  14101.22
	Linear fluid (dielectric constant: 78.4, screening length: 5.74355 Bohr) occupying 0.726680 of unit cell:	Completed after 0 iterations at t[s]:  14147.26
	FillingsUpdate:  mu: -0.140927003  nElectrons: 448.500000  magneticMoment: [ Abs: 18.91613  Tot: -18.29916 ]
	SubspaceRotationAdjust: set factor to 3.81
ElecMinimize: Iter:  39  F: -1957.683602659238204  |grad|_K:  3.339e-06  alpha:  2.491e-03  linmin:  3.548e-06  t[s]:  14208.37
	Linear fluid (dielectric constant: 78.4, screening length: 5.74355 Bohr) occupying 0.726765 of unit cell:	Completed after 6 iterations at t[s]:  14255.76
	Linear fluid (dielectric constant: 78.4, screening length: 5.74355 Bohr) occupying 0.726761 of unit cell:	Completed after 0 iterations at t[s]:  14301.57
	FillingsUpdate:  mu: -0.140473646  nElectrons: 448.500000  magneticMoment: [ Abs: 19.34509  Tot: -18.70964 ]
	SubspaceRotationAdjust: set factor to 4
ElecMinimize: Iter:  40  F: -1957.683613972738613  |grad|_K:  3.313e-06  alpha:  2.372e-03  linmin:  4.410e-06  t[s]:  14361.84
	Linear fluid (dielectric constant: 78.4, screening length: 5.74355 Bohr) occupying 0.726845 of unit cell:	Completed after 6 iterations at t[s]:  14408.83
	Linear fluid (dielectric constant: 78.4, screening length: 5.74355 Bohr) occupying 0.726837 of unit cell:	Completed after 0 iterations at t[s]:  14453.68
	FillingsUpdate:  mu: -0.139984361  nElectrons: 448.500000  magneticMoment: [ Abs: 19.72211  Tot: -19.06966 ]
	SubspaceRotationAdjust: set factor to 4.22
ElecMinimize: Iter:  41  F: -1957.683623975798582  |grad|_K:  3.271e-06  alpha:  2.139e-03  linmin:  4.934e-06  t[s]:  14514.32
	Linear fluid (dielectric constant: 78.4, screening length: 5.74355 Bohr) occupying 0.726914 of unit cell:	Completed after 6 iterations at t[s]:  14561.59
	Linear fluid (dielectric constant: 78.4, screening length: 5.74355 Bohr) occupying 0.726912 of unit cell:	Completed after 0 iterations at t[s]:  14607.66
	FillingsUpdate:  mu: -0.139546255  nElectrons: 448.500000  magneticMoment: [ Abs: 20.07566  Tot: -19.40650 ]
	SubspaceRotationAdjust: set factor to 4.46
ElecMinimize: Iter:  42  F: -1957.683633373193061  |grad|_K:  3.233e-06  alpha:  2.078e-03  linmin:  4.476e-06  t[s]:  14669.03
	Linear fluid (dielectric constant: 78.4, screening length: 5.74355 Bohr) occupying 0.726988 of unit cell:	Completed after 6 iterations at t[s]:  14715.97
	Linear fluid (dielectric constant: 78.4, screening length: 5.74355 Bohr) occupying 0.726981 of unit cell:	Completed after 1 iterations at t[s]:  14762.85
	FillingsUpdate:  mu: -0.139095746  nElectrons: 448.500000  magneticMoment: [ Abs: 20.38633  Tot: -19.70177 ]
	SubspaceRotationAdjust: set factor to 4.71
ElecMinimize: Iter:  43  F: -1957.683641760824230  |grad|_K:  3.192e-06  alpha:  1.889e-03  linmin:  2.893e-06  t[s]:  14823.80
	Linear fluid (dielectric constant: 78.4, screening length: 5.74355 Bohr) occupying 0.727049 of unit cell:	Completed after 6 iterations at t[s]:  14870.72
	Linear fluid (dielectric constant: 78.4, screening length: 5.74355 Bohr) occupying 0.727048 of unit cell:	Completed after 0 iterations at t[s]:  14917.05
	FillingsUpdate:  mu: -0.138678319  nElectrons: 448.500000  magneticMoment: [ Abs: 20.67934  Tot: -19.97955 ]
	SubspaceRotationAdjust: set factor to 4.94
ElecMinimize: Iter:  44  F: -1957.683649886954981  |grad|_K:  3.151e-06  alpha:  1.849e-03  linmin:  2.639e-06  t[s]:  14978.29
	Linear fluid (dielectric constant: 78.4, screening length: 5.74355 Bohr) occupying 0.727112 of unit cell:	Completed after 5 iterations at t[s]:  15025.45
	Linear fluid (dielectric constant: 78.4, screening length: 5.74355 Bohr) occupying 0.727109 of unit cell:	Completed after 0 iterations at t[s]:  15071.18
	FillingsUpdate:  mu: -0.138266780  nElectrons: 448.500000  magneticMoment: [ Abs: 20.94576  Tot: -20.23144 ]
	SubspaceRotationAdjust: set factor to 5.13
ElecMinimize: Iter:  45  F: -1957.683657401003984  |grad|_K:  3.112e-06  alpha:  1.748e-03  linmin:  2.839e-06  t[s]:  15131.45
	Linear fluid (dielectric constant: 78.4, screening length: 5.74355 Bohr) occupying 0.727166 of unit cell:	Completed after 5 iterations at t[s]:  15178.81
	Linear fluid (dielectric constant: 78.4, screening length: 5.74355 Bohr) occupying 0.727166 of unit cell:	Completed after 0 iterations at t[s]:  15223.87
	FillingsUpdate:  mu: -0.137915121  nElectrons: 448.500000  magneticMoment: [ Abs: 21.19798  Tot: -20.46922 ]
	SubspaceRotationAdjust: set factor to 5.29
ElecMinimize: Iter:  46  F: -1957.683664602551289  |grad|_K:  3.071e-06  alpha:  1.722e-03  linmin:  2.330e-06  t[s]:  15284.50
	Linear fluid (dielectric constant: 78.4, screening length: 5.74355 Bohr) occupying 0.727218 of unit cell:	Completed after 6 iterations at t[s]:  15331.77
	Linear fluid (dielectric constant: 78.4, screening length: 5.74355 Bohr) occupying 0.727216 of unit cell:	Completed after 0 iterations at t[s]:  15377.47
	FillingsUpdate:  mu: -0.137565988  nElectrons: 448.500000  magneticMoment: [ Abs: 21.42875  Tot: -20.68611 ]
	SubspaceRotationAdjust: set factor to 5.38
ElecMinimize: Iter:  47  F: -1957.683671333013763  |grad|_K:  3.035e-06  alpha:  1.645e-03  linmin:  1.552e-06  t[s]:  15438.11
	Linear fluid (dielectric constant: 78.4, screening length: 5.74355 Bohr) occupying 0.727261 of unit cell:	Completed after 6 iterations at t[s]:  15485.49
	Linear fluid (dielectric constant: 78.4, screening length: 5.74355 Bohr) occupying 0.727261 of unit cell:	Completed after 0 iterations at t[s]:  15531.75
	FillingsUpdate:  mu: -0.137274949  nElectrons: 448.500000  magneticMoment: [ Abs: 21.65133  Tot: -20.89463 ]
	SubspaceRotationAdjust: set factor to 5.45
ElecMinimize: Iter:  48  F: -1957.683677985196255  |grad|_K:  2.989e-06  alpha:  1.656e-03  linmin:  9.569e-07  t[s]:  15591.44
	Linear fluid (dielectric constant: 78.4, screening length: 5.74355 Bohr) occupying 0.727301 of unit cell:	Completed after 5 iterations at t[s]:  15638.39
	Linear fluid (dielectric constant: 78.4, screening length: 5.74355 Bohr) occupying 0.727300 of unit cell:	Completed after 0 iterations at t[s]:  15683.91
	FillingsUpdate:  mu: -0.137010282  nElectrons: 448.500000  magneticMoment: [ Abs: 21.85774  Tot: -21.08735 ]
	SubspaceRotationAdjust: set factor to 5.47
ElecMinimize: Iter:  49  F: -1957.683684317738425  |grad|_K:  2.945e-06  alpha:  1.617e-03  linmin:  2.583e-07  t[s]:  15745.28
	Linear fluid (dielectric constant: 78.4, screening length: 5.74355 Bohr) occupying 0.727331 of unit cell:	Completed after 2 iterations at t[s]:  15791.56
	Linear fluid (dielectric constant: 78.4, screening length: 5.74355 Bohr) occupying 0.727332 of unit cell:	Completed after 0 iterations at t[s]:  15837.02
	FillingsUpdate:  mu: -0.136852365  nElectrons: 448.500000  magneticMoment: [ Abs: 22.05843  Tot: -21.27405 ]
	SubspaceRotationAdjust: set factor to 5.54
ElecMinimize: Iter:  50  F: -1957.683690659951253  |grad|_K:  2.883e-06  alpha:  1.658e-03  linmin: -3.364e-07  t[s]:  15897.61
	Linear fluid (dielectric constant: 78.4, screening length: 5.74355 Bohr) occupying 0.727358 of unit cell:	Completed after 5 iterations at t[s]:  15944.22
	Linear fluid (dielectric constant: 78.4, screening length: 5.74355 Bohr) occupying 0.727357 of unit cell:	Completed after 0 iterations at t[s]:  15990.05
	FillingsUpdate:  mu: -0.136619601  nElectrons: 448.500000  magneticMoment: [ Abs: 22.23796  Tot: -21.44041 ]
	SubspaceRotationAdjust: set factor to 5.53
ElecMinimize: Iter:  51  F: -1957.683696501753047  |grad|_K:  2.852e-06  alpha:  1.590e-03  linmin: -2.640e-06  t[s]:  16051.05
	Linear fluid (dielectric constant: 78.4, screening length: 5.74355 Bohr) occupying 0.727374 of unit cell:	Completed after 2 iterations at t[s]:  16097.15
	Linear fluid (dielectric constant: 78.4, screening length: 5.74355 Bohr) occupying 0.727375 of unit cell:	Completed after 0 iterations at t[s]:  16142.51
	FillingsUpdate:  mu: -0.136527553  nElectrons: 448.500000  magneticMoment: [ Abs: 22.41988  Tot: -21.60827 ]
	SubspaceRotationAdjust: set factor to 5.59
ElecMinimize: Iter:  52  F: -1957.683702732869961  |grad|_K:  2.783e-06  alpha:  1.695e-03  linmin: -6.641e-07  t[s]:  16203.83
	Linear fluid (dielectric constant: 78.4, screening length: 5.74355 Bohr) occupying 0.727387 of unit cell:	Completed after 2 iterations at t[s]:  16250.07
	Linear fluid (dielectric constant: 78.4, screening length: 5.74355 Bohr) occupying 0.727386 of unit cell:	Completed after 0 iterations at t[s]:  16295.08
	FillingsUpdate:  mu: -0.136442941  nElectrons: 448.500000  magneticMoment: [ Abs: 22.58284  Tot: -21.75796 ]
	SubspaceRotationAdjust: set factor to 5.67
ElecMinimize: Iter:  53  F: -1957.683708402978709  |grad|_K:  2.734e-06  alpha:  1.649e-03  linmin: -1.165e-06  t[s]:  16355.50
	Linear fluid (dielectric constant: 78.4, screening length: 5.74355 Bohr) occupying 0.727391 of unit cell:	Completed after 2 iterations at t[s]:  16402.75
	Linear fluid (dielectric constant: 78.4, screening length: 5.74355 Bohr) occupying 0.727391 of unit cell:	Completed after 0 iterations at t[s]:  16448.69
	FillingsUpdate:  mu: -0.136392764  nElectrons: 448.500000  magneticMoment: [ Abs: 22.73846  Tot: -21.90023 ]
	SubspaceRotationAdjust: set factor to 5.77
ElecMinimize: Iter:  54  F: -1957.683714051549032  |grad|_K:  2.684e-06  alpha:  1.693e-03  linmin: -7.033e-07  t[s]:  16508.89
	Linear fluid (dielectric constant: 78.4, screening length: 5.74355 Bohr) occupying 0.727389 of unit cell:	Completed after 2 iterations at t[s]:  16555.75
	Linear fluid (dielectric constant: 78.4, screening length: 5.74355 Bohr) occupying 0.727389 of unit cell:	Completed after 0 iterations at t[s]:  16600.49
	FillingsUpdate:  mu: -0.136377045  nElectrons: 448.500000  magneticMoment: [ Abs: 22.88132  Tot: -22.03014 ]
	SubspaceRotationAdjust: set factor to 5.87
ElecMinimize: Iter:  55  F: -1957.683719433207216  |grad|_K:  2.640e-06  alpha:  1.681e-03  linmin: -9.751e-07  t[s]:  16661.18
	Linear fluid (dielectric constant: 78.4, screening length: 5.74355 Bohr) occupying 0.727380 of unit cell:	Completed after 3 iterations at t[s]:  16707.66
	Linear fluid (dielectric constant: 78.4, screening length: 5.74355 Bohr) occupying 0.727380 of unit cell:	Completed after 0 iterations at t[s]:  16753.17
	FillingsUpdate:  mu: -0.136396971  nElectrons: 448.500000  magneticMoment: [ Abs: 23.01357  Tot: -22.14970 ]
	SubspaceRotationAdjust: set factor to 5.97
ElecMinimize: Iter:  56  F: -1957.683724665483169  |grad|_K:  2.601e-06  alpha:  1.684e-03  linmin: -9.124e-07  t[s]:  16814.46
	Linear fluid (dielectric constant: 78.4, screening length: 5.74355 Bohr) occupying 0.727367 of unit cell:	Completed after 2 iterations at t[s]:  16861.35
	Linear fluid (dielectric constant: 78.4, screening length: 5.74355 Bohr) occupying 0.727367 of unit cell:	Completed after 0 iterations at t[s]:  16907.03
	FillingsUpdate:  mu: -0.136444455  nElectrons: 448.500000  magneticMoment: [ Abs: 23.13589  Tot: -22.25956 ]
	SubspaceRotationAdjust: set factor to 6.05
ElecMinimize: Iter:  57  F: -1957.683729761324457  |grad|_K:  2.567e-06  alpha:  1.692e-03  linmin: -5.069e-07  t[s]:  16968.34
	Linear fluid (dielectric constant: 78.4, screening length: 5.74355 Bohr) occupying 0.727349 of unit cell:	Completed after 2 iterations at t[s]:  17014.59
	Linear fluid (dielectric constant: 78.4, screening length: 5.74355 Bohr) occupying 0.727349 of unit cell:	Completed after 0 iterations at t[s]:  17059.14
	FillingsUpdate:  mu: -0.136528316  nElectrons: 448.500000  magneticMoment: [ Abs: 23.24776  Tot: -22.35932 ]
	SubspaceRotationAdjust: set factor to 6.09
ElecMinimize: Iter:  58  F: -1957.683734684515002  |grad|_K:  2.539e-06  alpha:  1.684e-03  linmin: -4.962e-07  t[s]:  17120.39
	Linear fluid (dielectric constant: 78.4, screening length: 5.74355 Bohr) occupying 0.727328 of unit cell:	Completed after 3 iterations at t[s]:  17166.13
	Linear fluid (dielectric constant: 78.4, screening length: 5.74355 Bohr) occupying 0.727328 of unit cell:	Completed after 0 iterations at t[s]:  17210.81
	FillingsUpdate:  mu: -0.136641959  nElectrons: 448.500000  magneticMoment: [ Abs: 23.35049  Tot: -22.45015 ]
	SubspaceRotationAdjust: set factor to 6.04
ElecMinimize: Iter:  59  F: -1957.683739508002645  |grad|_K:  2.519e-06  alpha:  1.686e-03  linmin: -6.243e-07  t[s]:  17271.78
	Linear fluid (dielectric constant: 78.4, screening length: 5.74355 Bohr) occupying 0.727304 of unit cell:	Completed after 3 iterations at t[s]:  17318.71
	Linear fluid (dielectric constant: 78.4, screening length: 5.74355 Bohr) occupying 0.727304 of unit cell:	Completed after 0 iterations at t[s]:  17364.18
	FillingsUpdate:  mu: -0.136761949  nElectrons: 448.500000  magneticMoment: [ Abs: 23.44570  Tot: -22.53354 ]
	SubspaceRotationAdjust: set factor to 5.89
ElecMinimize: Iter:  60  F: -1957.683744315798094  |grad|_K:  2.505e-06  alpha:  1.705e-03  linmin: -5.229e-07  t[s]:  17424.95
	Linear fluid (dielectric constant: 78.4, screening length: 5.74355 Bohr) occupying 0.727278 of unit cell:	Completed after 3 iterations at t[s]:  17472.28
	Linear fluid (dielectric constant: 78.4, screening length: 5.74355 Bohr) occupying 0.727278 of unit cell:	Completed after 0 iterations at t[s]:  17517.80
	FillingsUpdate:  mu: -0.136890783  nElectrons: 448.500000  magneticMoment: [ Abs: 23.53385  Tot: -22.60989 ]
	SubspaceRotationAdjust: set factor to 5.63
ElecMinimize: Iter:  61  F: -1957.683749121702704  |grad|_K:  2.495e-06  alpha:  1.725e-03  linmin: -4.461e-07  t[s]:  17578.11
	Linear fluid (dielectric constant: 78.4, screening length: 5.74355 Bohr) occupying 0.727252 of unit cell:	Completed after 3 iterations at t[s]:  17624.12
	Linear fluid (dielectric constant: 78.4, screening length: 5.74355 Bohr) occupying 0.727251 of unit cell:	Completed after 0 iterations at t[s]:  17669.20
	FillingsUpdate:  mu: -0.137012530  nElectrons: 448.500000  magneticMoment: [ Abs: 23.61578  Tot: -22.68001 ]
	SubspaceRotationAdjust: set factor to 5.29
ElecMinimize: Iter:  62  F: -1957.683753974737328  |grad|_K:  2.485e-06  alpha:  1.757e-03  linmin: -3.624e-07  t[s]:  17729.64
	Linear fluid (dielectric constant: 78.4, screening length: 5.74355 Bohr) occupying 0.727225 of unit cell:	Completed after 3 iterations at t[s]:  17776.23
	Linear fluid (dielectric constant: 78.4, screening length: 5.74355 Bohr) occupying 0.727225 of unit cell:	Completed after 0 iterations at t[s]:  17822.38
	FillingsUpdate:  mu: -0.137128055  nElectrons: 448.500000  magneticMoment: [ Abs: 23.69187  Tot: -22.74424 ]
	SubspaceRotationAdjust: set factor to 4.9
ElecMinimize: Iter:  63  F: -1957.683758893052982  |grad|_K:  2.472e-06  alpha:  1.797e-03  linmin: -3.222e-07  t[s]:  17883.17
	Linear fluid (dielectric constant: 78.4, screening length: 5.74355 Bohr) occupying 0.727200 of unit cell:	Completed after 3 iterations at t[s]:  17930.00
	Linear fluid (dielectric constant: 78.4, screening length: 5.74355 Bohr) occupying 0.727199 of unit cell:	Completed after 0 iterations at t[s]:  17975.14
	FillingsUpdate:  mu: -0.137227148  nElectrons: 448.500000  magneticMoment: [ Abs: 23.76249  Tot: -22.80293 ]
	SubspaceRotationAdjust: set factor to 4.49
ElecMinimize: Iter:  64  F: -1957.683763894823869  |grad|_K:  2.455e-06  alpha:  1.847e-03  linmin: -2.720e-07  t[s]:  18036.42
	Linear fluid (dielectric constant: 78.4, screening length: 5.74355 Bohr) occupying 0.727176 of unit cell:	Completed after 2 iterations at t[s]:  18082.50
	Linear fluid (dielectric constant: 78.4, screening length: 5.74355 Bohr) occupying 0.727175 of unit cell:	Completed after 0 iterations at t[s]:  18127.59
	FillingsUpdate:  mu: -0.137303086  nElectrons: 448.500000  magneticMoment: [ Abs: 23.82783  Tot: -22.85633 ]
	SubspaceRotationAdjust: set factor to 4.1
ElecMinimize: Iter:  65  F: -1957.683768982202537  |grad|_K:  2.433e-06  alpha:  1.906e-03  linmin: -1.643e-07  t[s]:  18188.67
	Linear fluid (dielectric constant: 78.4, screening length: 5.74355 Bohr) occupying 0.727155 of unit cell:	Completed after 2 iterations at t[s]:  18235.02
	Linear fluid (dielectric constant: 78.4, screening length: 5.74355 Bohr) occupying 0.727154 of unit cell:	Completed after 0 iterations at t[s]:  18279.99
	FillingsUpdate:  mu: -0.137367321  nElectrons: 448.500000  magneticMoment: [ Abs: 23.88765  Tot: -22.90429 ]
	SubspaceRotationAdjust: set factor to 3.73
ElecMinimize: Iter:  66  F: -1957.683774113727623  |grad|_K:  2.410e-06  alpha:  1.959e-03  linmin: -2.263e-07  t[s]:  18342.04
	Linear fluid (dielectric constant: 78.4, screening length: 5.74355 Bohr) occupying 0.727136 of unit cell:	Completed after 1 iterations at t[s]:  18387.51
	Linear fluid (dielectric constant: 78.4, screening length: 5.74355 Bohr) occupying 0.727135 of unit cell:	Completed after 0 iterations at t[s]:  18431.19
	FillingsUpdate:  mu: -0.137407813  nElectrons: 448.500000  magneticMoment: [ Abs: 23.94246  Tot: -22.94729 ]
	SubspaceRotationAdjust: set factor to 3.4
ElecMinimize: Iter:  67  F: -1957.683779313948662  |grad|_K:  2.386e-06  alpha:  2.023e-03  linmin: -1.116e-07  t[s]:  18491.89
	Linear fluid (dielectric constant: 78.4, screening length: 5.74355 Bohr) occupying 0.727120 of unit cell:	Completed after 1 iterations at t[s]:  18538.43
	Linear fluid (dielectric constant: 78.4, screening length: 5.74355 Bohr) occupying 0.727120 of unit cell:	Completed after 0 iterations at t[s]:  18583.47
	FillingsUpdate:  mu: -0.137438245  nElectrons: 448.500000  magneticMoment: [ Abs: 23.99214  Tot: -22.98533 ]
	SubspaceRotationAdjust: set factor to 3.11
ElecMinimize: Iter:  68  F: -1957.683784535201312  |grad|_K:  2.364e-06  alpha:  2.073e-03  linmin: -1.239e-07  t[s]:  18643.60
	Linear fluid (dielectric constant: 78.4, screening length: 5.74355 Bohr) occupying 0.727108 of unit cell:	Completed after 2 iterations at t[s]:  18690.24
	Linear fluid (dielectric constant: 78.4, screening length: 5.74355 Bohr) occupying 0.727108 of unit cell:	Completed after 0 iterations at t[s]:  18735.42
	FillingsUpdate:  mu: -0.137434113  nElectrons: 448.500000  magneticMoment: [ Abs: 24.03670  Tot: -23.01850 ]
	SubspaceRotationAdjust: set factor to 2.86
ElecMinimize: Iter:  69  F: -1957.683789744556179  |grad|_K:  2.345e-06  alpha:  2.107e-03  linmin: -3.630e-07  t[s]:  18795.57
	Linear fluid (dielectric constant: 78.4, screening length: 5.74355 Bohr) occupying 0.727098 of unit cell:	Completed after 2 iterations at t[s]:  18842.72
	Linear fluid (dielectric constant: 78.4, screening length: 5.74355 Bohr) occupying 0.727098 of unit cell:	Completed after 0 iterations at t[s]:  18888.13
	FillingsUpdate:  mu: -0.137419907  nElectrons: 448.500000  magneticMoment: [ Abs: 24.07694  Tot: -23.04750 ]
	SubspaceRotationAdjust: set factor to 2.64
ElecMinimize: Iter:  70  F: -1957.683795007109438  |grad|_K:  2.330e-06  alpha:  2.159e-03  linmin: -3.306e-08  t[s]:  18948.11
	Linear fluid (dielectric constant: 78.4, screening length: 5.74355 Bohr) occupying 0.727091 of unit cell:	Completed after 2 iterations at t[s]:  18995.08
	Linear fluid (dielectric constant: 78.4, screening length: 5.74355 Bohr) occupying 0.727091 of unit cell:	Completed after 0 iterations at t[s]:  19039.79
	FillingsUpdate:  mu: -0.137376532  nElectrons: 448.500000  magneticMoment: [ Abs: 24.11258  Tot: -23.07220 ]
	SubspaceRotationAdjust: set factor to 2.45
ElecMinimize: Iter:  71  F: -1957.683800212847473  |grad|_K:  2.320e-06  alpha:  2.169e-03  linmin:  2.362e-09  t[s]:  19100.34
	Linear fluid (dielectric constant: 78.4, screening length: 5.74355 Bohr) occupying 0.727087 of unit cell:	Completed after 2 iterations at t[s]:  19147.12
	Linear fluid (dielectric constant: 78.4, screening length: 5.74355 Bohr) occupying 0.727087 of unit cell:	Completed after 0 iterations at t[s]:  19192.35
	FillingsUpdate:  mu: -0.137319349  nElectrons: 448.500000  magneticMoment: [ Abs: 24.14426  Tot: -23.09315 ]
	SubspaceRotationAdjust: set factor to 2.28
ElecMinimize: Iter:  72  F: -1957.683805421895840  |grad|_K:  2.315e-06  alpha:  2.191e-03  linmin:  1.964e-07  t[s]:  19253.65
	Linear fluid (dielectric constant: 78.4, screening length: 5.74355 Bohr) occupying 0.727085 of unit cell:	Completed after 2 iterations at t[s]:  19299.89
	Linear fluid (dielectric constant: 78.4, screening length: 5.74355 Bohr) occupying 0.727085 of unit cell:	Completed after 0 iterations at t[s]:  19344.86
	FillingsUpdate:  mu: -0.137245624  nElectrons: 448.500000  magneticMoment: [ Abs: 24.17203  Tot: -23.11049 ]
	SubspaceRotationAdjust: set factor to 2.13
ElecMinimize: Iter:  73  F: -1957.683810587954895  |grad|_K:  2.314e-06  alpha:  2.186e-03  linmin:  2.381e-07  t[s]:  19405.98
	Linear fluid (dielectric constant: 78.4, screening length: 5.74355 Bohr) occupying 0.727085 of unit cell:	Completed after 3 iterations at t[s]:  19452.95
	Linear fluid (dielectric constant: 78.4, screening length: 5.74355 Bohr) occupying 0.727085 of unit cell:	Completed after 0 iterations at t[s]:  19498.24
	FillingsUpdate:  mu: -0.137139542  nElectrons: 448.500000  magneticMoment: [ Abs: 24.19614  Tot: -23.12450 ]
	SubspaceRotationAdjust: set factor to 1.99
ElecMinimize: Iter:  74  F: -1957.683815707286385  |grad|_K:  2.317e-06  alpha:  2.168e-03  linmin:  2.462e-07  t[s]:  19559.52
	Linear fluid (dielectric constant: 78.4, screening length: 5.74355 Bohr) occupying 0.727086 of unit cell:	Completed after 2 iterations at t[s]:  19606.10
	Linear fluid (dielectric constant: 78.4, screening length: 5.74355 Bohr) occupying 0.727086 of unit cell:	Completed after 0 iterations at t[s]:  19651.42
	FillingsUpdate:  mu: -0.137042094  nElectrons: 448.500000  magneticMoment: [ Abs: 24.21729  Tot: -23.13569 ]
	SubspaceRotationAdjust: set factor to 1.87
[...]
# magnetic-moments Ti -0.489 -0.489 -0.489 -0.489 -0.489 -0.489 -0.489 -0.489 -0.489 -0.489 -0.489 -0.489 -0.489 -0.489 -0.489 -0.489 -0.489 -0.489 -0.489 -0.489 -0.489 -0.489 -0.489 -0.489 -0.489 -0.489 -0.489 -0.489 -0.489 -0.489 -0.489 -0.489
# oxidation-state C -1.124 -1.124 -1.124 -1.124 -1.124 -1.124 -1.124 -1.124 -1.124 -1.124 -1.124 -1.124 -1.124 -1.124 -1.124 -1.124
# magnetic-moments C +0.014 +0.014 +0.014 +0.014 +0.014 +0.014 +0.014 +0.014 +0.014 +0.014 +0.014 +0.014 +0.014 +0.014 +0.014 +0.014

	Linear fluid (dielectric constant: 78.4, screening length: 5.74355 Bohr) occupying 0.725893 of unit cell:	Completed after 5 iterations at t[s]:  39444.35

-------- Electronic minimization -----------
	Linear fluid (dielectric constant: 78.4, screening length: 5.74355 Bohr) occupying 0.725893 of unit cell:	Completed after 0 iterations at t[s]:  39478.58
	FillingsUpdate:  mu: -0.139539503  nElectrons: 448.500000  magneticMoment: [ Abs: 19.54690  Tot: -18.68725 ]
ElecMinimize: Iter:   0  F: -1957.690189556393079  |grad|_K:  3.018e-07  alpha:  1.000e+00
	Linear fluid (dielectric constant: 78.4, screening length: 5.74355 Bohr) occupying 0.725779 of unit cell:	Completed after 8 iterations at t[s]:  39592.85
	Linear fluid (dielectric constant: 78.4, screening length: 5.74355 Bohr) occupying 0.725834 of unit cell:	Completed after 6 iterations at t[s]:  39639.49
	FillingsUpdate:  mu: -0.139979343  nElectrons: 448.500000  magneticMoment: [ Abs: 19.54432  Tot: -18.68440 ]
	SubspaceRotationAdjust: set factor to 0.883
ElecMinimize: Iter:   1  F: -1957.690210368699582  |grad|_K:  1.941e-07  alpha:  5.131e-01  linmin:  9.671e-06  t[s]:  39702.15
	Linear fluid (dielectric constant: 78.4, screening length: 5.74355 Bohr) occupying 0.725843 of unit cell:	Completed after 3 iterations at t[s]:  39749.14
	Linear fluid (dielectric constant: 78.4, screening length: 5.74355 Bohr) occupying 0.725842 of unit cell:	Completed after 0 iterations at t[s]:  39795.45
	FillingsUpdate:  mu: -0.139878574  nElectrons: 448.500000  magneticMoment: [ Abs: 19.54240  Tot: -18.68209 ]
	SubspaceRotationAdjust: set factor to 1.43
ElecMinimize: Iter:   2  F: -1957.690217905676718  |grad|_K:  9.487e-08  alpha:  4.519e-01  linmin:  2.014e-04  t[s]:  39855.60
	Linear fluid (dielectric constant: 78.4, screening length: 5.74355 Bohr) occupying 0.725853 of unit cell:	Completed after 2 iterations at t[s]:  39901.96
	Linear fluid (dielectric constant: 78.4, screening length: 5.74355 Bohr) occupying 0.725855 of unit cell:	Completed after 0 iterations at t[s]:  39947.51
	FillingsUpdate:  mu: -0.139838073  nElectrons: 448.500000  magneticMoment: [ Abs: 19.53941  Tot: -18.67880 ]
	SubspaceRotationAdjust: set factor to 1.73
ElecMinimize: Iter:   3  F: -1957.690219901120827  |grad|_K:  4.792e-08  alpha:  5.070e-01  linmin: -4.258e-04  t[s]:  40008.00
	Linear fluid (dielectric constant: 78.4, screening length: 5.74355 Bohr) occupying 0.725858 of unit cell:	Completed after 1 iterations at t[s]:  40054.44
	Linear fluid (dielectric constant: 78.4, screening length: 5.74355 Bohr) occupying 0.725857 of unit cell:	Completed after 0 iterations at t[s]:  40099.59
	FillingsUpdate:  mu: -0.139818797  nElectrons: 448.500000  magneticMoment: [ Abs: 19.53543  Tot: -18.67465 ]
	SubspaceRotationAdjust: set factor to 1.38
ElecMinimize: Iter:   4  F: -1957.690220300015653  |grad|_K:  3.992e-08  alpha:  3.541e-01  linmin:  6.561e-04  t[s]:  40160.50
	Linear fluid (dielectric constant: 78.4, screening length: 5.74355 Bohr) occupying 0.725852 of unit cell:	Completed after 1 iterations at t[s]:  40206.80
	Linear fluid (dielectric constant: 78.4, screening length: 5.74355 Bohr) occupying 0.725854 of unit cell:	Completed after 0 iterations at t[s]:  40251.78
	FillingsUpdate:  mu: -0.139842977  nElectrons: 448.500000  magneticMoment: [ Abs: 19.53094  Tot: -18.67010 ]
	SubspaceRotationAdjust: set factor to 0.849
ElecMinimize: Iter:   5  F: -1957.690220408467894  |grad|_K:  2.415e-08  alpha:  2.116e-01  linmin:  2.906e-04  t[s]:  40311.78
	Linear fluid (dielectric constant: 78.4, screening length: 5.74355 Bohr) occupying 0.725853 of unit cell:	Completed after 0 iterations at t[s]:  40357.84
	Linear fluid (dielectric constant: 78.4, screening length: 5.74355 Bohr) occupying 0.725853 of unit cell:	Completed after 1 iterations at t[s]:  40403.02
	FillingsUpdate:  mu: -0.139823583  nElectrons: 448.500000  magneticMoment: [ Abs: 19.52429  Tot: -18.66343 ]
	SubspaceRotationAdjust: set factor to 0.825
ElecMinimize: Iter:   6  F: -1957.690220478378933  |grad|_K:  1.571e-08  alpha:  4.145e-01  linmin: -1.951e-04  t[s]:  40463.86
	Linear fluid (dielectric constant: 78.4, screening length: 5.74355 Bohr) occupying 0.725850 of unit cell:	Completed after 0 iterations at t[s]:  40509.49
	Linear fluid (dielectric constant: 78.4, screening length: 5.74355 Bohr) occupying 0.725847 of unit cell:	Completed after 0 iterations at t[s]:  40554.09
	FillingsUpdate:  mu: -0.139825841  nElectrons: 448.500000  magneticMoment: [ Abs: 19.51575  Tot: -18.65505 ]
	SubspaceRotationAdjust: set factor to 1.09
ElecMinimize: Iter:   7  F: -1957.690220569671965  |grad|_K:  1.348e-08  alpha:  7.005e-01  linmin: -3.777e-04  t[s]:  40614.40
	Linear fluid (dielectric constant: 78.4, screening length: 5.74355 Bohr) occupying 0.725836 of unit cell:	Completed after 1 iterations at t[s]:  40660.57
	Linear fluid (dielectric constant: 78.4, screening length: 5.74355 Bohr) occupying 0.725844 of unit cell:	Completed after 0 iterations at t[s]:  40704.44
	FillingsUpdate:  mu: -0.139901009  nElectrons: 448.500000  magneticMoment: [ Abs: 19.51306  Tot: -18.65246 ]
	SubspaceRotationAdjust: set factor to 0.945
ElecMinimize: Iter:   8  F: -1957.690220584907138  |grad|_K:  4.011e-08  alpha:  1.937e-01  linmin:  6.089e-04  t[s]:  40763.94
ElecMinimize: 	Bad step direction: g.d > 0.
ElecMinimize: 	Undoing step.
	Linear fluid (dielectric constant: 78.4, screening length: 5.74355 Bohr) occupying 0.725844 of unit cell:	Completed after 0 iterations at t[s]:  40810.46
ElecMinimize: 	Step failed: resetting search direction.
	FillingsUpdate:  mu: -0.139901009  nElectrons: 448.500000  magneticMoment: [ Abs: 19.51306  Tot: -18.65246 ]
	SubspaceRotationAdjust: set factor to 0.874
ElecMinimize: Iter:   9  F: -1957.690220584896224  |grad|_K:  3.857e-08  alpha:  0.000e+00
	Linear fluid (dielectric constant: 78.4, screening length: 5.74355 Bohr) occupying 0.725850 of unit cell:	Completed after 2 iterations at t[s]:  40917.05
	Linear fluid (dielectric constant: 78.4, screening length: 5.74355 Bohr) occupying 0.725847 of unit cell:	Completed after 0 iterations at t[s]:  40962.16
	FillingsUpdate:  mu: -0.139834706  nElectrons: 448.500000  magneticMoment: [ Abs: 19.51285  Tot: -18.65228 ]
	SubspaceRotationAdjust: set factor to 0.399
ElecMinimize: Iter:  10  F: -1957.690220601258716  |grad|_K:  1.348e-08  alpha:  9.058e-02  linmin:  1.758e-03  t[s]:  41021.50
	Linear fluid (dielectric constant: 78.4, screening length: 5.74355 Bohr) occupying 0.725846 of unit cell:	Completed after 0 iterations at t[s]:  41067.10
ElecMinimize: 	Predicted alpha/alphaT>3.000000, increasing alphaT to 2.717467e-01.
	Linear fluid (dielectric constant: 78.4, screening length: 5.74355 Bohr) occupying 0.725846 of unit cell:	Completed after 0 iterations at t[s]:  41110.07
ElecMinimize: 	Predicted alpha/alphaT>3.000000, increasing alphaT to 8.152401e-01.
	Linear fluid (dielectric constant: 78.4, screening length: 5.74355 Bohr) occupying 0.725843 of unit cell:	Completed after 1 iterations at t[s]:  41153.88
	Linear fluid (dielectric constant: 78.4, screening length: 5.74355 Bohr) occupying 0.725845 of unit cell:	Completed after 0 iterations at t[s]:  41198.17
	FillingsUpdate:  mu: -0.139873678  nElectrons: 448.500000  magneticMoment: [ Abs: 19.51137  Tot: -18.65092 ]
	SubspaceRotationAdjust: set factor to 0.27
ElecMinimize: Iter:  11  F: -1957.690220602759609  |grad|_K:  1.459e-08  alpha:  3.011e-01  linmin:  5.861e-04  t[s]:  41258.81
	Linear fluid (dielectric constant: 78.4, screening length: 5.74355 Bohr) occupying 0.725845 of unit cell:	Completed after 0 iterations at t[s]:  41304.49
	Linear fluid (dielectric constant: 78.4, screening length: 5.74355 Bohr) occupying 0.725845 of unit cell:	Completed after 0 iterations at t[s]:  41348.68
	FillingsUpdate:  mu: -0.139873707  nElectrons: 448.500000  magneticMoment: [ Abs: 19.50867  Tot: -18.64849 ]
	SubspaceRotationAdjust: set factor to 0.343
ElecMinimize: Iter:  12  F: -1957.690220627231156  |grad|_K:  1.092e-08  alpha:  3.722e-01  linmin: -4.100e-08  t[s]:  41409.43
	Linear fluid (dielectric constant: 78.4, screening length: 5.74355 Bohr) occupying 0.725846 of unit cell:	Completed after 2 iterations at t[s]:  41455.19
	Linear fluid (dielectric constant: 78.4, screening length: 5.74355 Bohr) occupying 0.725845 of unit cell:	Completed after 0 iterations at t[s]:  41499.40
ElecMinimize: 	Step increased F by 2.286197e-08, reducing alpha to 8.038344e-03.
	Linear fluid (dielectric constant: 78.4, screening length: 5.74355 Bohr) occupying 0.725845 of unit cell:	Completed after 0 iterations at t[s]:  41596.60
ElecMinimize: 	Step increased F by 1.782541e-08, reducing alpha to 8.038344e-04.
	Linear fluid (dielectric constant: 78.4, screening length: 5.74355 Bohr) occupying 0.725845 of unit cell:	Completed after 0 iterations at t[s]:  41694.12
ElecMinimize: 	Step increased F by 1.735771e-08, reducing alpha to 8.038344e-05.
ElecMinimize: 	Step failed to reduce F after 3 attempts. Quitting step.
ElecMinimize: 	Undoing step.
	Linear fluid (dielectric constant: 78.4, screening length: 5.74355 Bohr) occupying 0.725845 of unit cell:	Completed after 0 iterations at t[s]:  41791.61
ElecMinimize: 	Step failed: resetting search direction.
	FillingsUpdate:  mu: -0.139852028  nElectrons: 448.500000  magneticMoment: [ Abs: 19.50867  Tot: -18.64848 ]
	SubspaceRotationAdjust: set factor to 0.332
ElecMinimize: Iter:  13  F: -1957.690220609831158  |grad|_K:  1.323e-08  alpha:  8.038e-05
	Linear fluid (dielectric constant: 78.4, screening length: 5.74355 Bohr) occupying 0.725845 of unit cell:	Completed after 1 iterations at t[s]:  41896.55
	Linear fluid (dielectric constant: 78.4, screening length: 5.74355 Bohr) occupying 0.725845 of unit cell:	Completed after 0 iterations at t[s]:  41941.51
ElecMinimize: 	Step increased F by 1.232365e-10, reducing alpha to 1.568607e-02.
	Linear fluid (dielectric constant: 78.4, screening length: 5.74355 Bohr) occupying 0.725845 of unit cell:	Completed after 0 iterations at t[s]:  42039.22
ElecMinimize: 	Step increased F by 1.393346e-09, reducing alpha to 1.568607e-03.
	Linear fluid (dielectric constant: 78.4, screening length: 5.74355 Bohr) occupying 0.725845 of unit cell:	Completed after 0 iterations at t[s]:  42137.49
ElecMinimize: 	Step increased F by 1.871967e-09, reducing alpha to 1.568607e-04.
ElecMinimize: 	Step failed to reduce F after 3 attempts. Quitting step.
ElecMinimize: 	Undoing step.
	Linear fluid (dielectric constant: 78.4, screening length: 5.74355 Bohr) occupying 0.725845 of unit cell:	Completed after 0 iterations at t[s]:  42235.36
ElecMinimize: 	Step failed along negative gradient direction.
ElecMinimize: Probably at roundoff error limit. (Stopping)
Setting wave functions to eigenvectors of Hamiltonian

# Ionic positions in lattice coordinates:
ion Ti   0.166666628871778   0.083333387753221   0.566175256878475 1
ion Ti   0.083333386878221   0.166666629746778   0.433824743121525 1
ion Ti   0.416666628871778   0.083333387753221   0.566175256878475 1
ion Ti   0.333333386878221   0.166666629746778   0.433824743121525 1
ion Ti   0.666666628871778   0.083333387753221   0.566175256878475 1
ion Ti   0.583333386878221   0.166666629746778   0.433824743121525 1
ion Ti   0.916666628871778   0.083333387753221   0.566175256878475 1
ion Ti   0.833333386878221   0.166666629746778   0.433824743121525 1
ion Ti   0.166666628871778   0.333333387753221   0.566175256878475 1
ion Ti   0.083333386878221   0.416666629746779   0.433824743121525 1
ion Ti   0.416666628871778   0.333333387753221   0.566175256878475 1
ion Ti   0.333333386878221   0.416666629746779   0.433824743121525 1
ion Ti   0.666666628871778   0.333333387753221   0.566175256878475 1
ion Ti   0.583333386878221   0.416666629746779   0.433824743121525 1
ion Ti   0.916666628871778   0.333333387753221   0.566175256878475 1
ion Ti   0.833333386878221   0.416666629746779   0.433824743121525 1
ion Ti   0.166666628871778   0.583333387753221   0.566175256878475 1
ion Ti   0.083333386878221   0.666666629746778   0.433824743121525 1
ion Ti   0.416666628871778   0.583333387753221   0.566175256878475 1
ion Ti   0.333333386878221   0.666666629746778   0.433824743121525 1
ion Ti   0.666666628871778   0.583333387753221   0.566175256878475 1
ion Ti   0.583333386878221   0.666666629746778   0.433824743121525 1
ion Ti   0.916666628871778   0.583333387753221   0.566175256878475 1
ion Ti   0.833333386878221   0.666666629746778   0.433824743121525 1
ion Ti   0.166666628871778   0.833333387753221   0.566175256878475 1
ion Ti   0.083333386878221   0.916666629746778   0.433824743121525 1
ion Ti   0.416666628871778   0.833333387753221   0.566175256878475 1
ion Ti   0.333333386878221   0.916666629746778   0.433824743121525 1
ion Ti   0.666666628871778   0.833333387753221   0.566175256878475 1
ion Ti   0.583333386878221   0.916666629746778   0.433824743121525 1
ion Ti   0.916666628871778   0.833333387753221   0.566175256878475 1
ion Ti   0.833333386878221   0.916666629746778   0.433824743121525 1
ion C   0.000000007874999   0.000000008750000   0.500000000000000 1
ion C   0.250000007874999   0.000000008750000   0.500000000000000 1
ion C   0.500000007875000   0.000000008750000   0.500000000000000 1
ion C   0.750000007875000   0.000000008750000   0.500000000000000 1
ion C   0.000000007874999   0.250000008750000   0.500000000000000 1
ion C   0.250000007874999   0.250000008750000   0.500000000000000 1
ion C   0.500000007875000   0.250000008750000   0.500000000000000 1
ion C   0.750000007875000   0.250000008750000   0.500000000000000 1
ion C   0.000000007874999   0.500000008750000   0.500000000000000 1
ion C   0.250000007874999   0.500000008750000   0.500000000000000 1
ion C   0.500000007875000   0.500000008750000   0.500000000000000 1
ion C   0.750000007875000   0.500000008750000   0.500000000000000 1
ion C   1.000000007875000   0.750000008750000   0.500000000000000 1
ion C   0.250000007874999   0.750000008750000   0.500000000000000 1
ion C   0.500000007875000   0.750000008750000   0.500000000000000 1
ion C   0.750000007875000   0.750000008750000   0.500000000000000 1


# Forces in Lattice coordinates:
force Ti  -0.000013349960703   0.000013349960703   0.006097125608255 1
force Ti   0.000013349960703  -0.000013349960703  -0.006097125608482 1
force Ti  -0.000013349960703   0.000013349960703   0.006097125608254 1
force Ti   0.000013349960703  -0.000013349960703  -0.006097125608254 1
force Ti  -0.000013349960703   0.000013349960703   0.006097125608255 1
force Ti   0.000013349960703  -0.000013349960703  -0.006097125608254 1
force Ti  -0.000013349960703   0.000013349960703   0.006097125608482 1
force Ti   0.000013349960703  -0.000013349960703  -0.006097125608254 1
force Ti  -0.000013349960703   0.000013349960703   0.006097125608254 1
force Ti   0.000013349960703  -0.000013349960703  -0.006097125608709 1
force Ti  -0.000013349960703   0.000013349960703   0.006097125607800 1
force Ti   0.000013349960703  -0.000013349960703  -0.006097125608482 1
force Ti  -0.000013349960703   0.000013349960703   0.006097125608482 1
force Ti   0.000013349960703  -0.000013349960703  -0.006097125608482 1
force Ti  -0.000013349960703   0.000013349960703   0.006097125608027 1
force Ti   0.000013349960703  -0.000013349960703  -0.006097125608482 1
force Ti  -0.000013349960703   0.000013349960703   0.006097125607800 1
force Ti   0.000013349960703  -0.000013349960703  -0.006097125608254 1
force Ti  -0.000013349960703   0.000013349960703   0.006097125608027 1
force Ti   0.000013349960703  -0.000013349960703  -0.006097125608482 1
force Ti  -0.000013349960703   0.000013349960703   0.006097125607800 1
force Ti   0.000013349960703  -0.000013349960703  -0.006097125608482 1
force Ti  -0.000013349960703   0.000013349960703   0.006097125608027 1
force Ti   0.000013349960703  -0.000013349960703  -0.006097125608254 1
force Ti  -0.000013349960703   0.000013349960703   0.006097125608255 1
force Ti   0.000013349960703  -0.000013349960703  -0.006097125608254 1
force Ti  -0.000013349960703   0.000013349960703   0.006097125608254 1
force Ti   0.000013349960703  -0.000013349960703  -0.006097125608254 1
force Ti  -0.000013349960703   0.000013349960703   0.006097125608255 1
force Ti   0.000013349960703  -0.000013349960703  -0.006097125608027 1
force Ti  -0.000013349960703   0.000013349960703   0.006097125608709 1
force Ti   0.000013349960703  -0.000013349960703  -0.006097125608027 1
force C  -0.000000000000000   0.000000000000000  -0.000000000000000 1
force C  -0.000000000000000  -0.000000000000000  -0.000000000000000 1
force C   0.000000000000000   0.000000000000000   0.000000000000000 1
force C  -0.000000000000000   0.000000000000000  -0.000000000000000 1
force C  -0.000000000000000   0.000000000000000   0.000000000000000 1
force C   0.000000000000000  -0.000000000000000  -0.000000000000000 1
force C   0.000000000000000  -0.000000000000000  -0.000000000000000 1
force C  -0.000000000000000   0.000000000000000  -0.000000000000000 1
force C  -0.000000000000000  -0.000000000000000  -0.000000000000000 1
force C  -0.000000000000000   0.000000000000000   0.000000000000000 1
force C   0.000000000000000  -0.000000000000000   0.000000000000000 1
force C  -0.000000000000000   0.000000000000000  -0.000000000000000 1
force C   0.000000000000000  -0.000000000000000   0.000000000000000 1
force C   0.000000000000000  -0.000000000000000  -0.000000000000000 1
force C   0.000000000000000   0.000000000000000  -0.000000000000000 1
force C  -0.000000000000000   0.000000000000000  -0.000000000000000 1

# Energy components:
   A_diel =       -0.0277917616806877
   Eewald =    10428.1005434267826786
       EH =    12056.4249431638490933
     Eloc =   -24809.5295918052288471
      Enl =      187.3824672650477510
      Exc =     -317.8666695242554852
 Exc_core =       42.4425447365120547
       KE =      455.5561909782223893
  MuShift =       -0.0074464633635781
-------------------------------------
     Etot =    -1957.5248099841146541
       TS =        0.1654106238875300
-------------------------------------
        F =    -1957.6902206080021642

IonicMinimize: Iter:   3  F: -1957.690220608002164  |grad|_K:  8.803e-05  alpha:  1.000e+00  linmin: -1.000e+00  t[s]:  42317.57
IonicMinimize: Converged (|grad|_K<1.000000e-04).

#--- Lowdin population analysis ---
# oxidation-state Ti +0.830 +0.830 +0.830 +0.830 +0.830 +0.830 +0.830 +0.830 +0.830 +0.830 +0.830 +0.830 +0.830 +0.830 +0.830 +0.830 +0.830 +0.830 +0.830 +0.830 +0.830 +0.830 +0.830 +0.830 +0.830 +0.830 +0.830 +0.830 +0.830 +0.830 +0.830 +0.830
# magnetic-moments Ti -0.488 -0.488 -0.488 -0.488 -0.488 -0.488 -0.488 -0.488 -0.488 -0.488 -0.488 -0.488 -0.488 -0.488 -0.488 -0.488 -0.488 -0.488 -0.488 -0.488 -0.488 -0.488 -0.488 -0.488 -0.488 -0.488 -0.488 -0.488 -0.488 -0.488 -0.488 -0.488
# oxidation-state C -1.124 -1.124 -1.124 -1.124 -1.124 -1.124 -1.124 -1.124 -1.124 -1.124 -1.124 -1.124 -1.124 -1.124 -1.124 -1.124
# magnetic-moments C +0.014 +0.014 +0.014 +0.014 +0.014 +0.014 +0.014 +0.014 +0.014 +0.014 +0.014 +0.014 +0.014 +0.014 +0.014 +0.014


Dumping 'NbTe2.fillings' ... done
Dumping 'NbTe2.wfns' ... done
Dumping 'NbTe2.fluidState' ... done
Dumping 'NbTe2.ionpos' ... done
Dumping 'NbTe2.eigenvals' ... done
End date and time: Sat Jan 16 05:07:29 2021  (Duration: 0-11:45:36.45)
Done!
