  COHP#  atomMU  atomNU     distance     translation      ICOHP (at) eF   for spin  1
      1     S54     O74      1.79277       0   0   0           -2.15150 
      2    Fe17     O74      3.47876       0   0   0           -0.06415 
      3    Fe20     O74      3.29364       0   0   0           -0.05791 
      4     S54     O73      2.67843       0   0   0           -0.00332 
      5     S61     O73      3.37052       0   0   0           -0.02132 
      6     S54     H75      2.91297       0   0   0           -0.00609 
      7     S61     H75      2.50985       0   0   0           -0.11166 
      8    Fe20     H75      3.27491       0   0   0           -0.00698 
  COHP#  atomMU  atomNU     distance     translation      ICOHP (at) eF   for spin  2
      1     S54     O74      1.79277       0   0   0           -2.16384 
      2    Fe17     O74      3.47876       0   0   0           -0.06458 
      3    Fe20     O74      3.29364       0   0   0           -0.05715 
      4     S54     O73      2.67843       0   0   0           -0.00317 
      5     S61     O73      3.37052       0   0   0           -0.02136 
      6     S54     H75      2.91297       0   0   0           -0.00606 
      7     S61     H75      2.50985       0   0   0           -0.11129 
      8    Fe20     H75      3.27491       0   0   0           -0.00684 
