
*************** JDFTx 1.5.0  ***************

Start date and time: Thu Feb  4 10:21:01 2021
Executable jdftx_gpu with command-line: -i Charged.in -o Charged.out
Running on hosts (process indices):  amax (0-6)
Divided in process groups (process indices):  0 (0)  1 (1)  2 (2)  3 (3)  4 (4)  5 (5)  6 (6)
gpuInit: Found compatible cuda device 0 'Tesla K80'
gpuInit: Found compatible cuda device 1 'Tesla K80'
gpuInit: Found compatible cuda device 2 'Tesla K80'
gpuInit: Found compatible cuda device 3 'Tesla K80'
gpuInit: Found compatible cuda device 4 'Tesla K80'
gpuInit: Found compatible cuda device 5 'Tesla K80'
gpuInit: Found compatible cuda device 6 'Tesla K80'
gpuInit: Selected device 0
Resource initialization completed at t[s]:      3.44
Run totals: 7 processes, 24 threads, 7 GPUs


Input parsed successfully to the following command list (including defaults):

basis kpoint-dependent
cache-projectors no
coords-type Lattice
core-overlap-check none
coulomb-interaction Slab 001
coulomb-truncation-embed 0.5 0.5 0.5
davidson-band-ratio 1.1
dump End State
dump-name NbTe2.$VAR
elec-cutoff 20
elec-eigen-algo Davidson
elec-ex-corr gga-PBE
elec-initial-charge 0.500000
elec-initial-magnetization 20.000000 no
elec-smearing Gauss 0.0073499
electronic-minimize  \
	dirUpdateScheme      FletcherReeves \
	linminMethod         DirUpdateRecommended \
	nIterations          200 \
	history              15 \
	knormThreshold       0 \
	energyDiffThreshold  1e-08 \
	nEnergyDiff          2 \
	alphaTstart          1 \
	alphaTmin            1e-10 \
	updateTestStepSize   yes \
	alphaTreduceFactor   0.1 \
	alphaTincreaseFactor 3 \
	nAlphaAdjustMax      3 \
	wolfeEnergy          0.0001 \
	wolfeGradient        0.9 \
	fdTest               no
exchange-regularization WignerSeitzTruncated
fluid LinearPCM 298.000000 1.013250
fluid-anion F- 1 MeanFieldLJ \
	epsBulk 1 \
	pMol 0 \
	epsInf 1 \
	Pvap 0 \
	sigmaBulk 0 \
	Rvdw 2.24877 \
	Res 0 \
	tauNuc 343133
fluid-cation Na+ 1 MeanFieldLJ \
	epsBulk 1 \
	pMol 0 \
	epsInf 1 \
	Pvap 0 \
	sigmaBulk 0 \
	Rvdw 2.19208 \
	Res 0 \
	tauNuc 343133
fluid-ex-corr lda-TF lda-PZ
fluid-gummel-loop 10 1.000000e-05
fluid-minimize  \
	dirUpdateScheme      PolakRibiere \
	linminMethod         DirUpdateRecommended \
	nIterations          400 \
	history              15 \
	knormThreshold       1e-11 \
	energyDiffThreshold  0 \
	nEnergyDiff          2 \
	alphaTstart          1 \
	alphaTmin            1e-10 \
	updateTestStepSize   yes \
	alphaTreduceFactor   0.1 \
	alphaTincreaseFactor 3 \
	nAlphaAdjustMax      6 \
	wolfeEnergy          0.0001 \
	wolfeGradient        0.9 \
	fdTest               no
fluid-solvent H2O 55.338 ScalarEOS \
	epsBulk 78.4 \
	pMol 0.92466 \
	epsInf 1.77 \
	Pvap 1.06736e-10 \
	sigmaBulk 4.62e-05 \
	Rvdw 2.61727 \
	Res 1.42 \
	tauNuc 343133 \
	poleEl 15 7 1
forces-output-coords Positions
initial-state NbTe2.$VAR
ion V   0.000000007187500   0.000000004916667   0.499999995675510 1
ion V   0.250000007187500   0.000000004916667   0.499999995675510 1
ion V   0.500000007187500   0.000000004916667   0.499999995675510 1
ion V   0.750000007187500   0.000000004916667   0.499999995675510 1
ion V   0.000000007187500   0.250000004916667   0.499999995675510 1
ion V   0.250000007187500   0.250000004916667   0.499999995675510 1
ion V   0.500000007187500   0.250000004916667   0.499999995675510 1
ion V   0.750000007187500   0.250000004916667   0.499999995675510 1
ion V   0.000000007187500   0.500000004916667   0.499999995675510 1
ion V   0.250000007187500   0.500000004916667   0.499999995675510 1
ion V   0.500000007187500   0.500000004916667   0.499999995675510 1
ion V   0.750000007187500   0.500000004916667   0.499999995675510 1
ion V   1.000000007187500   0.750000004916667   0.499999995675510 1
ion V   0.250000007187500   0.750000004916667   0.499999995675510 1
ion V   0.500000007187500   0.750000004916667   0.499999995675510 1
ion V   0.750000007187500   0.750000004916667   0.499999995675510 1
ion Se   0.166666673854167   0.083333338250000   0.587361484715034 1
ion Se   0.083333340520833   0.166666671583333   0.412638506635987 1
ion Se   0.416666673854167   0.083333338250000   0.587361484715034 1
ion Se   0.333333340520833   0.166666671583333   0.412638506635987 1
ion Se   0.666666673854167   0.083333338250000   0.587361484715034 1
ion Se   0.583333340520833   0.166666671583333   0.412638506635987 1
ion Se   0.916666673854167   0.083333338250000   0.587361484715034 1
ion Se   0.833333340520833   0.166666671583333   0.412638506635987 1
ion Se   0.166666673854167   0.333333338250000   0.587361484715034 1
ion Se   0.083333340520833   0.416666671583333   0.412638506635987 1
ion Se   0.416666673854167   0.333333338250000   0.587361484715034 1
ion Se   0.333333340520833   0.416666671583333   0.412638506635987 1
ion Se   0.666666673854167   0.333333338250000   0.587361484715034 1
ion Se   0.583333340520833   0.416666671583333   0.412638506635987 1
ion Se   0.916666673854167   0.333333338250000   0.587361484715034 1
ion Se   0.833333340520833   0.416666671583333   0.412638506635987 1
ion Se   0.166666673854167   0.583333338250000   0.587361484715034 1
ion Se   0.083333340520833   0.666666671583333   0.412638506635987 1
ion Se   0.416666673854167   0.583333338250000   0.587361484715034 1
ion Se   0.333333340520833   0.666666671583333   0.412638506635987 1
ion Se   0.666666673854167   0.583333338250000   0.587361484715034 1
ion Se   0.583333340520833   0.666666671583333   0.412638506635987 1
ion Se   0.916666673854167   0.583333338250000   0.587361484715034 1
ion Se   0.833333340520833   0.666666671583333   0.412638506635987 1
ion Se   0.166666673854167   0.833333338250000   0.587361484715034 1
ion Se   0.083333340520833   0.916666671583333   0.412638506635987 1
ion Se   0.416666673854167   0.833333338250000   0.587361484715034 1
ion Se   0.333333340520833   0.916666671583333   0.412638506635987 1
ion Se   0.666666673854167   0.833333338250000   0.587361484715034 1
ion Se   0.583333340520833   0.916666671583333   0.412638506635987 1
ion Se   0.916666673854167   0.833333338250000   0.587361484715034 1
ion Se   0.833333340520833   0.916666671583333   0.412638506635987 1
ion-species GBRV/$ID_pbe.uspp
ion-width Ecut
ionic-minimize  \
	dirUpdateScheme      L-BFGS \
	linminMethod         DirUpdateRecommended \
	nIterations          500 \
	history              15 \
	knormThreshold       0.0001 \
	energyDiffThreshold  1e-06 \
	nEnergyDiff          2 \
	alphaTstart          1 \
	alphaTmin            1e-10 \
	updateTestStepSize   yes \
	alphaTreduceFactor   0.1 \
	alphaTincreaseFactor 3 \
	nAlphaAdjustMax      3 \
	wolfeEnergy          0.0001 \
	wolfeGradient        0.9 \
	fdTest               no
kpoint   0.000000000000   0.000000000000   0.000000000000  1.00000000000000
kpoint-folding 4 4 1 
latt-move-scale 1 1 1
latt-scale 1.88973 1.88973 1.88973 
lattice Triclinic 13.253 13.2529 18.1801 90 90 120
lattice-minimize  \
	dirUpdateScheme      L-BFGS \
	linminMethod         DirUpdateRecommended \
	nIterations          0 \
	history              15 \
	knormThreshold       0 \
	energyDiffThreshold  1e-06 \
	nEnergyDiff          2 \
	alphaTstart          1 \
	alphaTmin            1e-10 \
	updateTestStepSize   yes \
	alphaTreduceFactor   0.1 \
	alphaTincreaseFactor 3 \
	nAlphaAdjustMax      3 \
	wolfeEnergy          0.0001 \
	wolfeGradient        0.9 \
	fdTest               no
lcao-params -1 1e-06 0.0073499
pcm-variant CANDLE
spintype z-spin
subspace-rotation-factor 1 yes
symmetries automatic
symmetry-threshold 0.0001



---------- Setting up symmetries ----------

Found 24 point-group symmetries of the bravais lattice
Found 192 space-group symmetries with basis
Applied RMS atom displacement 1.19408e-14 bohrs to make symmetries exact.

---------- Initializing the Grid ----------
R = 
[    25.0445   -12.5222          0  ]
[          0     21.689          0  ]
[          0          0    34.3554  ]
unit cell volume = 18661.6
G =
[    0.25088   0.144846         -0  ]
[          0   0.289694          0  ]
[          0         -0   0.182888  ]
Minimum fftbox size, Smin = [  104  104  140  ]
Chosen fftbox size, S = [  108  108  140  ]

---------- Exchange Correlation functional ----------
Initalized PBE GGA exchange.
Initalized PBE GGA correlation.

---------- Setting up pseudopotentials ----------
Width of ionic core gaussian charges (only for fluid interactions / plotting) set to 0.397384

Reading pseudopotential file '/home/guoxy/vasp/jdftx-1.5.0/build/pseudopotentials/GBRV/v_pbe.uspp':
  Title: V.  Created by USPP 7.3.6 on 31-3-15
  Reference state energy: -72.228583.  13 valence electrons in orbitals:
    |300>  occupation: 2  eigenvalue: -2.581040
    |310>  occupation: 6  eigenvalue: -1.618497
    |400>  occupation: 2  eigenvalue: -0.172800
    |320>  occupation: 3  eigenvalue: -0.189802
  lMax: 2  lLocal: 3  QijEcut: 6
  6 projectors sampled on a log grid with 593 points:
    l: 0  eig: -2.581041  rCut: 1.5
    l: 0  eig: -0.172801  rCut: 1.5
    l: 1  eig: -1.618497  rCut: 1.6
    l: 1  eig: 0.150000  rCut: 1.6
    l: 2  eig: -0.189802  rCut: 1.7
    l: 2  eig: 0.150000  rCut: 1.7
  Partial core density with radius 0.8
  Transforming core density to a uniform radial grid of dG=0.02 with 1504 points.
  Transforming local potential to a uniform radial grid of dG=0.02 with 1504 points.
  Transforming nonlocal projectors to a uniform radial grid of dG=0.02 with 432 points.
  Transforming density augmentations to a uniform radial grid of dG=0.02 with 1504 points.
  Transforming atomic orbitals to a uniform radial grid of dG=0.02 with 432 points.
  Core radius for overlap checks: 1.80 bohrs.

Reading pseudopotential file '/home/guoxy/vasp/jdftx-1.5.0/build/pseudopotentials/GBRV/se_pbe.uspp':
  Title: Se.  Created by USPP 7.3.6 on 14-9-2013
  Reference state energy: -21.672887.  6 valence electrons in orbitals:
    |400>  occupation: 2  eigenvalue: -0.635284
    |410>  occupation: 4  eigenvalue: -0.239295
  lMax: 2  lLocal: 3  QijEcut: 5
  6 projectors sampled on a log grid with 625 points:
    l: 0  eig: -0.635278  rCut: 1.5
    l: 0  eig: 0.500000  rCut: 1.5
    l: 1  eig: -0.239295  rCut: 1.5
    l: 1  eig: 0.500000  rCut: 1.5
    l: 2  eig: 0.000000  rCut: 1.8
    l: 2  eig: 1.000000  rCut: 1.8
  Partial core density with radius 1.2
  Transforming core density to a uniform radial grid of dG=0.02 with 1504 points.
  Transforming local potential to a uniform radial grid of dG=0.02 with 1504 points.
  Transforming nonlocal projectors to a uniform radial grid of dG=0.02 with 432 points.
  Transforming density augmentations to a uniform radial grid of dG=0.02 with 1504 points.
  Transforming atomic orbitals to a uniform radial grid of dG=0.02 with 432 points.
  Core radius for overlap checks: 1.80 bohrs.

Initialized 2 species with 48 total atoms.

Folded 1 k-points by 4x4x1 to 16 k-points.

---------- Setting up k-points, bands, fillings ----------
Adding inversion symmetry to k-mesh for non-inversion-symmetric unit cell.
Reduced to 4 k-points under symmetry. 
Computing the number of bands and number of electrons
Calculating initial fillings.
nElectrons: 400.500000   nBands: 288   nStates: 8

----- Setting up reduced wavefunction bases (one per k-point) -----
average nbasis = 79737.188 , ideal nbasis = 79723.758

---------- Setting up coulomb interaction ----------
Fluid mode embedding: using embedded box, but periodic Coulomb kernel.
(Fluid response is responsible for (approximate) separation between periodic images.)
Setting up double-sized grid for truncated Coulomb potentials:
R = 
[    25.0445   -12.5222          0  ]
[          0     21.689          0  ]
[          0          0    68.7109  ]
unit cell volume = 37323.2
G =
[    0.25088   0.144846         -0  ]
[          0   0.289694          0  ]
[          0         -0  0.0914439  ]
Chosen fftbox size, S = [  108  108  280  ]
Integer grid location selected as the embedding center:
   Grid: [  54  54  70  ]
   Lattice: [  0.5  0.5  0.5  ]
   Cartesian: [  6.26118  10.8445  17.1777  ]
Constructing Wigner-Seitz cell: 8 faces (6 quadrilaterals, 2 hexagons)
Range-separation parameter for embedded mesh potentials due to point charges: 0.624948 bohrs.

Initializing van der Waals corrections
	NOTE: vdW corrections apply only for interactions with fluid.
	 V:  C6:  187.33 Eh-a0^6  R0: 2.952 a0
	Se:  C6:  219.24 Eh-a0^6  R0: 3.347 a0

---------- Setting up ewald sum ----------
Optimum gaussian width for ewald sums = 6.993525 bohr.
Real space sum over 605 unit cells with max indices [  5  5  2  ]
Reciprocal space sum over 7425 terms with max indices [  7  7  16  ]

---------- Allocating electronic variables ----------
Initializing wave functions:  linear combination of atomic orbitals
V pseudo-atom occupations:   s ( 2 0 )  p ( 6 )  d ( 5 )
Se pseudo-atom occupations:   s ( 2 )  p ( 4 )
	FillingsUpdate:  mu: +3.623562352  nElectrons: 400.500000  magneticMoment: [ Abs: 0.96088  Tot: +0.96072 ]
LCAOMinimize: Iter:   0  F: -1205.0747607700370736  |grad|_K:  1.398e-02  alpha:  1.000e+00
LCAOMinimize: 	Wrong curvature in test step, increasing alphaT to 3.000000e+00.
	FillingsUpdate:  mu: -0.755970431  nElectrons: 400.500000  magneticMoment: [ Abs: 0.13270  Tot: +0.05901 ]
LCAOMinimize: Iter:   1  F: -1339.9818315672300741  |grad|_K:  3.628e-03  alpha: -1.505e+01  linmin:  2.280e-02  cgtest: -4.263e+00  t[s]:    121.41
LCAOMinimize: 	Bad step direction: g.d > 0.
LCAOMinimize: 	Undoing step.
LCAOMinimize: 	Step failed: resetting search direction.
	FillingsUpdate:  mu: -0.755970431  nElectrons: 400.500000  magneticMoment: [ Abs: 0.13270  Tot: +0.05901 ]
LCAOMinimize: Iter:   2  F: -1339.9818315672300741  |grad|_K:  3.628e-03  alpha:  0.000e+00
	FillingsUpdate:  mu: -0.755722222  nElectrons: 400.500000  magneticMoment: [ Abs: 0.13500  Tot: +0.06134 ]
LCAOMinimize: Iter:   3  F: -1340.2661478407119375  |grad|_K:  4.057e-03  alpha:  2.862e-02  linmin: -2.213e-02  cgtest:  8.682e-01  t[s]:    182.66
LCAOMinimize: 	Wrong curvature in test step, increasing alphaT to 8.586771e-02.
	FillingsUpdate:  mu: -0.755328140  nElectrons: 400.500000  magneticMoment: [ Abs: 0.13713  Tot: +0.06350 ]
LCAOMinimize: Iter:   4  F: -1340.7747371490354453  |grad|_K:  5.031e-03  alpha: -5.622e-02  linmin: -2.368e-02  cgtest:  7.760e-01  t[s]:    219.06
	FillingsUpdate:  mu: -0.743597623  nElectrons: 400.500000  magneticMoment: [ Abs: 0.12177  Tot: +0.04823 ]
LCAOMinimize: Iter:   5  F: -1366.7770453736131913  |grad|_K:  2.295e-02  alpha:  7.846e-02  linmin: -5.880e-02  cgtest:  1.804e-01  t[s]:    255.76
LCAOMinimize: 	Step increased F by 1.834520e+02, reducing alpha to 3.394318e-03.
	FillingsUpdate:  mu: -0.732433847  nElectrons: 400.500000  magneticMoment: [ Abs: 0.09897  Tot: +0.02550 ]
LCAOMinimize: Iter:   6  F: -1385.7023687368528044  |grad|_K:  7.683e-03  alpha:  3.394e-03  linmin: -8.105e-02  cgtest:  2.418e+00  t[s]:    317.06
LCAOMinimize: Encountered beta<0, resetting CG.
LCAOMinimize: 	Predicted alpha/alphaT>3.000000, increasing alphaT to 1.018295e-02.
LCAOMinimize: 	Predicted alpha/alphaT>3.000000, increasing alphaT to 3.054886e-02.
LCAOMinimize: 	Predicted alpha/alphaT>3.000000, increasing alphaT to 9.164658e-02.
	FillingsUpdate:  mu: -0.714508292  nElectrons: 400.500000  magneticMoment: [ Abs: 0.12774  Tot: +0.05352 ]
LCAOMinimize: Iter:   7  F: -1394.2863409142139517  |grad|_K:  6.810e-03  alpha:  2.579e-01  linmin: -1.139e-01  cgtest:  8.104e-01  t[s]:    377.33
LCAOMinimize: 	Wrong curvature in test step, increasing alphaT to 7.736698e-01.
	FillingsUpdate:  mu: -0.460278297  nElectrons: 400.500000  magneticMoment: [ Abs: 0.07207  Tot: +0.07112 ]
LCAOMinimize: Iter:   8  F: -1434.0409433106417509  |grad|_K:  1.133e-02  alpha: -3.633e-02  linmin: -2.912e-01  cgtest:  2.784e-01  t[s]:    413.91
LCAOMinimize: 	Step increased F by 2.442349e+02, reducing alpha to 3.423521e-02.
	FillingsUpdate:  mu: +0.579295848  nElectrons: 400.500000  magneticMoment: [ Abs: 0.11232  Tot: +0.10380 ]
LCAOMinimize: Iter:   9  F: -1442.8590825898477306  |grad|_K:  2.311e-02  alpha:  3.424e-02  linmin:  4.421e-01  cgtest: -3.270e-01  t[s]:    475.25
LCAOMinimize: 	Bad step direction: g.d > 0.
LCAOMinimize: 	Undoing step.
LCAOMinimize: 	Step failed: resetting search direction.
	FillingsUpdate:  mu: +0.579295848  nElectrons: 400.500000  magneticMoment: [ Abs: 0.11232  Tot: +0.10380 ]
LCAOMinimize: Iter:  10  F: -1442.8590825898477306  |grad|_K:  2.311e-02  alpha:  0.000e+00
	FillingsUpdate:  mu: +0.090889566  nElectrons: 400.500000  magneticMoment: [ Abs: 0.07977  Tot: +0.07184 ]
LCAOMinimize: Iter:  11  F: -1452.3143344505829191  |grad|_K:  5.125e-03  alpha:  4.947e-02  linmin: -4.451e-01  cgtest:  1.185e+00  t[s]:    536.81
LCAOMinimize: Encountered beta<0, resetting CG.
	FillingsUpdate:  mu: -0.092427473  nElectrons: 400.500000  magneticMoment: [ Abs: 0.07072  Tot: +0.06407 ]
LCAOMinimize: Iter:  12  F: -1453.0096189448631776  |grad|_K:  5.620e-04  alpha:  7.636e-02  linmin: -3.699e-01  cgtest:  9.047e-01  t[s]:    573.53
LCAOMinimize: Encountered beta<0, resetting CG.
	FillingsUpdate:  mu: -0.115980837  nElectrons: 400.500000  magneticMoment: [ Abs: 0.06443  Tot: +0.05873 ]
LCAOMinimize: Iter:  13  F: -1453.0230145719062875  |grad|_K:  3.329e-04  alpha:  1.259e-01  linmin: -1.331e-02  cgtest:  3.321e-02  t[s]:    610.35
LCAOMinimize: 	Predicted alpha/alphaT>3.000000, increasing alphaT to 3.778159e-01.
	FillingsUpdate:  mu: -0.095520181  nElectrons: 400.500000  magneticMoment: [ Abs: 0.03215  Tot: +0.03058 ]
LCAOMinimize: Iter:  14  F: -1453.0439218232450003  |grad|_K:  1.475e-04  alpha:  5.794e-01  linmin:  4.822e-02  cgtest: -5.693e-01  t[s]:    658.84
	FillingsUpdate:  mu: -0.099670024  nElectrons: 400.500000  magneticMoment: [ Abs: 0.02860  Tot: +0.02743 ]
LCAOMinimize: Iter:  15  F: -1453.0444045966685280  |grad|_K:  4.565e-05  alpha:  9.128e-02  linmin:  1.608e-02  cgtest:  7.073e-01  t[s]:    695.53
LCAOMinimize: Encountered beta<0, resetting CG.
	FillingsUpdate:  mu: -0.102394510  nElectrons: 400.500000  magneticMoment: [ Abs: 0.02623  Tot: +0.02541 ]
LCAOMinimize: Iter:  16  F: -1453.0445495916633263  |grad|_K:  4.452e-05  alpha:  2.079e-01  linmin: -1.343e-03  cgtest:  3.781e-03  t[s]:    732.08
	FillingsUpdate:  mu: -0.101620177  nElectrons: 400.500000  magneticMoment: [ Abs: 0.02039  Tot: +0.02019 ]
LCAOMinimize: Iter:  17  F: -1453.0447509661801178  |grad|_K:  4.584e-06  alpha:  3.034e-01  linmin:  7.134e-03  cgtest: -2.171e-01  t[s]:    768.46
	FillingsUpdate:  mu: -0.101905977  nElectrons: 400.500000  magneticMoment: [ Abs: 0.01840  Tot: +0.01824 ]
LCAOMinimize: Iter:  18  F: -1453.0447542131755654  |grad|_K:  4.560e-06  alpha:  4.680e-01  linmin: -8.925e-06  cgtest:  1.158e-02  t[s]:    805.57
	FillingsUpdate:  mu: -0.101742246  nElectrons: 400.500000  magneticMoment: [ Abs: 0.01815  Tot: +0.01748 ]
LCAOMinimize: Iter:  19  F: -1453.0447551070576537  |grad|_K:  1.217e-06  alpha:  1.285e-01  linmin: -8.816e-04  cgtest: -6.533e-03  t[s]:    842.24
LCAOMinimize: 	Predicted alpha/alphaT>3.000000, increasing alphaT to 3.856455e-01.
	FillingsUpdate:  mu: -0.101766286  nElectrons: 400.500000  magneticMoment: [ Abs: 0.01918  Tot: +0.01668 ]
LCAOMinimize: Iter:  20  F: -1453.0447553703786525  |grad|_K:  7.510e-07  alpha:  5.320e-01  linmin:  1.545e-04  cgtest: -2.305e-03  t[s]:    890.53
LCAOMinimize: Converged (|Delta F|<1.000000e-06 for 2 iters).
----- createFluidSolver() ----- (Fluid-side solver setup)
   Initializing fluid molecule 'H2O'
     Initializing site 'O'
       Electron density: proportional to exp(-r/0.36935)*erfc((r-0.51523)/0.36823) with norm 6.826
       Charge density: gaussian nuclear width 0.478731 with net site charge 0.826
       Polarizability: cuspless exponential with width 0.32 and norm 3.73
       Hard sphere radius: 2.57003 bohrs
       Positions in reference frame:
         [ +0.000000 +0.000000 +0.000000 ]
     Initializing site 'H'
       Electron density: proportional to exp(-r/0.34641)*erfc((r-0)/0.390882) with norm 0.587
       Charge density: gaussian nuclear width 0.377945 with net site charge -0.413
       Polarizability: cuspless exponential with width 0.39 and norm 3.3
       Positions in reference frame:
         [ +0.000000 -1.441945 +1.122523 ]
         [ +0.000000 +1.441945 +1.122523 ]
     Net charge: 0   dipole magnitude: 0.927204
     Initializing spherical shell mfKernel with radius 2.61727 Bohr
     deltaS corrections:
       site 'O': -7.54299
       site 'H': -6.83917
   Initializing fluid molecule 'Na+'
     Initializing site 'Na'
       Electron density: proportional to exp(-r/0.19682)*erfc((r-0.71491)/0.41314) with norm 8.1383
       Charge density: gaussian nuclear width 0.365347 with net site charge -1
       Hard sphere radius: 1.86327 bohrs
       Positions in reference frame:
         [ +0.000000 +0.000000 +0.000000 ]
     Net charge: -1   dipole magnitude: 0
     Initializing gaussian mfKernel with width: 1.55004 Bohr
     deltaS corrections:
       site 'Na': -22.3555
   Initializing fluid molecule 'F-'
     Initializing site 'F'
       Electron density: proportional to exp(-r/0.38886)*erfc((r-0)/0.438782) with norm 8
       Charge density: gaussian nuclear width 0.374796 with net site charge 1
       Hard sphere radius: 2.39995 bohrs
       Positions in reference frame:
         [ +0.000000 +0.000000 +0.000000 ]
     Net charge: 1   dipole magnitude: 0
     Initializing gaussian mfKernel with width: 1.59012 Bohr
     deltaS corrections:
       site 'F': -9.04335

Correction to mu due to finite nuclear width = -0.0106336
   Cavity determined by nc: 0.00142 and sigma: 0.707107
   Nonlocal vdW cavity from gaussian model electron density with norm = 8 and sigma = 0.993594 bohr
   Charge asymmetry in cavity with sensitivity pCavity = 36.5 e-bohr/Eh
   Electrostatic cavity expanded by eta = 1.46 bohrs
   Weighted density cavitation model constrained by Nbulk: 0.0049383 bohr^-3, Pvap: 3.14029 kPa, Rvdw: 2.61727 bohr and sigmaBulk: 4.62e-05 Eh/bohr^2 at T: 298 K.
   Weighted density dispersion model using vdW pair potentials with single solvent site with sqrtC6eff: 0.77 SI.


---- Citations for features of the code used in this run ----

   Software package:
      R. Sundararaman, K. Letchworth-Weaver, K.A. Schwarz, D. Gunceler, Y. Ozhabes and T.A. Arias, 'JDFTx: software for joint density-functional theory', SoftwareX 6, 278 (2017)

   gga-PBE exchange-correlation functional:
      J.P. Perdew, K. Burke and M. Ernzerhof, Phys. Rev. Lett. 77, 3865 (1996)

   Pseudopotentials:
      KF Garrity, JW Bennett, KM Rabe and D Vanderbilt, Comput. Mater. Sci. 81, 446 (2014)

   Truncated Coulomb potentials:
      R. Sundararaman and T.A. Arias, Phys. Rev. B 87, 165122 (2013)

   Van der Waals correction pair-potentials:
      S. Grimme, J. Comput. Chem. 27, 1787 (2006)

   Charge-asymmetric nonlocally-determined local-electric (CANDLE) solvation model:
      R. Sundararaman and W.A. Goddard III, J. Chem. Phys. 142, 064107 (2015)

   Total energy minimization with Auxiliary Hamiltonian:
      C. Freysoldt, S. Boeck, and J. Neugebauer, Phys. Rev. B 79, 241103(R) (2009)

This list may not be complete. Please suggest additional citations or
report any other bugs at https://github.com/shankar1729/jdftx/issues

Initialization completed successfully at t[s]:    896.06

Fluid solver invoked on fresh (partially random / LCAO) wavefunctions
Running a vacuum solve first:

-------- Initial electronic minimization -----------
	FillingsUpdate:  mu: -0.101766286  nElectrons: 400.500000  magneticMoment: [ Abs: 0.01918  Tot: +0.01668 ]
ElecMinimize: Iter:   0  F: -1453.044755370379562  |grad|_K:  1.114e-04  alpha:  1.000e+00
	FillingsUpdate:  mu: -0.065673997  nElectrons: 400.500000  magneticMoment: [ Abs: 0.02012  Tot: +0.01661 ]
	SubspaceRotationAdjust: set factor to 1
ElecMinimize: Iter:   1  F: -1454.422356490380935  |grad|_K:  7.653e-05  alpha:  6.051e-01  linmin:  4.224e-07  t[s]:    974.24
	FillingsUpdate:  mu: +0.031522509  nElectrons: 400.500000  magneticMoment: [ Abs: 0.02100  Tot: +0.01639 ]
	SubspaceRotationAdjust: set factor to 0.574
ElecMinimize: Iter:   2  F: -1454.835557612544562  |grad|_K:  8.972e-05  alpha:  3.769e-01  linmin: -1.795e-06  t[s]:   1022.22
	FillingsUpdate:  mu: -0.057175833  nElectrons: 400.500000  magneticMoment: [ Abs: 0.02136  Tot: +0.01625 ]
	SubspaceRotationAdjust: set factor to 0.281
ElecMinimize: Iter:   3  F: -1455.092470112376532  |grad|_K:  2.841e-05  alpha:  1.869e-01  linmin:  1.201e-05  t[s]:   1070.20
ElecMinimize: 	Predicted alpha/alphaT>3.000000, increasing alphaT to 5.607853e-01.
	FillingsUpdate:  mu: -0.057466703  nElectrons: 400.500000  magneticMoment: [ Abs: 0.02146  Tot: +0.01567 ]
	SubspaceRotationAdjust: set factor to 0.344
ElecMinimize: Iter:   4  F: -1455.211622466803874  |grad|_K:  1.528e-05  alpha:  8.320e-01  linmin:  1.009e-05  t[s]:   1132.86
	FillingsUpdate:  mu: -0.045018124  nElectrons: 400.500000  magneticMoment: [ Abs: 0.02136  Tot: +0.01534 ]
	SubspaceRotationAdjust: set factor to 0.317
ElecMinimize: Iter:   5  F: -1455.237757032427680  |grad|_K:  1.141e-05  alpha:  6.095e-01  linmin: -2.373e-08  t[s]:   1180.45
	FillingsUpdate:  mu: -0.057146952  nElectrons: 400.500000  magneticMoment: [ Abs: 0.02103  Tot: +0.01498 ]
	SubspaceRotationAdjust: set factor to 0.268
ElecMinimize: Iter:   6  F: -1455.248939970391120  |grad|_K:  6.844e-06  alpha:  4.666e-01  linmin:  8.052e-08  t[s]:   1228.67
	FillingsUpdate:  mu: -0.050462229  nElectrons: 400.500000  magneticMoment: [ Abs: 0.02066  Tot: +0.01460 ]
	SubspaceRotationAdjust: set factor to 0.259
ElecMinimize: Iter:   7  F: -1455.254023756594734  |grad|_K:  4.714e-06  alpha:  5.900e-01  linmin:  3.375e-07  t[s]:   1276.49
	FillingsUpdate:  mu: -0.053274124  nElectrons: 400.500000  magneticMoment: [ Abs: 0.02017  Tot: +0.01417 ]
	SubspaceRotationAdjust: set factor to 0.29
ElecMinimize: Iter:   8  F: -1455.256692195049027  |grad|_K:  3.023e-06  alpha:  6.534e-01  linmin:  1.562e-07  t[s]:   1324.87
	FillingsUpdate:  mu: -0.053697916  nElectrons: 400.500000  magneticMoment: [ Abs: 0.01977  Tot: +0.01384 ]
	SubspaceRotationAdjust: set factor to 0.327
ElecMinimize: Iter:   9  F: -1455.257684117857480  |grad|_K:  2.174e-06  alpha:  5.902e-01  linmin:  8.351e-08  t[s]:   1372.27
	FillingsUpdate:  mu: -0.053445850  nElectrons: 400.500000  magneticMoment: [ Abs: 0.01931  Tot: +0.01348 ]
	SubspaceRotationAdjust: set factor to 0.365
ElecMinimize: Iter:  10  F: -1455.258196812299275  |grad|_K:  1.545e-06  alpha:  5.896e-01  linmin:  2.219e-07  t[s]:   1420.38
	FillingsUpdate:  mu: -0.053924732  nElectrons: 400.500000  magneticMoment: [ Abs: 0.01876  Tot: +0.01305 ]
	SubspaceRotationAdjust: set factor to 0.389
ElecMinimize: Iter:  11  F: -1455.258482477487632  |grad|_K:  1.037e-06  alpha:  6.517e-01  linmin:  6.806e-07  t[s]:   1468.46
	FillingsUpdate:  mu: -0.052939130  nElectrons: 400.500000  magneticMoment: [ Abs: 0.01827  Tot: +0.01267 ]
	SubspaceRotationAdjust: set factor to 0.347
ElecMinimize: Iter:  12  F: -1455.258593509087632  |grad|_K:  8.257e-07  alpha:  5.620e-01  linmin:  2.809e-07  t[s]:   1515.95
	FillingsUpdate:  mu: -0.054035225  nElectrons: 400.500000  magneticMoment: [ Abs: 0.01778  Tot: +0.01231 ]
	SubspaceRotationAdjust: set factor to 0.261
ElecMinimize: Iter:  13  F: -1455.258650211510030  |grad|_K:  5.497e-07  alpha:  4.516e-01  linmin:  8.348e-07  t[s]:   1563.81
	FillingsUpdate:  mu: -0.053782139  nElectrons: 400.500000  magneticMoment: [ Abs: 0.01717  Tot: +0.01187 ]
	SubspaceRotationAdjust: set factor to 0.271
ElecMinimize: Iter:  14  F: -1455.258685852213375  |grad|_K:  3.955e-07  alpha:  6.425e-01  linmin:  3.208e-06  t[s]:   1611.74
	FillingsUpdate:  mu: -0.053652372  nElectrons: 400.500000  magneticMoment: [ Abs: 0.01657  Tot: +0.01144 ]
	SubspaceRotationAdjust: set factor to 0.285
ElecMinimize: Iter:  15  F: -1455.258706762298516  |grad|_K:  3.153e-07  alpha:  7.283e-01  linmin:  5.009e-07  t[s]:   1659.51
	FillingsUpdate:  mu: -0.053842068  nElectrons: 400.500000  magneticMoment: [ Abs: 0.01598  Tot: +0.01104 ]
	SubspaceRotationAdjust: set factor to 0.299
ElecMinimize: Iter:  16  F: -1455.258719091118110  |grad|_K:  2.689e-07  alpha:  6.747e-01  linmin:  1.006e-07  t[s]:   1707.86
	FillingsUpdate:  mu: -0.053719379  nElectrons: 400.500000  magneticMoment: [ Abs: 0.01531  Tot: +0.01057 ]
	SubspaceRotationAdjust: set factor to 0.316
ElecMinimize: Iter:  17  F: -1455.258728294108778  |grad|_K:  2.266e-07  alpha:  6.917e-01  linmin:  5.489e-08  t[s]:   1755.74
	FillingsUpdate:  mu: -0.053861995  nElectrons: 400.500000  magneticMoment: [ Abs: 0.01460  Tot: +0.01008 ]
	SubspaceRotationAdjust: set factor to 0.323
ElecMinimize: Iter:  18  F: -1455.258734685356785  |grad|_K:  1.832e-07  alpha:  6.765e-01  linmin:  8.012e-08  t[s]:   1803.52
	FillingsUpdate:  mu: -0.053711146  nElectrons: 400.500000  magneticMoment: [ Abs: 0.01394  Tot: +0.00962 ]
	SubspaceRotationAdjust: set factor to 0.318
ElecMinimize: Iter:  19  F: -1455.258738668356273  |grad|_K:  1.376e-07  alpha:  6.451e-01  linmin:  1.707e-07  t[s]:   1852.02
	FillingsUpdate:  mu: -0.053776868  nElectrons: 400.500000  magneticMoment: [ Abs: 0.01336  Tot: +0.00922 ]
	SubspaceRotationAdjust: set factor to 0.325
ElecMinimize: Iter:  20  F: -1455.258740884391727  |grad|_K:  1.038e-07  alpha:  6.361e-01  linmin:  3.746e-07  t[s]:   1899.89
	FillingsUpdate:  mu: -0.053761783  nElectrons: 400.500000  magneticMoment: [ Abs: 0.01284  Tot: +0.00887 ]
	SubspaceRotationAdjust: set factor to 0.356
ElecMinimize: Iter:  21  F: -1455.258742088320787  |grad|_K:  7.322e-08  alpha:  6.078e-01  linmin:  2.730e-07  t[s]:   1947.99
	FillingsUpdate:  mu: -0.053739874  nElectrons: 400.500000  magneticMoment: [ Abs: 0.01237  Tot: +0.00854 ]
	SubspaceRotationAdjust: set factor to 0.395
ElecMinimize: Iter:  22  F: -1455.258742724301783  |grad|_K:  4.985e-08  alpha:  6.447e-01  linmin:  1.216e-07  t[s]:   1995.92
	FillingsUpdate:  mu: -0.053745415  nElectrons: 400.500000  magneticMoment: [ Abs: 0.01192  Tot: +0.00823 ]
	SubspaceRotationAdjust: set factor to 0.443
ElecMinimize: Iter:  23  F: -1455.258743027098035  |grad|_K:  3.623e-08  alpha:  6.622e-01  linmin:  4.178e-08  t[s]:   2043.62
	FillingsUpdate:  mu: -0.053727283  nElectrons: 400.500000  magneticMoment: [ Abs: 0.01152  Tot: +0.00795 ]
	SubspaceRotationAdjust: set factor to 0.476
ElecMinimize: Iter:  24  F: -1455.258743166619979  |grad|_K:  2.609e-08  alpha:  5.776e-01  linmin:  7.439e-09  t[s]:   2091.54
	FillingsUpdate:  mu: -0.053755459  nElectrons: 400.500000  magneticMoment: [ Abs: 0.01116  Tot: +0.00770 ]
	SubspaceRotationAdjust: set factor to 0.413
ElecMinimize: Iter:  25  F: -1455.258743226735533  |grad|_K:  2.032e-08  alpha:  4.797e-01  linmin:  1.581e-08  t[s]:   2139.38
	FillingsUpdate:  mu: -0.053733842  nElectrons: 400.500000  magneticMoment: [ Abs: 0.01079  Tot: +0.00744 ]
	SubspaceRotationAdjust: set factor to 0.325
ElecMinimize: Iter:  26  F: -1455.258743259630592  |grad|_K:  1.359e-08  alpha:  4.334e-01  linmin: -1.982e-08  t[s]:   2187.48
	FillingsUpdate:  mu: -0.053743087  nElectrons: 400.500000  magneticMoment: [ Abs: 0.01041  Tot: +0.00718 ]
	SubspaceRotationAdjust: set factor to 0.333
ElecMinimize: Iter:  27  F: -1455.258743277636995  |grad|_K:  9.620e-09  alpha:  5.296e-01  linmin:  1.047e-08  t[s]:   2235.11
	FillingsUpdate:  mu: -0.053744855  nElectrons: 400.500000  magneticMoment: [ Abs: 0.01003  Tot: +0.00692 ]
	SubspaceRotationAdjust: set factor to 0.355
ElecMinimize: Iter:  28  F: -1455.258743288450205  |grad|_K:  7.045e-09  alpha:  6.326e-01  linmin: -6.013e-07  t[s]:   2283.22
	FillingsUpdate:  mu: -0.053742262  nElectrons: 400.500000  magneticMoment: [ Abs: 0.00963  Tot: +0.00665 ]
	SubspaceRotationAdjust: set factor to 0.374
ElecMinimize: Iter:  29  F: -1455.258743294658188  |grad|_K:  5.863e-09  alpha:  6.761e-01  linmin: -8.614e-08  t[s]:   2331.29
	FillingsUpdate:  mu: -0.053746975  nElectrons: 400.500000  magneticMoment: [ Abs: 0.00922  Tot: +0.00636 ]
	SubspaceRotationAdjust: set factor to 0.375
ElecMinimize: Iter:  30  F: -1455.258743298625632  |grad|_K:  5.063e-09  alpha:  6.257e-01  linmin: -4.102e-07  t[s]:   2379.24
ElecMinimize: Converged (|Delta F|<1.000000e-08 for 2 iters).
Setting wave functions to eigenvectors of Hamiltonian
Vacuum energy after initial minimize, F = -1455.258743298625632

	Linear fluid (dielectric constant: 78.4, screening length: 5.74355 Bohr) occupying 0.748672 of unit cell:	Completed after 15 iterations at t[s]:   2392.74

-------- Electronic minimization -----------
	Linear fluid (dielectric constant: 78.4, screening length: 5.74355 Bohr) occupying 0.748672 of unit cell:	Completed after 0 iterations at t[s]:   2409.16
	FillingsUpdate:  mu: -0.166686969  nElectrons: 400.500000  magneticMoment: [ Abs: 0.00857  Tot: +0.00589 ]
ElecMinimize: Iter:   0  F: -1455.296103737638305  |grad|_K:  9.766e-07  alpha:  1.000e+00
	Linear fluid (dielectric constant: 78.4, screening length: 5.74355 Bohr) occupying 0.749000 of unit cell:	Completed after 9 iterations at t[s]:   2448.20
	Linear fluid (dielectric constant: 78.4, screening length: 5.74355 Bohr) occupying 0.748870 of unit cell:	Completed after 8 iterations at t[s]:   2469.09
	FillingsUpdate:  mu: -0.168823306  nElectrons: 400.500000  magneticMoment: [ Abs: 0.00842  Tot: +0.00579 ]
	SubspaceRotationAdjust: set factor to 0.297
ElecMinimize: Iter:   1  F: -1455.296208933206799  |grad|_K:  1.022e-06  alpha:  5.988e-01  linmin:  1.927e-07  t[s]:   2493.17
	Linear fluid (dielectric constant: 78.4, screening length: 5.74355 Bohr) occupying 0.749240 of unit cell:	Completed after 7 iterations at t[s]:   2508.19
	Linear fluid (dielectric constant: 78.4, screening length: 5.74355 Bohr) occupying 0.749185 of unit cell:	Completed after 2 iterations at t[s]:   2527.74
	FillingsUpdate:  mu: -0.167715777  nElectrons: 400.500000  magneticMoment: [ Abs: 0.00815  Tot: +0.00563 ]
	SubspaceRotationAdjust: set factor to 0.351
ElecMinimize: Iter:   2  F: -1455.296306133172948  |grad|_K:  6.091e-07  alpha:  5.075e-01  linmin: -3.459e-07  t[s]:   2550.71
	Linear fluid (dielectric constant: 78.4, screening length: 5.74355 Bohr) occupying 0.749333 of unit cell:	Completed after 7 iterations at t[s]:   2565.60
	Linear fluid (dielectric constant: 78.4, screening length: 5.74355 Bohr) occupying 0.749363 of unit cell:	Completed after 3 iterations at t[s]:   2585.63
	FillingsUpdate:  mu: -0.167208173  nElectrons: 400.500000  magneticMoment: [ Abs: 0.00793  Tot: +0.00548 ]
	SubspaceRotationAdjust: set factor to 0.368
ElecMinimize: Iter:   3  F: -1455.296348113024578  |grad|_K:  3.219e-07  alpha:  6.129e-01  linmin: -1.433e-07  t[s]:   2608.88
	Linear fluid (dielectric constant: 78.4, screening length: 5.74355 Bohr) occupying 0.749414 of unit cell:	Completed after 6 iterations at t[s]:   2623.58
	Linear fluid (dielectric constant: 78.4, screening length: 5.74355 Bohr) occupying 0.749429 of unit cell:	Completed after 2 iterations at t[s]:   2642.86
	FillingsUpdate:  mu: -0.166807616  nElectrons: 400.500000  magneticMoment: [ Abs: 0.00769  Tot: +0.00531 ]
	SubspaceRotationAdjust: set factor to 0.411
ElecMinimize: Iter:   4  F: -1455.296363560313921  |grad|_K:  1.826e-07  alpha:  7.990e-01  linmin: -4.947e-06  t[s]:   2665.68
	Linear fluid (dielectric constant: 78.4, screening length: 5.74355 Bohr) occupying 0.749442 of unit cell:	Completed after 2 iterations at t[s]:   2679.77
	Linear fluid (dielectric constant: 78.4, screening length: 5.74355 Bohr) occupying 0.749437 of unit cell:	Completed after 2 iterations at t[s]:   2698.34
	FillingsUpdate:  mu: -0.167061332  nElectrons: 400.500000  magneticMoment: [ Abs: 0.00754  Tot: +0.00521 ]
	SubspaceRotationAdjust: set factor to 0.303
ElecMinimize: Iter:   5  F: -1455.296366566335564  |grad|_K:  1.595e-07  alpha:  4.710e-01  linmin:  1.322e-06  t[s]:   2721.51
	Linear fluid (dielectric constant: 78.4, screening length: 5.74355 Bohr) occupying 0.749442 of unit cell:	Completed after 2 iterations at t[s]:   2735.50
	Linear fluid (dielectric constant: 78.4, screening length: 5.74355 Bohr) occupying 0.749443 of unit cell:	Completed after 0 iterations at t[s]:   2753.57
	FillingsUpdate:  mu: -0.166933125  nElectrons: 400.500000  magneticMoment: [ Abs: 0.00729  Tot: +0.00503 ]
	SubspaceRotationAdjust: set factor to 0.316
ElecMinimize: Iter:   6  F: -1455.296369163658483  |grad|_K:  8.602e-08  alpha:  5.545e-01  linmin: -9.700e-06  t[s]:   2775.91
	Linear fluid (dielectric constant: 78.4, screening length: 5.74355 Bohr) occupying 0.749444 of unit cell:	Completed after 2 iterations at t[s]:   2789.90
	Linear fluid (dielectric constant: 78.4, screening length: 5.74355 Bohr) occupying 0.749444 of unit cell:	Completed after 0 iterations at t[s]:   2808.37
	FillingsUpdate:  mu: -0.166897702  nElectrons: 400.500000  magneticMoment: [ Abs: 0.00710  Tot: +0.00491 ]
	SubspaceRotationAdjust: set factor to 0.326
ElecMinimize: Iter:   7  F: -1455.296370063411132  |grad|_K:  6.666e-08  alpha:  6.154e-01  linmin: -3.010e-05  t[s]:   2830.56
	Linear fluid (dielectric constant: 78.4, screening length: 5.74355 Bohr) occupying 0.749444 of unit cell:	Completed after 3 iterations at t[s]:   2844.86
	Linear fluid (dielectric constant: 78.4, screening length: 5.74355 Bohr) occupying 0.749444 of unit cell:	Completed after 0 iterations at t[s]:   2863.11
	FillingsUpdate:  mu: -0.166991260  nElectrons: 400.500000  magneticMoment: [ Abs: 0.00695  Tot: +0.00480 ]
	SubspaceRotationAdjust: set factor to 0.279
ElecMinimize: Iter:   8  F: -1455.296370478969493  |grad|_K:  5.839e-08  alpha:  4.393e-01  linmin:  2.298e-04  t[s]:   2885.07
	Linear fluid (dielectric constant: 78.4, screening length: 5.74355 Bohr) occupying 0.749444 of unit cell:	Completed after 1 iterations at t[s]:   2899.02
	Linear fluid (dielectric constant: 78.4, screening length: 5.74355 Bohr) occupying 0.749444 of unit cell:	Completed after 0 iterations at t[s]:   2916.82
	FillingsUpdate:  mu: -0.166943593  nElectrons: 400.500000  magneticMoment: [ Abs: 0.00681  Tot: +0.00471 ]
	SubspaceRotationAdjust: set factor to 0.245
ElecMinimize: Iter:   9  F: -1455.296370626938369  |grad|_K:  3.411e-08  alpha:  3.109e-01  linmin: -1.514e-05  t[s]:   2939.31
	Linear fluid (dielectric constant: 78.4, screening length: 5.74355 Bohr) occupying 0.749444 of unit cell:	Completed after 0 iterations at t[s]:   2952.94
	Linear fluid (dielectric constant: 78.4, screening length: 5.74355 Bohr) occupying 0.749445 of unit cell:	Completed after 0 iterations at t[s]:   2970.08
	FillingsUpdate:  mu: -0.166943183  nElectrons: 400.500000  magneticMoment: [ Abs: 0.00666  Tot: +0.00460 ]
	SubspaceRotationAdjust: set factor to 0.282
ElecMinimize: Iter:  10  F: -1455.296370745401418  |grad|_K:  2.585e-08  alpha:  5.286e-01  linmin: -1.677e-07  t[s]:   2992.52
	Linear fluid (dielectric constant: 78.4, screening length: 5.74355 Bohr) occupying 0.749445 of unit cell:	Completed after 0 iterations at t[s]:   3006.17
	Linear fluid (dielectric constant: 78.4, screening length: 5.74355 Bohr) occupying 0.749445 of unit cell:	Completed after 1 iterations at t[s]:   3023.84
	FillingsUpdate:  mu: -0.166973212  nElectrons: 400.500000  magneticMoment: [ Abs: 0.00647  Tot: +0.00448 ]
	SubspaceRotationAdjust: set factor to 0.256
ElecMinimize: Iter:  11  F: -1455.296370772464797  |grad|_K:  1.890e-08  alpha:  6.272e-01  linmin:  3.655e-05  t[s]:   3046.83
	Linear fluid (dielectric constant: 78.4, screening length: 5.74355 Bohr) occupying 0.749445 of unit cell:	Completed after 0 iterations at t[s]:   3060.37
	Linear fluid (dielectric constant: 78.4, screening length: 5.74355 Bohr) occupying 0.749445 of unit cell:	Completed after 0 iterations at t[s]:   3077.58
	FillingsUpdate:  mu: -0.166973293  nElectrons: 400.500000  magneticMoment: [ Abs: 0.00630  Tot: +0.00436 ]
	SubspaceRotationAdjust: set factor to 0.333
ElecMinimize: Iter:  12  F: -1455.296370799278975  |grad|_K:  1.311e-08  alpha:  5.984e-01  linmin:  2.198e-08  t[s]:   3100.17
	Linear fluid (dielectric constant: 78.4, screening length: 5.74355 Bohr) occupying 0.749446 of unit cell:	Completed after 0 iterations at t[s]:   3113.79
	Linear fluid (dielectric constant: 78.4, screening length: 5.74355 Bohr) occupying 0.749446 of unit cell:	Completed after 0 iterations at t[s]:   3131.21
	FillingsUpdate:  mu: -0.166973930  nElectrons: 400.500000  magneticMoment: [ Abs: 0.00613  Tot: +0.00424 ]
	SubspaceRotationAdjust: set factor to 0.416
ElecMinimize: Iter:  13  F: -1455.296370820169386  |grad|_K:  1.270e-08  alpha:  6.601e-01  linmin: -1.615e-07  t[s]:   3153.87
	Linear fluid (dielectric constant: 78.4, screening length: 5.74355 Bohr) occupying 0.749446 of unit cell:	Completed after 2 iterations at t[s]:   3167.85
	Linear fluid (dielectric constant: 78.4, screening length: 5.74355 Bohr) occupying 0.749446 of unit cell:	Completed after 0 iterations at t[s]:   3186.01
	FillingsUpdate:  mu: -0.166903780  nElectrons: 400.500000  magneticMoment: [ Abs: 0.00608  Tot: +0.00420 ]
	SubspaceRotationAdjust: set factor to 0.312
ElecMinimize: Iter:  14  F: -1455.296370844737339  |grad|_K:  3.876e-08  alpha:  1.151e-01  linmin:  8.961e-05  t[s]:   3208.27
ElecMinimize: 	Bad step direction: g.d > 0.
ElecMinimize: 	Undoing step.
	Linear fluid (dielectric constant: 78.4, screening length: 5.74355 Bohr) occupying 0.749446 of unit cell:	Completed after 0 iterations at t[s]:   3221.85
ElecMinimize: 	Step failed: resetting search direction.
	FillingsUpdate:  mu: -0.166903780  nElectrons: 400.500000  magneticMoment: [ Abs: 0.00608  Tot: +0.00420 ]
	SubspaceRotationAdjust: set factor to 0.26
ElecMinimize: Iter:  15  F: -1455.296370844739386  |grad|_K:  3.538e-08  alpha:  0.000e+00
	Linear fluid (dielectric constant: 78.4, screening length: 5.74355 Bohr) occupying 0.749446 of unit cell:	Completed after 0 iterations at t[s]:   3257.50
ElecMinimize: 	Predicted alpha/alphaT>3.000000, increasing alphaT to 3.451830e-01.
	Linear fluid (dielectric constant: 78.4, screening length: 5.74355 Bohr) occupying 0.749446 of unit cell:	Completed after 1 iterations at t[s]:   3275.14
	Linear fluid (dielectric constant: 78.4, screening length: 5.74355 Bohr) occupying 0.749446 of unit cell:	Completed after 0 iterations at t[s]:   3293.20
ElecMinimize: 	Step increased F by 1.198941e-08, reducing alpha to 1.077563e-02.
	Linear fluid (dielectric constant: 78.4, screening length: 5.74355 Bohr) occupying 0.749446 of unit cell:	Completed after 0 iterations at t[s]:   3326.95
	FillingsUpdate:  mu: -0.166990263  nElectrons: 400.500000  magneticMoment: [ Abs: 0.00608  Tot: +0.00420 ]
	SubspaceRotationAdjust: set factor to 0.14
ElecMinimize: Iter:  16  F: -1455.296370866465168  |grad|_K:  2.958e-08  alpha:  1.078e-02  linmin:  1.947e-03  t[s]:   3349.37
	Linear fluid (dielectric constant: 78.4, screening length: 5.74355 Bohr) occupying 0.749446 of unit cell:	Completed after 0 iterations at t[s]:   3362.82
ElecMinimize: 	Wrong curvature in test step, increasing alphaT to 3.232688e-02.
	Linear fluid (dielectric constant: 78.4, screening length: 5.74355 Bohr) occupying 0.749446 of unit cell:	Completed after 0 iterations at t[s]:   3377.38
	FillingsUpdate:  mu: -0.166990270  nElectrons: 400.500000  magneticMoment: [ Abs: 0.00608  Tot: +0.00420 ]
	SubspaceRotationAdjust: set factor to 0.148
ElecMinimize: Iter:  17  F: -1455.296370867456062  |grad|_K:  2.483e-08  alpha: -1.501e-01  linmin: -3.726e-04  t[s]:   3399.55
	Linear fluid (dielectric constant: 78.4, screening length: 5.74355 Bohr) occupying 0.749446 of unit cell:	Completed after 2 iterations at t[s]:   3413.58
	Linear fluid (dielectric constant: 78.4, screening length: 5.74355 Bohr) occupying 0.749446 of unit cell:	Completed after 2 iterations at t[s]:   3432.24
ElecMinimize: 	Step increased F by 6.071468e-08, reducing alpha to 1.742021e-02.
	Linear fluid (dielectric constant: 78.4, screening length: 5.74355 Bohr) occupying 0.749446 of unit cell:	Completed after 0 iterations at t[s]:   3466.17
ElecMinimize: 	Step increased F by 3.617674e-08, reducing alpha to 1.742021e-03.
	Linear fluid (dielectric constant: 78.4, screening length: 5.74355 Bohr) occupying 0.749446 of unit cell:	Completed after 0 iterations at t[s]:   3499.69
ElecMinimize: 	Step increased F by 3.424429e-08, reducing alpha to 1.742021e-04.
ElecMinimize: 	Step failed to reduce F after 3 attempts. Quitting step.
ElecMinimize: 	Undoing step.
	Linear fluid (dielectric constant: 78.4, screening length: 5.74355 Bohr) occupying 0.749446 of unit cell:	Completed after 0 iterations at t[s]:   3533.15
ElecMinimize: 	Step failed: resetting search direction.
	FillingsUpdate:  mu: -0.166919839  nElectrons: 400.500000  magneticMoment: [ Abs: 0.00608  Tot: +0.00420 ]
	SubspaceRotationAdjust: set factor to 0.101
ElecMinimize: Iter:  18  F: -1455.296370833211313  |grad|_K:  2.262e-08  alpha:  1.742e-04
	Linear fluid (dielectric constant: 78.4, screening length: 5.74355 Bohr) occupying 0.749446 of unit cell:	Completed after 2 iterations at t[s]:   3569.27
	Linear fluid (dielectric constant: 78.4, screening length: 5.74355 Bohr) occupying 0.749446 of unit cell:	Completed after 1 iterations at t[s]:   3587.38
	FillingsUpdate:  mu: -0.166992062  nElectrons: 400.500000  magneticMoment: [ Abs: 0.00606  Tot: +0.00419 ]
	SubspaceRotationAdjust: set factor to 0.0766
ElecMinimize: Iter:  19  F: -1455.296370843369914  |grad|_K:  2.680e-08  alpha:  2.122e-01  linmin:  1.681e-03  t[s]:   3610.30
ElecMinimize: 	Bad step direction: g.d > 0.
ElecMinimize: 	Undoing step.
	Linear fluid (dielectric constant: 78.4, screening length: 5.74355 Bohr) occupying 0.749446 of unit cell:	Completed after 0 iterations at t[s]:   3623.82
ElecMinimize: 	Step failed: resetting search direction.
	FillingsUpdate:  mu: -0.166992062  nElectrons: 400.500000  magneticMoment: [ Abs: 0.00606  Tot: +0.00419 ]
	SubspaceRotationAdjust: set factor to 0.101
ElecMinimize: Iter:  20  F: -1455.296370843380373  |grad|_K:  2.591e-08  alpha:  0.000e+00
	Linear fluid (dielectric constant: 78.4, screening length: 5.74355 Bohr) occupying 0.749446 of unit cell:	Completed after 1 iterations at t[s]:   3659.76
	Linear fluid (dielectric constant: 78.4, screening length: 5.74355 Bohr) occupying 0.749446 of unit cell:	Completed after 0 iterations at t[s]:   3678.04
ElecMinimize: 	Step increased F by 1.385433e-08, reducing alpha to 1.009183e-02.
	Linear fluid (dielectric constant: 78.4, screening length: 5.74355 Bohr) occupying 0.749446 of unit cell:	Completed after 0 iterations at t[s]:   3711.40
ElecMinimize: 	Step increased F by 2.537854e-08, reducing alpha to 1.009183e-03.
	Linear fluid (dielectric constant: 78.4, screening length: 5.74355 Bohr) occupying 0.749446 of unit cell:	Completed after 0 iterations at t[s]:   3745.03
ElecMinimize: 	Step increased F by 2.667298e-08, reducing alpha to 1.009183e-04.
ElecMinimize: 	Step failed to reduce F after 3 attempts. Quitting step.
ElecMinimize: 	Undoing step.
	Linear fluid (dielectric constant: 78.4, screening length: 5.74355 Bohr) occupying 0.749446 of unit cell:	Completed after 0 iterations at t[s]:   3778.39
ElecMinimize: 	Step failed along negative gradient direction.
ElecMinimize: Probably at roundoff error limit. (Stopping)
Setting wave functions to eigenvectors of Hamiltonian
Single-point solvation energy estimate, DeltaF = -0.037627518006502

# Ionic positions in lattice coordinates:
ion V   0.000000007187500   0.000000004916667   0.499999995675510 1
ion V   0.250000007187500   0.000000004916667   0.499999995675510 1
ion V   0.500000007187500   0.000000004916667   0.499999995675510 1
ion V   0.750000007187500   0.000000004916667   0.499999995675510 1
ion V   0.000000007187500   0.250000004916667   0.499999995675510 1
ion V   0.250000007187500   0.250000004916667   0.499999995675510 1
ion V   0.500000007187500   0.250000004916667   0.499999995675510 1
ion V   0.750000007187500   0.250000004916667   0.499999995675510 1
ion V   0.000000007187500   0.500000004916667   0.499999995675510 1
ion V   0.250000007187500   0.500000004916667   0.499999995675510 1
ion V   0.500000007187500   0.500000004916667   0.499999995675510 1
ion V   0.750000007187500   0.500000004916667   0.499999995675510 1
ion V   1.000000007187500   0.750000004916667   0.499999995675510 1
ion V   0.250000007187500   0.750000004916667   0.499999995675510 1
ion V   0.500000007187500   0.750000004916667   0.499999995675510 1
ion V   0.750000007187500   0.750000004916667   0.499999995675510 1
ion Se   0.166666673854167   0.083333338250000   0.587361484715034 1
ion Se   0.083333340520833   0.166666671583333   0.412638506635987 1
ion Se   0.416666673854167   0.083333338250000   0.587361484715034 1
ion Se   0.333333340520833   0.166666671583333   0.412638506635987 1
ion Se   0.666666673854167   0.083333338250000   0.587361484715034 1
ion Se   0.583333340520833   0.166666671583333   0.412638506635987 1
ion Se   0.916666673854167   0.083333338250000   0.587361484715034 1
ion Se   0.833333340520833   0.166666671583333   0.412638506635987 1
ion Se   0.166666673854167   0.333333338250000   0.587361484715034 1
ion Se   0.083333340520833   0.416666671583333   0.412638506635987 1
ion Se   0.416666673854167   0.333333338250000   0.587361484715034 1
ion Se   0.333333340520833   0.416666671583333   0.412638506635987 1
ion Se   0.666666673854167   0.333333338250000   0.587361484715034 1
ion Se   0.583333340520833   0.416666671583333   0.412638506635987 1
ion Se   0.916666673854167   0.333333338250000   0.587361484715034 1
ion Se   0.833333340520833   0.416666671583333   0.412638506635987 1
ion Se   0.166666673854167   0.583333338250000   0.587361484715034 1
ion Se   0.083333340520833   0.666666671583333   0.412638506635987 1
ion Se   0.416666673854167   0.583333338250000   0.587361484715034 1
ion Se   0.333333340520833   0.666666671583333   0.412638506635987 1
ion Se   0.666666673854167   0.583333338250000   0.587361484715034 1
ion Se   0.583333340520833   0.666666671583333   0.412638506635987 1
ion Se   0.916666673854167   0.583333338250000   0.587361484715034 1
ion Se   0.833333340520833   0.666666671583333   0.412638506635987 1
ion Se   0.166666673854167   0.833333338250000   0.587361484715034 1
ion Se   0.083333340520833   0.916666671583333   0.412638506635987 1
ion Se   0.416666673854167   0.833333338250000   0.587361484715034 1
ion Se   0.333333340520833   0.916666671583333   0.412638506635987 1
ion Se   0.666666673854167   0.833333338250000   0.587361484715034 1
ion Se   0.583333340520833   0.916666671583333   0.412638506635987 1
ion Se   0.916666673854167   0.833333338250000   0.587361484715034 1
ion Se   0.833333340520833   0.916666671583333   0.412638506635987 1


# Forces in Lattice coordinates:
force V   0.000000000000000  -0.000000000000000   0.000000000000000 1
force V   0.000000000000000  -0.000000000000000  -0.000000000000000 1
force V  -0.000000000000000   0.000000000000000  -0.000000000000000 1
force V   0.000000000000000   0.000000000000000  -0.000000000000000 1
force V   0.000000000000000   0.000000000000000   0.000000000000000 1
force V  -0.000000000000000   0.000000000000000   0.000000000000000 1
force V  -0.000000000000000   0.000000000000000   0.000000000000000 1
force V  -0.000000000000000  -0.000000000000000  -0.000000000000000 1
force V  -0.000000000000000  -0.000000000000000  -0.000000000000000 1
force V   0.000000000000000  -0.000000000000000   0.000000000000000 1
force V   0.000000000000000  -0.000000000000000   0.000000000000000 1
force V  -0.000000000000000  -0.000000000000000  -0.000000000000000 1
force V  -0.000000000000000  -0.000000000000000  -0.000000000000000 1
force V   0.000000000000000  -0.000000000000000   0.000000000000000 1
force V  -0.000000000000000  -0.000000000000000   0.000000000000000 1
force V  -0.000000000000000   0.000000000000000   0.000000000000000 1
force Se   0.000000000000000  -0.000000000000000  -0.007559316290912 1
force Se  -0.000000000000000  -0.000000000000000   0.007559316290799 1
force Se   0.000000000000000  -0.000000000000000  -0.007559316290913 1
force Se  -0.000000000000000   0.000000000000000   0.007559316290803 1
force Se  -0.000000000000000   0.000000000000000  -0.007559316290913 1
force Se  -0.000000000000000   0.000000000000000   0.007559316290802 1
force Se  -0.000000000000000   0.000000000000000  -0.007559316290913 1
force Se   0.000000000000000   0.000000000000000   0.007559316290803 1
force Se  -0.000000000000000  -0.000000000000000  -0.007559316290914 1
force Se   0.000000000000000  -0.000000000000000   0.007559316290800 1
force Se   0.000000000000000  -0.000000000000000  -0.007559316290912 1
force Se  -0.000000000000000  -0.000000000000000   0.007559316290801 1
force Se   0.000000000000000  -0.000000000000000  -0.007559316290914 1
force Se   0.000000000000000   0.000000000000000   0.007559316290802 1
force Se  -0.000000000000000   0.000000000000000  -0.007559316290913 1
force Se   0.000000000000000   0.000000000000000   0.007559316290802 1
force Se   0.000000000000000  -0.000000000000000  -0.007559316290912 1
force Se  -0.000000000000000   0.000000000000000   0.007559316290800 1
force Se  -0.000000000000000  -0.000000000000000  -0.007559316290914 1
force Se   0.000000000000000  -0.000000000000000   0.007559316290803 1
force Se  -0.000000000000000  -0.000000000000000  -0.007559316290914 1
force Se   0.000000000000000   0.000000000000000   0.007559316290801 1
force Se   0.000000000000000  -0.000000000000000  -0.007559316290800 1
force Se  -0.000000000000000   0.000000000000000   0.007559316290802 1
force Se   0.000000000000000  -0.000000000000000  -0.007559316290799 1
force Se  -0.000000000000000  -0.000000000000000   0.007559316290802 1
force Se  -0.000000000000000  -0.000000000000000  -0.007559316290913 1
force Se  -0.000000000000000   0.000000000000000   0.007559316290801 1
force Se  -0.000000000000000   0.000000000000000  -0.007559316290913 1
force Se   0.000000000000000  -0.000000000000000   0.007559316290687 1
force Se  -0.000000000000000  -0.000000000000000  -0.007559316290912 1
force Se   0.000000000000000   0.000000000000000   0.007559316290802 1

# Energy components:
   A_diel =       -0.0325694144919274
   Eewald =     7355.3611886338539989
       EH =     8580.0676897065532103
     Eloc =   -17660.6739516210218426
      Enl =      104.4252818697798659
      Exc =     -632.4970724150913384
 Exc_core =      404.2865653872538587
       KE =      393.8663561773576021
  MuShift =       -0.0053168061209681
-------------------------------------
     Etot =    -1455.2018284819271230
       TS =        0.0945423347049412
-------------------------------------
        F =    -1455.2963708166321339

IonicMinimize: Iter:   0  F: -1455.296370816632134  |grad|_K:  1.037e-04  t[s]:   3814.64

#--- Lowdin population analysis ---
# oxidation-state V +0.554 +0.554 +0.554 +0.554 +0.554 +0.554 +0.554 +0.554 +0.554 +0.554 +0.554 +0.554 +0.554 +0.554 +0.554 +0.554
# magnetic-moments V +0.000 +0.000 +0.000 +0.000 +0.000 +0.000 +0.000 +0.000 +0.000 +0.000 +0.000 +0.000 +0.000 +0.000 +0.000 +0.000
# oxidation-state Se -0.201 -0.201 -0.201 -0.201 -0.201 -0.201 -0.201 -0.201 -0.201 -0.201 -0.201 -0.201 -0.201 -0.201 -0.201 -0.201 -0.201 -0.201 -0.201 -0.201 -0.201 -0.201 -0.201 -0.201 -0.201 -0.201 -0.201 -0.201 -0.201 -0.201 -0.201 -0.201
# magnetic-moments Se -0.000 -0.000 -0.000 -0.000 -0.000 -0.000 -0.000 -0.000 -0.000 -0.000 -0.000 -0.000 -0.000 -0.000 -0.000 -0.000 -0.000 -0.000 -0.000 -0.000 -0.000 -0.000 -0.000 -0.000 -0.000 -0.000 -0.000 -0.000 -0.000 -0.000 -0.000 -0.000

	Linear fluid (dielectric constant: 78.4, screening length: 5.74355 Bohr) occupying 0.749454 of unit cell:	Completed after 2 iterations at t[s]:   3829.30

-------- Electronic minimization -----------
	Linear fluid (dielectric constant: 78.4, screening length: 5.74355 Bohr) occupying 0.749454 of unit cell:	Completed after 0 iterations at t[s]:   3844.39
	FillingsUpdate:  mu: -0.166791139  nElectrons: 400.500000  magneticMoment: [ Abs: 0.00564  Tot: +0.00388 ]
ElecMinimize: Iter:   0  F: -1455.296371420838113  |grad|_K:  8.697e-08  alpha:  1.000e+00
	Linear fluid (dielectric constant: 78.4, screening length: 5.74355 Bohr) occupying 0.749453 of unit cell:	Completed after 2 iterations at t[s]:   3882.40
	Linear fluid (dielectric constant: 78.4, screening length: 5.74355 Bohr) occupying 0.749454 of unit cell:	Completed after 3 iterations at t[s]:   3901.17
	FillingsUpdate:  mu: -0.166909901  nElectrons: 400.500000  magneticMoment: [ Abs: 0.00561  Tot: +0.00387 ]
	SubspaceRotationAdjust: set factor to 0.176
ElecMinimize: Iter:   1  F: -1455.296371974349086  |grad|_K:  3.811e-08  alpha:  3.911e-01  linmin:  1.424e-04  t[s]:   3924.58
	Linear fluid (dielectric constant: 78.4, screening length: 5.74355 Bohr) occupying 0.749453 of unit cell:	Completed after 0 iterations at t[s]:   3938.26
	Linear fluid (dielectric constant: 78.4, screening length: 5.74355 Bohr) occupying 0.749453 of unit cell:	Completed after 1 iterations at t[s]:   3956.25
	FillingsUpdate:  mu: -0.166967029  nElectrons: 400.500000  magneticMoment: [ Abs: 0.00554  Tot: +0.00383 ]
	SubspaceRotationAdjust: set factor to 0.178
ElecMinimize: Iter:   2  F: -1455.296372058965289  |grad|_K:  4.022e-08  alpha:  1.024e+00  linmin:  3.290e-03  t[s]:   3979.23
	Linear fluid (dielectric constant: 78.4, screening length: 5.74355 Bohr) occupying 0.749451 of unit cell:	Completed after 2 iterations at t[s]:   3993.25
	Linear fluid (dielectric constant: 78.4, screening length: 5.74355 Bohr) occupying 0.749452 of unit cell:	Completed after 0 iterations at t[s]:   4011.26
	FillingsUpdate:  mu: -0.167042184  nElectrons: 400.500000  magneticMoment: [ Abs: 0.00549  Tot: +0.00380 ]
	SubspaceRotationAdjust: set factor to 0.185
ElecMinimize: Iter:   3  F: -1455.296372118971021  |grad|_K:  4.952e-08  alpha:  3.306e-01  linmin:  1.195e-03  t[s]:   4033.84
	Linear fluid (dielectric constant: 78.4, screening length: 5.74355 Bohr) occupying 0.749451 of unit cell:	Completed after 1 iterations at t[s]:   4047.39
	Linear fluid (dielectric constant: 78.4, screening length: 5.74355 Bohr) occupying 0.749451 of unit cell:	Completed after 0 iterations at t[s]:   4065.49
	FillingsUpdate:  mu: -0.166998351  nElectrons: 400.500000  magneticMoment: [ Abs: 0.00541  Tot: +0.00376 ]
	SubspaceRotationAdjust: set factor to 0.306
ElecMinimize: Iter:   4  F: -1455.296372180748222  |grad|_K:  2.511e-08  alpha:  2.519e-01  linmin: -1.160e-03  t[s]:   4087.93
	Linear fluid (dielectric constant: 78.4, screening length: 5.74355 Bohr) occupying 0.749451 of unit cell:	Completed after 0 iterations at t[s]:   4101.45
ElecMinimize: 	Predicted alpha/alphaT>3.000000, increasing alphaT to 7.555634e-01.
	Linear fluid (dielectric constant: 78.4, screening length: 5.74355 Bohr) occupying 0.749451 of unit cell:	Completed after 2 iterations at t[s]:   4119.18
	Linear fluid (dielectric constant: 78.4, screening length: 5.74355 Bohr) occupying 0.749451 of unit cell:	Completed after 0 iterations at t[s]:   4137.31
	FillingsUpdate:  mu: -0.166937023  nElectrons: 400.500000  magneticMoment: [ Abs: 0.00536  Tot: +0.00371 ]
	SubspaceRotationAdjust: set factor to 0.238
ElecMinimize: Iter:   5  F: -1455.296372238244203  |grad|_K:  2.211e-08  alpha:  4.040e-01  linmin:  1.072e-03  t[s]:   4159.69
	Linear fluid (dielectric constant: 78.4, screening length: 5.74355 Bohr) occupying 0.749451 of unit cell:	Completed after 0 iterations at t[s]:   4173.11
	Linear fluid (dielectric constant: 78.4, screening length: 5.74355 Bohr) occupying 0.749451 of unit cell:	Completed after 0 iterations at t[s]:   4190.46
	FillingsUpdate:  mu: -0.166936788  nElectrons: 400.500000  magneticMoment: [ Abs: 0.00525  Tot: +0.00364 ]
	SubspaceRotationAdjust: set factor to 0.26
ElecMinimize: Iter:   6  F: -1455.296372265438777  |grad|_K:  1.964e-08  alpha:  4.538e-01  linmin:  3.368e-07  t[s]:   4212.46
	Linear fluid (dielectric constant: 78.4, screening length: 5.74355 Bohr) occupying 0.749451 of unit cell:	Completed after 2 iterations at t[s]:   4226.22
	Linear fluid (dielectric constant: 78.4, screening length: 5.74355 Bohr) occupying 0.749451 of unit cell:	Completed after 0 iterations at t[s]:   4244.32
ElecMinimize: 	Step increased F by 2.087927e-08, reducing alpha to 1.118249e-02.
	Linear fluid (dielectric constant: 78.4, screening length: 5.74355 Bohr) occupying 0.749451 of unit cell:	Completed after 0 iterations at t[s]:   4277.61
ElecMinimize: 	Step increased F by 1.112971e-08, reducing alpha to 1.118249e-03.
	Linear fluid (dielectric constant: 78.4, screening length: 5.74355 Bohr) occupying 0.749451 of unit cell:	Completed after 0 iterations at t[s]:   4310.93
ElecMinimize: 	Step increased F by 1.019157e-08, reducing alpha to 1.118249e-04.
ElecMinimize: 	Step failed to reduce F after 3 attempts. Quitting step.
ElecMinimize: 	Undoing step.
	Linear fluid (dielectric constant: 78.4, screening length: 5.74355 Bohr) occupying 0.749451 of unit cell:	Completed after 0 iterations at t[s]:   4344.06
ElecMinimize: 	Step failed: resetting search direction.
	FillingsUpdate:  mu: -0.166981714  nElectrons: 400.500000  magneticMoment: [ Abs: 0.00525  Tot: +0.00364 ]
	SubspaceRotationAdjust: set factor to 0.209
ElecMinimize: Iter:   7  F: -1455.296372255167398  |grad|_K:  2.829e-08  alpha:  1.118e-04
	Linear fluid (dielectric constant: 78.4, screening length: 5.74355 Bohr) occupying 0.749451 of unit cell:	Completed after 2 iterations at t[s]:   4380.14
	Linear fluid (dielectric constant: 78.4, screening length: 5.74355 Bohr) occupying 0.749451 of unit cell:	Completed after 0 iterations at t[s]:   4397.89
	FillingsUpdate:  mu: -0.166925943  nElectrons: 400.500000  magneticMoment: [ Abs: 0.00523  Tot: +0.00363 ]
	SubspaceRotationAdjust: set factor to 0.132
ElecMinimize: Iter:   8  F: -1455.296372269165204  |grad|_K:  2.310e-08  alpha:  1.621e-01  linmin:  2.370e-03  t[s]:   4420.38
	Linear fluid (dielectric constant: 78.4, screening length: 5.74355 Bohr) occupying 0.749451 of unit cell:	Completed after 0 iterations at t[s]:   4434.01
ElecMinimize: 	Predicted alpha/alphaT>3.000000, increasing alphaT to 4.861611e-01.
	Linear fluid (dielectric constant: 78.4, screening length: 5.74355 Bohr) occupying 0.749451 of unit cell:	Completed after 0 iterations at t[s]:   4451.25
	Linear fluid (dielectric constant: 78.4, screening length: 5.74355 Bohr) occupying 0.749451 of unit cell:	Completed after 0 iterations at t[s]:   4469.10
	FillingsUpdate:  mu: -0.166928296  nElectrons: 400.500000  magneticMoment: [ Abs: 0.00514  Tot: +0.00356 ]
	SubspaceRotationAdjust: set factor to 0.206
ElecMinimize: Iter:   9  F: -1455.296372279393836  |grad|_K:  2.250e-08  alpha:  6.582e-01  linmin:  2.706e-05  t[s]:   4491.60
	Linear fluid (dielectric constant: 78.4, screening length: 5.74355 Bohr) occupying 0.749451 of unit cell:	Completed after 2 iterations at t[s]:   4505.53
	Linear fluid (dielectric constant: 78.4, screening length: 5.74355 Bohr) occupying 0.749451 of unit cell:	Completed after 0 iterations at t[s]:   4523.77
	FillingsUpdate:  mu: -0.167018037  nElectrons: 400.500000  magneticMoment: [ Abs: 0.00511  Tot: +0.00354 ]
	SubspaceRotationAdjust: set factor to 0.177
ElecMinimize: Iter:  10  F: -1455.296372305335126  |grad|_K:  4.302e-08  alpha:  1.405e-01  linmin:  1.107e-03  t[s]:   4546.17
ElecMinimize: 	Bad step direction: g.d > 0.
ElecMinimize: 	Undoing step.
	Linear fluid (dielectric constant: 78.4, screening length: 5.74355 Bohr) occupying 0.749451 of unit cell:	Completed after 0 iterations at t[s]:   4559.80
ElecMinimize: 	Step failed: resetting search direction.
	FillingsUpdate:  mu: -0.167018037  nElectrons: 400.500000  magneticMoment: [ Abs: 0.00511  Tot: +0.00354 ]
	SubspaceRotationAdjust: set factor to 0.177
ElecMinimize: Iter:  11  F: -1455.296372305321029  |grad|_K:  4.133e-08  alpha:  0.000e+00
	Linear fluid (dielectric constant: 78.4, screening length: 5.74355 Bohr) occupying 0.749451 of unit cell:	Completed after 1 iterations at t[s]:   4596.03
	Linear fluid (dielectric constant: 78.4, screening length: 5.74355 Bohr) occupying 0.749451 of unit cell:	Completed after 0 iterations at t[s]:   4613.93
ElecMinimize: 	Step increased F by 3.736886e-08, reducing alpha to 5.431978e-03.
	Linear fluid (dielectric constant: 78.4, screening length: 5.74355 Bohr) occupying 0.749451 of unit cell:	Completed after 0 iterations at t[s]:   4647.47
ElecMinimize: 	Step increased F by 4.509980e-08, reducing alpha to 5.431978e-04.
	Linear fluid (dielectric constant: 78.4, screening length: 5.74355 Bohr) occupying 0.749451 of unit cell:	Completed after 0 iterations at t[s]:   4681.01
ElecMinimize: 	Step increased F by 4.598814e-08, reducing alpha to 5.431978e-05.
ElecMinimize: 	Step failed to reduce F after 3 attempts. Quitting step.
ElecMinimize: 	Undoing step.
	Linear fluid (dielectric constant: 78.4, screening length: 5.74355 Bohr) occupying 0.749451 of unit cell:	Completed after 0 iterations at t[s]:   4714.63
ElecMinimize: 	Step failed along negative gradient direction.
ElecMinimize: Probably at roundoff error limit. (Stopping)
Setting wave functions to eigenvectors of Hamiltonian

# Ionic positions in lattice coordinates:
ion V   0.000000007187500   0.000000004916667   0.499999995675510 1
ion V   0.250000007187500   0.000000004916667   0.499999995675510 1
ion V   0.500000007187500   0.000000004916667   0.499999995675510 1
ion V   0.750000007187500   0.000000004916667   0.499999995675510 1
ion V   0.000000007187500   0.250000004916667   0.499999995675510 1
ion V   0.250000007187500   0.250000004916667   0.499999995675510 1
ion V   0.500000007187500   0.250000004916667   0.499999995675510 1
ion V   0.750000007187500   0.250000004916667   0.499999995675510 1
ion V   0.000000007187500   0.500000004916667   0.499999995675510 1
ion V   0.250000007187500   0.500000004916667   0.499999995675510 1
ion V   0.500000007187500   0.500000004916667   0.499999995675510 1
ion V   0.750000007187500   0.500000004916667   0.499999995675510 1
ion V   1.000000007187500   0.750000004916667   0.499999995675510 1
ion V   0.250000007187500   0.750000004916667   0.499999995675510 1
ion V   0.500000007187500   0.750000004916667   0.499999995675510 1
ion V   0.750000007187500   0.750000004916667   0.499999995675510 1
ion Se   0.166666673854167   0.083333338250000   0.587355080117746 1
ion Se   0.083333340520833   0.166666671583333   0.412644911233274 1
ion Se   0.416666673854167   0.083333338250000   0.587355080117746 1
ion Se   0.333333340520833   0.166666671583333   0.412644911233274 1
ion Se   0.666666673854167   0.083333338250000   0.587355080117746 1
ion Se   0.583333340520833   0.166666671583333   0.412644911233274 1
ion Se   0.916666673854167   0.083333338250000   0.587355080117746 1
ion Se   0.833333340520833   0.166666671583333   0.412644911233274 1
ion Se   0.166666673854167   0.333333338250000   0.587355080117746 1
ion Se   0.083333340520833   0.416666671583333   0.412644911233274 1
ion Se   0.416666673854167   0.333333338250000   0.587355080117746 1
ion Se   0.333333340520833   0.416666671583333   0.412644911233274 1
ion Se   0.666666673854167   0.333333338250000   0.587355080117746 1
ion Se   0.583333340520833   0.416666671583333   0.412644911233274 1
ion Se   0.916666673854167   0.333333338250000   0.587355080117746 1
ion Se   0.833333340520833   0.416666671583333   0.412644911233274 1
ion Se   0.166666673854167   0.583333338250000   0.587355080117746 1
ion Se   0.083333340520833   0.666666671583333   0.412644911233274 1
ion Se   0.416666673854167   0.583333338250000   0.587355080117746 1
ion Se   0.333333340520833   0.666666671583333   0.412644911233274 1
ion Se   0.666666673854167   0.583333338250000   0.587355080117746 1
ion Se   0.583333340520833   0.666666671583333   0.412644911233274 1
ion Se   0.916666673854167   0.583333338250000   0.587355080117746 1
ion Se   0.833333340520833   0.666666671583333   0.412644911233274 1
ion Se   0.166666673854167   0.833333338250000   0.587355080117746 1
ion Se   0.083333340520833   0.916666671583333   0.412644911233274 1
ion Se   0.416666673854167   0.833333338250000   0.587355080117746 1
ion Se   0.333333340520833   0.916666671583333   0.412644911233274 1
ion Se   0.666666673854167   0.833333338250000   0.587355080117746 1
ion Se   0.583333340520833   0.916666671583333   0.412644911233274 1
ion Se   0.916666673854167   0.833333338250000   0.587355080117746 1
ion Se   0.833333340520833   0.916666671583333   0.412644911233274 1


# Forces in Lattice coordinates:
force V   0.000000000000000   0.000000000000000  -0.000000000000000 1
force V   0.000000000000000  -0.000000000000000  -0.000000000000000 1
force V   0.000000000000000  -0.000000000000000  -0.000000000000000 1
force V  -0.000000000000000   0.000000000000000   0.000000000000000 1
force V   0.000000000000000  -0.000000000000000   0.000000000000000 1
force V  -0.000000000000000   0.000000000000000   0.000000000000000 1
force V   0.000000000000000   0.000000000000000  -0.000000000000000 1
force V  -0.000000000000000  -0.000000000000000  -0.000000000000000 1
force V   0.000000000000000  -0.000000000000000   0.000000000000000 1
force V   0.000000000000000  -0.000000000000000   0.000000000000000 1
force V   0.000000000000000  -0.000000000000000  -0.000000000000000 1
force V   0.000000000000000  -0.000000000000000  -0.000000000000000 1
force V  -0.000000000000000   0.000000000000000   0.000000000000000 1
force V   0.000000000000000  -0.000000000000000  -0.000000000000000 1
force V   0.000000000000000  -0.000000000000000  -0.000000000000000 1
force V  -0.000000000000000  -0.000000000000000   0.000000000000000 1
force Se   0.000000000000000   0.000000000000000  -0.005701973125570 1
force Se  -0.000000000000000  -0.000000000000000   0.005701973124776 1
force Se  -0.000000000000000  -0.000000000000000  -0.005701973125570 1
force Se  -0.000000000000000  -0.000000000000000   0.005701973124777 1
force Se  -0.000000000000000  -0.000000000000000  -0.005701973125571 1
force Se  -0.000000000000000   0.000000000000000   0.005701973124776 1
force Se   0.000000000000000  -0.000000000000000  -0.005701973125457 1
force Se   0.000000000000000  -0.000000000000000   0.005701973124776 1
force Se   0.000000000000000  -0.000000000000000  -0.005701973125570 1
force Se   0.000000000000000  -0.000000000000000   0.005701973124776 1
force Se   0.000000000000000  -0.000000000000000  -0.005701973125569 1
force Se   0.000000000000000  -0.000000000000000   0.005701973124663 1
force Se  -0.000000000000000  -0.000000000000000  -0.005701973125683 1
force Se   0.000000000000000  -0.000000000000000   0.005701973124662 1
force Se   0.000000000000000  -0.000000000000000  -0.005701973125570 1
force Se   0.000000000000000  -0.000000000000000   0.005701973124664 1
force Se  -0.000000000000000   0.000000000000000  -0.005701973125684 1
force Se   0.000000000000000   0.000000000000000   0.005701973124662 1
force Se   0.000000000000000  -0.000000000000000  -0.005701973125683 1
force Se  -0.000000000000000  -0.000000000000000   0.005701973124776 1
force Se   0.000000000000000  -0.000000000000000  -0.005701973125682 1
force Se   0.000000000000000   0.000000000000000   0.005701973124663 1
force Se   0.000000000000000   0.000000000000000  -0.005701973125683 1
force Se   0.000000000000000   0.000000000000000   0.005701973124662 1
force Se  -0.000000000000000   0.000000000000000  -0.005701973125571 1
force Se   0.000000000000000  -0.000000000000000   0.005701973124776 1
force Se  -0.000000000000000  -0.000000000000000  -0.005701973125685 1
force Se  -0.000000000000000  -0.000000000000000   0.005701973124776 1
force Se  -0.000000000000000  -0.000000000000000  -0.005701973125570 1
force Se   0.000000000000000   0.000000000000000   0.005701973124776 1
force Se  -0.000000000000000  -0.000000000000000  -0.005701973125683 1
force Se  -0.000000000000000   0.000000000000000   0.005701973124776 1

# Energy components:
   A_diel =       -0.0325705507237379
   Eewald =     7355.4842634997230562
       EH =     8580.1851742110866326
     Eloc =   -17660.9166282422993390
      Enl =      104.4259829535848496
      Exc =     -632.4982373662716100
 Exc_core =      404.2865652585344947
       KE =      393.8689326658354730
  MuShift =       -0.0053168061209681
-------------------------------------
     Etot =    -1455.2018343766503676
       TS =        0.0945378826827108
-------------------------------------
        F =    -1455.2963722593331113

IonicMinimize: Iter:   1  F: -1455.296372259333111  |grad|_K:  7.824e-05  alpha:  1.000e+00  linmin: -1.000e+00  t[s]:   4751.38
IonicMinimize: Converged (|grad|_K<1.000000e-04).

#--- Lowdin population analysis ---
# oxidation-state V +0.554 +0.554 +0.554 +0.554 +0.554 +0.554 +0.554 +0.554 +0.554 +0.554 +0.554 +0.554 +0.554 +0.554 +0.554 +0.554
# magnetic-moments V +0.000 +0.000 +0.000 +0.000 +0.000 +0.000 +0.000 +0.000 +0.000 +0.000 +0.000 +0.000 +0.000 +0.000 +0.000 +0.000
# oxidation-state Se -0.201 -0.201 -0.201 -0.201 -0.201 -0.201 -0.201 -0.201 -0.201 -0.201 -0.201 -0.201 -0.201 -0.201 -0.201 -0.201 -0.201 -0.201 -0.201 -0.201 -0.201 -0.201 -0.201 -0.201 -0.201 -0.201 -0.201 -0.201 -0.201 -0.201 -0.201 -0.201
# magnetic-moments Se -0.000 -0.000 -0.000 -0.000 -0.000 -0.000 -0.000 -0.000 -0.000 -0.000 -0.000 -0.000 -0.000 -0.000 -0.000 -0.000 -0.000 -0.000 -0.000 -0.000 -0.000 -0.000 -0.000 -0.000 -0.000 -0.000 -0.000 -0.000 -0.000 -0.000 -0.000 -0.000


Dumping 'NbTe2.fillings' ... done
Dumping 'NbTe2.wfns' ... done
Dumping 'NbTe2.fluidState' ... done
Dumping 'NbTe2.ionpos' ... done
Dumping 'NbTe2.eigenvals' ... done
End date and time: Thu Feb  4 11:40:18 2021  (Duration: 0-1:19:17.18)
Done!
