
*************** JDFTx 1.5.0  ***************

Start date and time: Mon Jul 13 17:52:38 2020
Executable jdftx_gpu with command-line: -i Charged.in -o Charged.out
Running on hosts (process indices):  amax (0-3)
Divided in process groups (process indices):  0 (0)  1 (1)  2 (2)  3 (3)
gpuInit: Found compatible cuda device 0 'Tesla K80'
gpuInit: Found compatible cuda device 1 'Tesla K80'
gpuInit: Found compatible cuda device 2 'Tesla K80'
gpuInit: Found compatible cuda device 3 'Tesla K80'
gpuInit: Selected device 0
Resource initialization completed at t[s]:     14.78
Run totals: 4 processes, 24 threads, 4 GPUs


Input parsed successfully to the following command list (including defaults):

basis kpoint-dependent
cache-projectors no
coords-type Lattice
core-overlap-check none
coulomb-interaction Slab 001
coulomb-truncation-embed 0 0 0.5
davidson-band-ratio 1.1
dump End State
dump-name NbTe2.$VAR
elec-cutoff 20 100
elec-eigen-algo Davidson
elec-ex-corr gga-PBE
elec-smearing Gauss 0.0073499
electronic-minimize  \
	dirUpdateScheme      FletcherReeves \
	linminMethod         DirUpdateRecommended \
	nIterations          500 \
	history              15 \
	knormThreshold       0 \
	energyDiffThreshold  1e-08 \
	nEnergyDiff          2 \
	alphaTstart          1 \
	alphaTmin            1e-10 \
	updateTestStepSize   yes \
	alphaTreduceFactor   0.1 \
	alphaTincreaseFactor 3 \
	nAlphaAdjustMax      3 \
	wolfeEnergy          0.0001 \
	wolfeGradient        0.9 \
	fdTest               no
exchange-regularization WignerSeitzTruncated
fluid LinearPCM 298.000000 1.013250
fluid-anion F- 1 MeanFieldLJ \
	epsBulk 1 \
	pMol 0 \
	epsInf 1 \
	Pvap 0 \
	sigmaBulk 0 \
	Rvdw 2.24877 \
	Res 0 \
	tauNuc 343133
fluid-cation Na+ 1 MeanFieldLJ \
	epsBulk 1 \
	pMol 0 \
	epsInf 1 \
	Pvap 0 \
	sigmaBulk 0 \
	Rvdw 2.19208 \
	Res 0 \
	tauNuc 343133
fluid-ex-corr lda-TF lda-PZ
fluid-gummel-loop 10 1.000000e-05
fluid-minimize  \
	dirUpdateScheme      PolakRibiere \
	linminMethod         DirUpdateRecommended \
	nIterations          400 \
	history              15 \
	knormThreshold       1e-11 \
	energyDiffThreshold  0 \
	nEnergyDiff          2 \
	alphaTstart          1 \
	alphaTmin            1e-10 \
	updateTestStepSize   yes \
	alphaTreduceFactor   0.1 \
	alphaTincreaseFactor 3 \
	nAlphaAdjustMax      6 \
	wolfeEnergy          0.0001 \
	wolfeGradient        0.9 \
	fdTest               no
fluid-solvent H2O 55.338 ScalarEOS \
	epsBulk 78.4 \
	pMol 0.92466 \
	epsInf 1.77 \
	Pvap 1.06736e-10 \
	sigmaBulk 4.62e-05 \
	Rvdw 2.61727 \
	Res 1.42 \
	tauNuc 343133 \
	poleEl 15 7 1
forces-output-coords Positions
initial-state NbTe2.$VAR
ion Cu  -0.000000000000000   0.000000000000000   0.500000000000000 0
ion Cu   0.250000000000000   0.250000000000000   0.500000000000000 0
ion Cu   0.500000000000000  -0.000000000000000   0.500000000000000 0
ion Cu   0.750000000000000   0.250000000000000   0.500000000000000 0
ion Cu  -0.000000000000000   0.500000000000000   0.500000000000000 0
ion Cu   0.250000000000000   0.750000028000002   0.500000000000000 0
ion Cu   0.500000000000000   0.500000000000000   0.500000000000000 0
ion Cu   0.750000000000000   0.750000028000002   0.500000000000000 0
ion H   0.313064531905190   0.020931339827470   0.435796826224195 0
ion H   0.063074522905196   0.229068657172533   0.564193205775804 0
ion H   0.436925498094810   0.270921321827473   0.435816813224190 0
ion H   0.186935468094810   0.479068671172527   0.564193205775804 0
ion H   0.813064497905194   0.020931339827470   0.435796826224195 0
ion H   0.563074501905191   0.229068657172533   0.564193205775804 0
ion H   0.936925464094807   0.270921321827473   0.435816813224190 0
ion H   0.686935502094806   0.479068671172527   0.564193205775804 0
ion H   0.313064531905190   0.520931328827473   0.435796826224195 0
ion H   0.063074522905196   0.729068643172532   0.564193205775804 0
ion H   0.436925498094810   0.770921348827472   0.435816813224190 0
ion H   0.186935468094810   0.979068671172527   0.564193205775804 0
ion H   0.813064497905194   0.520931328827473   0.435796826224195 0
ion H   0.563074501905191   0.729068643172532   0.564193205775804 0
ion H   0.936925464094807   0.770921348827472   0.435816813224190 0
ion H   0.686935502094806   0.979068671172527   0.564193205775804 0
ion Se   0.321991356352024   0.407656835428365   0.559885292975333 0
ion Se   0.071981344352027   0.342343164571635   0.440114656024673 0
ion Se   0.428008643647976   0.157656835428365   0.559885292975333 0
ion Se   0.178008660647973   0.092343157571638   0.440114656024673 0
ion Se   0.821991356352024   0.407656835428365   0.559885292975333 0
ion Se   0.571981318352025   0.342343164571635   0.440114656024673 0
ion Se   0.928008643647976   0.157656835428365   0.559885292975333 0
ion Se   0.678008643647976   0.092343157571638   0.440114656024673 0
ion Se   0.321991356352024   0.907656863428360   0.559885292975333 0
ion Se   0.071981344352027   0.842343164571635   0.440114656024673 0
ion Se   0.428008643647976   0.657656835428365   0.559885292975333 0
ion Se   0.178008660647973   0.592343136571640   0.440114656024673 0
ion Se   0.821991356352024   0.907656863428360   0.559885292975333 0
ion Se   0.571981318352025   0.842343164571635   0.440114656024673 0
ion Se   0.928008643647976   0.657656835428365   0.559885292975333 0
ion Se   0.678008643647976   0.592343136571640   0.440114656024673 0
ion O   0.114670647012625   0.260883016268104   0.484632236891446 0
ion O   0.385329335987370   0.239117011731898   0.515377782108555 0
ion O   0.364660660012627   0.489116983731896   0.515377782108555 0
ion O   0.232054043988600   0.139195188177115   0.510732308795606 0
ion O   0.135339347987374   0.010883003268099   0.484622217891445 0
ion O   0.482054043988600   0.110814819822889   0.489267639204389 0
ion O   0.267955960011397   0.360804811822885   0.489267639204389 0
ion O   0.017955947011399   0.389185180177111   0.510742327795608 0
ion O   0.276589702143032   0.048241705707900   0.396487183830044 0
ion O   0.026599714143029   0.201768298292104   0.603502823169957 0
ion O   0.223410280856971   0.451768298292104   0.603502823169957 0
ion O   0.473400293856972   0.298221721707902   0.396497176830043 0
ion O   0.614670630012628   0.260883016268104   0.484632236891446 0
ion O   0.885329369987372   0.239117011731898   0.515377782108555 0
ion O   0.864660660012627   0.489116983731896   0.515377782108555 0
ion O   0.732054077988602   0.139195188177115   0.510732308795606 0
ion O   0.635339339987373   0.010883003268099   0.484622217891445 0
ion O   0.982054077988602   0.110814819822889   0.489267639204389 0
ion O   0.767955960011397   0.360804811822885   0.489267639204389 0
ion O   0.517955960011397   0.389185180177111   0.510742327795608 0
ion O   0.776589702143032   0.048241705707900   0.396487183830044 0
ion O   0.526599706143028   0.201768298292104   0.603502823169957 0
ion O   0.723410297856968   0.451768298292104   0.603502823169957 0
ion O   0.973400260856973   0.298221721707902   0.396497176830043 0
ion O   0.114670647012625   0.760882988268102   0.484632236891446 0
ion O   0.385329335987370   0.739117011731898   0.515377782108555 0
ion O   0.364660660012627   0.989117039731900   0.515377782108555 0
ion O   0.232054043988600   0.639195133177114   0.510732308795606 0
ion O   0.135339347987374   0.510882960268100   0.484622217891445 0
ion O   0.482054043988600   0.610814791822886   0.489267639204389 0
ion O   0.267955960011397   0.860804866822886   0.489267639204389 0
ion O   0.017955947011399   0.889185208177114   0.510742327795608 0
ion O   0.276589702143032   0.548241709707900   0.396487183830044 0
ion O   0.026599714143029   0.701768270292102   0.603502823169957 0
ion O   0.223410280856971   0.951768243292103   0.603502823169957 0
ion O   0.473400293856972   0.798221666707900   0.396497176830043 0
ion O   0.614670630012628   0.760882988268102   0.484632236891446 0
ion O   0.885329369987372   0.739117011731898   0.515377782108555 0
ion O   0.864660660012627   0.989117039731900   0.515377782108555 0
ion O   0.732054077988602   0.639195133177114   0.510732308795606 0
ion O   0.635339339987373   0.510882960268100   0.484622217891445 0
ion O   0.982054077988602   0.610814791822886   0.489267639204389 0
ion O   0.767955960011397   0.860804866822886   0.489267639204389 0
ion O   0.517955960011397   0.889185208177114   0.510742327795608 0
ion O   0.776589702143032   0.548241709707900   0.396487183830044 0
ion O   0.526599706143028   0.701768270292102   0.603502823169957 0
ion O   0.723410297856968   0.951768243292103   0.603502823169957 0
ion O   0.973400260856973   0.798221666707900   0.396497176830043 0
ion-species GBRV/$ID_pbe.uspp
ion-width Ecut
ionic-minimize  \
	dirUpdateScheme      L-BFGS \
	linminMethod         DirUpdateRecommended \
	nIterations          0 \
	history              15 \
	knormThreshold       0.0001 \
	energyDiffThreshold  1e-06 \
	nEnergyDiff          2 \
	alphaTstart          1 \
	alphaTmin            1e-10 \
	updateTestStepSize   yes \
	alphaTreduceFactor   0.1 \
	alphaTincreaseFactor 3 \
	nAlphaAdjustMax      3 \
	wolfeEnergy          0.0001 \
	wolfeGradient        0.9 \
	fdTest               no
kpoint   0.000000000000   0.000000000000   0.000000000000  1.00000000000000
kpoint-folding 2 2 1 
latt-move-scale 1 1 1
latt-scale 1 1 1 
lattice Triclinic 26.5716 32.5947 35.0769 90 90 90
lattice-minimize  \
	dirUpdateScheme      L-BFGS \
	linminMethod         DirUpdateRecommended \
	nIterations          0 \
	history              15 \
	knormThreshold       0 \
	energyDiffThreshold  1e-06 \
	nEnergyDiff          2 \
	alphaTstart          1 \
	alphaTmin            1e-10 \
	updateTestStepSize   yes \
	alphaTreduceFactor   0.1 \
	alphaTincreaseFactor 3 \
	nAlphaAdjustMax      3 \
	wolfeEnergy          0.0001 \
	wolfeGradient        0.9 \
	fdTest               no
lcao-params -1 1e-06 0.0073499
pcm-variant CANDLE
spintype no-spin
subspace-rotation-factor 1 yes
symmetries automatic
symmetry-threshold 0.0001
target-mu -0.171252 no




---------- Setting up symmetries ----------

Found 8 point-group symmetries of the bravais lattice
Found 8 space-group symmetries with basis
Applied RMS atom displacement 0.000159475 bohrs to make symmetries exact.

---------- Initializing the Grid ----------
R = 
[    26.5716          0          0  ]
[          0    32.5947          0  ]
[          0          0    35.0769  ]
unit cell volume = 30379.9
G =
[   0.236462          0          0  ]
[          0   0.192767          0  ]
[          0          0   0.179126  ]
Minimum fftbox size, Smin = [  120  148  160  ]
Chosen fftbox size, S = [  120  150  160  ]

---------- Initializing tighter grid for wavefunction operations ----------
R = 
[    26.5716          0          0  ]
[          0    32.5947          0  ]
[          0          0    35.0769  ]
unit cell volume = 30379.9
G =
[   0.236462          0          0  ]
[          0   0.192767          0  ]
[          0          0   0.179126  ]
Minimum fftbox size, Smin = [  108  132  144  ]
Chosen fftbox size, S = [  108  140  144  ]

---------- Exchange Correlation functional ----------
Initalized PBE GGA exchange.
Initalized PBE GGA correlation.

---------- Setting up pseudopotentials ----------
Width of ionic core gaussian charges (only for fluid interactions / plotting) set to 0.397384

Reading pseudopotential file '/home/guoxy/vasp/jdftx-1.5.0/build/pseudopotentials/GBRV/cu_pbe.uspp':
  Title: Cu.  Created by USPP 7.3.6 on 3-2-2014
  Reference state energy: -201.059491.  19 valence electrons in orbitals:
    |300>  occupation: 2  eigenvalue: -5.020764
    |310>  occupation: 6  eigenvalue: -3.445588
    |320>  occupation: 8  eigenvalue: -0.925168
    |400>  occupation: 2  eigenvalue: -0.567638
    |410>  occupation: 0  eigenvalue: -0.326154
  lMax: 2  lLocal: 3  QijEcut: 6
  6 projectors sampled on a log grid with 613 points:
    l: 0  eig: -5.020767  rCut: 1.4
    l: 0  eig: -0.567640  rCut: 1.4
    l: 1  eig: -3.445589  rCut: 1.55
    l: 1  eig: -0.326157  rCut: 1.55
    l: 2  eig: -0.925170  rCut: 1.5
    l: 2  eig: 1.500000  rCut: 1.5
  Partial core density with radius 0.8
  Transforming core density to a uniform radial grid of dG=0.02 with 1246 points.
  Transforming local potential to a uniform radial grid of dG=0.02 with 1246 points.
  Transforming nonlocal projectors to a uniform radial grid of dG=0.02 with 432 points.
  Transforming density augmentations to a uniform radial grid of dG=0.02 with 1246 points.
  Transforming atomic orbitals to a uniform radial grid of dG=0.02 with 432 points.
  Core radius for overlap checks: 1.55 bohrs.

Reading pseudopotential file '/home/guoxy/vasp/jdftx-1.5.0/build/pseudopotentials/GBRV/h_pbe.uspp':
  Title: H.  Created by USPP 7.3.6 on 2-4-15
  Reference state energy: -0.458849.  1 valence electrons in orbitals:
    |100>  occupation: 1  eigenvalue: -0.238595
  lMax: 0  lLocal: 1  QijEcut: 6
  2 projectors sampled on a log grid with 395 points:
    l: 0  eig: -0.238595  rCut: 1.2
    l: 0  eig: 1.000000  rCut: 1.2
  Transforming local potential to a uniform radial grid of dG=0.02 with 1246 points.
  Transforming nonlocal projectors to a uniform radial grid of dG=0.02 with 432 points.
  Transforming density augmentations to a uniform radial grid of dG=0.02 with 1246 points.
  Transforming atomic orbitals to a uniform radial grid of dG=0.02 with 432 points.
  Core radius for overlap checks: 1.20 bohrs.

Reading pseudopotential file '/home/guoxy/vasp/jdftx-1.5.0/build/pseudopotentials/GBRV/se_pbe.uspp':
  Title: Se.  Created by USPP 7.3.6 on 14-9-2013
  Reference state energy: -21.672887.  6 valence electrons in orbitals:
    |400>  occupation: 2  eigenvalue: -0.635284
    |410>  occupation: 4  eigenvalue: -0.239295
  lMax: 2  lLocal: 3  QijEcut: 5
  6 projectors sampled on a log grid with 625 points:
    l: 0  eig: -0.635278  rCut: 1.5
    l: 0  eig: 0.500000  rCut: 1.5
    l: 1  eig: -0.239295  rCut: 1.5
    l: 1  eig: 0.500000  rCut: 1.5
    l: 2  eig: 0.000000  rCut: 1.8
    l: 2  eig: 1.000000  rCut: 1.8
  Partial core density with radius 1.2
  Transforming core density to a uniform radial grid of dG=0.02 with 1246 points.
  Transforming local potential to a uniform radial grid of dG=0.02 with 1246 points.
  Transforming nonlocal projectors to a uniform radial grid of dG=0.02 with 432 points.
  Transforming density augmentations to a uniform radial grid of dG=0.02 with 1246 points.
  Transforming atomic orbitals to a uniform radial grid of dG=0.02 with 432 points.
  Core radius for overlap checks: 1.80 bohrs.

Reading pseudopotential file '/home/guoxy/vasp/jdftx-1.5.0/build/pseudopotentials/GBRV/o_pbe.uspp':
  Title: O.  Created by USPP 7.3.6 on 3-2-2014
  Reference state energy: -15.894388.  6 valence electrons in orbitals:
    |200>  occupation: 2  eigenvalue: -0.878823
    |210>  occupation: 4  eigenvalue: -0.332131
  lMax: 2  lLocal: 2  QijEcut: 6
  5 projectors sampled on a log grid with 511 points:
    l: 0  eig: -0.878823  rCut: 1.25
    l: 0  eig: 0.000000  rCut: 1.25
    l: 1  eig: -0.332132  rCut: 1.25
    l: 1  eig: 0.000000  rCut: 1.25
    l: 2  eig: 1.000000  rCut: 1.25
  Partial core density with radius 0.7
  Transforming core density to a uniform radial grid of dG=0.02 with 1246 points.
  Transforming local potential to a uniform radial grid of dG=0.02 with 1246 points.
  Transforming nonlocal projectors to a uniform radial grid of dG=0.02 with 432 points.
  Transforming density augmentations to a uniform radial grid of dG=0.02 with 1246 points.
  Transforming atomic orbitals to a uniform radial grid of dG=0.02 with 432 points.
  Core radius for overlap checks: 1.25 bohrs.

Initialized 4 species with 88 total atoms.

Folded 1 k-points by 2x2x1 to 4 k-points.

---------- Setting up k-points, bands, fillings ----------
No reducable k-points. 
Computing the number of bands and number of electrons
Reading initial fillings from file NbTe2.fillings.
nElectrons: 552.000000   nBands: 376   nStates: 4

----- Setting up reduced wavefunction bases (one per k-point) -----
average nbasis = 129812.750 , ideal nbasis = 129785.459

---------- Setting up coulomb interaction ----------
Fluid mode embedding: using embedded box, but periodic Coulomb kernel.
(Fluid response is responsible for (approximate) separation between periodic images.)
Setting up double-sized grid for truncated Coulomb potentials:
R = 
[    26.5716          0          0  ]
[          0    32.5947          0  ]
[          0          0    70.1538  ]
unit cell volume = 60759.9
G =
[   0.236462          0          0  ]
[          0   0.192767          0  ]
[          0          0   0.089563  ]
Chosen fftbox size, S = [  120  150  320  ]
Integer grid location selected as the embedding center:
   Grid: [  0  0  80  ]
   Lattice: [  0  0  0.5  ]
   Cartesian: [  0  0  17.5385  ]
Constructing Wigner-Seitz cell: 6 faces (6 quadrilaterals, 0 hexagons)
Range-separation parameter for embedded mesh potentials due to point charges: 0.593647 bohrs.

Initializing van der Waals corrections
	NOTE: vdW corrections apply only for interactions with fluid.
	Cu:  C6:  187.33 Eh-a0^6  R0: 2.952 a0
	 H:  C6:    2.43 Eh-a0^6  R0: 1.892 a0
	Se:  C6:  219.24 Eh-a0^6  R0: 3.347 a0
	 O:  C6:   12.14 Eh-a0^6  R0: 2.536 a0

---------- Setting up ewald sum ----------
Optimum gaussian width for ewald sums = 7.436501 bohr.
Real space sum over 567 unit cells with max indices [  4  4  3  ]
Reciprocal space sum over 8415 terms with max indices [  7  8  16  ]

---------- Allocating electronic variables ----------
Initializing wave functions:  reading from 'NbTe2.wfns'
----- createFluidSolver() ----- (Fluid-side solver setup)
   Initializing fluid molecule 'H2O'
     Initializing site 'O'
       Electron density: proportional to exp(-r/0.36935)*erfc((r-0.51523)/0.36823) with norm 6.826
       Charge density: gaussian nuclear width 0.478731 with net site charge 0.826
       Polarizability: cuspless exponential with width 0.32 and norm 3.73
       Hard sphere radius: 2.57003 bohrs
       Positions in reference frame:
         [ +0.000000 +0.000000 +0.000000 ]
     Initializing site 'H'
       Electron density: proportional to exp(-r/0.34641)*erfc((r-0)/0.390882) with norm 0.587
       Charge density: gaussian nuclear width 0.377945 with net site charge -0.413
       Polarizability: cuspless exponential with width 0.39 and norm 3.3
       Positions in reference frame:
         [ +0.000000 -1.441945 +1.122523 ]
         [ +0.000000 +1.441945 +1.122523 ]
     Net charge: 0   dipole magnitude: 0.927204
     Initializing spherical shell mfKernel with radius 2.61727 Bohr
     deltaS corrections:
       site 'O': -7.54299
       site 'H': -6.83917
   Initializing fluid molecule 'Na+'
     Initializing site 'Na'
       Electron density: proportional to exp(-r/0.19682)*erfc((r-0.71491)/0.41314) with norm 8.1383
       Charge density: gaussian nuclear width 0.365347 with net site charge -1
       Hard sphere radius: 1.86327 bohrs
       Positions in reference frame:
         [ +0.000000 +0.000000 +0.000000 ]
     Net charge: -1   dipole magnitude: 0
     Initializing gaussian mfKernel with width: 1.55004 Bohr
     deltaS corrections:
       site 'Na': -22.3555
   Initializing fluid molecule 'F-'
     Initializing site 'F'
       Electron density: proportional to exp(-r/0.38886)*erfc((r-0)/0.438782) with norm 8
       Charge density: gaussian nuclear width 0.374796 with net site charge 1
       Hard sphere radius: 2.39995 bohrs
       Positions in reference frame:
         [ +0.000000 +0.000000 +0.000000 ]
     Net charge: 1   dipole magnitude: 0
     Initializing gaussian mfKernel with width: 1.59012 Bohr
     deltaS corrections:
       site 'F': -9.04335

Correction to mu due to finite nuclear width = -0.00901408
   Cavity determined by nc: 0.00142 and sigma: 0.707107
   Nonlocal vdW cavity from gaussian model electron density with norm = 8 and sigma = 0.993594 bohr
   Charge asymmetry in cavity with sensitivity pCavity = 36.5 e-bohr/Eh
   Electrostatic cavity expanded by eta = 1.46 bohrs
   Weighted density cavitation model constrained by Nbulk: 0.0049383 bohr^-3, Pvap: 3.14029 kPa, Rvdw: 2.61727 bohr and sigmaBulk: 4.62e-05 Eh/bohr^2 at T: 298 K.
   Weighted density dispersion model using vdW pair potentials with single solvent site with sqrtC6eff: 0.77 SI.
Reading fluid state from 'NbTe2.fluidState'


---- Citations for features of the code used in this run ----

   Software package:
      R. Sundararaman, K. Letchworth-Weaver, K.A. Schwarz, D. Gunceler, Y. Ozhabes and T.A. Arias, 'JDFTx: software for joint density-functional theory', SoftwareX 6, 278 (2017)

   gga-PBE exchange-correlation functional:
      J.P. Perdew, K. Burke and M. Ernzerhof, Phys. Rev. Lett. 77, 3865 (1996)

   Pseudopotentials:
      KF Garrity, JW Bennett, KM Rabe and D Vanderbilt, Comput. Mater. Sci. 81, 446 (2014)

   Truncated Coulomb potentials:
      R. Sundararaman and T.A. Arias, Phys. Rev. B 87, 165122 (2013)

   Van der Waals correction pair-potentials:
      S. Grimme, J. Comput. Chem. 27, 1787 (2006)

   Charge-asymmetric nonlocally-determined local-electric (CANDLE) solvation model:
      R. Sundararaman and W.A. Goddard III, J. Chem. Phys. 142, 064107 (2015)

   Total energy minimization with Auxiliary Hamiltonian:
      C. Freysoldt, S. Boeck, and J. Neugebauer, Phys. Rev. B 79, 241103(R) (2009)

   Grand-canonical (fixed-potential) DFT:
      R. Sundararaman, W. A. Goddard III and T. A. Arias, J. Chem. Phys. 146, 114104 (2017)

This list may not be complete. Please suggest additional citations or
report any other bugs at https://github.com/shankar1729/jdftx/issues

Initialization completed successfully at t[s]:     40.21

Shifting auxilliary hamiltonian by 0.014163 to set nElectrons=552.000000
	Linear fluid (dielectric constant: 78.4, screening length: 5.74355 Bohr) occupying 0.797687 of unit cell:	Completed after 4 iterations at t[s]:     46.26

-------- Electronic minimization -----------
	Linear fluid (dielectric constant: 78.4, screening length: 5.74355 Bohr) occupying 0.797687 of unit cell:	Completed after 0 iterations at t[s]:     51.89
	FillingsUpdate:  mu: -0.171251800  nElectrons: 552.000000
ElecMinimize: Iter:   0  G: -2453.759304424289894  |grad|_K:  1.637e-05  alpha:  1.000e+00
	Linear fluid (dielectric constant: 78.4, screening length: 5.74355 Bohr) occupying 0.829663 of unit cell:	Completed after 25 iterations at t[s]:     75.72
	Linear fluid (dielectric constant: 78.4, screening length: 5.74355 Bohr) occupying 0.798402 of unit cell:	Completed after 19 iterations at t[s]:     86.64
	FillingsUpdate:  mu: -0.171251800  nElectrons: 552.443624
	SubspaceRotationAdjust: set factor to 0.576
ElecMinimize: Iter:   1  G: -2453.760294316340151  |grad|_K:  1.656e-05  alpha:  6.134e-02  linmin:  2.642e-03  t[s]:     96.55
	Linear fluid (dielectric constant: 78.4, screening length: 5.74355 Bohr) occupying 0.798700 of unit cell:	Completed after 11 iterations at t[s]:    106.61
	Linear fluid (dielectric constant: 78.4, screening length: 5.74355 Bohr) occupying 0.798809 of unit cell:	Completed after 9 iterations at t[s]:    116.10
	FillingsUpdate:  mu: -0.171251800  nElectrons: 552.647690
	SubspaceRotationAdjust: set factor to 0.334
ElecMinimize: Iter:   2  G: -2453.761691382873323  |grad|_K:  1.024e-05  alpha:  8.186e-02  linmin: -2.013e-05  t[s]:    126.57
	Linear fluid (dielectric constant: 78.4, screening length: 5.74355 Bohr) occupying 0.798414 of unit cell:	Completed after 14 iterations at t[s]:    137.21
	Linear fluid (dielectric constant: 78.4, screening length: 5.74355 Bohr) occupying 0.798559 of unit cell:	Completed after 11 iterations at t[s]:    147.16
	FillingsUpdate:  mu: -0.171251800  nElectrons: 552.552164
	SubspaceRotationAdjust: set factor to 0.42
ElecMinimize: Iter:   3  G: -2453.762742770388741  |grad|_K:  5.902e-06  alpha:  5.082e-02  linmin: -8.725e-07  t[s]:    157.78
	Linear fluid (dielectric constant: 78.4, screening length: 5.74355 Bohr) occupying 0.798468 of unit cell:	Completed after 10 iterations at t[s]:    167.63
	Linear fluid (dielectric constant: 78.4, screening length: 5.74355 Bohr) occupying 0.798305 of unit cell:	Completed after 11 iterations at t[s]:    177.25
	FillingsUpdate:  mu: -0.171251800  nElectrons: 552.459242
	SubspaceRotationAdjust: set factor to 0.257
ElecMinimize: Iter:   4  G: -2453.763720001667934  |grad|_K:  3.803e-06  alpha:  1.430e-01  linmin: -2.677e-05  t[s]:    188.48
	Linear fluid (dielectric constant: 78.4, screening length: 5.74355 Bohr) occupying 0.798462 of unit cell:	Completed after 10 iterations at t[s]:    200.83
	Linear fluid (dielectric constant: 78.4, screening length: 5.74355 Bohr) occupying 0.798384 of unit cell:	Completed after 9 iterations at t[s]:    211.72
	FillingsUpdate:  mu: -0.171251800  nElectrons: 552.508486
	SubspaceRotationAdjust: set factor to 0.38
ElecMinimize: Iter:   5  G: -2453.763928355942880  |grad|_K:  2.795e-06  alpha:  7.362e-02  linmin:  2.461e-06  t[s]:    223.35
	Linear fluid (dielectric constant: 78.4, screening length: 5.74355 Bohr) occupying 0.798444 of unit cell:	Completed after 8 iterations at t[s]:    235.88
ElecMinimize: 	Predicted alpha/alphaT>3.000000, increasing alphaT to 2.208545e-01.
	Linear fluid (dielectric constant: 78.4, screening length: 5.74355 Bohr) occupying 0.798572 of unit cell:	Completed after 9 iterations at t[s]:    246.52
	Linear fluid (dielectric constant: 78.4, screening length: 5.74355 Bohr) occupying 0.798766 of unit cell:	Completed after 10 iterations at t[s]:    257.11
	FillingsUpdate:  mu: -0.171251800  nElectrons: 552.727311
	SubspaceRotationAdjust: set factor to 0.297
ElecMinimize: Iter:   6  G: -2453.764580373113404  |grad|_K:  3.379e-06  alpha:  4.252e-01  linmin: -2.499e-05  t[s]:    268.61
	Linear fluid (dielectric constant: 78.4, screening length: 5.74355 Bohr) occupying 0.798822 of unit cell:	Completed after 10 iterations at t[s]:    281.19
	Linear fluid (dielectric constant: 78.4, screening length: 5.74355 Bohr) occupying 0.798778 of unit cell:	Completed after 9 iterations at t[s]:    293.11
	FillingsUpdate:  mu: -0.171251800  nElectrons: 552.755537
	SubspaceRotationAdjust: set factor to 0.321
ElecMinimize: Iter:   7  G: -2453.764800073282004  |grad|_K:  2.650e-06  alpha:  9.685e-02  linmin: -9.263e-06  t[s]:    304.92
	Linear fluid (dielectric constant: 78.4, screening length: 5.74355 Bohr) occupying 0.798758 of unit cell:	Completed after 4 iterations at t[s]:    316.63
	Linear fluid (dielectric constant: 78.4, screening length: 5.74355 Bohr) occupying 0.798736 of unit cell:	Completed after 7 iterations at t[s]:    327.47
	FillingsUpdate:  mu: -0.171251800  nElectrons: 552.778661
	SubspaceRotationAdjust: set factor to 0.4
ElecMinimize: Iter:   8  G: -2453.765075864153459  |grad|_K:  1.598e-06  alpha:  1.997e-01  linmin:  3.897e-06  t[s]:    339.34
	Linear fluid (dielectric constant: 78.4, screening length: 5.74355 Bohr) occupying 0.798712 of unit cell:	Completed after 4 iterations at t[s]:    351.74
	Linear fluid (dielectric constant: 78.4, screening length: 5.74355 Bohr) occupying 0.798724 of unit cell:	Completed after 4 iterations at t[s]:    362.25
	FillingsUpdate:  mu: -0.171251800  nElectrons: 552.784955
	SubspaceRotationAdjust: set factor to 0.391
ElecMinimize: Iter:   9  G: -2453.765123687647701  |grad|_K:  1.242e-06  alpha:  9.621e-02  linmin:  4.333e-06  t[s]:    374.37
	Linear fluid (dielectric constant: 78.4, screening length: 5.74355 Bohr) occupying 0.798738 of unit cell:	Completed after 4 iterations at t[s]:    386.23
	Linear fluid (dielectric constant: 78.4, screening length: 5.74355 Bohr) occupying 0.798759 of unit cell:	Completed after 5 iterations at t[s]:    396.93
	FillingsUpdate:  mu: -0.171251800  nElectrons: 552.822782
	SubspaceRotationAdjust: set factor to 0.445
ElecMinimize: Iter:  10  G: -2453.765195691527879  |grad|_K:  1.174e-06  alpha:  2.413e-01  linmin:  1.183e-05  t[s]:    408.95
	Linear fluid (dielectric constant: 78.4, screening length: 5.74355 Bohr) occupying 0.798806 of unit cell:	Completed after 9 iterations at t[s]:    421.77
	Linear fluid (dielectric constant: 78.4, screening length: 5.74355 Bohr) occupying 0.798781 of unit cell:	Completed after 4 iterations at t[s]:    432.22
	FillingsUpdate:  mu: -0.171251800  nElectrons: 552.844757
	SubspaceRotationAdjust: set factor to 0.426
ElecMinimize: Iter:  11  G: -2453.765226130640258  |grad|_K:  9.977e-07  alpha:  1.163e-01  linmin:  1.141e-05  t[s]:    443.93
	Linear fluid (dielectric constant: 78.4, screening length: 5.74355 Bohr) occupying 0.798731 of unit cell:	Completed after 4 iterations at t[s]:    455.71
	Linear fluid (dielectric constant: 78.4, screening length: 5.74355 Bohr) occupying 0.798711 of unit cell:	Completed after 4 iterations at t[s]:    466.15
	FillingsUpdate:  mu: -0.171251800  nElectrons: 552.837934
	SubspaceRotationAdjust: set factor to 0.388
ElecMinimize: Iter:  12  G: -2453.765257184016718  |grad|_K:  9.308e-07  alpha:  1.617e-01  linmin: -8.802e-07  t[s]:    478.09
	Linear fluid (dielectric constant: 78.4, screening length: 5.74355 Bohr) occupying 0.798671 of unit cell:	Completed after 4 iterations at t[s]:    489.87
	Linear fluid (dielectric constant: 78.4, screening length: 5.74355 Bohr) occupying 0.798687 of unit cell:	Completed after 2 iterations at t[s]:    500.24
	FillingsUpdate:  mu: -0.171251800  nElectrons: 552.840372
	SubspaceRotationAdjust: set factor to 0.463
ElecMinimize: Iter:  13  G: -2453.765273190230801  |grad|_K:  4.381e-07  alpha:  9.639e-02  linmin: -4.428e-06  t[s]:    511.76
	Linear fluid (dielectric constant: 78.4, screening length: 5.74355 Bohr) occupying 0.798691 of unit cell:	Completed after 2 iterations at t[s]:    523.26
	Linear fluid (dielectric constant: 78.4, screening length: 5.74355 Bohr) occupying 0.798697 of unit cell:	Completed after 2 iterations at t[s]:    533.42
	FillingsUpdate:  mu: -0.171251800  nElectrons: 552.852165
	SubspaceRotationAdjust: set factor to 0.436
ElecMinimize: Iter:  14  G: -2453.765281950119515  |grad|_K:  4.767e-07  alpha:  2.355e-01  linmin:  6.979e-06  t[s]:    545.42
	Linear fluid (dielectric constant: 78.4, screening length: 5.74355 Bohr) occupying 0.798673 of unit cell:	Completed after 2 iterations at t[s]:    556.98
	Linear fluid (dielectric constant: 78.4, screening length: 5.74355 Bohr) occupying 0.798686 of unit cell:	Completed after 2 iterations at t[s]:    567.24
	FillingsUpdate:  mu: -0.171251800  nElectrons: 552.853458
	SubspaceRotationAdjust: set factor to 0.452
ElecMinimize: Iter:  15  G: -2453.765286568231659  |grad|_K:  3.080e-07  alpha:  1.048e-01  linmin:  1.068e-05  t[s]:    579.49
	Linear fluid (dielectric constant: 78.4, screening length: 5.74355 Bohr) occupying 0.798683 of unit cell:	Completed after 0 iterations at t[s]:    590.50
	Linear fluid (dielectric constant: 78.4, screening length: 5.74355 Bohr) occupying 0.798681 of unit cell:	Completed after 2 iterations at t[s]:    600.79
	FillingsUpdate:  mu: -0.171251800  nElectrons: 552.856613
	SubspaceRotationAdjust: set factor to 0.471
ElecMinimize: Iter:  16  G: -2453.765289900694370  |grad|_K:  2.923e-07  alpha:  2.049e-01  linmin:  4.473e-05  t[s]:    612.66
	Linear fluid (dielectric constant: 78.4, screening length: 5.74355 Bohr) occupying 0.798667 of unit cell:	Completed after 2 iterations at t[s]:    624.56
	Linear fluid (dielectric constant: 78.4, screening length: 5.74355 Bohr) occupying 0.798672 of unit cell:	Completed after 0 iterations at t[s]:    634.63
	FillingsUpdate:  mu: -0.171251800  nElectrons: 552.856781
	SubspaceRotationAdjust: set factor to 0.49
ElecMinimize: Iter:  17  G: -2453.765291969787995  |grad|_K:  2.065e-07  alpha:  1.354e-01  linmin:  1.166e-05  t[s]:    646.60
	Linear fluid (dielectric constant: 78.4, screening length: 5.74355 Bohr) occupying 0.798666 of unit cell:	Completed after 2 iterations at t[s]:    658.14
	Linear fluid (dielectric constant: 78.4, screening length: 5.74355 Bohr) occupying 0.798668 of unit cell:	Completed after 0 iterations at t[s]:    668.09
	FillingsUpdate:  mu: -0.171251800  nElectrons: 552.856660
	SubspaceRotationAdjust: set factor to 0.41
ElecMinimize: Iter:  18  G: -2453.765292749429591  |grad|_K:  1.802e-07  alpha:  9.599e-02  linmin:  3.809e-05  t[s]:    680.42
	Linear fluid (dielectric constant: 78.4, screening length: 5.74355 Bohr) occupying 0.798670 of unit cell:	Completed after 1 iterations at t[s]:    692.51
	Linear fluid (dielectric constant: 78.4, screening length: 5.74355 Bohr) occupying 0.798670 of unit cell:	Completed after 0 iterations at t[s]:    702.05
	FillingsUpdate:  mu: -0.171251800  nElectrons: 552.858324
	SubspaceRotationAdjust: set factor to 0.544
ElecMinimize: Iter:  19  G: -2453.765293262283649  |grad|_K:  1.204e-07  alpha:  8.998e-02  linmin: -6.330e-05  t[s]:    713.89
	Linear fluid (dielectric constant: 78.4, screening length: 5.74355 Bohr) occupying 0.798672 of unit cell:	Completed after 2 iterations at t[s]:    725.38
	Linear fluid (dielectric constant: 78.4, screening length: 5.74355 Bohr) occupying 0.798671 of unit cell:	Completed after 0 iterations at t[s]:    735.13
	FillingsUpdate:  mu: -0.171251800  nElectrons: 552.859239
	SubspaceRotationAdjust: set factor to 0.492
ElecMinimize: Iter:  20  G: -2453.765293390963961  |grad|_K:  1.384e-07  alpha:  5.695e-02  linmin: -2.401e-05  t[s]:    746.86
	Linear fluid (dielectric constant: 78.4, screening length: 5.74355 Bohr) occupying 0.798671 of unit cell:	Completed after 0 iterations at t[s]:    757.96
	Linear fluid (dielectric constant: 78.4, screening length: 5.74355 Bohr) occupying 0.798671 of unit cell:	Completed after 0 iterations at t[s]:    768.07
	FillingsUpdate:  mu: -0.171251800  nElectrons: 552.859684
	SubspaceRotationAdjust: set factor to 0.675
ElecMinimize: Iter:  21  G: -2453.765293655723781  |grad|_K:  1.349e-07  alpha:  6.500e-02  linmin:  3.357e-09  t[s]:    779.87
	Linear fluid (dielectric constant: 78.4, screening length: 5.74355 Bohr) occupying 0.798668 of unit cell:	Completed after 2 iterations at t[s]:    791.39
	Linear fluid (dielectric constant: 78.4, screening length: 5.74355 Bohr) occupying 0.798670 of unit cell:	Completed after 0 iterations at t[s]:    801.45
	FillingsUpdate:  mu: -0.171251800  nElectrons: 552.859565
	SubspaceRotationAdjust: set factor to 0.534
ElecMinimize: Iter:  22  G: -2453.765293756984192  |grad|_K:  1.771e-07  alpha:  1.929e-02  linmin:  1.430e-04  t[s]:    812.85
ElecMinimize: 	Bad step direction: g.d > 0.
ElecMinimize: 	Undoing step.
	Linear fluid (dielectric constant: 78.4, screening length: 5.74355 Bohr) occupying 0.798670 of unit cell:	Completed after 0 iterations at t[s]:    824.83
ElecMinimize: 	Step failed: resetting search direction.
	FillingsUpdate:  mu: -0.171251800  nElectrons: 552.859565
	SubspaceRotationAdjust: set factor to 0.619
ElecMinimize: Iter:  23  G: -2453.765293756996925  |grad|_K:  1.678e-07  alpha:  0.000e+00
	Linear fluid (dielectric constant: 78.4, screening length: 5.74355 Bohr) occupying 0.798670 of unit cell:	Completed after 2 iterations at t[s]:    848.60
	Linear fluid (dielectric constant: 78.4, screening length: 5.74355 Bohr) occupying 0.798670 of unit cell:	Completed after 0 iterations at t[s]:    858.73
ElecMinimize: 	Step increased G by 9.869109e-08, reducing alpha to 7.435067e-04.
	Linear fluid (dielectric constant: 78.4, screening length: 5.74355 Bohr) occupying 0.798670 of unit cell:	Completed after 0 iterations at t[s]:    878.62
ElecMinimize: 	Step increased G by 1.213721e-07, reducing alpha to 7.435067e-05.
	Linear fluid (dielectric constant: 78.4, screening length: 5.74355 Bohr) occupying 0.798670 of unit cell:	Completed after 0 iterations at t[s]:    899.03
ElecMinimize: 	Step increased G by 1.237427e-07, reducing alpha to 7.435067e-06.
ElecMinimize: 	Step failed to reduce G after 3 attempts. Quitting step.
ElecMinimize: 	Undoing step.
	Linear fluid (dielectric constant: 78.4, screening length: 5.74355 Bohr) occupying 0.798670 of unit cell:	Completed after 0 iterations at t[s]:    919.23
ElecMinimize: 	Step failed along negative gradient direction.
ElecMinimize: Probably at roundoff error limit. (Stopping)
Setting wave functions to eigenvectors of Hamiltonian

# Ionic positions in lattice coordinates:
ion Cu   0.000000453954545  -0.000000456090909   0.500000449545455 0
ion Cu   0.250000453954545   0.249999543909091   0.500000449545455 0
ion Cu   0.500000453954545  -0.000000456090909   0.500000449545455 0
ion Cu   0.750000453954545   0.249999543909091   0.500000449545455 0
ion Cu   0.000000453954545   0.499999543909091   0.500000449545455 0
ion Cu   0.250000453954545   0.749999543909091   0.500000449545455 0
ion Cu   0.500000453954545   0.499999543909091   0.500000449545455 0
ion Cu   0.750000453954545   0.749999543909091   0.500000449545455 0
ion H   0.313064968859737   0.020930875486564   0.435802259769650 0
ion H   0.063074969609738   0.229073201331621   0.564188645821262 0
ion H   0.436925938299353   0.270925886486561   0.435812253269647 0
ion H   0.186935939049353   0.479068212331619   0.564198639321259 0
ion H   0.813064968859737   0.020930875486564   0.435802259769650 0
ion H   0.563074969609738   0.229073201331621   0.564188645821262 0
ion H   0.936925938299353   0.270925886486561   0.435812253269647 0
ion H   0.686935939049353   0.479068212331619   0.564198639321259 0
ion H   0.313064968859737   0.520930875486564   0.435802259769650 0
ion H   0.063074969609738   0.729073201331621   0.564188645821262 0
ion H   0.436925938299353   0.770925886486561   0.435812253269647 0
ion H   0.186935939049353   0.979068212331619   0.564198639321259 0
ion H   0.813064968859737   0.520930875486564   0.435802259769650 0
ion H   0.563074969609738   0.729073201331621   0.564188645821262 0
ion H   0.936925938299353   0.770925886486561   0.435812253269647 0
ion H   0.686935939049353   0.979068212331619   0.564198639321259 0
ion Se   0.321991806056570   0.407656395087453   0.559885768020784 0
ion Se   0.071986797806571   0.342342708480726   0.440115131070125 0
ion Se   0.428014110102520   0.157656379337456   0.559885768020784 0
ion Se   0.178009101852520   0.092342692730730   0.440115131070125 0
ion Se   0.821991806056570   0.407656395087453   0.559885768020784 0
ion Se   0.571986797806571   0.342342708480726   0.440115131070125 0
ion Se   0.928014110102520   0.157656379337456   0.559885768020784 0
ion Se   0.678009101852521   0.092342692730730   0.440115131070125 0
ion Se   0.321991806056570   0.907656395087453   0.559885768020784 0
ion Se   0.071986797806571   0.842342708480726   0.440115131070125 0
ion Se   0.428014110102520   0.657656379337456   0.559885768020784 0
ion Se   0.178009101852520   0.592342692730730   0.440115131070125 0
ion Se   0.821991806056570   0.907656395087453   0.559885768020784 0
ion Se   0.571986797806571   0.842342708480726   0.440115131070125 0
ion Se   0.928014110102520   0.657656379337456   0.559885768020784 0
ion Se   0.678009101852521   0.592342692730730   0.440115131070125 0
ion O   0.114671096717173   0.260882539177194   0.484627676936900 0
ion O   0.385329811191918   0.239116548640989   0.515373222154009 0
ion O   0.364661111967172   0.489116558890991   0.515378231654009 0
ion O   0.232049504443147   0.139194704586206   0.510732784341063 0
ion O   0.135339795941919   0.010882528927192   0.484622667436900 0
ion O   0.482049507693147   0.110814349731979   0.489263105249845 0
ion O   0.267951403465943   0.360804383231977   0.489268114749846 0
ion O   0.017951400215944   0.389184738086204   0.510737793841064 0
ion O   0.276590160347577   0.048236262366989   0.396492629875498 0
ion O   0.026600170347573   0.201772838951192   0.603503272715412 0
ion O   0.223410747561514   0.451762825451193   0.603508269215411 0
ion O   0.473400737561517   0.298226248866990   0.396497626375497 0
ion O   0.614671096717173   0.260882539177194   0.484627676936900 0
ion O   0.885329811191918   0.239116548640989   0.515373222154009 0
ion O   0.864661111967172   0.489116558890991   0.515378231654009 0
ion O   0.732049504443147   0.139194704586206   0.510732784341063 0
ion O   0.635339795941919   0.010882528927192   0.484622667436900 0
ion O   0.982049507693147   0.110814349731979   0.489263105249845 0
ion O   0.767951403465943   0.360804383231977   0.489268114749846 0
ion O   0.517951400215944   0.389184738086204   0.510737793841064 0
ion O   0.776590160347576   0.048236262366989   0.396492629875498 0
ion O   0.526600170347573   0.201772838951192   0.603503272715412 0
ion O   0.723410747561514   0.451762825451193   0.603508269215411 0
ion O   0.973400737561517   0.298226248866990   0.396497626375497 0
ion O   0.114671096717173   0.760882539177194   0.484627676936900 0
ion O   0.385329811191918   0.739116548640989   0.515373222154009 0
ion O   0.364661111967172   0.989116558890991   0.515378231654009 0
ion O   0.232049504443147   0.639194704586206   0.510732784341063 0
ion O   0.135339795941919   0.510882528927192   0.484622667436900 0
ion O   0.482049507693147   0.610814349731979   0.489263105249845 0
ion O   0.267951403465943   0.860804383231977   0.489268114749846 0
ion O   0.017951400215944   0.889184738086204   0.510737793841064 0
ion O   0.276590160347577   0.548236262366989   0.396492629875498 0
ion O   0.026600170347573   0.701772838951192   0.603503272715412 0
ion O   0.223410747561514   0.951762825451193   0.603508269215411 0
ion O   0.473400737561517   0.798226248866990   0.396497626375497 0
ion O   0.614671096717173   0.760882539177194   0.484627676936900 0
ion O   0.885329811191918   0.739116548640989   0.515373222154009 0
ion O   0.864661111967172   0.989116558890991   0.515378231654009 0
ion O   0.732049504443147   0.639194704586206   0.510732784341063 0
ion O   0.635339795941919   0.510882528927192   0.484622667436900 0
ion O   0.982049507693147   0.610814349731979   0.489263105249845 0
ion O   0.767951403465943   0.860804383231977   0.489268114749846 0
ion O   0.517951400215944   0.889184738086204   0.510737793841064 0
ion O   0.776590160347576   0.548236262366989   0.396492629875498 0
ion O   0.526600170347573   0.701772838951192   0.603503272715412 0
ion O   0.723410747561514   0.951762825451193   0.603508269215411 0
ion O   0.973400737561517   0.798226248866990   0.396497626375497 0


# Forces in Lattice coordinates:
force Cu  -0.000000000000000   0.000000000000000   0.000000000000000 0
force Cu   0.000000000000000   0.000000000000000  -0.000000000000000 0
force Cu  -0.000000000000000   0.000000000000000  -0.000000000000000 0
force Cu   0.000000000000000  -0.000000000000000  -0.000000000000000 0
force Cu   0.000000000000000  -0.000000000000000   0.000000000000000 0
force Cu  -0.000000000000000   0.000000000000000  -0.000000000000000 0
force Cu  -0.000000000000000   0.000000000000000   0.000000000000000 0
force Cu  -0.000000000000000   0.000000000000000   0.000000000000000 0
force H   0.048166936062548  -0.060944434217070   0.160067319687020 0
force H   0.047958999621360   0.060751771735913  -0.159996627155497 0
force H  -0.047958999621360  -0.060751771735910   0.159996627155511 0
force H  -0.048166936062550   0.060944434217071  -0.160067319687027 0
force H   0.048166936062547  -0.060944434217071   0.160067319687013 0
force H   0.047958999621360   0.060751771735910  -0.159996627155504 0
force H  -0.047958999621360  -0.060751771735913   0.159996627155518 0
force H  -0.048166936062548   0.060944434217074  -0.160067319687020 0
force H   0.048166936062548  -0.060944434217067   0.160067319687013 0
force H   0.047958999621360   0.060751771735917  -0.159996627155511 0
force H  -0.047958999621359  -0.060751771735910   0.159996627155511 0
force H  -0.048166936062550   0.060944434217071  -0.160067319687020 0
force H   0.048166936062548  -0.060944434217074   0.160067319687005 0
force H   0.047958999621365   0.060751771735917  -0.159996627155504 0
force H  -0.047958999621361  -0.060751771735910   0.159996627155511 0
force H  -0.048166936062549   0.060944434217074  -0.160067319687020 0
force Se   0.113742712613891  -0.027138001752538  -0.273851043102205 0
force Se   0.113513582365313   0.022224917634696   0.274601136562890 0
force Se  -0.113513582365320  -0.022224917634704  -0.274601136562776 0
force Se  -0.113742712613897   0.027138001752537   0.273851043102262 0
force Se   0.113742712613891  -0.027138001752538  -0.273851043102319 0
force Se   0.113513582365320   0.022224917634696   0.274601136562776 0
force Se  -0.113513582365313  -0.022224917634697  -0.274601136562719 0
force Se  -0.113742712613890   0.027138001752538   0.273851043102205 0
force Se   0.113742712613891  -0.027138001752546  -0.273851043102319 0
force Se   0.113513582365306   0.022224917634703   0.274601136562778 0
force Se  -0.113513582365312  -0.022224917634697  -0.274601136562719 0
force Se  -0.113742712613890   0.027138001752545   0.273851043102205 0
force Se   0.113742712613891  -0.027138001752538  -0.273851043102148 0
force Se   0.113513582365319   0.022224917634696   0.274601136562776 0
force Se  -0.113513582365313  -0.022224917634697  -0.274601136562721 0
force Se  -0.113742712613891   0.027138001752531   0.273851043102262 0
force O  -0.102795042915285   0.110162652679886  -0.051640330895031 0
force O   0.102795042915285  -0.110162652679875   0.051640330895019 0
force O  -0.101854111969043  -0.109114382875752   0.050314084251784 0
force O  -0.028871135908808  -0.147009750341199  -0.116120723681654 0
force O   0.101854111969043   0.109114382875745  -0.050314084251770 0
force O  -0.028584761079956   0.146051693914852   0.116070106276581 0
force O   0.028871135908808   0.147009750341199   0.116120723681654 0
force O   0.028584761079957  -0.146051693914880  -0.116070106276556 0
force O   0.049842867412611  -0.002517798565953  -0.189980880073243 0
force O   0.048673289890255  -0.001005904434080   0.189095365117819 0
force O  -0.049842867412612   0.002517798565953   0.189980880073012 0
force O  -0.048673289890266   0.001005904434084  -0.189095365118156 0
force O  -0.102795042915285   0.110162652679879  -0.051640330895032 0
force O   0.102795042915285  -0.110162652679872   0.051640330895030 0
force O  -0.101854111969014  -0.109114382875749   0.050314084251769 0
force O  -0.028871135908809  -0.147009750341256  -0.116120723681682 0
force O   0.101854111969057   0.109114382875745  -0.050314084251756 0
force O  -0.028584761079957   0.146051693914851   0.116070106276581 0
force O   0.028871135908808   0.147009750341199   0.116120723681682 0
force O   0.028584761079956  -0.146051693914880  -0.116070106276585 0
force O   0.049842867412615  -0.002517798565953  -0.189980880073129 0
force O   0.048673289890255  -0.001005904434084   0.189095365117936 0
force O  -0.049842867412611   0.002517798565953   0.189980880073243 0
force O  -0.048673289890255   0.001005904434084  -0.189095365118156 0
force O  -0.102795042915285   0.110162652679872  -0.051640330895005 0
force O   0.102795042915299  -0.110162652679879   0.051640330895031 0
force O  -0.101854111969029  -0.109114382875745   0.050314084251770 0
force O  -0.028871135908807  -0.147009750341199  -0.116120723681682 0
force O   0.101854111969043   0.109114382875752  -0.050314084251771 0
force O  -0.028584761079956   0.146051693914823   0.116070106276585 0
force O   0.028871135908808   0.147009750341171   0.116120723681650 0
force O   0.028584761079956  -0.146051693914880  -0.116070106276556 0
force O   0.049842867412619  -0.002517798565957  -0.189980880073016 0
force O   0.048673289890262  -0.001005904434084   0.189095365117932 0
force O  -0.049842867412612   0.002517798565953   0.189980880073016 0
force O  -0.048673289890255   0.001005904434084  -0.189095365117932 0
force O  -0.102795042915285   0.110162652679879  -0.051640330895031 0
force O   0.102795042915299  -0.110162652679879   0.051640330895033 0
force O  -0.101854111969043  -0.109114382875749   0.050314084251784 0
force O  -0.028871135908808  -0.147009750341171  -0.116120723681711 0
force O   0.101854111969029   0.109114382875749  -0.050314084251756 0
force O  -0.028584761079957   0.146051693914851   0.116070106276553 0
force O   0.028871135908809   0.147009750341228   0.116120723681682 0
force O   0.028584761079957  -0.146051693914880  -0.116070106276560 0
force O   0.049842867412612  -0.002517798565953  -0.189980880073129 0
force O   0.048673289890255  -0.001005904434084   0.189095365117932 0
force O  -0.049842867412611   0.002517798565953   0.189980880073126 0
force O  -0.048673289890255   0.001005904434080  -0.189095365117929 0

# Energy components:
   A_diel =       -0.0769907214693639
   Eewald =     9440.4750167023430549
       EH =    11712.5709184395000193
     Eloc =   -24347.0165628586692037
      Enl =      443.4945190711845271
      Exc =     -572.8689466579514828
 Exc_core =      199.1511298205085154
       KE =      575.8897223805365684
  MuShift =       -0.0077481981500289
-------------------------------------
     Etot =    -2548.3889420221648834
       TS =        0.0545473878836690
-------------------------------------
        F =    -2548.4434894100486417
      muN =      -94.6781957768090905
-------------------------------------
        G =    -2453.7652936332397076

IonicMinimize: Iter:   0  G: -2453.765293633239708  |grad|_K:  0.000e+00  t[s]:    941.94
IonicMinimize: Converged (|grad|_K<1.000000e-04).

#--- Lowdin population analysis ---
# oxidation-state Cu +0.306 +0.306 +0.306 +0.306 +0.306 +0.306 +0.306 +0.306
# oxidation-state H +0.378 +0.378 +0.378 +0.378 +0.378 +0.378 +0.378 +0.378 +0.378 +0.378 +0.378 +0.378 +0.378 +0.378 +0.378 +0.378
# oxidation-state Se +1.623 +1.623 +1.623 +1.623 +1.623 +1.623 +1.623 +1.623 +1.623 +1.623 +1.623 +1.623 +1.623 +1.623 +1.623 +1.623
# oxidation-state O -0.603 -0.603 -0.603 -0.611 -0.603 -0.611 -0.611 -0.611 -0.685 -0.685 -0.685 -0.685 -0.603 -0.603 -0.603 -0.611 -0.603 -0.611 -0.611 -0.611 -0.685 -0.685 -0.685 -0.685 -0.603 -0.603 -0.603 -0.611 -0.603 -0.611 -0.611 -0.611 -0.685 -0.685 -0.685 -0.685 -0.603 -0.603 -0.603 -0.611 -0.603 -0.611 -0.611 -0.611 -0.685 -0.685 -0.685 -0.685


Dumping 'NbTe2.fillings' ... done
Dumping 'NbTe2.wfns' ... done
Dumping 'NbTe2.fluidState' ... done
Dumping 'NbTe2.eigenvals' ... done
End date and time: Mon Jul 13 18:08:27 2020  (Duration: 0-0:15:49.75)
Done!

*************** JDFTx 1.5.0  ***************

Start date and time: Mon Jul 13 18:40:10 2020
Executable jdftx_gpu with command-line: -i Charged.in -o Charged.out
Running on hosts (process indices):  amax (0-3)
Divided in process groups (process indices):  0 (0)  1 (1)  2 (2)  3 (3)
gpuInit: Found compatible cuda device 0 'Tesla K80'
gpuInit: Found compatible cuda device 1 'Tesla K80'
gpuInit: Found compatible cuda device 2 'Tesla K80'
gpuInit: Found compatible cuda device 3 'Tesla K80'
gpuInit: Selected device 0
Resource initialization completed at t[s]:     20.30
Run totals: 4 processes, 24 threads, 4 GPUs


Input parsed successfully to the following command list (including defaults):

basis kpoint-dependent
cache-projectors no
coords-type Lattice
core-overlap-check none
coulomb-interaction Slab 001
coulomb-truncation-embed 0 0 0.5
davidson-band-ratio 1.1
dump End State
dump-name NbTe2.$VAR
elec-cutoff 20 100
elec-eigen-algo Davidson
elec-ex-corr gga-PBE
elec-smearing Gauss 0.0073499
electronic-minimize  \
	dirUpdateScheme      FletcherReeves \
	linminMethod         DirUpdateRecommended \
	nIterations          500 \
	history              15 \
	knormThreshold       0 \
	energyDiffThreshold  1e-08 \
	nEnergyDiff          2 \
	alphaTstart          1 \
	alphaTmin            1e-10 \
	updateTestStepSize   yes \
	alphaTreduceFactor   0.1 \
	alphaTincreaseFactor 3 \
	nAlphaAdjustMax      3 \
	wolfeEnergy          0.0001 \
	wolfeGradient        0.9 \
	fdTest               no
exchange-regularization WignerSeitzTruncated
fluid LinearPCM 298.000000 1.013250
fluid-anion F- 1 MeanFieldLJ \
	epsBulk 1 \
	pMol 0 \
	epsInf 1 \
	Pvap 0 \
	sigmaBulk 0 \
	Rvdw 2.24877 \
	Res 0 \
	tauNuc 343133
fluid-cation Na+ 1 MeanFieldLJ \
	epsBulk 1 \
	pMol 0 \
	epsInf 1 \
	Pvap 0 \
	sigmaBulk 0 \
	Rvdw 2.19208 \
	Res 0 \
	tauNuc 343133
fluid-ex-corr lda-TF lda-PZ
fluid-gummel-loop 10 1.000000e-05
fluid-minimize  \
	dirUpdateScheme      PolakRibiere \
	linminMethod         DirUpdateRecommended \
	nIterations          400 \
	history              15 \
	knormThreshold       1e-11 \
	energyDiffThreshold  0 \
	nEnergyDiff          2 \
	alphaTstart          1 \
	alphaTmin            1e-10 \
	updateTestStepSize   yes \
	alphaTreduceFactor   0.1 \
	alphaTincreaseFactor 3 \
	nAlphaAdjustMax      6 \
	wolfeEnergy          0.0001 \
	wolfeGradient        0.9 \
	fdTest               no
fluid-solvent H2O 55.338 ScalarEOS \
	epsBulk 78.4 \
	pMol 0.92466 \
	epsInf 1.77 \
	Pvap 1.06736e-10 \
	sigmaBulk 4.62e-05 \
	Rvdw 2.61727 \
	Res 1.42 \
	tauNuc 343133 \
	poleEl 15 7 1
forces-output-coords Positions
initial-state NbTe2.$VAR
ion Cu  -0.000000000000000   0.000000000000000   0.500000000000000 0
ion Cu   0.250000000000000   0.250000000000000   0.500000000000000 0
ion Cu   0.500000000000000  -0.000000000000000   0.500000000000000 0
ion Cu   0.750000000000000   0.250000000000000   0.500000000000000 0
ion Cu  -0.000000000000000   0.500000000000000   0.500000000000000 0
ion Cu   0.250000000000000   0.750000028000002   0.500000000000000 0
ion Cu   0.500000000000000   0.500000000000000   0.500000000000000 0
ion Cu   0.750000000000000   0.750000028000002   0.500000000000000 0
ion H   0.313064531905190   0.020931339827470   0.435796826224195 0
ion H   0.063074522905196   0.229068657172533   0.564193205775804 0
ion H   0.436925498094810   0.270921321827473   0.435816813224190 0
ion H   0.186935468094810   0.479068671172527   0.564193205775804 0
ion H   0.813064497905194   0.020931339827470   0.435796826224195 0
ion H   0.563074501905191   0.229068657172533   0.564193205775804 0
ion H   0.936925464094807   0.270921321827473   0.435816813224190 0
ion H   0.686935502094806   0.479068671172527   0.564193205775804 0
ion H   0.313064531905190   0.520931328827473   0.435796826224195 0
ion H   0.063074522905196   0.729068643172532   0.564193205775804 0
ion H   0.436925498094810   0.770921348827472   0.435816813224190 0
ion H   0.186935468094810   0.979068671172527   0.564193205775804 0
ion H   0.813064497905194   0.520931328827473   0.435796826224195 0
ion H   0.563074501905191   0.729068643172532   0.564193205775804 0
ion H   0.936925464094807   0.770921348827472   0.435816813224190 0
ion H   0.686935502094806   0.979068671172527   0.564193205775804 0
ion Se   0.321991356352024   0.407656835428365   0.559885292975333 0
ion Se   0.071981344352027   0.342343164571635   0.440114656024673 0
ion Se   0.428008643647976   0.157656835428365   0.559885292975333 0
ion Se   0.178008660647973   0.092343157571638   0.440114656024673 0
ion Se   0.821991356352024   0.407656835428365   0.559885292975333 0
ion Se   0.571981318352025   0.342343164571635   0.440114656024673 0
ion Se   0.928008643647976   0.157656835428365   0.559885292975333 0
ion Se   0.678008643647976   0.092343157571638   0.440114656024673 0
ion Se   0.321991356352024   0.907656863428360   0.559885292975333 0
ion Se   0.071981344352027   0.842343164571635   0.440114656024673 0
ion Se   0.428008643647976   0.657656835428365   0.559885292975333 0
ion Se   0.178008660647973   0.592343136571640   0.440114656024673 0
ion Se   0.821991356352024   0.907656863428360   0.559885292975333 0
ion Se   0.571981318352025   0.842343164571635   0.440114656024673 0
ion Se   0.928008643647976   0.657656835428365   0.559885292975333 0
ion Se   0.678008643647976   0.592343136571640   0.440114656024673 0
ion O   0.114670647012625   0.260883016268104   0.484632236891446 0
ion O   0.385329335987370   0.239117011731898   0.515377782108555 0
ion O   0.364660660012627   0.489116983731896   0.515377782108555 0
ion O   0.232054043988600   0.139195188177115   0.510732308795606 0
ion O   0.135339347987374   0.010883003268099   0.484622217891445 0
ion O   0.482054043988600   0.110814819822889   0.489267639204389 0
ion O   0.267955960011397   0.360804811822885   0.489267639204389 0
ion O   0.017955947011399   0.389185180177111   0.510742327795608 0
ion O   0.276589702143032   0.048241705707900   0.396487183830044 0
ion O   0.026599714143029   0.201768298292104   0.603502823169957 0
ion O   0.223410280856971   0.451768298292104   0.603502823169957 0
ion O   0.473400293856972   0.298221721707902   0.396497176830043 0
ion O   0.614670630012628   0.260883016268104   0.484632236891446 0
ion O   0.885329369987372   0.239117011731898   0.515377782108555 0
ion O   0.864660660012627   0.489116983731896   0.515377782108555 0
ion O   0.732054077988602   0.139195188177115   0.510732308795606 0
ion O   0.635339339987373   0.010883003268099   0.484622217891445 0
ion O   0.982054077988602   0.110814819822889   0.489267639204389 0
ion O   0.767955960011397   0.360804811822885   0.489267639204389 0
ion O   0.517955960011397   0.389185180177111   0.510742327795608 0
ion O   0.776589702143032   0.048241705707900   0.396487183830044 0
ion O   0.526599706143028   0.201768298292104   0.603502823169957 0
ion O   0.723410297856968   0.451768298292104   0.603502823169957 0
ion O   0.973400260856973   0.298221721707902   0.396497176830043 0
ion O   0.114670647012625   0.760882988268102   0.484632236891446 0
ion O   0.385329335987370   0.739117011731898   0.515377782108555 0
ion O   0.364660660012627   0.989117039731900   0.515377782108555 0
ion O   0.232054043988600   0.639195133177114   0.510732308795606 0
ion O   0.135339347987374   0.510882960268100   0.484622217891445 0
ion O   0.482054043988600   0.610814791822886   0.489267639204389 0
ion O   0.267955960011397   0.860804866822886   0.489267639204389 0
ion O   0.017955947011399   0.889185208177114   0.510742327795608 0
ion O   0.276589702143032   0.548241709707900   0.396487183830044 0
ion O   0.026599714143029   0.701768270292102   0.603502823169957 0
ion O   0.223410280856971   0.951768243292103   0.603502823169957 0
ion O   0.473400293856972   0.798221666707900   0.396497176830043 0
ion O   0.614670630012628   0.760882988268102   0.484632236891446 0
ion O   0.885329369987372   0.739117011731898   0.515377782108555 0
ion O   0.864660660012627   0.989117039731900   0.515377782108555 0
ion O   0.732054077988602   0.639195133177114   0.510732308795606 0
ion O   0.635339339987373   0.510882960268100   0.484622217891445 0
ion O   0.982054077988602   0.610814791822886   0.489267639204389 0
ion O   0.767955960011397   0.860804866822886   0.489267639204389 0
ion O   0.517955960011397   0.889185208177114   0.510742327795608 0
ion O   0.776589702143032   0.548241709707900   0.396487183830044 0
ion O   0.526599706143028   0.701768270292102   0.603502823169957 0
ion O   0.723410297856968   0.951768243292103   0.603502823169957 0
ion O   0.973400260856973   0.798221666707900   0.396497176830043 0
ion-species GBRV/$ID_pbe.uspp
ion-width Ecut
ionic-minimize  \
	dirUpdateScheme      L-BFGS \
	linminMethod         DirUpdateRecommended \
	nIterations          0 \
	history              15 \
	knormThreshold       0.0001 \
	energyDiffThreshold  1e-06 \
	nEnergyDiff          2 \
	alphaTstart          1 \
	alphaTmin            1e-10 \
	updateTestStepSize   yes \
	alphaTreduceFactor   0.1 \
	alphaTincreaseFactor 3 \
	nAlphaAdjustMax      3 \
	wolfeEnergy          0.0001 \
	wolfeGradient        0.9 \
	fdTest               no
kpoint   0.000000000000   0.000000000000   0.000000000000  1.00000000000000
kpoint-folding 2 2 1 
latt-move-scale 1 1 1
latt-scale 1 1 1 
lattice Triclinic 26.5716 32.5947 35.0769 90 90 90
lattice-minimize  \
	dirUpdateScheme      L-BFGS \
	linminMethod         DirUpdateRecommended \
	nIterations          0 \
	history              15 \
	knormThreshold       0 \
	energyDiffThreshold  1e-06 \
	nEnergyDiff          2 \
	alphaTstart          1 \
	alphaTmin            1e-10 \
	updateTestStepSize   yes \
	alphaTreduceFactor   0.1 \
	alphaTincreaseFactor 3 \
	nAlphaAdjustMax      3 \
	wolfeEnergy          0.0001 \
	wolfeGradient        0.9 \
	fdTest               no
lcao-params -1 1e-06 0.0073499
pcm-variant CANDLE
spintype no-spin
subspace-rotation-factor 1 yes
symmetries automatic
symmetry-threshold 0.0001
target-mu -0.24475 no




---------- Setting up symmetries ----------

Found 8 point-group symmetries of the bravais lattice
Found 8 space-group symmetries with basis
Applied RMS atom displacement 0.000159475 bohrs to make symmetries exact.

---------- Initializing the Grid ----------
R = 
[    26.5716          0          0  ]
[          0    32.5947          0  ]
[          0          0    35.0769  ]
unit cell volume = 30379.9
G =
[   0.236462          0          0  ]
[          0   0.192767          0  ]
[          0          0   0.179126  ]
Minimum fftbox size, Smin = [  120  148  160  ]
Chosen fftbox size, S = [  120  150  160  ]

---------- Initializing tighter grid for wavefunction operations ----------
R = 
[    26.5716          0          0  ]
[          0    32.5947          0  ]
[          0          0    35.0769  ]
unit cell volume = 30379.9
G =
[   0.236462          0          0  ]
[          0   0.192767          0  ]
[          0          0   0.179126  ]
Minimum fftbox size, Smin = [  108  132  144  ]
Chosen fftbox size, S = [  108  140  144  ]

---------- Exchange Correlation functional ----------
Initalized PBE GGA exchange.
Initalized PBE GGA correlation.

---------- Setting up pseudopotentials ----------
Width of ionic core gaussian charges (only for fluid interactions / plotting) set to 0.397384

Reading pseudopotential file '/home/guoxy/vasp/jdftx-1.5.0/build/pseudopotentials/GBRV/cu_pbe.uspp':
  Title: Cu.  Created by USPP 7.3.6 on 3-2-2014
  Reference state energy: -201.059491.  19 valence electrons in orbitals:
    |300>  occupation: 2  eigenvalue: -5.020764
    |310>  occupation: 6  eigenvalue: -3.445588
    |320>  occupation: 8  eigenvalue: -0.925168
    |400>  occupation: 2  eigenvalue: -0.567638
    |410>  occupation: 0  eigenvalue: -0.326154
  lMax: 2  lLocal: 3  QijEcut: 6
  6 projectors sampled on a log grid with 613 points:
    l: 0  eig: -5.020767  rCut: 1.4
    l: 0  eig: -0.567640  rCut: 1.4
    l: 1  eig: -3.445589  rCut: 1.55
    l: 1  eig: -0.326157  rCut: 1.55
    l: 2  eig: -0.925170  rCut: 1.5
    l: 2  eig: 1.500000  rCut: 1.5
  Partial core density with radius 0.8
  Transforming core density to a uniform radial grid of dG=0.02 with 1246 points.
  Transforming local potential to a uniform radial grid of dG=0.02 with 1246 points.
  Transforming nonlocal projectors to a uniform radial grid of dG=0.02 with 432 points.
  Transforming density augmentations to a uniform radial grid of dG=0.02 with 1246 points.
  Transforming atomic orbitals to a uniform radial grid of dG=0.02 with 432 points.
  Core radius for overlap checks: 1.55 bohrs.

Reading pseudopotential file '/home/guoxy/vasp/jdftx-1.5.0/build/pseudopotentials/GBRV/h_pbe.uspp':
  Title: H.  Created by USPP 7.3.6 on 2-4-15
  Reference state energy: -0.458849.  1 valence electrons in orbitals:
    |100>  occupation: 1  eigenvalue: -0.238595
  lMax: 0  lLocal: 1  QijEcut: 6
  2 projectors sampled on a log grid with 395 points:
    l: 0  eig: -0.238595  rCut: 1.2
    l: 0  eig: 1.000000  rCut: 1.2
  Transforming local potential to a uniform radial grid of dG=0.02 with 1246 points.
  Transforming nonlocal projectors to a uniform radial grid of dG=0.02 with 432 points.
  Transforming density augmentations to a uniform radial grid of dG=0.02 with 1246 points.
  Transforming atomic orbitals to a uniform radial grid of dG=0.02 with 432 points.
  Core radius for overlap checks: 1.20 bohrs.

Reading pseudopotential file '/home/guoxy/vasp/jdftx-1.5.0/build/pseudopotentials/GBRV/se_pbe.uspp':
  Title: Se.  Created by USPP 7.3.6 on 14-9-2013
  Reference state energy: -21.672887.  6 valence electrons in orbitals:
    |400>  occupation: 2  eigenvalue: -0.635284
    |410>  occupation: 4  eigenvalue: -0.239295
  lMax: 2  lLocal: 3  QijEcut: 5
  6 projectors sampled on a log grid with 625 points:
    l: 0  eig: -0.635278  rCut: 1.5
    l: 0  eig: 0.500000  rCut: 1.5
    l: 1  eig: -0.239295  rCut: 1.5
    l: 1  eig: 0.500000  rCut: 1.5
    l: 2  eig: 0.000000  rCut: 1.8
    l: 2  eig: 1.000000  rCut: 1.8
  Partial core density with radius 1.2
  Transforming core density to a uniform radial grid of dG=0.02 with 1246 points.
  Transforming local potential to a uniform radial grid of dG=0.02 with 1246 points.
  Transforming nonlocal projectors to a uniform radial grid of dG=0.02 with 432 points.
  Transforming density augmentations to a uniform radial grid of dG=0.02 with 1246 points.
  Transforming atomic orbitals to a uniform radial grid of dG=0.02 with 432 points.
  Core radius for overlap checks: 1.80 bohrs.

Reading pseudopotential file '/home/guoxy/vasp/jdftx-1.5.0/build/pseudopotentials/GBRV/o_pbe.uspp':
  Title: O.  Created by USPP 7.3.6 on 3-2-2014
  Reference state energy: -15.894388.  6 valence electrons in orbitals:
    |200>  occupation: 2  eigenvalue: -0.878823
    |210>  occupation: 4  eigenvalue: -0.332131
  lMax: 2  lLocal: 2  QijEcut: 6
  5 projectors sampled on a log grid with 511 points:
    l: 0  eig: -0.878823  rCut: 1.25
    l: 0  eig: 0.000000  rCut: 1.25
    l: 1  eig: -0.332132  rCut: 1.25
    l: 1  eig: 0.000000  rCut: 1.25
    l: 2  eig: 1.000000  rCut: 1.25
  Partial core density with radius 0.7
  Transforming core density to a uniform radial grid of dG=0.02 with 1246 points.
  Transforming local potential to a uniform radial grid of dG=0.02 with 1246 points.
  Transforming nonlocal projectors to a uniform radial grid of dG=0.02 with 432 points.
  Transforming density augmentations to a uniform radial grid of dG=0.02 with 1246 points.
  Transforming atomic orbitals to a uniform radial grid of dG=0.02 with 432 points.
  Core radius for overlap checks: 1.25 bohrs.

Initialized 4 species with 88 total atoms.

Folded 1 k-points by 2x2x1 to 4 k-points.

---------- Setting up k-points, bands, fillings ----------
No reducable k-points. 
Computing the number of bands and number of electrons
Reading initial fillings from file NbTe2.fillings.
nElectrons: 552.859566   nBands: 376   nStates: 4

----- Setting up reduced wavefunction bases (one per k-point) -----
average nbasis = 129812.750 , ideal nbasis = 129785.459

---------- Setting up coulomb interaction ----------
Fluid mode embedding: using embedded box, but periodic Coulomb kernel.
(Fluid response is responsible for (approximate) separation between periodic images.)
Setting up double-sized grid for truncated Coulomb potentials:
R = 
[    26.5716          0          0  ]
[          0    32.5947          0  ]
[          0          0    70.1538  ]
unit cell volume = 60759.9
G =
[   0.236462          0          0  ]
[          0   0.192767          0  ]
[          0          0   0.089563  ]
Chosen fftbox size, S = [  120  150  320  ]
Integer grid location selected as the embedding center:
   Grid: [  0  0  80  ]
   Lattice: [  0  0  0.5  ]
   Cartesian: [  0  0  17.5385  ]
Constructing Wigner-Seitz cell: 6 faces (6 quadrilaterals, 0 hexagons)
Range-separation parameter for embedded mesh potentials due to point charges: 0.593647 bohrs.

Initializing van der Waals corrections
	NOTE: vdW corrections apply only for interactions with fluid.
	Cu:  C6:  187.33 Eh-a0^6  R0: 2.952 a0
	 H:  C6:    2.43 Eh-a0^6  R0: 1.892 a0
	Se:  C6:  219.24 Eh-a0^6  R0: 3.347 a0
	 O:  C6:   12.14 Eh-a0^6  R0: 2.536 a0

---------- Setting up ewald sum ----------
Optimum gaussian width for ewald sums = 7.436501 bohr.
Real space sum over 567 unit cells with max indices [  4  4  3  ]
Reciprocal space sum over 8415 terms with max indices [  7  8  16  ]

---------- Allocating electronic variables ----------
Initializing wave functions:  reading from 'NbTe2.wfns'
----- createFluidSolver() ----- (Fluid-side solver setup)
   Initializing fluid molecule 'H2O'
     Initializing site 'O'
       Electron density: proportional to exp(-r/0.36935)*erfc((r-0.51523)/0.36823) with norm 6.826
       Charge density: gaussian nuclear width 0.478731 with net site charge 0.826
       Polarizability: cuspless exponential with width 0.32 and norm 3.73
       Hard sphere radius: 2.57003 bohrs
       Positions in reference frame:
         [ +0.000000 +0.000000 +0.000000 ]
     Initializing site 'H'
       Electron density: proportional to exp(-r/0.34641)*erfc((r-0)/0.390882) with norm 0.587
       Charge density: gaussian nuclear width 0.377945 with net site charge -0.413
       Polarizability: cuspless exponential with width 0.39 and norm 3.3
       Positions in reference frame:
         [ +0.000000 -1.441945 +1.122523 ]
         [ +0.000000 +1.441945 +1.122523 ]
     Net charge: 0   dipole magnitude: 0.927204
     Initializing spherical shell mfKernel with radius 2.61727 Bohr
     deltaS corrections:
       site 'O': -7.54299
       site 'H': -6.83917
   Initializing fluid molecule 'Na+'
     Initializing site 'Na'
       Electron density: proportional to exp(-r/0.19682)*erfc((r-0.71491)/0.41314) with norm 8.1383
       Charge density: gaussian nuclear width 0.365347 with net site charge -1
       Hard sphere radius: 1.86327 bohrs
       Positions in reference frame:
         [ +0.000000 +0.000000 +0.000000 ]
     Net charge: -1   dipole magnitude: 0
     Initializing gaussian mfKernel with width: 1.55004 Bohr
     deltaS corrections:
       site 'Na': -22.3555
   Initializing fluid molecule 'F-'
     Initializing site 'F'
       Electron density: proportional to exp(-r/0.38886)*erfc((r-0)/0.438782) with norm 8
       Charge density: gaussian nuclear width 0.374796 with net site charge 1
       Hard sphere radius: 2.39995 bohrs
       Positions in reference frame:
         [ +0.000000 +0.000000 +0.000000 ]
     Net charge: 1   dipole magnitude: 0
     Initializing gaussian mfKernel with width: 1.59012 Bohr
     deltaS corrections:
       site 'F': -9.04335

Correction to mu due to finite nuclear width = -0.00901408
   Cavity determined by nc: 0.00142 and sigma: 0.707107
   Nonlocal vdW cavity from gaussian model electron density with norm = 8 and sigma = 0.993594 bohr
   Charge asymmetry in cavity with sensitivity pCavity = 36.5 e-bohr/Eh
   Electrostatic cavity expanded by eta = 1.46 bohrs
   Weighted density cavitation model constrained by Nbulk: 0.0049383 bohr^-3, Pvap: 3.14029 kPa, Rvdw: 2.61727 bohr and sigmaBulk: 4.62e-05 Eh/bohr^2 at T: 298 K.
   Weighted density dispersion model using vdW pair potentials with single solvent site with sqrtC6eff: 0.77 SI.
Reading fluid state from 'NbTe2.fluidState'


---- Citations for features of the code used in this run ----

   Software package:
      R. Sundararaman, K. Letchworth-Weaver, K.A. Schwarz, D. Gunceler, Y. Ozhabes and T.A. Arias, 'JDFTx: software for joint density-functional theory', SoftwareX 6, 278 (2017)

   gga-PBE exchange-correlation functional:
      J.P. Perdew, K. Burke and M. Ernzerhof, Phys. Rev. Lett. 77, 3865 (1996)

   Pseudopotentials:
      KF Garrity, JW Bennett, KM Rabe and D Vanderbilt, Comput. Mater. Sci. 81, 446 (2014)

   Truncated Coulomb potentials:
      R. Sundararaman and T.A. Arias, Phys. Rev. B 87, 165122 (2013)

   Van der Waals correction pair-potentials:
      S. Grimme, J. Comput. Chem. 27, 1787 (2006)

   Charge-asymmetric nonlocally-determined local-electric (CANDLE) solvation model:
      R. Sundararaman and W.A. Goddard III, J. Chem. Phys. 142, 064107 (2015)

   Total energy minimization with Auxiliary Hamiltonian:
      C. Freysoldt, S. Boeck, and J. Neugebauer, Phys. Rev. B 79, 241103(R) (2009)

   Grand-canonical (fixed-potential) DFT:
      R. Sundararaman, W. A. Goddard III and T. A. Arias, J. Chem. Phys. 146, 114104 (2017)

This list may not be complete. Please suggest additional citations or
report any other bugs at https://github.com/shankar1729/jdftx/issues

Initialization completed successfully at t[s]:     37.13

Shifting auxilliary hamiltonian by -0.073524 to set nElectrons=552.859566
	Linear fluid (dielectric constant: 78.4, screening length: 5.74355 Bohr) occupying 0.798664 of unit cell:	Completed after 0 iterations at t[s]:     42.42

-------- Electronic minimization -----------
	Linear fluid (dielectric constant: 78.4, screening length: 5.74355 Bohr) occupying 0.798664 of unit cell:	Completed after 0 iterations at t[s]:     48.06
	FillingsUpdate:  mu: -0.244750400  nElectrons: 552.859566
ElecMinimize: Iter:   0  G: -2413.130889670166198  |grad|_K:  8.355e-05  alpha:  1.000e+00
	Linear fluid (dielectric constant: 78.4, screening length: 5.74355 Bohr) occupying 0.797487 of unit cell:	Completed after 22 iterations at t[s]:     70.80
	Linear fluid (dielectric constant: 78.4, screening length: 5.74355 Bohr) occupying 0.797164 of unit cell:	Completed after 22 iterations at t[s]:     81.93
	FillingsUpdate:  mu: -0.244750400  nElectrons: 552.163838
	SubspaceRotationAdjust: set factor to 0.571
ElecMinimize: Iter:   1  G: -2413.168811495804675  |grad|_K:  4.480e-05  alpha:  1.867e-02  linmin: -5.846e-03  t[s]:     92.28
	Linear fluid (dielectric constant: 78.4, screening length: 5.74355 Bohr) occupying 0.796598 of unit cell:	Completed after 14 iterations at t[s]:    102.55
	Linear fluid (dielectric constant: 78.4, screening length: 5.74355 Bohr) occupying 0.796429 of unit cell:	Completed after 14 iterations at t[s]:    112.57
	FillingsUpdate:  mu: -0.244750400  nElectrons: 551.230410
	SubspaceRotationAdjust: set factor to 0.497
ElecMinimize: Iter:   2  G: -2413.187720682490180  |grad|_K:  3.595e-05  alpha:  3.269e-02  linmin:  2.602e-05  t[s]:    122.35
	Linear fluid (dielectric constant: 78.4, screening length: 5.74355 Bohr) occupying 0.796449 of unit cell:	Completed after 14 iterations at t[s]:    133.10
	Linear fluid (dielectric constant: 78.4, screening length: 5.74355 Bohr) occupying 0.796501 of unit cell:	Completed after 14 iterations at t[s]:    143.16
	FillingsUpdate:  mu: -0.244750400  nElectrons: 550.365190
	SubspaceRotationAdjust: set factor to 0.328
ElecMinimize: Iter:   3  G: -2413.201929518165343  |grad|_K:  3.757e-05  alpha:  5.733e-02  linmin:  2.052e-05  t[s]:    153.67
	Linear fluid (dielectric constant: 78.4, screening length: 5.74355 Bohr) occupying 0.796723 of unit cell:	Completed after 13 iterations at t[s]:    164.58
	Linear fluid (dielectric constant: 78.4, screening length: 5.74355 Bohr) occupying 0.796644 of unit cell:	Completed after 11 iterations at t[s]:    174.20
	FillingsUpdate:  mu: -0.244750400  nElectrons: 550.047806
	SubspaceRotationAdjust: set factor to 0.328
ElecMinimize: Iter:   4  G: -2413.212011840280411  |grad|_K:  2.643e-05  alpha:  3.687e-02  linmin: -1.735e-07  t[s]:    184.87
	Linear fluid (dielectric constant: 78.4, screening length: 5.74355 Bohr) occupying 0.796762 of unit cell:	Completed after 12 iterations at t[s]:    195.38
	Linear fluid (dielectric constant: 78.4, screening length: 5.74355 Bohr) occupying 0.796900 of unit cell:	Completed after 12 iterations at t[s]:    205.24
	FillingsUpdate:  mu: -0.244750400  nElectrons: 549.964219
	SubspaceRotationAdjust: set factor to 0.342
ElecMinimize: Iter:   5  G: -2413.223265660627931  |grad|_K:  3.435e-05  alpha:  8.049e-02  linmin: -3.134e-05  t[s]:    215.61
	Linear fluid (dielectric constant: 78.4, screening length: 5.74355 Bohr) occupying 0.797419 of unit cell:	Completed after 13 iterations at t[s]:    226.12
	Linear fluid (dielectric constant: 78.4, screening length: 5.74355 Bohr) occupying 0.797620 of unit cell:	Completed after 9 iterations at t[s]:    235.82
	FillingsUpdate:  mu: -0.244750400  nElectrons: 549.570429
	SubspaceRotationAdjust: set factor to 0.35
ElecMinimize: Iter:   6  G: -2413.250894724037153  |grad|_K:  3.304e-05  alpha:  1.123e-01  linmin: -4.914e-05  t[s]:    246.32
	Linear fluid (dielectric constant: 78.4, screening length: 5.74355 Bohr) occupying 0.798384 of unit cell:	Completed after 14 iterations at t[s]:    256.72
	Linear fluid (dielectric constant: 78.4, screening length: 5.74355 Bohr) occupying 0.797935 of unit cell:	Completed after 13 iterations at t[s]:    266.56
	FillingsUpdate:  mu: -0.244750400  nElectrons: 549.203614
	SubspaceRotationAdjust: set factor to 0.551
ElecMinimize: Iter:   7  G: -2413.261373125725186  |grad|_K:  1.399e-05  alpha:  4.585e-02  linmin: -2.069e-05  t[s]:    277.43
	Linear fluid (dielectric constant: 78.4, screening length: 5.74355 Bohr) occupying 0.798040 of unit cell:	Completed after 10 iterations at t[s]:    288.07
	Linear fluid (dielectric constant: 78.4, screening length: 5.74355 Bohr) occupying 0.798080 of unit cell:	Completed after 8 iterations at t[s]:    297.21
	FillingsUpdate:  mu: -0.244750400  nElectrons: 549.037814
	SubspaceRotationAdjust: set factor to 0.574
ElecMinimize: Iter:   8  G: -2413.263831861694143  |grad|_K:  1.316e-05  alpha:  6.364e-02  linmin: -6.723e-06  t[s]:    308.16
	Linear fluid (dielectric constant: 78.4, screening length: 5.74355 Bohr) occupying 0.798290 of unit cell:	Completed after 7 iterations at t[s]:    319.21
	Linear fluid (dielectric constant: 78.4, screening length: 5.74355 Bohr) occupying 0.798562 of unit cell:	Completed after 7 iterations at t[s]:    329.48
	FillingsUpdate:  mu: -0.244750400  nElectrons: 548.843185
	SubspaceRotationAdjust: set factor to 0.642
ElecMinimize: Iter:   9  G: -2413.268834787281321  |grad|_K:  1.932e-05  alpha:  1.471e-01  linmin: -4.463e-06  t[s]:    340.73
	Linear fluid (dielectric constant: 78.4, screening length: 5.74355 Bohr) occupying 0.799713 of unit cell:	Completed after 13 iterations at t[s]:    351.77
	Linear fluid (dielectric constant: 78.4, screening length: 5.74355 Bohr) occupying 0.799044 of unit cell:	Completed after 13 iterations at t[s]:    362.40
	FillingsUpdate:  mu: -0.244750400  nElectrons: 548.875214
	SubspaceRotationAdjust: set factor to 0.9
ElecMinimize: Iter:  10  G: -2413.273268227213521  |grad|_K:  1.107e-05  alpha:  6.074e-02  linmin:  6.529e-06  t[s]:    373.52
	Linear fluid (dielectric constant: 78.4, screening length: 5.74355 Bohr) occupying 0.799241 of unit cell:	Completed after 12 iterations at t[s]:    384.37
	Linear fluid (dielectric constant: 78.4, screening length: 5.74355 Bohr) occupying 0.799223 of unit cell:	Completed after 4 iterations at t[s]:    393.09
	FillingsUpdate:  mu: -0.244750400  nElectrons: 548.953753
	SubspaceRotationAdjust: set factor to 0.812
ElecMinimize: Iter:  11  G: -2413.274584904368112  |grad|_K:  9.872e-06  alpha:  5.508e-02  linmin:  6.262e-06  t[s]:    403.65
	Linear fluid (dielectric constant: 78.4, screening length: 5.74355 Bohr) occupying 0.799394 of unit cell:	Completed after 4 iterations at t[s]:    414.27
	Linear fluid (dielectric constant: 78.4, screening length: 5.74355 Bohr) occupying 0.799539 of unit cell:	Completed after 7 iterations at t[s]:    423.38
	FillingsUpdate:  mu: -0.244750400  nElectrons: 548.909510
	SubspaceRotationAdjust: set factor to 1.08
ElecMinimize: Iter:  12  G: -2413.276533874121924  |grad|_K:  8.963e-06  alpha:  1.026e-01  linmin: -2.697e-07  t[s]:    433.85
	Linear fluid (dielectric constant: 78.4, screening length: 5.74355 Bohr) occupying 0.799824 of unit cell:	Completed after 13 iterations at t[s]:    445.17
	Linear fluid (dielectric constant: 78.4, screening length: 5.74355 Bohr) occupying 0.799670 of unit cell:	Completed after 12 iterations at t[s]:    455.69
	FillingsUpdate:  mu: -0.244750400  nElectrons: 548.826735
	SubspaceRotationAdjust: set factor to 0.869
ElecMinimize: Iter:  13  G: -2413.277270513302483  |grad|_K:  5.530e-06  alpha:  4.675e-02  linmin: -1.970e-07  t[s]:    465.98
	Linear fluid (dielectric constant: 78.4, screening length: 5.74355 Bohr) occupying 0.799732 of unit cell:	Completed after 7 iterations at t[s]:    475.92
	Linear fluid (dielectric constant: 78.4, screening length: 5.74355 Bohr) occupying 0.799812 of unit cell:	Completed after 9 iterations at t[s]:    485.76
	FillingsUpdate:  mu: -0.244750400  nElectrons: 548.861405
[...]
	Linear fluid (dielectric constant: 78.4, screening length: 5.74355 Bohr) occupying 0.799926 of unit cell:	Completed after 1 iterations at t[s]:   1233.66
	Linear fluid (dielectric constant: 78.4, screening length: 5.74355 Bohr) occupying 0.799926 of unit cell:	Completed after 0 iterations at t[s]:   1242.20
ElecMinimize: 	Step increased G by 4.645426e-08, reducing alpha to 1.012194e-03.
	Linear fluid (dielectric constant: 78.4, screening length: 5.74355 Bohr) occupying 0.799926 of unit cell:	Completed after 2 iterations at t[s]:   1261.11
ElecMinimize: 	Step increased G by 1.783960e-07, reducing alpha to 1.012194e-04.
	Linear fluid (dielectric constant: 78.4, screening length: 5.74355 Bohr) occupying 0.799926 of unit cell:	Completed after 0 iterations at t[s]:   1280.32
ElecMinimize: 	Step increased G by 1.782814e-07, reducing alpha to 1.012194e-05.
ElecMinimize: 	Step failed to reduce G after 3 attempts. Quitting step.
ElecMinimize: 	Undoing step.
	Linear fluid (dielectric constant: 78.4, screening length: 5.74355 Bohr) occupying 0.799926 of unit cell:	Completed after 0 iterations at t[s]:   1298.14
ElecMinimize: 	Step failed: resetting search direction.
	FillingsUpdate:  mu: -0.244750400  nElectrons: 548.954705
	SubspaceRotationAdjust: set factor to 1.4
ElecMinimize: Iter:  38  G: -2413.279566868627626  |grad|_K:  1.116e-07  alpha:  1.012e-05
	Linear fluid (dielectric constant: 78.4, screening length: 5.74355 Bohr) occupying 0.799926 of unit cell:	Completed after 0 iterations at t[s]:   1318.26
ElecMinimize: 	Predicted alpha/alphaT>3.000000, increasing alphaT to 1.264899e-01.
	Linear fluid (dielectric constant: 78.4, screening length: 5.74355 Bohr) occupying 0.799926 of unit cell:	Completed after 0 iterations at t[s]:   1327.97
	Linear fluid (dielectric constant: 78.4, screening length: 5.74355 Bohr) occupying 0.799927 of unit cell:	Completed after 2 iterations at t[s]:   1337.95
ElecMinimize: 	Step increased G by 3.257360e-07, reducing alpha to 3.092561e-02.
	Linear fluid (dielectric constant: 78.4, screening length: 5.74355 Bohr) occupying 0.799926 of unit cell:	Completed after 2 iterations at t[s]:   1356.17
	FillingsUpdate:  mu: -0.244750400  nElectrons: 548.954019
	SubspaceRotationAdjust: set factor to 1.18
ElecMinimize: Iter:  39  G: -2413.279567074272563  |grad|_K:  1.552e-07  alpha:  3.093e-02  linmin: -3.078e-04  t[s]:   1367.18
	Linear fluid (dielectric constant: 78.4, screening length: 5.74355 Bohr) occupying 0.799926 of unit cell:	Completed after 0 iterations at t[s]:   1376.27
	Linear fluid (dielectric constant: 78.4, screening length: 5.74355 Bohr) occupying 0.799926 of unit cell:	Completed after 0 iterations at t[s]:   1384.91
	FillingsUpdate:  mu: -0.244750400  nElectrons: 548.954528
	SubspaceRotationAdjust: set factor to 0.88
ElecMinimize: Iter:  40  G: -2413.279567463052899  |grad|_K:  1.067e-07  alpha:  4.721e-02  linmin: -7.006e-04  t[s]:   1395.98
	Linear fluid (dielectric constant: 78.4, screening length: 5.74355 Bohr) occupying 0.799927 of unit cell:	Completed after 2 iterations at t[s]:   1405.28
	Linear fluid (dielectric constant: 78.4, screening length: 5.74355 Bohr) occupying 0.799926 of unit cell:	Completed after 0 iterations at t[s]:   1413.77
ElecMinimize: 	Step increased G by 7.534072e-08, reducing alpha to 1.000203e-03.
	Linear fluid (dielectric constant: 78.4, screening length: 5.74355 Bohr) occupying 0.799926 of unit cell:	Completed after 0 iterations at t[s]:   1431.80
	FillingsUpdate:  mu: -0.244750400  nElectrons: 548.954569
	SubspaceRotationAdjust: set factor to 0.64
ElecMinimize: Iter:  41  G: -2413.279567477127785  |grad|_K:  2.312e-07  alpha:  1.000e-03  linmin:  5.843e-04  t[s]:   1443.04
ElecMinimize: 	Bad step direction: g.d > 0.
ElecMinimize: 	Undoing step.
	Linear fluid (dielectric constant: 78.4, screening length: 5.74355 Bohr) occupying 0.799926 of unit cell:	Completed after 0 iterations at t[s]:   1452.49
ElecMinimize: 	Step failed: resetting search direction.
	FillingsUpdate:  mu: -0.244750400  nElectrons: 548.954569
	SubspaceRotationAdjust: set factor to 0.564
ElecMinimize: Iter:  42  G: -2413.279567477123237  |grad|_K:  2.099e-07  alpha:  0.000e+00
	Linear fluid (dielectric constant: 78.4, screening length: 5.74355 Bohr) occupying 0.799926 of unit cell:	Completed after 0 iterations at t[s]:   1472.77
ElecMinimize: 	Predicted alpha/alphaT>3.000000, increasing alphaT to 3.000610e-03.
	Linear fluid (dielectric constant: 78.4, screening length: 5.74355 Bohr) occupying 0.799926 of unit cell:	Completed after 0 iterations at t[s]:   1481.37
ElecMinimize: 	Predicted alpha/alphaT>3.000000, increasing alphaT to 9.001829e-03.
	Linear fluid (dielectric constant: 78.4, screening length: 5.74355 Bohr) occupying 0.799926 of unit cell:	Completed after 2 iterations at t[s]:   1490.71
	Linear fluid (dielectric constant: 78.4, screening length: 5.74355 Bohr) occupying 0.799926 of unit cell:	Completed after 0 iterations at t[s]:   1499.98
ElecMinimize: 	Step increased G by 1.880258e-07, reducing alpha to 2.247614e-04.
	Linear fluid (dielectric constant: 78.4, screening length: 5.74355 Bohr) occupying 0.799926 of unit cell:	Completed after 0 iterations at t[s]:   1517.34
ElecMinimize: 	Step increased G by 1.980206e-07, reducing alpha to 2.247614e-05.
	Linear fluid (dielectric constant: 78.4, screening length: 5.74355 Bohr) occupying 0.799926 of unit cell:	Completed after 0 iterations at t[s]:   1535.11
ElecMinimize: 	Step increased G by 1.990329e-07, reducing alpha to 2.247614e-06.
ElecMinimize: 	Step failed to reduce G after 3 attempts. Quitting step.
ElecMinimize: 	Undoing step.
	Linear fluid (dielectric constant: 78.4, screening length: 5.74355 Bohr) occupying 0.799926 of unit cell:	Completed after 0 iterations at t[s]:   1553.75
ElecMinimize: 	Step failed along negative gradient direction.
ElecMinimize: Probably at roundoff error limit. (Stopping)
Setting wave functions to eigenvectors of Hamiltonian

# Ionic positions in lattice coordinates:
ion Cu   0.000000453954545  -0.000000456090909   0.500000449545455 0
ion Cu   0.250000453954545   0.249999543909091   0.500000449545455 0
ion Cu   0.500000453954545  -0.000000456090909   0.500000449545455 0
ion Cu   0.750000453954545   0.249999543909091   0.500000449545455 0
ion Cu   0.000000453954545   0.499999543909091   0.500000449545455 0
ion Cu   0.250000453954545   0.749999543909091   0.500000449545455 0
ion Cu   0.500000453954545   0.499999543909091   0.500000449545455 0
ion Cu   0.750000453954545   0.749999543909091   0.500000449545455 0
ion H   0.313064968859737   0.020930875486564   0.435802259769650 0
ion H   0.063074969609738   0.229073201331621   0.564188645821262 0
ion H   0.436925938299353   0.270925886486561   0.435812253269647 0
ion H   0.186935939049353   0.479068212331619   0.564198639321259 0
ion H   0.813064968859737   0.020930875486564   0.435802259769650 0
ion H   0.563074969609738   0.229073201331621   0.564188645821262 0
ion H   0.936925938299353   0.270925886486561   0.435812253269647 0
ion H   0.686935939049353   0.479068212331619   0.564198639321259 0
ion H   0.313064968859737   0.520930875486564   0.435802259769650 0
ion H   0.063074969609738   0.729073201331621   0.564188645821262 0
ion H   0.436925938299353   0.770925886486561   0.435812253269647 0
ion H   0.186935939049353   0.979068212331619   0.564198639321259 0
ion H   0.813064968859737   0.520930875486564   0.435802259769650 0
ion H   0.563074969609738   0.729073201331621   0.564188645821262 0
ion H   0.936925938299353   0.770925886486561   0.435812253269647 0
ion H   0.686935939049353   0.979068212331619   0.564198639321259 0
ion Se   0.321991806056570   0.407656395087453   0.559885768020784 0
ion Se   0.071986797806571   0.342342708480726   0.440115131070125 0
ion Se   0.428014110102520   0.157656379337456   0.559885768020784 0
ion Se   0.178009101852520   0.092342692730730   0.440115131070125 0
ion Se   0.821991806056570   0.407656395087453   0.559885768020784 0
ion Se   0.571986797806571   0.342342708480726   0.440115131070125 0
ion Se   0.928014110102520   0.157656379337456   0.559885768020784 0
ion Se   0.678009101852521   0.092342692730730   0.440115131070125 0
ion Se   0.321991806056570   0.907656395087453   0.559885768020784 0
ion Se   0.071986797806571   0.842342708480726   0.440115131070125 0
ion Se   0.428014110102520   0.657656379337456   0.559885768020784 0
ion Se   0.178009101852520   0.592342692730730   0.440115131070125 0
ion Se   0.821991806056570   0.907656395087453   0.559885768020784 0
ion Se   0.571986797806571   0.842342708480726   0.440115131070125 0
ion Se   0.928014110102520   0.657656379337456   0.559885768020784 0
ion Se   0.678009101852521   0.592342692730730   0.440115131070125 0
ion O   0.114671096717173   0.260882539177194   0.484627676936900 0
ion O   0.385329811191918   0.239116548640989   0.515373222154009 0
ion O   0.364661111967172   0.489116558890991   0.515378231654009 0
ion O   0.232049504443147   0.139194704586206   0.510732784341063 0
ion O   0.135339795941919   0.010882528927192   0.484622667436900 0
ion O   0.482049507693147   0.110814349731979   0.489263105249845 0
ion O   0.267951403465943   0.360804383231977   0.489268114749846 0
ion O   0.017951400215944   0.389184738086204   0.510737793841064 0
ion O   0.276590160347577   0.048236262366989   0.396492629875498 0
ion O   0.026600170347573   0.201772838951192   0.603503272715412 0
ion O   0.223410747561514   0.451762825451193   0.603508269215411 0
ion O   0.473400737561517   0.298226248866990   0.396497626375497 0
ion O   0.614671096717173   0.260882539177194   0.484627676936900 0
ion O   0.885329811191918   0.239116548640989   0.515373222154009 0
ion O   0.864661111967172   0.489116558890991   0.515378231654009 0
ion O   0.732049504443147   0.139194704586206   0.510732784341063 0
ion O   0.635339795941919   0.010882528927192   0.484622667436900 0
ion O   0.982049507693147   0.110814349731979   0.489263105249845 0
ion O   0.767951403465943   0.360804383231977   0.489268114749846 0
ion O   0.517951400215944   0.389184738086204   0.510737793841064 0
ion O   0.776590160347576   0.048236262366989   0.396492629875498 0
ion O   0.526600170347573   0.201772838951192   0.603503272715412 0
ion O   0.723410747561514   0.451762825451193   0.603508269215411 0
ion O   0.973400737561517   0.298226248866990   0.396497626375497 0
ion O   0.114671096717173   0.760882539177194   0.484627676936900 0
ion O   0.385329811191918   0.739116548640989   0.515373222154009 0
ion O   0.364661111967172   0.989116558890991   0.515378231654009 0
ion O   0.232049504443147   0.639194704586206   0.510732784341063 0
ion O   0.135339795941919   0.510882528927192   0.484622667436900 0
ion O   0.482049507693147   0.610814349731979   0.489263105249845 0
ion O   0.267951403465943   0.860804383231977   0.489268114749846 0
ion O   0.017951400215944   0.889184738086204   0.510737793841064 0
ion O   0.276590160347577   0.548236262366989   0.396492629875498 0
ion O   0.026600170347573   0.701772838951192   0.603503272715412 0
ion O   0.223410747561514   0.951762825451193   0.603508269215411 0
ion O   0.473400737561517   0.798226248866990   0.396497626375497 0
ion O   0.614671096717173   0.760882539177194   0.484627676936900 0
ion O   0.885329811191918   0.739116548640989   0.515373222154009 0
ion O   0.864661111967172   0.989116558890991   0.515378231654009 0
ion O   0.732049504443147   0.639194704586206   0.510732784341063 0
ion O   0.635339795941919   0.510882528927192   0.484622667436900 0
ion O   0.982049507693147   0.610814349731979   0.489263105249845 0
ion O   0.767951403465943   0.860804383231977   0.489268114749846 0
ion O   0.517951400215944   0.889184738086204   0.510737793841064 0
ion O   0.776590160347576   0.548236262366989   0.396492629875498 0
ion O   0.526600170347573   0.701772838951192   0.603503272715412 0
ion O   0.723410747561514   0.951762825451193   0.603508269215411 0
ion O   0.973400737561517   0.798226248866990   0.396497626375497 0


# Forces in Lattice coordinates:
force Cu  -0.000000000000000   0.000000000000000   0.000000000000000 0
force Cu  -0.000000000000000  -0.000000000000000   0.000000000000000 0
force Cu  -0.000000000000000   0.000000000000000   0.000000000000000 0
force Cu   0.000000000000000   0.000000000000000  -0.000000000000000 0
force Cu   0.000000000000000   0.000000000000000   0.000000000000000 0
force Cu  -0.000000000000000   0.000000000000000  -0.000000000000000 0
force Cu  -0.000000000000000   0.000000000000000  -0.000000000000000 0
force Cu   0.000000000000000  -0.000000000000000   0.000000000000000 0
force H   0.039657868813796  -0.038835648095677   0.028102076968444 0
force H   0.039429192745405   0.038568564416162  -0.027952495109163 0
force H  -0.039429192745405  -0.038568564416162   0.027952495109170 0
force H  -0.039657868813794   0.038835648095677  -0.028102076968458 0
force H   0.039657868813796  -0.038835648095681   0.028102076968437 0
force H   0.039429192745407   0.038568564416162  -0.027952495109155 0
force H  -0.039429192745405  -0.038568564416166   0.027952495109177 0
force H  -0.039657868813794   0.038835648095677  -0.028102076968458 0
force H   0.039657868813794  -0.038835648095677   0.028102076968437 0
force H   0.039429192745407   0.038568564416169  -0.027952495109170 0
force H  -0.039429192745405  -0.038568564416165   0.027952495109177 0
force H  -0.039657868813794   0.038835648095677  -0.028102076968444 0
force H   0.039657868813794  -0.038835648095681   0.028102076968429 0
force H   0.039429192745409   0.038568564416165  -0.027952495109170 0
force H  -0.039429192745405  -0.038568564416166   0.027952495109170 0
force H  -0.039657868813794   0.038835648095680  -0.028102076968444 0
force Se   0.070220557011907  -0.113843124725561   0.559471841622235 0
force Se   0.069673040400152   0.109494340551986  -0.558874424540882 0
force Se  -0.069673040400152  -0.109494340552000   0.558874424540884 0
force Se  -0.070220557011915   0.113843124725554  -0.559471841622178 0
force Se   0.070220557011901  -0.113843124725554   0.559471841622180 0
force Se   0.069673040400167   0.109494340552001  -0.558874424540939 0
force Se  -0.069673040400152  -0.109494340552001   0.558874424540939 0
force Se  -0.070220557011901   0.113843124725554  -0.559471841622178 0
force Se   0.070220557011907  -0.113843124725561   0.559471841622180 0
force Se   0.069673040400144   0.109494340552001  -0.558874424540997 0
force Se  -0.069673040400152  -0.109494340551993   0.558874424540882 0
force Se  -0.070220557011907   0.113843124725561  -0.559471841622349 0
force Se   0.070220557011908  -0.113843124725561   0.559471841622235 0
force Se   0.069673040400152   0.109494340551993  -0.558874424540996 0
force Se  -0.069673040400152  -0.109494340551993   0.558874424540940 0
force Se  -0.070220557011908   0.113843124725554  -0.559471841622178 0
force O   0.137565282118498  -0.084777087828140   0.203250988905771 0
force O  -0.137565282118512   0.084777087828151  -0.203250988905785 0
force O   0.138744943909907   0.085473269204368  -0.204380477558302 0
force O   0.097012048597646   0.204582560861921   0.120346151137170 0
force O  -0.138744943909892  -0.085473269204375   0.204380477558302 0
force O   0.097109309315359  -0.205625000495059  -0.119824871552279 0
force O  -0.097012048597646  -0.204582560861921  -0.120346151137202 0
force O  -0.097109309315358   0.205625000495059   0.119824871552311 0
force O  -0.146275698256768   0.062027364815055   0.134135279465937 0
force O  -0.147374339117682  -0.065233251364990  -0.134846270478754 0
force O   0.146275698256768  -0.062027364815054  -0.134135279466047 0
force O   0.147374339117678   0.065233251364990   0.134846270478640 0
force O   0.137565282118498  -0.084777087828151   0.203250988905772 0
force O  -0.137565282118526   0.084777087828144  -0.203250988905785 0
force O   0.138744943909921   0.085473269204371  -0.204380477558288 0
force O   0.097012048597645   0.204582560861892   0.120346151137170 0
force O  -0.138744943909907  -0.085473269204368   0.204380477558303 0
force O   0.097109309315360  -0.205625000495116  -0.119824871552279 0
force O  -0.097012048597647  -0.204582560861892  -0.120346151137174 0
force O  -0.097109309315359   0.205625000495088   0.119824871552311 0
force O  -0.146275698256772   0.062027364815055   0.134135279466047 0
force O  -0.147374339117682  -0.065233251364993  -0.134846270478761 0
force O   0.146275698256768  -0.062027364815058  -0.134135279465937 0
force O   0.147374339117685   0.065233251364994   0.134846270478526 0
force O   0.137565282118498  -0.084777087828147   0.203250988905786 0
force O  -0.137565282118498   0.084777087828147  -0.203250988905785 0
force O   0.138744943909921   0.085473269204371  -0.204380477558303 0
force O   0.097012048597647   0.204582560861892   0.120346151137145 0
force O  -0.138744943909921  -0.085473269204364   0.204380477558317 0
force O   0.097109309315359  -0.205625000495088  -0.119824871552311 0
force O  -0.097012048597646  -0.204582560861921  -0.120346151137202 0
force O  -0.097109309315359   0.205625000495059   0.119824871552307 0
force O  -0.146275698256768   0.062027364815051   0.134135279465934 0
force O  -0.147374339117671  -0.065233251364990  -0.134846270478644 0
force O   0.146275698256768  -0.062027364815055  -0.134135279466047 0
force O   0.147374339117679   0.065233251364990   0.134846270478754 0
force O   0.137565282118498  -0.084777087828151   0.203250988905786 0
force O  -0.137565282118498   0.084777087828147  -0.203250988905786 0
force O   0.138744943909921   0.085473269204368  -0.204380477558288 0
force O   0.097012048597645   0.204582560861921   0.120346151137113 0
force O  -0.138744943909906  -0.085473269204371   0.204380477558318 0
force O   0.097109309315359  -0.205625000495088  -0.119824871552336 0
force O  -0.097012048597645  -0.204582560861864  -0.120346151137145 0
force O  -0.097109309315360   0.205625000495088   0.119824871552307 0
force O  -0.146275698256772   0.062027364815055   0.134135279465937 0
force O  -0.147374339117685  -0.065233251364990  -0.134846270478640 0
force O   0.146275698256768  -0.062027364815054  -0.134135279466047 0
force O   0.147374339117685   0.065233251364990   0.134846270478754 0

# Energy components:
   A_diel =       -0.2058313848237077
   Eewald =     9440.4750167023430549
       EH =    11572.7184117158449226
     Eloc =   -24205.3553297481048503
      Enl =      443.2778755514196405
      Exc =     -571.3534501420069773
 Exc_core =      199.1511298205085154
       KE =      573.6775930136461739
  MuShift =        0.0274517791119031
-------------------------------------
     Etot =    -2547.5871326920582760
       TS =        0.0492847586317201
-------------------------------------
        F =    -2547.6364174506898053
      muN =     -134.3568501726154523
-------------------------------------
        G =    -2413.2795672780744098

IonicMinimize: Iter:   0  G: -2413.279567278074410  |grad|_K:  0.000e+00  t[s]:   1574.85
IonicMinimize: Converged (|grad|_K<1.000000e-04).

#--- Lowdin population analysis ---
# oxidation-state Cu +0.418 +0.418 +0.418 +0.418 +0.418 +0.418 +0.418 +0.418
# oxidation-state H +0.380 +0.380 +0.380 +0.380 +0.380 +0.380 +0.380 +0.380 +0.380 +0.380 +0.380 +0.380 +0.380 +0.380 +0.380 +0.380
# oxidation-state Se +1.677 +1.677 +1.677 +1.677 +1.677 +1.677 +1.677 +1.677 +1.677 +1.677 +1.677 +1.677 +1.677 +1.677 +1.677 +1.677
# oxidation-state O -0.573 -0.573 -0.573 -0.578 -0.573 -0.578 -0.578 -0.578 -0.632 -0.632 -0.632 -0.632 -0.573 -0.573 -0.573 -0.578 -0.573 -0.578 -0.578 -0.578 -0.632 -0.632 -0.632 -0.632 -0.573 -0.573 -0.573 -0.578 -0.573 -0.578 -0.578 -0.578 -0.632 -0.632 -0.632 -0.632 -0.573 -0.573 -0.573 -0.578 -0.573 -0.578 -0.578 -0.578 -0.632 -0.632 -0.632 -0.632


Dumping 'NbTe2.fillings' ... done
Dumping 'NbTe2.wfns' ... done
Dumping 'NbTe2.fluidState' ... done
Dumping 'NbTe2.eigenvals' ... done
End date and time: Mon Jul 13 19:06:31 2020  (Duration: 0-0:26:21.62)
Done!
