
*************** JDFTx 1.5.0  ***************

Start date and time: Mon Jan 25 20:30:31 2021
Executable jdftx_gpu with command-line: -i Charged.in -o Charged.out
Running on hosts (process indices):  amax (0-6)
Divided in process groups (process indices):  0 (0)  1 (1)  2 (2)  3 (3)  4 (4)  5 (5)  6 (6)
gpuInit: Found compatible cuda device 0 'Tesla K80'
gpuInit: Found compatible cuda device 1 'Tesla K80'
gpuInit: Found compatible cuda device 2 'Tesla K80'
gpuInit: Found compatible cuda device 3 'Tesla K80'
gpuInit: Found compatible cuda device 4 'Tesla K80'
gpuInit: Found compatible cuda device 5 'Tesla K80'
gpuInit: Found compatible cuda device 6 'Tesla K80'
gpuInit: Selected device 0
Resource initialization completed at t[s]:      3.60
Run totals: 7 processes, 24 threads, 7 GPUs


Input parsed successfully to the following command list (including defaults):

basis kpoint-dependent
cache-projectors no
coords-type Lattice
core-overlap-check none
coulomb-interaction Slab 001
coulomb-truncation-embed 0.5 0.5 0.5
davidson-band-ratio 1.1
dump End State
dump-name NbTe2.$VAR
elec-cutoff 20
elec-eigen-algo Davidson
elec-ex-corr gga-PBE
elec-initial-charge 0.200000
elec-initial-magnetization 5.000000 no
elec-smearing Gauss 0.0073499
electronic-minimize  \
	dirUpdateScheme      FletcherReeves \
	linminMethod         DirUpdateRecommended \
	nIterations          200 \
	history              15 \
	knormThreshold       0 \
	energyDiffThreshold  1e-08 \
	nEnergyDiff          2 \
	alphaTstart          1 \
	alphaTmin            1e-10 \
	updateTestStepSize   yes \
	alphaTreduceFactor   0.1 \
	alphaTincreaseFactor 3 \
	nAlphaAdjustMax      3 \
	wolfeEnergy          0.0001 \
	wolfeGradient        0.9 \
	fdTest               no
exchange-regularization WignerSeitzTruncated
fluid LinearPCM 298.000000 1.013250
fluid-anion F- 1 MeanFieldLJ \
	epsBulk 1 \
	pMol 0 \
	epsInf 1 \
	Pvap 0 \
	sigmaBulk 0 \
	Rvdw 2.24877 \
	Res 0 \
	tauNuc 343133
fluid-cation Na+ 1 MeanFieldLJ \
	epsBulk 1 \
	pMol 0 \
	epsInf 1 \
	Pvap 0 \
	sigmaBulk 0 \
	Rvdw 2.19208 \
	Res 0 \
	tauNuc 343133
fluid-ex-corr lda-TF lda-PZ
fluid-gummel-loop 10 1.000000e-05
fluid-minimize  \
	dirUpdateScheme      PolakRibiere \
	linminMethod         DirUpdateRecommended \
	nIterations          400 \
	history              15 \
	knormThreshold       1e-11 \
	energyDiffThreshold  0 \
	nEnergyDiff          2 \
	alphaTstart          1 \
	alphaTmin            1e-10 \
	updateTestStepSize   yes \
	alphaTreduceFactor   0.1 \
	alphaTincreaseFactor 3 \
	nAlphaAdjustMax      6 \
	wolfeEnergy          0.0001 \
	wolfeGradient        0.9 \
	fdTest               no
fluid-solvent H2O 55.338 ScalarEOS \
	epsBulk 78.4 \
	pMol 0.92466 \
	epsInf 1.77 \
	Pvap 1.06736e-10 \
	sigmaBulk 4.62e-05 \
	Rvdw 2.61727 \
	Res 1.42 \
	tauNuc 343133 \
	poleEl 15 7 1
forces-output-coords Positions
initial-state NbTe2.$VAR
ion B   0.166670001000000   0.083329999999997   0.500000000000000 1
ion B   0.416670013000001   0.083329999999997   0.500000000000000 1
ion B   0.666670035999999   0.083329999999997   0.500000000000000 1
ion B   0.916669964999997   0.083329999999997   0.500000000000000 1
ion B   0.166669992999999   0.333330009000001   0.500000000000000 1
ion B   0.416670005000000   0.333330009000001   0.500000000000000 1
ion B   0.666670005000000   0.333330009000001   0.500000000000000 1
ion B   0.916669980999998   0.333330009000001   0.500000000000000 1
ion B   0.166670009999997   0.583330017999998   0.500000000000000 1
ion B   0.416670021999998   0.583330017999998   0.500000000000000 1
ion B   0.666670046000000   0.583330017999998   0.500000000000000 1
ion B   0.916669998000003   0.583330017999998   0.500000000000000 1
ion B   0.166669990999999   0.833330027999999   0.500000000000000 1
ion B   0.416670013999997   0.833330027999999   0.500000000000000 1
ion B   0.666670037999999   0.833330027999999   0.500000000000000 1
ion B   0.916670013999997   0.833330027999999   0.500000000000000 1
ion N   0.083329997000000   0.166669994999999   0.500000000000000 1
ion N   0.333330021000002   0.166669994999999   0.500000000000000 1
ion N   0.583329997000000   0.166669994999999   0.500000000000000 1
ion N   0.833330021000002   0.166669994999999   0.500000000000000 1
ion N   0.083329997000000   0.416670017999998   0.500000000000000 1
ion N   0.333330019999998   0.416670017999998   0.500000000000000 1
ion N   0.583329997000000   0.416670017999998   0.500000000000000 1
ion N   0.833329997000000   0.416670017999998   0.500000000000000 1
ion N   0.083329988999999   0.666670027000002   0.500000000000000 1
ion N   0.333330013000001   0.666670027000002   0.500000000000000 1
ion N   0.583329988999999   0.666670027000002   0.500000000000000 1
ion N   0.833330013000001   0.666670027000002   0.500000000000000 1
ion N   0.083330005999997   0.916670035999999   0.500000000000000 1
ion N   0.333330029000003   0.916670035999999   0.500000000000000 1
ion N   0.583330005999997   0.916670035999999   0.500000000000000 1
ion N   0.833330029000003   0.916670035999999   0.500000000000000 1
ion-species GBRV/$ID_pbe.uspp
ion-width Ecut
ionic-minimize  \
	dirUpdateScheme      L-BFGS \
	linminMethod         DirUpdateRecommended \
	nIterations          500 \
	history              15 \
	knormThreshold       0.0001 \
	energyDiffThreshold  1e-06 \
	nEnergyDiff          2 \
	alphaTstart          1 \
	alphaTmin            1e-10 \
	updateTestStepSize   yes \
	alphaTreduceFactor   0.1 \
	alphaTincreaseFactor 3 \
	nAlphaAdjustMax      3 \
	wolfeEnergy          0.0001 \
	wolfeGradient        0.9 \
	fdTest               no
kpoint   0.000000000000   0.000000000000   0.000000000000  1.00000000000000
kpoint-folding 6 6 1 
latt-move-scale 1 1 1
latt-scale 1.88973 1.88973 1.88973 
lattice Triclinic 10.0123 10.0123 15 90 90 120
lattice-minimize  \
	dirUpdateScheme      L-BFGS \
	linminMethod         DirUpdateRecommended \
	nIterations          0 \
	history              15 \
	knormThreshold       0 \
	energyDiffThreshold  1e-06 \
	nEnergyDiff          2 \
	alphaTstart          1 \
	alphaTmin            1e-10 \
	updateTestStepSize   yes \
	alphaTreduceFactor   0.1 \
	alphaTincreaseFactor 3 \
	nAlphaAdjustMax      3 \
	wolfeEnergy          0.0001 \
	wolfeGradient        0.9 \
	fdTest               no
lcao-params -1 1e-06 0.0073499
pcm-variant CANDLE
spintype z-spin
subspace-rotation-factor 1 yes
symmetries automatic
symmetry-threshold 0.0001



---------- Setting up symmetries ----------

Found 24 point-group symmetries of the bravais lattice
Found 64 space-group symmetries with basis
Applied RMS atom displacement 3.8962e-07 bohrs to make symmetries exact.

---------- Initializing the Grid ----------
R = 
[    18.9205   -9.46025          0  ]
[          0    16.3856          0  ]
[          0          0    28.3459  ]
unit cell volume = 8787.92
G =
[   0.332083   0.191728         -0  ]
[          0   0.383457          0  ]
[          0         -0   0.221661  ]
Minimum fftbox size, Smin = [  80  80  116  ]
Chosen fftbox size, S = [  80  80  120  ]

---------- Exchange Correlation functional ----------
Initalized PBE GGA exchange.
Initalized PBE GGA correlation.

---------- Setting up pseudopotentials ----------
Width of ionic core gaussian charges (only for fluid interactions / plotting) set to 0.397384

Reading pseudopotential file '/home/guoxy/vasp/jdftx-1.5.0/build/pseudopotentials/GBRV/b_pbe.uspp':
  Title: B.  Created by USPP 7.3.6 on 8-4-15
  Reference state energy: -2.950027.  3 valence electrons in orbitals:
    |200>  occupation: 2  eigenvalue: -0.346865
    |210>  occupation: 1  eigenvalue: -0.132618
  lMax: 1  lLocal: 2  QijEcut: 6
  4 projectors sampled on a log grid with 559 points:
    l: 0  eig: -0.346865  rCut: 1.25
    l: 0  eig: -0.500000  rCut: 1.25
    l: 1  eig: -0.346865  rCut: 1.25
    l: 1  eig: -1.000000  rCut: 1.25
  Partial core density with radius 0.9
  Transforming core density to a uniform radial grid of dG=0.02 with 1491 points.
  Transforming local potential to a uniform radial grid of dG=0.02 with 1491 points.
  Transforming nonlocal projectors to a uniform radial grid of dG=0.02 with 432 points.
  Transforming density augmentations to a uniform radial grid of dG=0.02 with 1491 points.
  Transforming atomic orbitals to a uniform radial grid of dG=0.02 with 432 points.
  Core radius for overlap checks: 1.25 bohrs.

Reading pseudopotential file '/home/guoxy/vasp/jdftx-1.5.0/build/pseudopotentials/GBRV/n_pbe.uspp':
  Title: N.  Created by USPP 7.3.6 on 3-2-2014
  Reference state energy: -9.763716.  5 valence electrons in orbitals:
    |200>  occupation: 2  eigenvalue: -0.681964
    |210>  occupation: 3  eigenvalue: -0.260726
  lMax: 1  lLocal: 2  QijEcut: 6
  4 projectors sampled on a log grid with 491 points:
    l: 0  eig: -0.681964  rCut: 1.15
    l: 0  eig: 0.000000  rCut: 1.15
    l: 1  eig: -0.260729  rCut: 1.2
    l: 1  eig: 0.500000  rCut: 1.2
  Partial core density with radius 0.8
  Transforming core density to a uniform radial grid of dG=0.02 with 1491 points.
  Transforming local potential to a uniform radial grid of dG=0.02 with 1491 points.
  Transforming nonlocal projectors to a uniform radial grid of dG=0.02 with 432 points.
  Transforming density augmentations to a uniform radial grid of dG=0.02 with 1491 points.
  Transforming atomic orbitals to a uniform radial grid of dG=0.02 with 432 points.
  Core radius for overlap checks: 1.20 bohrs.

Initialized 2 species with 32 total atoms.

Folded 1 k-points by 6x6x1 to 36 k-points.

---------- Setting up k-points, bands, fillings ----------
Adding inversion symmetry to k-mesh for non-inversion-symmetric unit cell.
Reduced to 13 k-points under symmetry. 
Computing the number of bands and number of electrons
Calculating initial fillings.
nElectrons: 128.200000   nBands: 128   nStates: 26

----- Setting up reduced wavefunction bases (one per k-point) -----
average nbasis = 37544.417 , ideal nbasis = 37542.666

---------- Setting up coulomb interaction ----------
Fluid mode embedding: using embedded box, but periodic Coulomb kernel.
(Fluid response is responsible for (approximate) separation between periodic images.)
Setting up double-sized grid for truncated Coulomb potentials:
R = 
[    18.9205   -9.46025          0  ]
[          0    16.3856          0  ]
[          0          0    56.6918  ]
unit cell volume = 17575.8
G =
[   0.332083   0.191728         -0  ]
[          0   0.383457          0  ]
[          0         -0   0.110831  ]
Chosen fftbox size, S = [  80  80  240  ]
Integer grid location selected as the embedding center:
   Grid: [  40  40  60  ]
   Lattice: [  0.5  0.5  0.5  ]
   Cartesian: [  4.73013  8.19282  14.1729  ]
Constructing Wigner-Seitz cell: 8 faces (6 quadrilaterals, 2 hexagons)
Range-separation parameter for embedded mesh potentials due to point charges: 0.613524 bohrs.

Initializing van der Waals corrections
	NOTE: vdW corrections apply only for interactions with fluid.
	 B:  C6:   54.29 Eh-a0^6  R0: 2.806 a0
	 N:  C6:   21.33 Eh-a0^6  R0: 2.640 a0

---------- Setting up ewald sum ----------
Optimum gaussian width for ewald sums = 5.821351 bohr.
Real space sum over 605 unit cells with max indices [  5  5  2  ]
Reciprocal space sum over 5577 terms with max indices [  6  6  16  ]

---------- Allocating electronic variables ----------
Initializing wave functions:  linear combination of atomic orbitals
B pseudo-atom occupations:   s ( 2 )  p ( 1 )
N pseudo-atom occupations:   s ( 2 )  p ( 3 )
	FillingsUpdate:  mu: -0.091878382  nElectrons: 128.200000  magneticMoment: [ Abs: 0.73700  Tot: +0.19814 ]
LCAOMinimize: Iter:   0  F: -204.1154286518487879  |grad|_K:  4.066e-03  alpha:  1.000e+00
	FillingsUpdate:  mu: -0.070419700  nElectrons: 128.200000  magneticMoment: [ Abs: 0.47275  Tot: +0.19233 ]
LCAOMinimize: Iter:   1  F: -205.3430818314167823  |grad|_K:  5.144e-04  alpha:  4.275e-01  linmin:  5.359e-01  cgtest: -1.098e+00  t[s]:     80.12
LCAOMinimize: 	Bad step direction: g.d > 0.
LCAOMinimize: 	Undoing step.
LCAOMinimize: 	Step failed: resetting search direction.
	FillingsUpdate:  mu: -0.070419700  nElectrons: 128.200000  magneticMoment: [ Abs: 0.47275  Tot: +0.19233 ]
LCAOMinimize: Iter:   2  F: -205.3430818314167823  |grad|_K:  5.144e-04  alpha:  0.000e+00
	FillingsUpdate:  mu: -0.073734481  nElectrons: 128.200000  magneticMoment: [ Abs: 0.41383  Tot: +0.16425 ]
LCAOMinimize: Iter:   3  F: -205.3661296914465311  |grad|_K:  3.458e-05  alpha:  4.020e-01  linmin:  5.681e-02  cgtest: -2.162e-01  t[s]:    120.76
LCAOMinimize: 	Predicted alpha/alphaT>3.000000, increasing alphaT to 1.206028e+00.
	FillingsUpdate:  mu: -0.073463285  nElectrons: 128.200000  magneticMoment: [ Abs: 0.12968  Tot: -0.11777 ]
LCAOMinimize: Iter:   4  F: -205.3663369985119971  |grad|_K:  3.303e-05  alpha:  2.016e+00  linmin:  8.628e-02  cgtest: -4.375e-01  t[s]:    153.26
LCAOMinimize: 	Bad step direction: g.d > 0.
LCAOMinimize: 	Undoing step.
LCAOMinimize: 	Step failed: resetting search direction.
	FillingsUpdate:  mu: -0.073463285  nElectrons: 128.200000  magneticMoment: [ Abs: 0.12968  Tot: -0.11777 ]
LCAOMinimize: Iter:   5  F: -205.3663369985119971  |grad|_K:  3.303e-05  alpha:  0.000e+00
	FillingsUpdate:  mu: -0.073354882  nElectrons: 128.200000  magneticMoment: [ Abs: 0.04503  Tot: -0.04039 ]
LCAOMinimize: Iter:   6  F: -205.3665475122132023  |grad|_K:  1.815e-05  alpha:  8.022e-01  linmin: -1.866e-02  cgtest: -7.895e-03  t[s]:    194.32
	FillingsUpdate:  mu: -0.073480231  nElectrons: 128.200000  magneticMoment: [ Abs: 0.03082  Tot: -0.00405 ]
LCAOMinimize: Iter:   7  F: -205.3665888626709375  |grad|_K:  2.036e-06  alpha:  5.487e-01  linmin:  3.549e-03  cgtest:  8.392e-02  t[s]:    218.82
	FillingsUpdate:  mu: -0.073465375  nElectrons: 128.200000  magneticMoment: [ Abs: 0.00620  Tot: -0.00148 ]
LCAOMinimize: Iter:   8  F: -205.3665901849866771  |grad|_K:  7.789e-07  alpha:  1.475e+00  linmin:  1.107e-03  cgtest: -4.733e-04  t[s]:    243.63
	FillingsUpdate:  mu: -0.073463185  nElectrons: 128.200000  magneticMoment: [ Abs: 0.00268  Tot: -0.00073 ]
LCAOMinimize: Iter:   9  F: -205.3665902656341302  |grad|_K:  4.029e-07  alpha:  6.154e-01  linmin:  7.215e-05  cgtest:  1.922e-03  t[s]:    268.02
	FillingsUpdate:  mu: -0.073468913  nElectrons: 128.200000  magneticMoment: [ Abs: 0.00057  Tot: -0.00005 ]
LCAOMinimize: Iter:  10  F: -205.3665902939856096  |grad|_K:  3.934e-08  alpha:  8.076e-01  linmin:  5.661e-05  cgtest: -3.486e-03  t[s]:    292.86
LCAOMinimize: Converged (|Delta F|<1.000000e-06 for 2 iters).
----- createFluidSolver() ----- (Fluid-side solver setup)
   Initializing fluid molecule 'H2O'
     Initializing site 'O'
       Electron density: proportional to exp(-r/0.36935)*erfc((r-0.51523)/0.36823) with norm 6.826
       Charge density: gaussian nuclear width 0.478731 with net site charge 0.826
       Polarizability: cuspless exponential with width 0.32 and norm 3.73
       Hard sphere radius: 2.57003 bohrs
       Positions in reference frame:
         [ +0.000000 +0.000000 +0.000000 ]
     Initializing site 'H'
       Electron density: proportional to exp(-r/0.34641)*erfc((r-0)/0.390882) with norm 0.587
       Charge density: gaussian nuclear width 0.377945 with net site charge -0.413
       Polarizability: cuspless exponential with width 0.39 and norm 3.3
       Positions in reference frame:
         [ +0.000000 -1.441945 +1.122523 ]
         [ +0.000000 +1.441945 +1.122523 ]
     Net charge: 0   dipole magnitude: 0.927204
     Initializing spherical shell mfKernel with radius 2.61727 Bohr
     deltaS corrections:
       site 'O': -7.54299
       site 'H': -6.83917
   Initializing fluid molecule 'Na+'
     Initializing site 'Na'
       Electron density: proportional to exp(-r/0.19682)*erfc((r-0.71491)/0.41314) with norm 8.1383
       Charge density: gaussian nuclear width 0.365347 with net site charge -1
       Hard sphere radius: 1.86327 bohrs
       Positions in reference frame:
         [ +0.000000 +0.000000 +0.000000 ]
     Net charge: -1   dipole magnitude: 0
     Initializing gaussian mfKernel with width: 1.55004 Bohr
     deltaS corrections:
       site 'Na': -22.3555
   Initializing fluid molecule 'F-'
     Initializing site 'F'
       Electron density: proportional to exp(-r/0.38886)*erfc((r-0)/0.438782) with norm 8
       Charge density: gaussian nuclear width 0.374796 with net site charge 1
       Hard sphere radius: 2.39995 bohrs
       Positions in reference frame:
         [ +0.000000 +0.000000 +0.000000 ]
     Net charge: 1   dipole magnitude: 0
     Initializing gaussian mfKernel with width: 1.59012 Bohr
     deltaS corrections:
       site 'F': -9.04335

Correction to mu due to finite nuclear width = -0.00722593
   Cavity determined by nc: 0.00142 and sigma: 0.707107
   Nonlocal vdW cavity from gaussian model electron density with norm = 8 and sigma = 0.993594 bohr
   Charge asymmetry in cavity with sensitivity pCavity = 36.5 e-bohr/Eh
   Electrostatic cavity expanded by eta = 1.46 bohrs
   Weighted density cavitation model constrained by Nbulk: 0.0049383 bohr^-3, Pvap: 3.14029 kPa, Rvdw: 2.61727 bohr and sigmaBulk: 4.62e-05 Eh/bohr^2 at T: 298 K.
   Weighted density dispersion model using vdW pair potentials with single solvent site with sqrtC6eff: 0.77 SI.


---- Citations for features of the code used in this run ----

   Software package:
      R. Sundararaman, K. Letchworth-Weaver, K.A. Schwarz, D. Gunceler, Y. Ozhabes and T.A. Arias, 'JDFTx: software for joint density-functional theory', SoftwareX 6, 278 (2017)

   gga-PBE exchange-correlation functional:
      J.P. Perdew, K. Burke and M. Ernzerhof, Phys. Rev. Lett. 77, 3865 (1996)

   Pseudopotentials:
      KF Garrity, JW Bennett, KM Rabe and D Vanderbilt, Comput. Mater. Sci. 81, 446 (2014)

   Truncated Coulomb potentials:
      R. Sundararaman and T.A. Arias, Phys. Rev. B 87, 165122 (2013)

   Van der Waals correction pair-potentials:
      S. Grimme, J. Comput. Chem. 27, 1787 (2006)

   Charge-asymmetric nonlocally-determined local-electric (CANDLE) solvation model:
      R. Sundararaman and W.A. Goddard III, J. Chem. Phys. 142, 064107 (2015)

   Total energy minimization with Auxiliary Hamiltonian:
      C. Freysoldt, S. Boeck, and J. Neugebauer, Phys. Rev. B 79, 241103(R) (2009)

This list may not be complete. Please suggest additional citations or
report any other bugs at https://github.com/shankar1729/jdftx/issues

Initialization completed successfully at t[s]:    296.30

Fluid solver invoked on fresh (partially random / LCAO) wavefunctions
Running a vacuum solve first:

-------- Initial electronic minimization -----------
	FillingsUpdate:  mu: -0.073468913  nElectrons: 128.200000  magneticMoment: [ Abs: 0.00057  Tot: -0.00005 ]
ElecMinimize: Iter:   0  F: -205.366590293986093  |grad|_K:  1.214e-04  alpha:  1.000e+00
	FillingsUpdate:  mu: +0.013577665  nElectrons: 128.200000  magneticMoment: [ Abs: 0.00102  Tot: -0.00003 ]
	SubspaceRotationAdjust: set factor to 1
ElecMinimize: Iter:   1  F: -206.728225233493845  |grad|_K:  3.488e-05  alpha:  7.389e-01  linmin:  2.253e-04  t[s]:    342.81
	FillingsUpdate:  mu: +0.021343801  nElectrons: 128.200000  magneticMoment: [ Abs: 0.00060  Tot: -0.00006 ]
	SubspaceRotationAdjust: set factor to 0.684
ElecMinimize: Iter:   2  F: -206.847832045889447  |grad|_K:  1.722e-05  alpha:  7.855e-01  linmin: -6.594e-05  t[s]:    372.11
	FillingsUpdate:  mu: +0.017975000  nElectrons: 128.200000  magneticMoment: [ Abs: 0.00028  Tot: -0.00008 ]
	SubspaceRotationAdjust: set factor to 0.563
ElecMinimize: Iter:   3  F: -206.870873894890082  |grad|_K:  8.614e-06  alpha:  6.120e-01  linmin:  1.542e-05  t[s]:    400.64
	FillingsUpdate:  mu: +0.017649710  nElectrons: 128.200000  magneticMoment: [ Abs: 0.00015  Tot: -0.00008 ]
	SubspaceRotationAdjust: set factor to 0.712
ElecMinimize: Iter:   4  F: -206.878466723181958  |grad|_K:  3.943e-06  alpha:  8.236e-01  linmin:  6.963e-05  t[s]:    429.87
	FillingsUpdate:  mu: +0.018317876  nElectrons: 128.200000  magneticMoment: [ Abs: 0.00015  Tot: -0.00006 ]
	SubspaceRotationAdjust: set factor to 0.928
ElecMinimize: Iter:   5  F: -206.880099851054808  |grad|_K:  2.229e-06  alpha:  8.486e-01  linmin:  2.759e-05  t[s]:    458.21
	FillingsUpdate:  mu: +0.018597908  nElectrons: 128.200000  magneticMoment: [ Abs: 0.00009  Tot: -0.00002 ]
	SubspaceRotationAdjust: set factor to 1.09
ElecMinimize: Iter:   6  F: -206.880594331071222  |grad|_K:  1.206e-06  alpha:  8.011e-01  linmin:  1.310e-05  t[s]:    486.89
	FillingsUpdate:  mu: +0.018721273  nElectrons: 128.200000  magneticMoment: [ Abs: 0.00004  Tot: -0.00000 ]
	SubspaceRotationAdjust: set factor to 1.15
ElecMinimize: Iter:   7  F: -206.880706026262516  |grad|_K:  5.901e-07  alpha:  6.202e-01  linmin:  3.161e-06  t[s]:    515.49
	FillingsUpdate:  mu: +0.017784743  nElectrons: 128.200000  magneticMoment: [ Abs: 0.00038  Tot: -0.00037 ]
	SubspaceRotationAdjust: set factor to 0.552
ElecMinimize: Iter:   8  F: -206.880749611622264  |grad|_K:  8.839e-07  alpha:  1.125e+00  linmin:  9.034e-04  t[s]:    544.35
ElecMinimize: 	Bad step direction: g.d > 0.
ElecMinimize: 	Undoing step.
ElecMinimize: 	Step failed: resetting search direction.
	FillingsUpdate:  mu: +0.017784743  nElectrons: 128.200000  magneticMoment: [ Abs: 0.00038  Tot: -0.00037 ]
	SubspaceRotationAdjust: set factor to 0.856
ElecMinimize: Iter:   9  F: -206.880749611622235  |grad|_K:  7.877e-07  alpha:  0.000e+00
	FillingsUpdate:  mu: +0.017691725  nElectrons: 128.200000  magneticMoment: [ Abs: 0.00017  Tot: -0.00015 ]
	SubspaceRotationAdjust: set factor to 0.766
ElecMinimize: Iter:  10  F: -206.880829247906945  |grad|_K:  5.928e-07  alpha:  1.034e+00  linmin: -2.287e-04  t[s]:    592.84
ElecMinimize: 	Predicted alpha/alphaT>3.000000, increasing alphaT to 3.102543e+00.
ElecMinimize: 	Predicted alpha/alphaT>3.000000, increasing alphaT to 9.307628e+00.
	FillingsUpdate:  mu: +0.017523402  nElectrons: 128.200000  magneticMoment: [ Abs: 0.00016  Tot: -0.00014 ]
	SubspaceRotationAdjust: set factor to 1.02
ElecMinimize: Iter:  11  F: -206.880848839601953  |grad|_K:  5.721e-07  alpha:  2.173e-01  linmin: -1.348e-03  t[s]:    639.23
ElecMinimize: 	Wrong curvature in test step, increasing alphaT to 6.519081e-01.
	FillingsUpdate:  mu: +0.017177783  nElectrons: 128.200000  magneticMoment: [ Abs: 0.00016  Tot: -0.00014 ]
	SubspaceRotationAdjust: set factor to 0.856
ElecMinimize: Iter:  12  F: -206.880884664689574  |grad|_K:  6.223e-07  alpha: -1.746e+02  linmin: -3.566e-03  t[s]:    666.96
ElecMinimize: 	Wrong curvature in test step, increasing alphaT to 3.000000e+00.
	FillingsUpdate:  mu: +0.011931461  nElectrons: 128.200000  magneticMoment: [ Abs: 0.00063  Tot: +0.00016 ]
	SubspaceRotationAdjust: set factor to 0.988
ElecMinimize: Iter:  13  F: -206.881283485283404  |grad|_K:  1.376e-06  alpha: -1.378e+00  linmin: -3.623e-04  t[s]:    694.88
	FillingsUpdate:  mu: +0.011876312  nElectrons: 128.200000  magneticMoment: [ Abs: 0.00065  Tot: +0.00016 ]
	SubspaceRotationAdjust: set factor to 1.13
ElecMinimize: Iter:  14  F: -206.881286185628795  |grad|_K:  1.386e-06  alpha:  1.383e-03  linmin: -4.370e-04  t[s]:    723.19
ElecMinimize: 	Predicted alpha/alphaT>3.000000, increasing alphaT to 4.150320e-03.
ElecMinimize: 	Predicted alpha/alphaT>3.000000, increasing alphaT to 1.245096e-02.
ElecMinimize: 	Predicted alpha/alphaT>3.000000, increasing alphaT to 3.735288e-02.
ElecMinimize: 	Step increased F by 5.792808e-06, reducing alpha to 7.395045e-03.
	FillingsUpdate:  mu: +0.011565906  nElectrons: 128.200000  magneticMoment: [ Abs: 0.00072  Tot: +0.00019 ]
	SubspaceRotationAdjust: set factor to 1.31
ElecMinimize: Iter:  15  F: -206.881303387977965  |grad|_K:  1.413e-06  alpha:  7.395e-03  linmin: -4.714e-04  t[s]:    789.70
ElecMinimize: 	Predicted alpha/alphaT>3.000000, increasing alphaT to 2.218514e-02.
	FillingsUpdate:  mu: +0.008610258  nElectrons: 128.200000  magneticMoment: [ Abs: 0.00163  Tot: +0.00030 ]
	SubspaceRotationAdjust: set factor to 1.29
ElecMinimize: Iter:  16  F: -206.881344131693879  |grad|_K:  1.891e-06  alpha:  5.737e-02  linmin:  5.726e-04  t[s]:    827.23
ElecMinimize: 	Bad step direction: g.d > 0.
ElecMinimize: 	Undoing step.
ElecMinimize: 	Step failed: resetting search direction.
	FillingsUpdate:  mu: +0.008610258  nElectrons: 128.200000  magneticMoment: [ Abs: 0.00163  Tot: +0.00030 ]
	SubspaceRotationAdjust: set factor to 1.28
ElecMinimize: Iter:  17  F: -206.881344131694391  |grad|_K:  1.882e-06  alpha:  0.000e+00
ElecMinimize: 	Predicted alpha/alphaT>3.000000, increasing alphaT to 1.721199e-01.
	FillingsUpdate:  mu: +0.009543770  nElectrons: 128.200000  magneticMoment: [ Abs: 0.00105  Tot: +0.00074 ]
	SubspaceRotationAdjust: set factor to 2.1
ElecMinimize: Iter:  18  F: -206.881585801223082  |grad|_K:  7.134e-07  alpha:  4.895e-01  linmin: -1.515e-03  t[s]:    885.17
	FillingsUpdate:  mu: +0.008989337  nElectrons: 128.200000  magneticMoment: [ Abs: 0.00121  Tot: +0.00112 ]
	SubspaceRotationAdjust: set factor to 1.93
ElecMinimize: Iter:  19  F: -206.881711456773957  |grad|_K:  9.537e-07  alpha:  1.416e+00  linmin: -3.776e-04  t[s]:    913.53
	FillingsUpdate:  mu: +0.005471061  nElectrons: 128.200000  magneticMoment: [ Abs: 0.00581  Tot: +0.00574 ]
	SubspaceRotationAdjust: set factor to 1.67
ElecMinimize: Iter:  20  F: -206.881917194712997  |grad|_K:  1.101e-06  alpha:  8.611e-01  linmin: -4.631e-04  t[s]:    942.52
	FillingsUpdate:  mu: +0.004308683  nElectrons: 128.200000  magneticMoment: [ Abs: 0.00819  Tot: +0.00810 ]
	SubspaceRotationAdjust: set factor to 1.36
ElecMinimize: Iter:  21  F: -206.881989624430446  |grad|_K:  1.048e-06  alpha:  1.878e-01  linmin: -9.449e-04  t[s]:    971.59
	FillingsUpdate:  mu: +0.000991593  nElectrons: 128.200000  magneticMoment: [ Abs: 0.01260  Tot: +0.01231 ]
	SubspaceRotationAdjust: set factor to 0.92
ElecMinimize: Iter:  22  F: -206.882061901194277  |grad|_K:  1.429e-06  alpha:  5.007e-01  linmin:  1.252e-03  t[s]:   1000.63
ElecMinimize: 	Bad step direction: g.d > 0.
ElecMinimize: 	Undoing step.
ElecMinimize: 	Step failed: resetting search direction.
	FillingsUpdate:  mu: +0.000991593  nElectrons: 128.200000  magneticMoment: [ Abs: 0.01260  Tot: +0.01231 ]
	SubspaceRotationAdjust: set factor to 0.692
ElecMinimize: Iter:  23  F: -206.882061901193595  |grad|_K:  1.240e-06  alpha:  0.000e+00
	FillingsUpdate:  mu: +0.002571725  nElectrons: 128.200000  magneticMoment: [ Abs: 0.00566  Tot: +0.00525 ]
	SubspaceRotationAdjust: set factor to 0.742
ElecMinimize: Iter:  24  F: -206.882230199413499  |grad|_K:  6.194e-07  alpha:  8.460e-01  linmin: -3.702e-04  t[s]:   1048.90
	FillingsUpdate:  mu: +0.002871187  nElectrons: 128.200000  magneticMoment: [ Abs: 0.00333  Tot: +0.00299 ]
	SubspaceRotationAdjust: set factor to 0.705
ElecMinimize: Iter:  25  F: -206.882280631757368  |grad|_K:  5.393e-07  alpha:  9.710e-01  linmin: -3.416e-05  t[s]:   1077.89
	FillingsUpdate:  mu: +0.001296107  nElectrons: 128.200000  magneticMoment: [ Abs: 0.00161  Tot: -0.00149 ]
	SubspaceRotationAdjust: set factor to 0.716
ElecMinimize: Iter:  26  F: -206.882358042624730  |grad|_K:  8.129e-07  alpha:  2.431e+00  linmin:  1.416e-04  t[s]:   1106.13
	FillingsUpdate:  mu: +0.001284006  nElectrons: 128.200000  magneticMoment: [ Abs: 0.00164  Tot: -0.00151 ]
	SubspaceRotationAdjust: set factor to 0.948
ElecMinimize: Iter:  27  F: -206.882358387105967  |grad|_K:  8.116e-07  alpha:  4.566e-03  linmin: -1.013e-04  t[s]:   1134.27
ElecMinimize: 	Predicted alpha/alphaT>3.000000, increasing alphaT to 1.369810e-02.
ElecMinimize: 	Predicted alpha/alphaT>3.000000, increasing alphaT to 4.109431e-02.
ElecMinimize: 	Predicted alpha/alphaT>3.000000, increasing alphaT to 1.232829e-01.
	FillingsUpdate:  mu: +0.000235440  nElectrons: 128.200000  magneticMoment: [ Abs: 0.00314  Tot: -0.00291 ]
	SubspaceRotationAdjust: set factor to 0.627
ElecMinimize: Iter:  28  F: -206.882380153963652  |grad|_K:  8.089e-07  alpha:  2.800e-01  linmin:  7.618e-04  t[s]:   1181.35
	FillingsUpdate:  mu: +0.000209580  nElectrons: 128.200000  magneticMoment: [ Abs: 0.00315  Tot: -0.00292 ]
	SubspaceRotationAdjust: set factor to 0.462
ElecMinimize: Iter:  29  F: -206.882380199579785  |grad|_K:  7.004e-07  alpha:  5.960e-03  linmin: -1.359e-05  t[s]:   1210.49
ElecMinimize: 	Predicted alpha/alphaT>3.000000, increasing alphaT to 1.787979e-02.
ElecMinimize: 	Predicted alpha/alphaT>3.000000, increasing alphaT to 5.363937e-02.
ElecMinimize: 	Predicted alpha/alphaT>3.000000, increasing alphaT to 1.609181e-01.
	FillingsUpdate:  mu: -0.000370428  nElectrons: 128.200000  magneticMoment: [ Abs: 0.00255  Tot: -0.00231 ]
	SubspaceRotationAdjust: set factor to 0.402
ElecMinimize: Iter:  30  F: -206.882390516864803  |grad|_K:  6.904e-07  alpha:  1.761e-01  linmin:  3.541e-05  t[s]:   1257.54
	FillingsUpdate:  mu: -0.000866032  nElectrons: 128.200000  magneticMoment: [ Abs: 0.00141  Tot: -0.00116 ]
	SubspaceRotationAdjust: set factor to 0.445
ElecMinimize: Iter:  31  F: -206.882398405254435  |grad|_K:  7.142e-07  alpha:  1.464e-01  linmin:  5.479e-06  t[s]:   1285.81
	FillingsUpdate:  mu: -0.001330896  nElectrons: 128.200000  magneticMoment: [ Abs: 0.00102  Tot: +0.00038 ]
	SubspaceRotationAdjust: set factor to 0.504
ElecMinimize: Iter:  32  F: -206.882406080754237  |grad|_K:  7.227e-07  alpha:  1.206e-01  linmin:  6.025e-06  t[s]:   1314.91
	FillingsUpdate:  mu: -0.001654175  nElectrons: 128.200000  magneticMoment: [ Abs: 0.00229  Tot: +0.00169 ]
	SubspaceRotationAdjust: set factor to 0.52
ElecMinimize: Iter:  33  F: -206.882411302898277  |grad|_K:  7.005e-07  alpha:  7.961e-02  linmin: -4.745e-07  t[s]:   1343.67
	FillingsUpdate:  mu: -0.001890520  nElectrons: 128.200000  magneticMoment: [ Abs: 0.00339  Tot: +0.00282 ]
	SubspaceRotationAdjust: set factor to 0.489
ElecMinimize: Iter:  34  F: -206.882415303958055  |grad|_K:  6.549e-07  alpha:  6.444e-02  linmin:  2.932e-06  t[s]:   1372.99
	FillingsUpdate:  mu: -0.002053263  nElectrons: 128.200000  magneticMoment: [ Abs: 0.00427  Tot: +0.00372 ]
	SubspaceRotationAdjust: set factor to 0.435
ElecMinimize: Iter:  35  F: -206.882418339993649  |grad|_K:  6.025e-07  alpha:  5.702e-02  linmin:  2.103e-06  t[s]:   1402.21
	FillingsUpdate:  mu: -0.002166813  nElectrons: 128.200000  magneticMoment: [ Abs: 0.00498  Tot: +0.00444 ]
	SubspaceRotationAdjust: set factor to 0.38
ElecMinimize: Iter:  36  F: -206.882420942375632  |grad|_K:  5.543e-07  alpha:  5.755e-02  linmin: -8.818e-07  t[s]:   1430.64
	FillingsUpdate:  mu: -0.002244161  nElectrons: 128.200000  magneticMoment: [ Abs: 0.00554  Tot: +0.00500 ]
	SubspaceRotationAdjust: set factor to 0.339
ElecMinimize: Iter:  37  F: -206.882423379283750  |grad|_K:  5.187e-07  alpha:  6.319e-02  linmin: -4.251e-06  t[s]:   1459.08
	FillingsUpdate:  mu: -0.002292287  nElectrons: 128.200000  magneticMoment: [ Abs: 0.00596  Tot: +0.00542 ]
	SubspaceRotationAdjust: set factor to 0.315
ElecMinimize: Iter:  38  F: -206.882425862781048  |grad|_K:  4.987e-07  alpha:  7.287e-02  linmin: -5.586e-06  t[s]:   1487.38
	FillingsUpdate:  mu: -0.002312177  nElectrons: 128.200000  magneticMoment: [ Abs: 0.00623  Tot: +0.00569 ]
	SubspaceRotationAdjust: set factor to 0.3
ElecMinimize: Iter:  39  F: -206.882428564146096  |grad|_K:  4.891e-07  alpha:  8.503e-02  linmin: -6.321e-06  t[s]:   1516.11
	FillingsUpdate:  mu: -0.002299192  nElectrons: 128.200000  magneticMoment: [ Abs: 0.00629  Tot: +0.00573 ]
	SubspaceRotationAdjust: set factor to 0.282
ElecMinimize: Iter:  40  F: -206.882431570263691  |grad|_K:  4.785e-07  alpha:  9.775e-02  linmin: -6.854e-06  t[s]:   1544.79
	FillingsUpdate:  mu: -0.002246983  nElectrons: 128.200000  magneticMoment: [ Abs: 0.00609  Tot: +0.00549 ]
	SubspaceRotationAdjust: set factor to 0.255
ElecMinimize: Iter:  41  F: -206.882434804430403  |grad|_K:  4.581e-07  alpha:  1.097e-01  linmin: -6.853e-06  t[s]:   1573.07
	FillingsUpdate:  mu: -0.002155063  nElectrons: 128.200000  magneticMoment: [ Abs: 0.00562  Tot: +0.00493 ]
	SubspaceRotationAdjust: set factor to 0.232
ElecMinimize: Iter:  42  F: -206.882438055966389  |grad|_K:  4.334e-07  alpha:  1.211e-01  linmin: -4.598e-06  t[s]:   1601.71
	FillingsUpdate:  mu: -0.002031791  nElectrons: 128.200000  magneticMoment: [ Abs: 0.00493  Tot: +0.00409 ]
	SubspaceRotationAdjust: set factor to 0.227
ElecMinimize: Iter:  43  F: -206.882441151066786  |grad|_K:  4.189e-07  alpha:  1.304e-01  linmin:  2.567e-06  t[s]:   1630.55
	FillingsUpdate:  mu: -0.001895693  nElectrons: 128.200000  magneticMoment: [ Abs: 0.00409  Tot: +0.00308 ]
	SubspaceRotationAdjust: set factor to 0.241
ElecMinimize: Iter:  44  F: -206.882443917222076  |grad|_K:  4.159e-07  alpha:  1.265e-01  linmin:  7.068e-06  t[s]:   1659.35
	FillingsUpdate:  mu: -0.001773351  nElectrons: 128.200000  magneticMoment: [ Abs: 0.00328  Tot: +0.00209 ]
	SubspaceRotationAdjust: set factor to 0.252
ElecMinimize: Iter:  45  F: -206.882446122948437  |grad|_K:  4.122e-07  alpha:  1.024e-01  linmin:  5.077e-06  t[s]:   1687.95
	FillingsUpdate:  mu: -0.001672488  nElectrons: 128.200000  magneticMoment: [ Abs: 0.00262  Tot: +0.00122 ]
	SubspaceRotationAdjust: set factor to 0.249
ElecMinimize: Iter:  46  F: -206.882447807203590  |grad|_K:  4.012e-07  alpha:  7.901e-02  linmin:  3.842e-06  t[s]:   1716.75
	FillingsUpdate:  mu: -0.001588992  nElectrons: 128.200000  magneticMoment: [ Abs: 0.00213  Tot: +0.00049 ]
	SubspaceRotationAdjust: set factor to 0.233
ElecMinimize: Iter:  47  F: -206.882449104301259  |grad|_K:  3.846e-07  alpha:  6.444e-02  linmin:  4.843e-06  t[s]:   1745.64
	FillingsUpdate:  mu: -0.001517514  nElectrons: 128.200000  magneticMoment: [ Abs: 0.00177  Tot: -0.00013 ]
	SubspaceRotationAdjust: set factor to 0.211
ElecMinimize: Iter:  48  F: -206.882450145765830  |grad|_K:  3.671e-07  alpha:  5.678e-02  linmin:  6.032e-06  t[s]:   1774.30
	FillingsUpdate:  mu: -0.001453487  nElectrons: 128.200000  magneticMoment: [ Abs: 0.00155  Tot: -0.00068 ]
	SubspaceRotationAdjust: set factor to 0.192
ElecMinimize: Iter:  49  F: -206.882451039570270  |grad|_K:  3.531e-07  alpha:  5.375e-02  linmin:  6.886e-06  t[s]:   1802.79
	FillingsUpdate:  mu: -0.001393922  nElectrons: 128.200000  magneticMoment: [ Abs: 0.00150  Tot: -0.00117 ]
	SubspaceRotationAdjust: set factor to 0.179
ElecMinimize: Iter:  50  F: -206.882451855574686  |grad|_K:  3.456e-07  alpha:  5.311e-02  linmin:  5.895e-06  t[s]:   1831.17
	FillingsUpdate:  mu: -0.001337094  nElectrons: 128.200000  magneticMoment: [ Abs: 0.00170  Tot: -0.00162 ]
	SubspaceRotationAdjust: set factor to 0.172
ElecMinimize: Iter:  51  F: -206.882452637201794  |grad|_K:  3.449e-07  alpha:  5.308e-02  linmin:  4.023e-06  t[s]:   1860.21
	FillingsUpdate:  mu: -0.001282437  nElectrons: 128.200000  magneticMoment: [ Abs: 0.00208  Tot: -0.00204 ]
	SubspaceRotationAdjust: set factor to 0.167
ElecMinimize: Iter:  52  F: -206.882453406559449  |grad|_K:  3.486e-07  alpha:  5.238e-02  linmin:  2.823e-06  t[s]:   1888.66
	FillingsUpdate:  mu: -0.001230333  nElectrons: 128.200000  magneticMoment: [ Abs: 0.00246  Tot: -0.00242 ]
	SubspaceRotationAdjust: set factor to 0.162
ElecMinimize: Iter:  53  F: -206.882454168196915  |grad|_K:  3.528e-07  alpha:  5.068e-02  linmin:  2.209e-06  t[s]:   1918.15
	FillingsUpdate:  mu: -0.001181632  nElectrons: 128.200000  magneticMoment: [ Abs: 0.00283  Tot: -0.00276 ]
	SubspaceRotationAdjust: set factor to 0.153
ElecMinimize: Iter:  54  F: -206.882454915125635  |grad|_K:  3.537e-07  alpha:  4.849e-02  linmin:  1.945e-06  t[s]:   1946.87
	FillingsUpdate:  mu: -0.001137100  nElectrons: 128.200000  magneticMoment: [ Abs: 0.00316  Tot: -0.00306 ]
	SubspaceRotationAdjust: set factor to 0.141
ElecMinimize: Iter:  55  F: -206.882455636883975  |grad|_K:  3.494e-07  alpha:  4.661e-02  linmin:  1.916e-06  t[s]:   1975.65
	FillingsUpdate:  mu: -0.001097091  nElectrons: 128.200000  magneticMoment: [ Abs: 0.00347  Tot: -0.00330 ]
	SubspaceRotationAdjust: set factor to 0.126
	SubspaceRotationAdjust: resetting CG because factor has changed by 0.126065
ElecMinimize: 	State modified externally: resetting search direction.
ElecMinimize: Iter:  56  F: -206.882456326157865  |grad|_K:  3.301e-07  alpha:  4.564e-02
ElecMinimize: 	Predicted alpha/alphaT>3.000000, increasing alphaT to 1.369062e-01.
ElecMinimize: 	Predicted alpha/alphaT>3.000000, increasing alphaT to 4.107186e-01.
ElecMinimize: 	Predicted alpha/alphaT>3.000000, increasing alphaT to 1.232156e+00.
	FillingsUpdate:  mu: -0.001096035  nElectrons: 128.200000  magneticMoment: [ Abs: 0.00215  Tot: -0.00196 ]
	SubspaceRotationAdjust: set factor to 0.162
ElecMinimize: Iter:  57  F: -206.882481709489696  |grad|_K:  3.870e-07  alpha:  1.785e+00  linmin: -6.177e-05  t[s]:   2068.95
	FillingsUpdate:  mu: -0.001098983  nElectrons: 128.200000  magneticMoment: [ Abs: 0.00087  Tot: -0.00063 ]
	SubspaceRotationAdjust: set factor to 0.195
ElecMinimize: Iter:  58  F: -206.882503527889696  |grad|_K:  2.443e-07  alpha:  1.129e+00  linmin:  2.357e-06  t[s]:   2098.00
	FillingsUpdate:  mu: -0.001093920  nElectrons: 128.200000  magneticMoment: [ Abs: 0.00050  Tot: -0.00015 ]
	SubspaceRotationAdjust: set factor to 0.268
ElecMinimize: Iter:  59  F: -206.882510421792574  |grad|_K:  1.337e-07  alpha:  9.273e-01  linmin: -1.286e-06  t[s]:   2126.04
	FillingsUpdate:  mu: -0.001129673  nElectrons: 128.200000  magneticMoment: [ Abs: 0.00034  Tot: +0.00009 ]
	SubspaceRotationAdjust: set factor to 0.333
ElecMinimize: Iter:  60  F: -206.882513372153738  |grad|_K:  1.176e-07  alpha:  1.318e+00  linmin:  1.231e-06  t[s]:   2154.46
	FillingsUpdate:  mu: -0.001173446  nElectrons: 128.200000  magneticMoment: [ Abs: 0.00023  Tot: +0.00017 ]
	SubspaceRotationAdjust: set factor to 0.385
ElecMinimize: Iter:  61  F: -206.882515214264942  |grad|_K:  7.844e-08  alpha:  1.059e+00  linmin:  2.473e-06  t[s]:   2182.89
	FillingsUpdate:  mu: -0.001183162  nElectrons: 128.200000  magneticMoment: [ Abs: 0.00024  Tot: +0.00018 ]
	SubspaceRotationAdjust: set factor to 0.438
ElecMinimize: Iter:  62  F: -206.882515613086753  |grad|_K:  4.471e-08  alpha:  5.270e-01  linmin:  1.377e-06  t[s]:   2211.16
	FillingsUpdate:  mu: -0.001180391  nElectrons: 128.200000  magneticMoment: [ Abs: 0.00022  Tot: +0.00010 ]
	SubspaceRotationAdjust: set factor to 0.478
ElecMinimize: Iter:  63  F: -206.882515831662062  |grad|_K:  3.076e-08  alpha:  8.896e-01  linmin:  2.699e-06  t[s]:   2239.08
	FillingsUpdate:  mu: -0.001171383  nElectrons: 128.200000  magneticMoment: [ Abs: 0.00020  Tot: +0.00003 ]
	SubspaceRotationAdjust: set factor to 0.565
ElecMinimize: Iter:  64  F: -206.882515927628532  |grad|_K:  2.013e-08  alpha:  8.321e-01  linmin:  1.571e-06  t[s]:   2267.66
	FillingsUpdate:  mu: -0.001163922  nElectrons: 128.200000  magneticMoment: [ Abs: 0.00020  Tot: -0.00001 ]
	SubspaceRotationAdjust: set factor to 0.731
ElecMinimize: Iter:  65  F: -206.882515973459306  |grad|_K:  1.825e-08  alpha:  9.201e-01  linmin:  5.873e-07  t[s]:   2296.66
	FillingsUpdate:  mu: -0.001159655  nElectrons: 128.200000  magneticMoment: [ Abs: 0.00021  Tot: -0.00004 ]
	SubspaceRotationAdjust: set factor to 0.953
	SubspaceRotationAdjust: resetting CG because factor has changed by 7.558
ElecMinimize: 	State modified externally: resetting search direction.
ElecMinimize: Iter:  66  F: -206.882516001431100  |grad|_K:  1.339e-08  alpha:  6.722e-01
	FillingsUpdate:  mu: -0.001162064  nElectrons: 128.200000  magneticMoment: [ Abs: 0.00018  Tot: +0.00000 ]
	SubspaceRotationAdjust: set factor to 1.22
ElecMinimize: Iter:  67  F: -206.882516017844551  |grad|_K:  8.207e-09  alpha:  7.292e-01  linmin: -9.064e-07  t[s]:   2372.51
	FillingsUpdate:  mu: -0.001163604  nElectrons: 128.200000  magneticMoment: [ Abs: 0.00017  Tot: +0.00001 ]
	SubspaceRotationAdjust: set factor to 1.13
ElecMinimize: Iter:  68  F: -206.882516023117546  |grad|_K:  4.809e-09  alpha:  6.143e-01  linmin: -1.407e-07  t[s]:   2400.69
	FillingsUpdate:  mu: -0.001163437  nElectrons: 128.200000  magneticMoment: [ Abs: 0.00016  Tot: +0.00002 ]
	SubspaceRotationAdjust: set factor to 1.18
ElecMinimize: Iter:  69  F: -206.882516026549325  |grad|_K:  5.490e-09  alpha:  1.187e+00  linmin:  7.377e-08  t[s]:   2429.65
ElecMinimize: Converged (|Delta F|<1.000000e-08 for 2 iters).
Setting wave functions to eigenvectors of Hamiltonian
Vacuum energy after initial minimize, F = -206.882516026549325

	Linear fluid (dielectric constant: 78.4, screening length: 5.74355 Bohr) occupying 0.803954 of unit cell:	Completed after 13 iterations at t[s]:   2439.96

-------- Electronic minimization -----------
	Linear fluid (dielectric constant: 78.4, screening length: 5.74355 Bohr) occupying 0.803954 of unit cell:	Completed after 0 iterations at t[s]:   2449.74
	FillingsUpdate:  mu: -0.049018179  nElectrons: 128.200000  magneticMoment: [ Abs: 0.00018  Tot: -0.00000 ]
ElecMinimize: Iter:   0  F: -206.889330469815661  |grad|_K:  2.695e-06  alpha:  1.000e+00
	Linear fluid (dielectric constant: 78.4, screening length: 5.74355 Bohr) occupying 0.808557 of unit cell:	Completed after 9 iterations at t[s]:   2473.03
	Linear fluid (dielectric constant: 78.4, screening length: 5.74355 Bohr) occupying 0.808251 of unit cell:	Completed after 7 iterations at t[s]:   2485.40
	FillingsUpdate:  mu: -0.045017250  nElectrons: 128.200000  magneticMoment: [ Abs: 0.00034  Tot: +0.00011 ]
	SubspaceRotationAdjust: set factor to 0.684
ElecMinimize: Iter:   1  F: -206.890154210531961  |grad|_K:  1.010e-06  alpha:  8.959e-01  linmin:  1.119e-04  t[s]:   2498.47
	Linear fluid (dielectric constant: 78.4, screening length: 5.74355 Bohr) occupying 0.808262 of unit cell:	Completed after 7 iterations at t[s]:   2507.93
	Linear fluid (dielectric constant: 78.4, screening length: 5.74355 Bohr) occupying 0.808267 of unit cell:	Completed after 4 iterations at t[s]:   2520.07
	FillingsUpdate:  mu: -0.045458153  nElectrons: 128.200000  magneticMoment: [ Abs: 0.00026  Tot: +0.00006 ]
	SubspaceRotationAdjust: set factor to 0.913
ElecMinimize: Iter:   2  F: -206.890229512621460  |grad|_K:  4.309e-07  alpha:  6.394e-01  linmin: -1.621e-06  t[s]:   2533.08
	Linear fluid (dielectric constant: 78.4, screening length: 5.74355 Bohr) occupying 0.808208 of unit cell:	Completed after 2 iterations at t[s]:   2542.09
	Linear fluid (dielectric constant: 78.4, screening length: 5.74355 Bohr) occupying 0.808197 of unit cell:	Completed after 1 iterations at t[s]:   2553.35
	FillingsUpdate:  mu: -0.045579614  nElectrons: 128.200000  magneticMoment: [ Abs: 0.00022  Tot: +0.00002 ]
	SubspaceRotationAdjust: set factor to 1.33
ElecMinimize: Iter:   3  F: -206.890246767189183  |grad|_K:  2.098e-07  alpha:  7.431e-01  linmin:  3.075e-06  t[s]:   2566.37
	Linear fluid (dielectric constant: 78.4, screening length: 5.74355 Bohr) occupying 0.808143 of unit cell:	Completed after 2 iterations at t[s]:   2575.39
	Linear fluid (dielectric constant: 78.4, screening length: 5.74355 Bohr) occupying 0.808138 of unit cell:	Completed after 0 iterations at t[s]:   2586.17
	FillingsUpdate:  mu: -0.045589048  nElectrons: 128.200000  magneticMoment: [ Abs: 0.00016  Tot: -0.00001 ]
	SubspaceRotationAdjust: set factor to 1.48
ElecMinimize: Iter:   4  F: -206.890251163694501  |grad|_K:  9.348e-08  alpha:  8.003e-01  linmin: -3.979e-06  t[s]:   2598.84
	Linear fluid (dielectric constant: 78.4, screening length: 5.74355 Bohr) occupying 0.808144 of unit cell:	Completed after 1 iterations at t[s]:   2607.62
	Linear fluid (dielectric constant: 78.4, screening length: 5.74355 Bohr) occupying 0.808145 of unit cell:	Completed after 0 iterations at t[s]:   2618.54
	FillingsUpdate:  mu: -0.045569388  nElectrons: 128.200000  magneticMoment: [ Abs: 0.00011  Tot: -0.00004 ]
	SubspaceRotationAdjust: set factor to 1.38
ElecMinimize: Iter:   5  F: -206.890252245868112  |grad|_K:  5.257e-08  alpha:  9.792e-01  linmin: -1.628e-05  t[s]:   2631.36
	Linear fluid (dielectric constant: 78.4, screening length: 5.74355 Bohr) occupying 0.808175 of unit cell:	Completed after 0 iterations at t[s]:   2639.84
	Linear fluid (dielectric constant: 78.4, screening length: 5.74355 Bohr) occupying 0.808188 of unit cell:	Completed after 2 iterations at t[s]:   2652.25
	FillingsUpdate:  mu: -0.045540090  nElectrons: 128.200000  magneticMoment: [ Abs: 0.00008  Tot: -0.00005 ]
	SubspaceRotationAdjust: set factor to 1.2
ElecMinimize: Iter:   6  F: -206.890252711908772  |grad|_K:  4.232e-08  alpha:  1.422e+00  linmin:  1.174e-05  t[s]:   2666.50
	Linear fluid (dielectric constant: 78.4, screening length: 5.74355 Bohr) occupying 0.808184 of unit cell:	Completed after 0 iterations at t[s]:   2675.80
	Linear fluid (dielectric constant: 78.4, screening length: 5.74355 Bohr) occupying 0.808185 of unit cell:	Completed after 0 iterations at t[s]:   2688.45
	FillingsUpdate:  mu: -0.045542737  nElectrons: 128.200000  magneticMoment: [ Abs: 0.00006  Tot: -0.00004 ]
	SubspaceRotationAdjust: set factor to 1.51
ElecMinimize: Iter:   7  F: -206.890252949074977  |grad|_K:  2.837e-08  alpha:  1.114e+00  linmin:  1.297e-07  t[s]:   2702.88
	Linear fluid (dielectric constant: 78.4, screening length: 5.74355 Bohr) occupying 0.808166 of unit cell:	Completed after 2 iterations at t[s]:   2713.25
	Linear fluid (dielectric constant: 78.4, screening length: 5.74355 Bohr) occupying 0.808174 of unit cell:	Completed after 0 iterations at t[s]:   2724.40
	FillingsUpdate:  mu: -0.045573467  nElectrons: 128.200000  magneticMoment: [ Abs: 0.00005  Tot: -0.00004 ]
	SubspaceRotationAdjust: set factor to 1.65
ElecMinimize: Iter:   8  F: -206.890253004020479  |grad|_K:  2.028e-08  alpha:  6.637e-01  linmin: -5.961e-06  t[s]:   2737.03
	Linear fluid (dielectric constant: 78.4, screening length: 5.74355 Bohr) occupying 0.808169 of unit cell:	Completed after 0 iterations at t[s]:   2745.51
	Linear fluid (dielectric constant: 78.4, screening length: 5.74355 Bohr) occupying 0.808169 of unit cell:	Completed after 0 iterations at t[s]:   2756.50
	FillingsUpdate:  mu: -0.045574615  nElectrons: 128.200000  magneticMoment: [ Abs: 0.00003  Tot: -0.00002 ]
	SubspaceRotationAdjust: set factor to 1.68
ElecMinimize: Iter:   9  F: -206.890253039996907  |grad|_K:  1.509e-08  alpha:  6.767e-01  linmin:  2.765e-07  t[s]:   2769.39
	Linear fluid (dielectric constant: 78.4, screening length: 5.74355 Bohr) occupying 0.808171 of unit cell:	Completed after 1 iterations at t[s]:   2778.15
	Linear fluid (dielectric constant: 78.4, screening length: 5.74355 Bohr) occupying 0.808169 of unit cell:	Completed after 0 iterations at t[s]:   2788.88
ElecMinimize: 	Step increased F by 6.868760e-09, reducing alpha to 1.914906e-02.
	Linear fluid (dielectric constant: 78.4, screening length: 5.74355 Bohr) occupying 0.808169 of unit cell:	Completed after 0 iterations at t[s]:   2809.57
ElecMinimize: 	Step increased F by 3.038707e-09, reducing alpha to 1.914906e-03.
	Linear fluid (dielectric constant: 78.4, screening length: 5.74355 Bohr) occupying 0.808169 of unit cell:	Completed after 0 iterations at t[s]:   2830.10
ElecMinimize: 	Step increased F by 2.773447e-09, reducing alpha to 1.914906e-04.
ElecMinimize: 	Step failed to reduce F after 3 attempts. Quitting step.
ElecMinimize: 	Undoing step.
	Linear fluid (dielectric constant: 78.4, screening length: 5.74355 Bohr) occupying 0.808169 of unit cell:	Completed after 0 iterations at t[s]:   2850.96
ElecMinimize: 	Step failed: resetting search direction.
	FillingsUpdate:  mu: -0.045557556  nElectrons: 128.200000  magneticMoment: [ Abs: 0.00003  Tot: -0.00002 ]
	SubspaceRotationAdjust: set factor to 1.55
ElecMinimize: Iter:  10  F: -206.890253037223431  |grad|_K:  2.264e-08  alpha:  1.915e-04
	Linear fluid (dielectric constant: 78.4, screening length: 5.74355 Bohr) occupying 0.808172 of unit cell:	Completed after 2 iterations at t[s]:   2873.19
	Linear fluid (dielectric constant: 78.4, screening length: 5.74355 Bohr) occupying 0.808170 of unit cell:	Completed after 0 iterations at t[s]:   2884.04
	FillingsUpdate:  mu: -0.045566339  nElectrons: 128.200000  magneticMoment: [ Abs: 0.00003  Tot: -0.00002 ]
	SubspaceRotationAdjust: set factor to 1.08
ElecMinimize: Iter:  11  F: -206.890253052762233  |grad|_K:  2.542e-08  alpha:  2.394e-01  linmin:  8.334e-05  t[s]:   2896.86
	Linear fluid (dielectric constant: 78.4, screening length: 5.74355 Bohr) occupying 0.808171 of unit cell:	Completed after 0 iterations at t[s]:   2905.88
	Linear fluid (dielectric constant: 78.4, screening length: 5.74355 Bohr) occupying 0.808172 of unit cell:	Completed after 0 iterations at t[s]:   2916.50
	FillingsUpdate:  mu: -0.045565916  nElectrons: 128.200000  magneticMoment: [ Abs: 0.00002  Tot: -0.00001 ]
	SubspaceRotationAdjust: set factor to 1.3
ElecMinimize: Iter:  12  F: -206.890253059770231  |grad|_K:  2.294e-08  alpha:  2.906e-01  linmin: -1.549e-08  t[s]:   2929.32
	Linear fluid (dielectric constant: 78.4, screening length: 5.74355 Bohr) occupying 0.808173 of unit cell:	Completed after 1 iterations at t[s]:   2938.35
	Linear fluid (dielectric constant: 78.4, screening length: 5.74355 Bohr) occupying 0.808172 of unit cell:	Completed after 0 iterations at t[s]:   2949.36
ElecMinimize: 	Step increased F by 1.051157e-08, reducing alpha to 1.006556e-02.
	Linear fluid (dielectric constant: 78.4, screening length: 5.74355 Bohr) occupying 0.808172 of unit cell:	Completed after 0 iterations at t[s]:   2970.32
ElecMinimize: 	Step increased F by 9.522410e-09, reducing alpha to 1.006556e-03.
	Linear fluid (dielectric constant: 78.4, screening length: 5.74355 Bohr) occupying 0.808172 of unit cell:	Completed after 0 iterations at t[s]:   2990.97
ElecMinimize: 	Step increased F by 9.495096e-09, reducing alpha to 1.006556e-04.
ElecMinimize: 	Step failed to reduce F after 3 attempts. Quitting step.
ElecMinimize: 	Undoing step.
	Linear fluid (dielectric constant: 78.4, screening length: 5.74355 Bohr) occupying 0.808172 of unit cell:	Completed after 0 iterations at t[s]:   3011.25
ElecMinimize: 	Step failed: resetting search direction.
	FillingsUpdate:  mu: -0.045561219  nElectrons: 128.200000  magneticMoment: [ Abs: 0.00002  Tot: -0.00001 ]
	SubspaceRotationAdjust: set factor to 1.24
ElecMinimize: Iter:  13  F: -206.890253050274623  |grad|_K:  7.241e-09  alpha:  1.007e-04
	Linear fluid (dielectric constant: 78.4, screening length: 5.74355 Bohr) occupying 0.808172 of unit cell:	Completed after 0 iterations at t[s]:   3033.22
	Linear fluid (dielectric constant: 78.4, screening length: 5.74355 Bohr) occupying 0.808172 of unit cell:	Completed after 0 iterations at t[s]:   3044.25
ElecMinimize: 	Step increased F by 1.731337e-09, reducing alpha to 1.371568e-02.
	Linear fluid (dielectric constant: 78.4, screening length: 5.74355 Bohr) occupying 0.808172 of unit cell:	Completed after 0 iterations at t[s]:   3064.61
ElecMinimize: 	Step increased F by 3.154042e-09, reducing alpha to 1.371568e-03.
	Linear fluid (dielectric constant: 78.4, screening length: 5.74355 Bohr) occupying 0.808172 of unit cell:	Completed after 0 iterations at t[s]:   3085.38
ElecMinimize: 	Step increased F by 3.303740e-09, reducing alpha to 1.371568e-04.
ElecMinimize: 	Step failed to reduce F after 3 attempts. Quitting step.
ElecMinimize: 	Undoing step.
	Linear fluid (dielectric constant: 78.4, screening length: 5.74355 Bohr) occupying 0.808172 of unit cell:	Completed after 0 iterations at t[s]:   3106.66
ElecMinimize: 	Step failed along negative gradient direction.
ElecMinimize: Probably at roundoff error limit. (Stopping)
Setting wave functions to eigenvectors of Hamiltonian
Single-point solvation energy estimate, DeltaF = -0.007737020418602

# Ionic positions in lattice coordinates:
ion B   0.166670009390625   0.083330014890624   0.500000000000000 1
ion B   0.416670009390625   0.083330014890624   0.500000000000000 1
ion B   0.666670009390625   0.083330014890624   0.500000000000000 1
ion B   0.916670009390625   0.083330014890624   0.500000000000000 1
ion B   0.166670009390625   0.333330014890624   0.500000000000000 1
ion B   0.416670009390625   0.333330014890624   0.500000000000000 1
ion B   0.666670009390625   0.333330014890624   0.500000000000000 1
ion B   0.916670009390625   0.333330014890624   0.500000000000000 1
ion B   0.166670009390625   0.583330014890624   0.500000000000000 1
ion B   0.416670009390625   0.583330014890624   0.500000000000000 1
ion B   0.666670009390625   0.583330014890624   0.500000000000000 1
ion B   0.916670009390625   0.583330014890624   0.500000000000000 1
ion B   0.166670009390625   0.833330014890624   0.500000000000000 1
ion B   0.416670009390625   0.833330014890624   0.500000000000000 1
ion B   0.666670009390625   0.833330014890624   0.500000000000000 1
ion B   0.916670009390625   0.833330014890624   0.500000000000000 1
ion N   0.083330006421875   0.166670017859374   0.500000000000000 1
ion N   0.333330006421875   0.166670017859374   0.500000000000000 1
ion N   0.583330006421875   0.166670017859374   0.500000000000000 1
ion N   0.833330006421875   0.166670017859374   0.500000000000000 1
ion N   0.083330006421875   0.416670017859374   0.500000000000000 1
ion N   0.333330006421875   0.416670017859374   0.500000000000000 1
ion N   0.583330006421875   0.416670017859374   0.500000000000000 1
ion N   0.833330006421875   0.416670017859374   0.500000000000000 1
ion N   0.083330006421875   0.666670017859374   0.500000000000000 1
ion N   0.333330006421875   0.666670017859374   0.500000000000000 1
ion N   0.583330006421875   0.666670017859374   0.500000000000000 1
ion N   0.833330006421875   0.666670017859374   0.500000000000000 1
ion N   0.083330006421875   0.916670017859374   0.500000000000000 1
ion N   0.333330006421875   0.916670017859374   0.500000000000000 1
ion N   0.583330006421875   0.916670017859374   0.500000000000000 1
ion N   0.833330006421875   0.916670017859374   0.500000000000000 1


# Forces in Lattice coordinates:
force B  -0.001509464999167   0.001509464999167   0.000000000000000 1
force B  -0.001509464999167   0.001509464999167  -0.000000000000000 1
force B  -0.001509464999167   0.001509464999167   0.000000000000000 1
force B  -0.001509464999167   0.001509464999167   0.000000000000000 1
force B  -0.001509464999167   0.001509464999167   0.000000000000000 1
force B  -0.001509464999167   0.001509464999167   0.000000000000000 1
force B  -0.001509464999167   0.001509464999167  -0.000000000000000 1
force B  -0.001509464999167   0.001509464999167  -0.000000000000000 1
force B  -0.001509464999167   0.001509464999167   0.000000000000000 1
force B  -0.001509464999167   0.001509464999167   0.000000000000000 1
force B  -0.001509464999167   0.001509464999167   0.000000000000000 1
force B  -0.001509464999167   0.001509464999167  -0.000000000000000 1
force B  -0.001509464999167   0.001509464999167  -0.000000000000000 1
force B  -0.001509464999167   0.001509464999167   0.000000000000000 1
force B  -0.001509464999167   0.001509464999167   0.000000000000000 1
force B  -0.001509464999167   0.001509464999167  -0.000000000000000 1
force N   0.001535022423010  -0.001535022423010   0.000000000000000 1
force N   0.001535022423010  -0.001535022423010   0.000000000000000 1
force N   0.001535022423010  -0.001535022423010   0.000000000000000 1
force N   0.001535022423010  -0.001535022423010  -0.000000000000000 1
force N   0.001535022423010  -0.001535022423010   0.000000000000000 1
force N   0.001535022423010  -0.001535022423010  -0.000000000000000 1
force N   0.001535022423010  -0.001535022423010  -0.000000000000000 1
force N   0.001535022423010  -0.001535022423010   0.000000000000000 1
force N   0.001535022423010  -0.001535022423010  -0.000000000000000 1
force N   0.001535022423010  -0.001535022423010   0.000000000000000 1
force N   0.001535022423010  -0.001535022423010  -0.000000000000000 1
force N   0.001535022423010  -0.001535022423010  -0.000000000000000 1
force N   0.001535022423010  -0.001535022423010  -0.000000000000000 1
force N   0.001535022423010  -0.001535022423010  -0.000000000000000 1
force N   0.001535022423010  -0.001535022423010  -0.000000000000000 1
force N   0.001535022423010  -0.001535022423010  -0.000000000000000 1

# Energy components:
   A_diel =       -0.0075155744016408
   Eewald =     1248.1722017259053246
       EH =     1420.3519424223241003
     Eloc =    -2964.3607082327271200
      Enl =       30.1088601695439309
      Exc =      -67.8775352103446608
 Exc_core =        6.8944935515921957
       KE =      119.8341177301551852
  MuShift =       -0.0014451850230763
-------------------------------------
     Etot =     -206.8855886029757301
       TS =        0.0046644439921849
-------------------------------------
        F =     -206.8902530469679277

IonicMinimize: Iter:   0  F: -206.890253046967928  |grad|_K:  5.364e-05  t[s]:   3127.08
IonicMinimize: Converged (|grad|_K<1.000000e-04).

#--- Lowdin population analysis ---
# oxidation-state B +0.465 +0.465 +0.465 +0.465 +0.465 +0.465 +0.465 +0.465 +0.465 +0.465 +0.465 +0.465 +0.465 +0.465 +0.465 +0.465
# magnetic-moments B +0.000 +0.000 +0.000 +0.000 +0.000 +0.000 +0.000 +0.000 +0.000 +0.000 +0.000 +0.000 +0.000 +0.000 +0.000 +0.000
# oxidation-state N -0.406 -0.406 -0.406 -0.406 -0.406 -0.406 -0.406 -0.406 -0.406 -0.406 -0.406 -0.406 -0.406 -0.406 -0.406 -0.406
# magnetic-moments N -0.000 -0.000 -0.000 -0.000 -0.000 -0.000 -0.000 -0.000 -0.000 -0.000 -0.000 -0.000 -0.000 -0.000 -0.000 -0.000


Dumping 'NbTe2.fillings' ... done
Dumping 'NbTe2.wfns' ... done
Dumping 'NbTe2.fluidState' ... done
Dumping 'NbTe2.ionpos' ... done
Dumping 'NbTe2.eigenvals' ... done
End date and time: Mon Jan 25 21:22:41 2021  (Duration: 0-0:52:10.24)
Done!
