
*************** JDFTx 1.5.0  ***************

Start date and time: Thu Feb  4 15:21:35 2021
Executable jdftx_gpu with command-line: -i Charged.in -o Charged.out
Running on hosts (process indices):  amax (0-6)
Divided in process groups (process indices):  0 (0)  1 (1)  2 (2)  3 (3)  4 (4)  5 (5)  6 (6)
gpuInit: Found compatible cuda device 0 'Tesla K80'
gpuInit: Found compatible cuda device 1 'Tesla K80'
gpuInit: Found compatible cuda device 2 'Tesla K80'
gpuInit: Found compatible cuda device 3 'Tesla K80'
gpuInit: Found compatible cuda device 4 'Tesla K80'
gpuInit: Found compatible cuda device 5 'Tesla K80'
gpuInit: Found compatible cuda device 6 'Tesla K80'
gpuInit: Selected device 0
Resource initialization completed at t[s]:      3.81
Run totals: 7 processes, 24 threads, 7 GPUs


Input parsed successfully to the following command list (including defaults):

basis kpoint-dependent
cache-projectors no
coords-type Lattice
core-overlap-check none
coulomb-interaction Slab 001
coulomb-truncation-embed 0.5 0.5 0.5
davidson-band-ratio 1.1
dump End State
dump-name NbTe2.$VAR
elec-cutoff 20
elec-eigen-algo Davidson
elec-ex-corr gga-PBE
elec-initial-magnetization 20.000000 no
elec-smearing Gauss 0.0073499
electronic-minimize  \
	dirUpdateScheme      FletcherReeves \
	linminMethod         DirUpdateRecommended \
	nIterations          200 \
	history              15 \
	knormThreshold       0 \
	energyDiffThreshold  1e-08 \
	nEnergyDiff          2 \
	alphaTstart          1 \
	alphaTmin            1e-10 \
	updateTestStepSize   yes \
	alphaTreduceFactor   0.1 \
	alphaTincreaseFactor 3 \
	nAlphaAdjustMax      3 \
	wolfeEnergy          0.0001 \
	wolfeGradient        0.9 \
	fdTest               no
exchange-regularization WignerSeitzTruncated
fluid LinearPCM 298.000000 1.013250
fluid-anion F- 1 MeanFieldLJ \
	epsBulk 1 \
	pMol 0 \
	epsInf 1 \
	Pvap 0 \
	sigmaBulk 0 \
	Rvdw 2.24877 \
	Res 0 \
	tauNuc 343133
fluid-cation Na+ 1 MeanFieldLJ \
	epsBulk 1 \
	pMol 0 \
	epsInf 1 \
	Pvap 0 \
	sigmaBulk 0 \
	Rvdw 2.19208 \
	Res 0 \
	tauNuc 343133
fluid-ex-corr lda-TF lda-PZ
fluid-gummel-loop 10 1.000000e-05
fluid-minimize  \
	dirUpdateScheme      PolakRibiere \
	linminMethod         DirUpdateRecommended \
	nIterations          400 \
	history              15 \
	knormThreshold       1e-11 \
	energyDiffThreshold  0 \
	nEnergyDiff          2 \
	alphaTstart          1 \
	alphaTmin            1e-10 \
	updateTestStepSize   yes \
	alphaTreduceFactor   0.1 \
	alphaTincreaseFactor 3 \
	nAlphaAdjustMax      6 \
	wolfeEnergy          0.0001 \
	wolfeGradient        0.9 \
	fdTest               no
fluid-solvent H2O 55.338 ScalarEOS \
	epsBulk 78.4 \
	pMol 0.92466 \
	epsInf 1.77 \
	Pvap 1.06736e-10 \
	sigmaBulk 4.62e-05 \
	Rvdw 2.61727 \
	Res 1.42 \
	tauNuc 343133 \
	poleEl 15 7 1
forces-output-coords Positions
initial-state NbTe2.$VAR
ion V   0.000000007187500   0.000000004916667   0.499999995675510 1
ion V   0.250000007187500   0.000000004916667   0.499999995675510 1
ion V   0.500000007187500   0.000000004916667   0.499999995675510 1
ion V   0.750000007187500   0.000000004916667   0.499999995675510 1
ion V   0.000000007187500   0.250000004916667   0.499999995675510 1
ion V   0.250000007187500   0.250000004916667   0.499999995675510 1
ion V   0.500000007187500   0.250000004916667   0.499999995675510 1
ion V   0.750000007187500   0.250000004916667   0.499999995675510 1
ion V   0.000000007187500   0.500000004916667   0.499999995675510 1
ion V   0.250000007187500   0.500000004916667   0.499999995675510 1
ion V   0.500000007187500   0.500000004916667   0.499999995675510 1
ion V   0.750000007187500   0.500000004916667   0.499999995675510 1
ion V   1.000000007187500   0.750000004916667   0.499999995675510 1
ion V   0.250000007187500   0.750000004916667   0.499999995675510 1
ion V   0.500000007187500   0.750000004916667   0.499999995675510 1
ion V   0.750000007187500   0.750000004916667   0.499999995675510 1
ion Se   0.166666673854167   0.083333338250000   0.587361484715034 1
ion Se   0.083333340520833   0.166666671583333   0.412638506635987 1
ion Se   0.416666673854167   0.083333338250000   0.587361484715034 1
ion Se   0.333333340520833   0.166666671583333   0.412638506635987 1
ion Se   0.666666673854167   0.083333338250000   0.587361484715034 1
ion Se   0.583333340520833   0.166666671583333   0.412638506635987 1
ion Se   0.916666673854167   0.083333338250000   0.587361484715034 1
ion Se   0.833333340520833   0.166666671583333   0.412638506635987 1
ion Se   0.166666673854167   0.333333338250000   0.587361484715034 1
ion Se   0.083333340520833   0.416666671583333   0.412638506635987 1
ion Se   0.416666673854167   0.333333338250000   0.587361484715034 1
ion Se   0.333333340520833   0.416666671583333   0.412638506635987 1
ion Se   0.666666673854167   0.333333338250000   0.587361484715034 1
ion Se   0.583333340520833   0.416666671583333   0.412638506635987 1
ion Se   0.916666673854167   0.333333338250000   0.587361484715034 1
ion Se   0.833333340520833   0.416666671583333   0.412638506635987 1
ion Se   0.166666673854167   0.583333338250000   0.587361484715034 1
ion Se   0.083333340520833   0.666666671583333   0.412638506635987 1
ion Se   0.416666673854167   0.583333338250000   0.587361484715034 1
ion Se   0.333333340520833   0.666666671583333   0.412638506635987 1
ion Se   0.666666673854167   0.583333338250000   0.587361484715034 1
ion Se   0.583333340520833   0.666666671583333   0.412638506635987 1
ion Se   0.916666673854167   0.583333338250000   0.587361484715034 1
ion Se   0.833333340520833   0.666666671583333   0.412638506635987 1
ion Se   0.166666673854167   0.833333338250000   0.587361484715034 1
ion Se   0.083333340520833   0.916666671583333   0.412638506635987 1
ion Se   0.416666673854167   0.833333338250000   0.587361484715034 1
ion Se   0.333333340520833   0.916666671583333   0.412638506635987 1
ion Se   0.666666673854167   0.833333338250000   0.587361484715034 1
ion Se   0.583333340520833   0.916666671583333   0.412638506635987 1
ion Se   0.916666673854167   0.833333338250000   0.587361484715034 1
ion Se   0.833333340520833   0.916666671583333   0.412638506635987 1
ion-species GBRV/$ID_pbe.uspp
ion-width Ecut
ionic-minimize  \
	dirUpdateScheme      L-BFGS \
	linminMethod         DirUpdateRecommended \
	nIterations          500 \
	history              15 \
	knormThreshold       0.0001 \
	energyDiffThreshold  1e-06 \
	nEnergyDiff          2 \
	alphaTstart          1 \
	alphaTmin            1e-10 \
	updateTestStepSize   yes \
	alphaTreduceFactor   0.1 \
	alphaTincreaseFactor 3 \
	nAlphaAdjustMax      3 \
	wolfeEnergy          0.0001 \
	wolfeGradient        0.9 \
	fdTest               no
kpoint   0.000000000000   0.000000000000   0.000000000000  1.00000000000000
kpoint-folding 3 3 1 
latt-move-scale 1 1 1
latt-scale 1.88973 1.88973 1.88973 
lattice Triclinic 13.253 13.2529 18.1801 90 90 120
lattice-minimize  \
	dirUpdateScheme      L-BFGS \
	linminMethod         DirUpdateRecommended \
	nIterations          0 \
	history              15 \
	knormThreshold       0 \
	energyDiffThreshold  1e-06 \
	nEnergyDiff          2 \
	alphaTstart          1 \
	alphaTmin            1e-10 \
	updateTestStepSize   yes \
	alphaTreduceFactor   0.1 \
	alphaTincreaseFactor 3 \
	nAlphaAdjustMax      3 \
	wolfeEnergy          0.0001 \
	wolfeGradient        0.9 \
	fdTest               no
lcao-params -1 1e-06 0.0073499
pcm-variant CANDLE
spintype z-spin
subspace-rotation-factor 1 yes
symmetries automatic
symmetry-threshold 0.0001
target-mu -0.171252 no




---------- Setting up symmetries ----------

Found 24 point-group symmetries of the bravais lattice
Found 192 space-group symmetries with basis
Applied RMS atom displacement 1.19408e-14 bohrs to make symmetries exact.

---------- Initializing the Grid ----------
R = 
[    25.0445   -12.5222          0  ]
[          0     21.689          0  ]
[          0          0    34.3554  ]
unit cell volume = 18661.6
G =
[    0.25088   0.144846         -0  ]
[          0   0.289694          0  ]
[          0         -0   0.182888  ]
Minimum fftbox size, Smin = [  104  104  140  ]
Chosen fftbox size, S = [  108  108  140  ]

---------- Exchange Correlation functional ----------
Initalized PBE GGA exchange.
Initalized PBE GGA correlation.

---------- Setting up pseudopotentials ----------
Width of ionic core gaussian charges (only for fluid interactions / plotting) set to 0.397384

Reading pseudopotential file '/home/guoxy/vasp/jdftx-1.5.0/build/pseudopotentials/GBRV/v_pbe.uspp':
  Title: V.  Created by USPP 7.3.6 on 31-3-15
  Reference state energy: -72.228583.  13 valence electrons in orbitals:
    |300>  occupation: 2  eigenvalue: -2.581040
    |310>  occupation: 6  eigenvalue: -1.618497
    |400>  occupation: 2  eigenvalue: -0.172800
    |320>  occupation: 3  eigenvalue: -0.189802
  lMax: 2  lLocal: 3  QijEcut: 6
  6 projectors sampled on a log grid with 593 points:
    l: 0  eig: -2.581041  rCut: 1.5
    l: 0  eig: -0.172801  rCut: 1.5
    l: 1  eig: -1.618497  rCut: 1.6
    l: 1  eig: 0.150000  rCut: 1.6
    l: 2  eig: -0.189802  rCut: 1.7
    l: 2  eig: 0.150000  rCut: 1.7
  Partial core density with radius 0.8
  Transforming core density to a uniform radial grid of dG=0.02 with 1504 points.
  Transforming local potential to a uniform radial grid of dG=0.02 with 1504 points.
  Transforming nonlocal projectors to a uniform radial grid of dG=0.02 with 432 points.
  Transforming density augmentations to a uniform radial grid of dG=0.02 with 1504 points.
  Transforming atomic orbitals to a uniform radial grid of dG=0.02 with 432 points.
  Core radius for overlap checks: 1.80 bohrs.

Reading pseudopotential file '/home/guoxy/vasp/jdftx-1.5.0/build/pseudopotentials/GBRV/se_pbe.uspp':
  Title: Se.  Created by USPP 7.3.6 on 14-9-2013
  Reference state energy: -21.672887.  6 valence electrons in orbitals:
    |400>  occupation: 2  eigenvalue: -0.635284
    |410>  occupation: 4  eigenvalue: -0.239295
  lMax: 2  lLocal: 3  QijEcut: 5
  6 projectors sampled on a log grid with 625 points:
    l: 0  eig: -0.635278  rCut: 1.5
    l: 0  eig: 0.500000  rCut: 1.5
    l: 1  eig: -0.239295  rCut: 1.5
    l: 1  eig: 0.500000  rCut: 1.5
    l: 2  eig: 0.000000  rCut: 1.8
    l: 2  eig: 1.000000  rCut: 1.8
  Partial core density with radius 1.2
  Transforming core density to a uniform radial grid of dG=0.02 with 1504 points.
  Transforming local potential to a uniform radial grid of dG=0.02 with 1504 points.
  Transforming nonlocal projectors to a uniform radial grid of dG=0.02 with 432 points.
  Transforming density augmentations to a uniform radial grid of dG=0.02 with 1504 points.
  Transforming atomic orbitals to a uniform radial grid of dG=0.02 with 432 points.
  Core radius for overlap checks: 1.80 bohrs.

Initialized 2 species with 48 total atoms.

Folded 1 k-points by 3x3x1 to 9 k-points.

---------- Setting up k-points, bands, fillings ----------
Reduced to 3 k-points under symmetry. 
Computing the number of bands and number of electrons
Calculating initial fillings.
nElectrons: 400.000000   nBands: 288   nStates: 6

----- Setting up reduced wavefunction bases (one per k-point) -----
average nbasis = 79750.333 , ideal nbasis = 79723.758

---------- Setting up coulomb interaction ----------
Fluid mode embedding: using embedded box, but periodic Coulomb kernel.
(Fluid response is responsible for (approximate) separation between periodic images.)
Setting up double-sized grid for truncated Coulomb potentials:
R = 
[    25.0445   -12.5222          0  ]
[          0     21.689          0  ]
[          0          0    68.7109  ]
unit cell volume = 37323.2
G =
[    0.25088   0.144846         -0  ]
[          0   0.289694          0  ]
[          0         -0  0.0914439  ]
Chosen fftbox size, S = [  108  108  280  ]
Integer grid location selected as the embedding center:
   Grid: [  54  54  70  ]
   Lattice: [  0.5  0.5  0.5  ]
   Cartesian: [  6.26118  10.8445  17.1777  ]
Constructing Wigner-Seitz cell: 8 faces (6 quadrilaterals, 2 hexagons)
Range-separation parameter for embedded mesh potentials due to point charges: 0.624948 bohrs.

Initializing van der Waals corrections
	NOTE: vdW corrections apply only for interactions with fluid.
	 V:  C6:  187.33 Eh-a0^6  R0: 2.952 a0
	Se:  C6:  219.24 Eh-a0^6  R0: 3.347 a0

---------- Setting up ewald sum ----------
Optimum gaussian width for ewald sums = 6.993525 bohr.
Real space sum over 605 unit cells with max indices [  5  5  2  ]
Reciprocal space sum over 7425 terms with max indices [  7  7  16  ]

---------- Allocating electronic variables ----------
Initializing wave functions:  linear combination of atomic orbitals
V pseudo-atom occupations:   s ( 2 0 )  p ( 6 )  d ( 5 )
Se pseudo-atom occupations:   s ( 2 )  p ( 4 )
	FillingsUpdate:  mu: -0.171251800  nElectrons: 400.000000  magneticMoment: [ Abs: 1.04063  Tot: +1.04055 ]
LCAOMinimize: Iter:   0  G: -1136.5948646591602937  |grad|_K:  1.601e-02  alpha:  1.000e+00
LCAOMinimize: 	Wrong curvature in test step, increasing alphaT to 3.000000e+00.
	FillingsUpdate:  mu: -0.171251800  nElectrons: 400.000000  magneticMoment: [ Abs: 0.14231  Tot: +0.04362 ]
LCAOMinimize: Iter:   1  G: -1269.1954508874248404  |grad|_K:  4.235e-03  alpha: -1.561e+01  linmin:  2.159e-02  cgtest: -4.190e+00  t[s]:    118.97
LCAOMinimize: 	Bad step direction: g.d > 0.
LCAOMinimize: 	Undoing step.
LCAOMinimize: 	Step failed: resetting search direction.
	FillingsUpdate:  mu: -0.171251800  nElectrons: 400.000000  magneticMoment: [ Abs: 0.14231  Tot: +0.04362 ]
LCAOMinimize: Iter:   2  G: -1269.1954508874248404  |grad|_K:  4.235e-03  alpha:  0.000e+00
	FillingsUpdate:  mu: -0.171251800  nElectrons: 400.000000  magneticMoment: [ Abs: 0.14482  Tot: +0.04624 ]
LCAOMinimize: Iter:   3  G: -1269.4820060015990748  |grad|_K:  4.766e-03  alpha:  2.967e-02  linmin: -2.107e-02  cgtest:  8.616e-01  t[s]:    179.13
LCAOMinimize: 	Wrong curvature in test step, increasing alphaT to 8.900748e-02.
	FillingsUpdate:  mu: -0.171251800  nElectrons: 400.000000  magneticMoment: [ Abs: 0.14799  Tot: +0.04964 ]
LCAOMinimize: Iter:   4  G: -1270.1058700572598354  |grad|_K:  6.026e-03  alpha: -3.582e-02  linmin: -2.281e-02  cgtest:  7.596e-01  t[s]:    214.63
	FillingsUpdate:  mu: -0.171251800  nElectrons: 400.000000  magneticMoment: [ Abs: 0.11889  Tot: +0.02302 ]
LCAOMinimize: Iter:   5  G: -1306.0039985838784560  |grad|_K:  1.863e-02  alpha:  8.812e-02  linmin: -6.198e-02  cgtest:  2.529e-01  t[s]:    250.44
LCAOMinimize: 	Step increased G by 2.953044e+01, reducing alpha to 2.800154e-03.
	FillingsUpdate:  mu: -0.171251800  nElectrons: 400.000000  magneticMoment: [ Abs: 0.11274  Tot: +0.01678 ]
LCAOMinimize: Iter:   6  G: -1312.9915219152596819  |grad|_K:  1.171e-02  alpha:  2.800e-03  linmin: -6.883e-02  cgtest:  1.468e+00  t[s]:    310.99
LCAOMinimize: Encountered beta<0, resetting CG.
LCAOMinimize: 	Predicted alpha/alphaT>3.000000, increasing alphaT to 8.400463e-03.
LCAOMinimize: 	Predicted alpha/alphaT>3.000000, increasing alphaT to 2.520139e-02.
LCAOMinimize: 	Predicted alpha/alphaT>3.000000, increasing alphaT to 7.560417e-02.
	FillingsUpdate:  mu: -0.171251800  nElectrons: 400.000000  magneticMoment: [ Abs: 0.11219  Tot: +0.01672 ]
LCAOMinimize: Iter:   7  G: -1318.8940967464077403  |grad|_K:  7.818e-03  alpha:  1.257e-01  linmin: -1.126e-01  cgtest:  1.286e+00  t[s]:    369.35
LCAOMinimize: Encountered beta<0, resetting CG.
LCAOMinimize: 	Predicted alpha/alphaT>3.000000, increasing alphaT to 3.771129e-01.
LCAOMinimize: 	Wrong curvature in test step, increasing alphaT to 1.131339e+00.
	FillingsUpdate:  mu: -0.171251800  nElectrons: 400.000000  magneticMoment: [ Abs: 0.05667  Tot: +0.05595 ]
LCAOMinimize: Iter:   8  G: -1355.2083324115726555  |grad|_K:  1.482e-02  alpha: -8.794e-02  linmin: -1.511e-01  cgtest:  2.469e-01  t[s]:    416.27
LCAOMinimize: 	Step increased G by 2.411012e+02, reducing alpha to 3.873697e-02.
LCAOMinimize: 	Step increased G by 1.766517e+01, reducing alpha to 3.873697e-03.
	FillingsUpdate:  mu: -0.171251800  nElectrons: 400.000000  magneticMoment: [ Abs: 0.05441  Tot: +0.05355 ]
LCAOMinimize: Iter:   9  G: -1358.2838191322366583  |grad|_K:  1.345e-02  alpha:  3.874e-03  linmin: -1.738e-01  cgtest:  1.026e+00  t[s]:    501.51
LCAOMinimize: Encountered beta<0, resetting CG.
LCAOMinimize: 	Predicted alpha/alphaT>3.000000, increasing alphaT to 1.162109e-02.
LCAOMinimize: 	Predicted alpha/alphaT>3.000000, increasing alphaT to 3.486328e-02.
LCAOMinimize: 	Predicted alpha/alphaT>3.000000, increasing alphaT to 1.045898e-01.
LCAOMinimize: 	Step increased G by 2.044914e+02, reducing alpha to 8.426286e-02.
	FillingsUpdate:  mu: -0.171251800  nElectrons: 400.000000  magneticMoment: [ Abs: 0.05262  Tot: +0.05063 ]
LCAOMinimize: Iter:  10  G: -1366.3522720097253114  |grad|_K:  1.345e-02  alpha:  8.426e-02  linmin: -2.443e-01  cgtest:  7.890e-01  t[s]:    584.87
LCAOMinimize: 	Wrong curvature in test step, increasing alphaT to 2.527886e-01.
	FillingsUpdate:  mu: -0.171251800  nElectrons: 400.000000  magneticMoment: [ Abs: 0.06430  Tot: +0.05837 ]
LCAOMinimize: Iter:  11  G: -1378.8246015685058410  |grad|_K:  1.210e-02  alpha: -1.468e-01  linmin: -2.979e-01  cgtest:  5.852e-01  t[s]:    620.16
LCAOMinimize: 	Step increased G by 4.905544e+01, reducing alpha to 1.753820e-02.
	FillingsUpdate:  mu: -0.171251800  nElectrons: 400.000000  magneticMoment: [ Abs: 0.07006  Tot: +0.06277 ]
LCAOMinimize: Iter:  12  G: -1380.9843397851423106  |grad|_K:  1.055e-02  alpha:  1.754e-02  linmin: -3.106e-01  cgtest:  8.904e-01  t[s]:    680.54
LCAOMinimize: Encountered beta<0, resetting CG.
LCAOMinimize: 	Predicted alpha/alphaT>3.000000, increasing alphaT to 5.261461e-02.
LCAOMinimize: 	Predicted alpha/alphaT>3.000000, increasing alphaT to 1.578438e-01.
	FillingsUpdate:  mu: -0.171251800  nElectrons: 400.000000  magneticMoment: [ Abs: 0.07373  Tot: +0.06358 ]
LCAOMinimize: Iter:  13  G: -1384.3499785169242386  |grad|_K:  6.343e-04  alpha:  9.712e-02  linmin: -3.589e-01  cgtest:  6.901e-01  t[s]:    739.84
LCAOMinimize: Encountered beta<0, resetting CG.
	FillingsUpdate:  mu: -0.171251800  nElectrons: 400.000000  magneticMoment: [ Abs: 0.06754  Tot: +0.05828 ]
LCAOMinimize: Iter:  14  G: -1384.3628435529540184  |grad|_K:  3.906e-04  alpha:  1.273e-01  linmin: -1.036e-02  cgtest:  2.103e-02  t[s]:    776.11
LCAOMinimize: 	Predicted alpha/alphaT>3.000000, increasing alphaT to 3.818098e-01.
	FillingsUpdate:  mu: -0.171251800  nElectrons: 400.000000  magneticMoment: [ Abs: 0.03065  Tot: +0.02698 ]
LCAOMinimize: Iter:  15  G: -1384.3840102861986452  |grad|_K:  1.195e-04  alpha:  5.450e-01  linmin: -5.225e-03  cgtest:  5.782e-01  t[s]:    823.47
LCAOMinimize: Encountered beta<0, resetting CG.
	FillingsUpdate:  mu: -0.171251800  nElectrons: 400.000000  magneticMoment: [ Abs: 0.02883  Tot: +0.02554 ]
LCAOMinimize: Iter:  16  G: -1384.3843479967079020  |grad|_K:  2.541e-05  alpha:  9.309e-02  linmin:  3.189e-02  cgtest: -6.348e-02  t[s]:    859.27
LCAOMinimize: 	Step increased G by 3.576523e-06, reducing alpha to 3.406417e-03.
LCAOMinimize: 	Step increased G by 3.372425e-07, reducing alpha to 3.406417e-04.
LCAOMinimize: 	Step increased G by 3.346554e-08, reducing alpha to 3.406417e-05.
LCAOMinimize: 	Step failed to reduce G after 3 attempts. Quitting step.
LCAOMinimize: 	Undoing step.
LCAOMinimize: 	Step failed: resetting search direction.
	FillingsUpdate:  mu: -0.171251800  nElectrons: 400.000000  magneticMoment: [ Abs: 0.02882  Tot: +0.02554 ]
LCAOMinimize: Iter:  17  G: -1384.3843479666404619  |grad|_K:  2.540e-05  alpha:  3.406e-05
LCAOMinimize: 	Step increased G by 3.640510e-06, reducing alpha to 3.328451e-03.
LCAOMinimize: 	Step increased G by 3.316720e-07, reducing alpha to 3.328451e-04.
LCAOMinimize: 	Step increased G by 3.284617e-08, reducing alpha to 3.328451e-05.
LCAOMinimize: 	Step failed to reduce G after 3 attempts. Quitting step.
LCAOMinimize: 	Undoing step.
LCAOMinimize: 	Step failed along negative gradient direction.
LCAOMinimize: Probably at roundoff error limit. (Stopping)
----- createFluidSolver() ----- (Fluid-side solver setup)
   Initializing fluid molecule 'H2O'
     Initializing site 'O'
       Electron density: proportional to exp(-r/0.36935)*erfc((r-0.51523)/0.36823) with norm 6.826
       Charge density: gaussian nuclear width 0.478731 with net site charge 0.826
       Polarizability: cuspless exponential with width 0.32 and norm 3.73
       Hard sphere radius: 2.57003 bohrs
       Positions in reference frame:
         [ +0.000000 +0.000000 +0.000000 ]
     Initializing site 'H'
       Electron density: proportional to exp(-r/0.34641)*erfc((r-0)/0.390882) with norm 0.587
       Charge density: gaussian nuclear width 0.377945 with net site charge -0.413
       Polarizability: cuspless exponential with width 0.39 and norm 3.3
       Positions in reference frame:
         [ +0.000000 -1.441945 +1.122523 ]
         [ +0.000000 +1.441945 +1.122523 ]
     Net charge: 0   dipole magnitude: 0.927204
     Initializing spherical shell mfKernel with radius 2.61727 Bohr
     deltaS corrections:
       site 'O': -7.54299
       site 'H': -6.83917
   Initializing fluid molecule 'Na+'
     Initializing site 'Na'
       Electron density: proportional to exp(-r/0.19682)*erfc((r-0.71491)/0.41314) with norm 8.1383
       Charge density: gaussian nuclear width 0.365347 with net site charge -1
       Hard sphere radius: 1.86327 bohrs
       Positions in reference frame:
         [ +0.000000 +0.000000 +0.000000 ]
     Net charge: -1   dipole magnitude: 0
     Initializing gaussian mfKernel with width: 1.55004 Bohr
     deltaS corrections:
       site 'Na': -22.3555
   Initializing fluid molecule 'F-'
     Initializing site 'F'
       Electron density: proportional to exp(-r/0.38886)*erfc((r-0)/0.438782) with norm 8
       Charge density: gaussian nuclear width 0.374796 with net site charge 1
       Hard sphere radius: 2.39995 bohrs
       Positions in reference frame:
         [ +0.000000 +0.000000 +0.000000 ]
     Net charge: 1   dipole magnitude: 0
     Initializing gaussian mfKernel with width: 1.59012 Bohr
     deltaS corrections:
       site 'F': -9.04335

Correction to mu due to finite nuclear width = -0.0106336
   Cavity determined by nc: 0.00142 and sigma: 0.707107
   Nonlocal vdW cavity from gaussian model electron density with norm = 8 and sigma = 0.993594 bohr
   Charge asymmetry in cavity with sensitivity pCavity = 36.5 e-bohr/Eh
   Electrostatic cavity expanded by eta = 1.46 bohrs
   Weighted density cavitation model constrained by Nbulk: 0.0049383 bohr^-3, Pvap: 3.14029 kPa, Rvdw: 2.61727 bohr and sigmaBulk: 4.62e-05 Eh/bohr^2 at T: 298 K.
   Weighted density dispersion model using vdW pair potentials with single solvent site with sqrtC6eff: 0.77 SI.


---- Citations for features of the code used in this run ----

   Software package:
      R. Sundararaman, K. Letchworth-Weaver, K.A. Schwarz, D. Gunceler, Y. Ozhabes and T.A. Arias, 'JDFTx: software for joint density-functional theory', SoftwareX 6, 278 (2017)

   gga-PBE exchange-correlation functional:
      J.P. Perdew, K. Burke and M. Ernzerhof, Phys. Rev. Lett. 77, 3865 (1996)

   Pseudopotentials:
      KF Garrity, JW Bennett, KM Rabe and D Vanderbilt, Comput. Mater. Sci. 81, 446 (2014)

   Truncated Coulomb potentials:
      R. Sundararaman and T.A. Arias, Phys. Rev. B 87, 165122 (2013)

   Van der Waals correction pair-potentials:
      S. Grimme, J. Comput. Chem. 27, 1787 (2006)

   Charge-asymmetric nonlocally-determined local-electric (CANDLE) solvation model:
      R. Sundararaman and W.A. Goddard III, J. Chem. Phys. 142, 064107 (2015)

   Total energy minimization with Auxiliary Hamiltonian:
      C. Freysoldt, S. Boeck, and J. Neugebauer, Phys. Rev. B 79, 241103(R) (2009)

   Grand-canonical (fixed-potential) DFT:
      R. Sundararaman, W. A. Goddard III and T. A. Arias, J. Chem. Phys. 146, 114104 (2017)

This list may not be complete. Please suggest additional citations or
report any other bugs at https://github.com/shankar1729/jdftx/issues

Initialization completed successfully at t[s]:   1083.49

Fluid solver invoked on fresh (partially random / LCAO) wavefunctions
Running a vacuum solve first:

-------- Initial electronic minimization -----------
	FillingsUpdate:  mu: -0.147239435  nElectrons: 400.000000  magneticMoment: [ Abs: 0.02882  Tot: +0.02554 ]
ElecMinimize: Iter:   0  G: -1384.481617343430571  |grad|_K:  1.292e-04  alpha:  1.000e+00
	FillingsUpdate:  mu: -0.106716810  nElectrons: 400.000000  magneticMoment: [ Abs: 0.01861  Tot: +0.01696 ]
	SubspaceRotationAdjust: set factor to 1
ElecMinimize: Iter:   1  G: -1385.880719738844391  |grad|_K:  8.826e-05  alpha:  6.087e-01  linmin:  3.905e-07  t[s]:   1160.27
	FillingsUpdate:  mu: -0.011042546  nElectrons: 400.000000  magneticMoment: [ Abs: 0.01242  Tot: +0.01169 ]
	SubspaceRotationAdjust: set factor to 0.573
ElecMinimize: Iter:   2  G: -1386.315527789881344  |grad|_K:  1.036e-04  alpha:  3.984e-01  linmin: -7.516e-07  t[s]:   1207.88
	FillingsUpdate:  mu: -0.100850647  nElectrons: 400.000000  magneticMoment: [ Abs: 0.00937  Tot: +0.00761 ]
	SubspaceRotationAdjust: set factor to 0.267
ElecMinimize: Iter:   3  G: -1386.555397571405138  |grad|_K:  3.345e-05  alpha:  1.785e-01  linmin:  1.663e-05  t[s]:   1255.10
ElecMinimize: 	Predicted alpha/alphaT>3.000000, increasing alphaT to 5.353610e-01.
	FillingsUpdate:  mu: -0.094361767  nElectrons: 400.000000  magneticMoment: [ Abs: 0.01115  Tot: +0.00562 ]
	SubspaceRotationAdjust: set factor to 0.292
ElecMinimize: Iter:   4  G: -1386.675252351350764  |grad|_K:  1.701e-05  alpha:  8.199e-01  linmin:  1.566e-05  t[s]:   1316.82
	FillingsUpdate:  mu: -0.091553297  nElectrons: 400.000000  magneticMoment: [ Abs: 0.01144  Tot: +0.00535 ]
	SubspaceRotationAdjust: set factor to 0.301
ElecMinimize: Iter:   5  G: -1386.702304290327447  |grad|_K:  1.176e-05  alpha:  6.805e-01  linmin: -1.017e-07  t[s]:   1364.08
	FillingsUpdate:  mu: -0.096599883  nElectrons: 400.000000  magneticMoment: [ Abs: 0.01128  Tot: +0.00540 ]
	SubspaceRotationAdjust: set factor to 0.325
ElecMinimize: Iter:   6  G: -1386.712236075233932  |grad|_K:  7.272e-06  alpha:  5.202e-01  linmin:  4.139e-08  t[s]:   1411.32
	FillingsUpdate:  mu: -0.092228074  nElectrons: 400.000000  magneticMoment: [ Abs: 0.01093  Tot: +0.00559 ]
	SubspaceRotationAdjust: set factor to 0.346
ElecMinimize: Iter:   7  G: -1386.716729255188966  |grad|_K:  5.324e-06  alpha:  6.156e-01  linmin:  1.712e-07  t[s]:   1458.51
	FillingsUpdate:  mu: -0.095618335  nElectrons: 400.000000  magneticMoment: [ Abs: 0.01045  Tot: +0.00580 ]
	SubspaceRotationAdjust: set factor to 0.364
ElecMinimize: Iter:   8  G: -1386.719086893233452  |grad|_K:  3.318e-06  alpha:  6.029e-01  linmin:  5.726e-08  t[s]:   1505.56
	FillingsUpdate:  mu: -0.093255814  nElectrons: 400.000000  magneticMoment: [ Abs: 0.01002  Tot: +0.00594 ]
	SubspaceRotationAdjust: set factor to 0.355
ElecMinimize: Iter:   9  G: -1386.720004741492630  |grad|_K:  2.465e-06  alpha:  6.040e-01  linmin:  2.273e-07  t[s]:   1552.90
	FillingsUpdate:  mu: -0.095563582  nElectrons: 400.000000  magneticMoment: [ Abs: 0.00963  Tot: +0.00601 ]
	SubspaceRotationAdjust: set factor to 0.303
ElecMinimize: Iter:  10  G: -1386.720414230016331  |grad|_K:  1.708e-06  alpha:  4.886e-01  linmin:  8.034e-08  t[s]:   1600.23
	FillingsUpdate:  mu: -0.094255549  nElectrons: 400.000000  magneticMoment: [ Abs: 0.00923  Tot: +0.00602 ]
	SubspaceRotationAdjust: set factor to 0.262
ElecMinimize: Iter:  11  G: -1386.720649139818079  |grad|_K:  1.047e-06  alpha:  5.838e-01  linmin:  3.914e-07  t[s]:   1647.29
	FillingsUpdate:  mu: -0.094801308  nElectrons: 400.000000  magneticMoment: [ Abs: 0.00888  Tot: +0.00597 ]
	SubspaceRotationAdjust: set factor to 0.261
ElecMinimize: Iter:  12  G: -1386.720750539908977  |grad|_K:  7.348e-07  alpha:  6.722e-01  linmin:  5.214e-07  t[s]:   1694.53
	FillingsUpdate:  mu: -0.094729844  nElectrons: 400.000000  magneticMoment: [ Abs: 0.00860  Tot: +0.00589 ]
	SubspaceRotationAdjust: set factor to 0.269
ElecMinimize: Iter:  13  G: -1386.720798863846994  |grad|_K:  5.465e-07  alpha:  6.494e-01  linmin:  5.168e-07  t[s]:   1741.85
	FillingsUpdate:  mu: -0.094876003  nElectrons: 400.000000  magneticMoment: [ Abs: 0.00833  Tot: +0.00577 ]
	SubspaceRotationAdjust: set factor to 0.282
ElecMinimize: Iter:  14  G: -1386.720826272259274  |grad|_K:  4.384e-07  alpha:  6.650e-01  linmin:  3.471e-07  t[s]:   1789.53
	FillingsUpdate:  mu: -0.094792821  nElectrons: 400.000000  magneticMoment: [ Abs: 0.00802  Tot: +0.00560 ]
	SubspaceRotationAdjust: set factor to 0.303
ElecMinimize: Iter:  15  G: -1386.720845926603033  |grad|_K:  3.477e-07  alpha:  7.410e-01  linmin:  1.367e-07  t[s]:   1836.69
	FillingsUpdate:  mu: -0.094780805  nElectrons: 400.000000  magneticMoment: [ Abs: 0.00770  Tot: +0.00540 ]
	SubspaceRotationAdjust: set factor to 0.327
ElecMinimize: Iter:  16  G: -1386.720858945640884  |grad|_K:  2.983e-07  alpha:  7.804e-01  linmin:  5.976e-08  t[s]:   1883.68
	FillingsUpdate:  mu: -0.094912701  nElectrons: 400.000000  magneticMoment: [ Abs: 0.00735  Tot: +0.00516 ]
	SubspaceRotationAdjust: set factor to 0.334
ElecMinimize: Iter:  17  G: -1386.720868182762842  |grad|_K:  2.384e-07  alpha:  7.521e-01  linmin:  2.894e-08  t[s]:   1930.93
	FillingsUpdate:  mu: -0.094741183  nElectrons: 400.000000  magneticMoment: [ Abs: 0.00705  Tot: +0.00494 ]
	SubspaceRotationAdjust: set factor to 0.315
ElecMinimize: Iter:  18  G: -1386.720873523952605  |grad|_K:  1.881e-07  alpha:  6.807e-01  linmin:  6.387e-08  t[s]:   1978.10
	FillingsUpdate:  mu: -0.094888785  nElectrons: 400.000000  magneticMoment: [ Abs: 0.00681  Tot: +0.00475 ]
	SubspaceRotationAdjust: set factor to 0.282
ElecMinimize: Iter:  19  G: -1386.720876207045194  |grad|_K:  1.390e-07  alpha:  5.493e-01  linmin:  7.024e-08  t[s]:   2025.33
	FillingsUpdate:  mu: -0.094782810  nElectrons: 400.000000  magneticMoment: [ Abs: 0.00659  Tot: +0.00458 ]
	SubspaceRotationAdjust: set factor to 0.274
ElecMinimize: Iter:  20  G: -1386.720877775096824  |grad|_K:  9.734e-08  alpha:  5.879e-01  linmin:  2.894e-07  t[s]:   2072.67
	FillingsUpdate:  mu: -0.094814829  nElectrons: 400.000000  magneticMoment: [ Abs: 0.00638  Tot: +0.00443 ]
	SubspaceRotationAdjust: set factor to 0.297
ElecMinimize: Iter:  21  G: -1386.720878612254637  |grad|_K:  6.754e-08  alpha:  6.401e-01  linmin:  1.744e-07  t[s]:   2120.16
	FillingsUpdate:  mu: -0.094810773  nElectrons: 400.000000  magneticMoment: [ Abs: 0.00622  Tot: +0.00431 ]
	SubspaceRotationAdjust: set factor to 0.341
ElecMinimize: Iter:  22  G: -1386.720879001294406  |grad|_K:  4.854e-08  alpha:  6.179e-01  linmin:  1.288e-08  t[s]:   2167.32
	FillingsUpdate:  mu: -0.094787431  nElectrons: 400.000000  magneticMoment: [ Abs: 0.00606  Tot: +0.00419 ]
	SubspaceRotationAdjust: set factor to 0.372
ElecMinimize: Iter:  23  G: -1386.720879199154297  |grad|_K:  3.498e-08  alpha:  6.083e-01  linmin: -9.627e-09  t[s]:   2214.78
	FillingsUpdate:  mu: -0.094810283  nElectrons: 400.000000  magneticMoment: [ Abs: 0.00590  Tot: +0.00408 ]
	SubspaceRotationAdjust: set factor to 0.366
ElecMinimize: Iter:  24  G: -1386.720879292770405  |grad|_K:  2.516e-08  alpha:  5.544e-01  linmin: -8.025e-09  t[s]:   2261.91
	FillingsUpdate:  mu: -0.094788443  nElectrons: 400.000000  magneticMoment: [ Abs: 0.00575  Tot: +0.00397 ]
	SubspaceRotationAdjust: set factor to 0.321
ElecMinimize: Iter:  25  G: -1386.720879338401346  |grad|_K:  1.809e-08  alpha:  5.219e-01  linmin: -7.885e-09  t[s]:   2308.96
	FillingsUpdate:  mu: -0.094801689  nElectrons: 400.000000  magneticMoment: [ Abs: 0.00559  Tot: +0.00386 ]
	SubspaceRotationAdjust: set factor to 0.297
ElecMinimize: Iter:  26  G: -1386.720879361763991  |grad|_K:  1.209e-08  alpha:  5.170e-01  linmin:  1.285e-07  t[s]:   2356.32
	FillingsUpdate:  mu: -0.094799031  nElectrons: 400.000000  magneticMoment: [ Abs: 0.00543  Tot: +0.00375 ]
	SubspaceRotationAdjust: set factor to 0.309
ElecMinimize: Iter:  27  G: -1386.720879374514425  |grad|_K:  8.612e-09  alpha:  6.308e-01  linmin: -4.249e-07  t[s]:   2403.41
	FillingsUpdate:  mu: -0.094797724  nElectrons: 400.000000  magneticMoment: [ Abs: 0.00527  Tot: +0.00364 ]
	SubspaceRotationAdjust: set factor to 0.328
ElecMinimize: Iter:  28  G: -1386.720879381322447  |grad|_K:  6.405e-09  alpha:  6.621e-01  linmin: -1.418e-06  t[s]:   2450.70
	FillingsUpdate:  mu: -0.094801955  nElectrons: 400.000000  magneticMoment: [ Abs: 0.00510  Tot: +0.00352 ]
	SubspaceRotationAdjust: set factor to 0.333
ElecMinimize: Iter:  29  G: -1386.720879385295802  |grad|_K:  5.448e-09  alpha:  6.948e-01  linmin:  4.263e-07  t[s]:   2497.89
ElecMinimize: Converged (|Delta G|<1.000000e-08 for 2 iters).
Setting wave functions to eigenvectors of Hamiltonian
Vacuum energy after initial minimize, F = -1386.720879385295802

Shifting auxilliary hamiltonian by -0.076450 to set nElectrons=400.000000
	Linear fluid (dielectric constant: 78.4, screening length: 5.74355 Bohr) occupying 0.749424 of unit cell:	Completed after 16 iterations at t[s]:   2510.90

-------- Electronic minimization -----------
	Linear fluid (dielectric constant: 78.4, screening length: 5.74355 Bohr) occupying 0.749424 of unit cell:	Completed after 0 iterations at t[s]:   2527.00
	FillingsUpdate:  mu: -0.171251800  nElectrons: 400.000000  magneticMoment: [ Abs: 0.00476  Tot: +0.00328 ]
ElecMinimize: Iter:   0  G: -1386.709923533903293  |grad|_K:  6.056e-06  alpha:  1.000e+00
	Linear fluid (dielectric constant: 78.4, screening length: 5.74355 Bohr) occupying 0.759815 of unit cell:	Completed after 14 iterations at t[s]:   2566.42
	Linear fluid (dielectric constant: 78.4, screening length: 5.74355 Bohr) occupying 0.749435 of unit cell:	Completed after 14 iterations at t[s]:   2589.60
	FillingsUpdate:  mu: -0.171251800  nElectrons: 400.107647  magneticMoment: [ Abs: 0.00475  Tot: +0.00327 ]
	SubspaceRotationAdjust: set factor to 0.172
ElecMinimize: Iter:   1  G: -1386.710199672942736  |grad|_K:  2.401e-06  alpha:  6.304e-02  linmin:  6.651e-03  t[s]:   2614.71
	Linear fluid (dielectric constant: 78.4, screening length: 5.74355 Bohr) occupying 0.749446 of unit cell:	Completed after 2 iterations at t[s]:   2628.52
ElecMinimize: 	Predicted alpha/alphaT>3.000000, increasing alphaT to 1.891156e-01.
	Linear fluid (dielectric constant: 78.4, screening length: 5.74355 Bohr) occupying 0.749468 of unit cell:	Completed after 7 iterations at t[s]:   2647.61
	Linear fluid (dielectric constant: 78.4, screening length: 5.74355 Bohr) occupying 0.749484 of unit cell:	Completed after 6 iterations at t[s]:   2667.35
	FillingsUpdate:  mu: -0.171251800  nElectrons: 400.117485  magneticMoment: [ Abs: 0.00471  Tot: +0.00324 ]
	SubspaceRotationAdjust: set factor to 0.0978
ElecMinimize: Iter:   2  G: -1386.710398232120269  |grad|_K:  1.756e-06  alpha:  2.865e-01  linmin: -1.951e-05  t[s]:   2691.11
	Linear fluid (dielectric constant: 78.4, screening length: 5.74355 Bohr) occupying 0.749572 of unit cell:	Completed after 11 iterations at t[s]:   2706.30
	Linear fluid (dielectric constant: 78.4, screening length: 5.74355 Bohr) occupying 0.749548 of unit cell:	Completed after 8 iterations at t[s]:   2727.58
	FillingsUpdate:  mu: -0.171251800  nElectrons: 400.191927  magneticMoment: [ Abs: 0.00468  Tot: +0.00322 ]
	SubspaceRotationAdjust: set factor to 0.0454
ElecMinimize: Iter:   3  G: -1386.710492814526560  |grad|_K:  9.284e-07  alpha:  2.227e-01  linmin: -4.598e-04  t[s]:   2751.52
	Linear fluid (dielectric constant: 78.4, screening length: 5.74355 Bohr) occupying 0.749571 of unit cell:	Completed after 6 iterations at t[s]:   2766.16
	Linear fluid (dielectric constant: 78.4, screening length: 5.74355 Bohr) occupying 0.749610 of unit cell:	Completed after 8 iterations at t[s]:   2786.17
	FillingsUpdate:  mu: -0.171251800  nElectrons: 400.202326  magneticMoment: [ Abs: 0.00463  Tot: +0.00320 ]
	SubspaceRotationAdjust: set factor to 0.0243
	SubspaceRotationAdjust: resetting CG because factor has changed by 0.0728792
	Linear fluid (dielectric constant: 78.4, screening length: 5.74355 Bohr) occupying 0.749610 of unit cell:	Completed after 0 iterations at t[s]:   2817.89
ElecMinimize: 	State modified externally: resetting search direction.
ElecMinimize: Iter:   4  G: -1386.710562278355837  |grad|_K:  3.888e-07  alpha:  5.865e-01
	Linear fluid (dielectric constant: 78.4, screening length: 5.74355 Bohr) occupying 0.749610 of unit cell:	Completed after 6 iterations at t[s]:   2854.13
	Linear fluid (dielectric constant: 78.4, screening length: 5.74355 Bohr) occupying 0.749610 of unit cell:	Completed after 0 iterations at t[s]:   2872.65
	FillingsUpdate:  mu: -0.171251800  nElectrons: 400.208123  magneticMoment: [ Abs: 0.00462  Tot: +0.00319 ]
	SubspaceRotationAdjust: set factor to 0.0148
ElecMinimize: Iter:   5  G: -1386.710574524601498  |grad|_K:  2.427e-07  alpha:  5.866e-01  linmin:  2.397e-04  t[s]:   2894.58
	Linear fluid (dielectric constant: 78.4, screening length: 5.74355 Bohr) occupying 0.749609 of unit cell:	Completed after 3 iterations at t[s]:   2908.46
	Linear fluid (dielectric constant: 78.4, screening length: 5.74355 Bohr) occupying 0.749609 of unit cell:	Completed after 0 iterations at t[s]:   2926.22
	FillingsUpdate:  mu: -0.171251800  nElectrons: 400.212895  magneticMoment: [ Abs: 0.00460  Tot: +0.00319 ]
	SubspaceRotationAdjust: set factor to 0.0153
ElecMinimize: Iter:   6  G: -1386.710580026949401  |grad|_K:  1.445e-07  alpha:  6.750e-01  linmin: -2.141e-03  t[s]:   2948.66
	Linear fluid (dielectric constant: 78.4, screening length: 5.74355 Bohr) occupying 0.749609 of unit cell:	Completed after 2 iterations at t[s]:   2962.35
	Linear fluid (dielectric constant: 78.4, screening length: 5.74355 Bohr) occupying 0.749610 of unit cell:	Completed after 2 iterations at t[s]:   2980.30
	FillingsUpdate:  mu: -0.171251800  nElectrons: 400.214525  magneticMoment: [ Abs: 0.00459  Tot: +0.00318 ]
	SubspaceRotationAdjust: set factor to 0.017
ElecMinimize: Iter:   7  G: -1386.710582983799441  |grad|_K:  9.532e-08  alpha:  9.945e-01  linmin:  7.607e-04  t[s]:   3002.89
	Linear fluid (dielectric constant: 78.4, screening length: 5.74355 Bohr) occupying 0.749613 of unit cell:	Completed after 2 iterations at t[s]:   3016.79
	Linear fluid (dielectric constant: 78.4, screening length: 5.74355 Bohr) occupying 0.749612 of unit cell:	Completed after 0 iterations at t[s]:   3034.41
	FillingsUpdate:  mu: -0.171251800  nElectrons: 400.215690  magneticMoment: [ Abs: 0.00458  Tot: +0.00318 ]
	SubspaceRotationAdjust: set factor to 0.0205
ElecMinimize: Iter:   8  G: -1386.710583720504701  |grad|_K:  8.742e-08  alpha:  6.098e-01  linmin:  1.683e-04  t[s]:   3056.60
	Linear fluid (dielectric constant: 78.4, screening length: 5.74355 Bohr) occupying 0.749615 of unit cell:	Completed after 0 iterations at t[s]:   3069.73
	Linear fluid (dielectric constant: 78.4, screening length: 5.74355 Bohr) occupying 0.749616 of unit cell:	Completed after 3 iterations at t[s]:   3087.63
	FillingsUpdate:  mu: -0.171251800  nElectrons: 400.218791  magneticMoment: [ Abs: 0.00457  Tot: +0.00317 ]
	SubspaceRotationAdjust: set factor to 0.0235
ElecMinimize: Iter:   9  G: -1386.710584479040563  |grad|_K:  9.001e-08  alpha:  9.177e-01  linmin:  6.972e-04  t[s]:   3110.54
	Linear fluid (dielectric constant: 78.4, screening length: 5.74355 Bohr) occupying 0.749620 of unit cell:	Completed after 5 iterations at t[s]:   3125.10
	Linear fluid (dielectric constant: 78.4, screening length: 5.74355 Bohr) occupying 0.749619 of unit cell:	Completed after 0 iterations at t[s]:   3143.33
	FillingsUpdate:  mu: -0.171251800  nElectrons: 400.221115  magneticMoment: [ Abs: 0.00455  Tot: +0.00316 ]
	SubspaceRotationAdjust: set factor to 0.0279
ElecMinimize: Iter:  10  G: -1386.710585008175030  |grad|_K:  8.697e-08  alpha:  6.211e-01  linmin:  1.311e-04  t[s]:   3165.44
	Linear fluid (dielectric constant: 78.4, screening length: 5.74355 Bohr) occupying 0.749618 of unit cell:	Completed after 2 iterations at t[s]:   3179.27
	Linear fluid (dielectric constant: 78.4, screening length: 5.74355 Bohr) occupying 0.749617 of unit cell:	Completed after 0 iterations at t[s]:   3197.06
	FillingsUpdate:  mu: -0.171251800  nElectrons: 400.221896  magneticMoment: [ Abs: 0.00453  Tot: +0.00315 ]
	SubspaceRotationAdjust: set factor to 0.0351
ElecMinimize: Iter:  11  G: -1386.710585757168474  |grad|_K:  9.837e-08  alpha:  7.208e-01  linmin: -2.165e-04  t[s]:   3219.23
	Linear fluid (dielectric constant: 78.4, screening length: 5.74355 Bohr) occupying 0.749612 of unit cell:	Completed after 3 iterations at t[s]:   3233.14
	Linear fluid (dielectric constant: 78.4, screening length: 5.74355 Bohr) occupying 0.749611 of unit cell:	Completed after 0 iterations at t[s]:   3251.16
	FillingsUpdate:  mu: -0.171251800  nElectrons: 400.221273  magneticMoment: [ Abs: 0.00450  Tot: +0.00312 ]
	SubspaceRotationAdjust: set factor to 0.0371
ElecMinimize: Iter:  12  G: -1386.710586900443332  |grad|_K:  1.135e-07  alpha:  7.625e-01  linmin: -1.232e-04  t[s]:   3272.99
	Linear fluid (dielectric constant: 78.4, screening length: 5.74355 Bohr) occupying 0.749602 of unit cell:	Completed after 0 iterations at t[s]:   3286.21
	Linear fluid (dielectric constant: 78.4, screening length: 5.74355 Bohr) occupying 0.749599 of unit cell:	Completed after 2 iterations at t[s]:   3303.45
	FillingsUpdate:  mu: -0.171251800  nElectrons: 400.221761  magneticMoment: [ Abs: 0.00444  Tot: +0.00308 ]
	SubspaceRotationAdjust: set factor to 0.0406
ElecMinimize: Iter:  13  G: -1386.710588526694664  |grad|_K:  1.310e-07  alpha:  9.419e-01  linmin:  1.064e-04  t[s]:   3326.21
	Linear fluid (dielectric constant: 78.4, screening length: 5.74355 Bohr) occupying 0.749587 of unit cell:	Completed after 3 iterations at t[s]:   3340.12
	Linear fluid (dielectric constant: 78.4, screening length: 5.74355 Bohr) occupying 0.749590 of unit cell:	Completed after 0 iterations at t[s]:   3358.04
	FillingsUpdate:  mu: -0.171251800  nElectrons: 400.224781  magneticMoment: [ Abs: 0.00437  Tot: +0.00303 ]
	SubspaceRotationAdjust: set factor to 0.0398
ElecMinimize: Iter:  14  G: -1386.710590021265261  |grad|_K:  1.463e-07  alpha:  6.717e-01  linmin:  6.332e-05  t[s]:   3380.27
	Linear fluid (dielectric constant: 78.4, screening length: 5.74355 Bohr) occupying 0.749580 of unit cell:	Completed after 2 iterations at t[s]:   3393.89
	Linear fluid (dielectric constant: 78.4, screening length: 5.74355 Bohr) occupying 0.749583 of unit cell:	Completed after 0 iterations at t[s]:   3411.87
	FillingsUpdate:  mu: -0.171251800  nElectrons: 400.226715  magneticMoment: [ Abs: 0.00429  Tot: +0.00297 ]
	SubspaceRotationAdjust: set factor to 0.041
ElecMinimize: Iter:  15  G: -1386.710591427066902  |grad|_K:  1.022e-07  alpha:  5.179e-01  linmin: -8.399e-06  t[s]:   3433.76
	Linear fluid (dielectric constant: 78.4, screening length: 5.74355 Bohr) occupying 0.749581 of unit cell:	Completed after 0 iterations at t[s]:   3446.86
	Linear fluid (dielectric constant: 78.4, screening length: 5.74355 Bohr) occupying 0.749581 of unit cell:	Completed after 2 iterations at t[s]:   3464.37
	FillingsUpdate:  mu: -0.171251800  nElectrons: 400.227626  magneticMoment: [ Abs: 0.00424  Tot: +0.00294 ]
	SubspaceRotationAdjust: set factor to 0.041
ElecMinimize: Iter:  16  G: -1386.710592251116168  |grad|_K:  8.856e-08  alpha:  6.563e-01  linmin:  1.266e-04  t[s]:   3486.78
	Linear fluid (dielectric constant: 78.4, screening length: 5.74355 Bohr) occupying 0.749582 of unit cell:	Completed after 2 iterations at t[s]:   3500.48
	Linear fluid (dielectric constant: 78.4, screening length: 5.74355 Bohr) occupying 0.749581 of unit cell:	Completed after 0 iterations at t[s]:   3518.16
	FillingsUpdate:  mu: -0.171251800  nElectrons: 400.228357  magneticMoment: [ Abs: 0.00420  Tot: +0.00291 ]
	SubspaceRotationAdjust: set factor to 0.0441
ElecMinimize: Iter:  17  G: -1386.710592656457720  |grad|_K:  5.990e-08  alpha:  4.290e-01  linmin:  1.957e-05  t[s]:   3540.05
	Linear fluid (dielectric constant: 78.4, screening length: 5.74355 Bohr) occupying 0.749583 of unit cell:	Completed after 0 iterations at t[s]:   3553.16
	Linear fluid (dielectric constant: 78.4, screening length: 5.74355 Bohr) occupying 0.749583 of unit cell:	Completed after 0 iterations at t[s]:   3570.18
	FillingsUpdate:  mu: -0.171251800  nElectrons: 400.229583  magneticMoment: [ Abs: 0.00418  Tot: +0.00290 ]
	SubspaceRotationAdjust: set factor to 0.0533
ElecMinimize: Iter:  18  G: -1386.710592918828297  |grad|_K:  5.287e-08  alpha:  5.357e-01  linmin:  1.283e-07  t[s]:   3592.03
	Linear fluid (dielectric constant: 78.4, screening length: 5.74355 Bohr) occupying 0.749585 of unit cell:	Completed after 3 iterations at t[s]:   3605.90
	Linear fluid (dielectric constant: 78.4, screening length: 5.74355 Bohr) occupying 0.749584 of unit cell:	Completed after 0 iterations at t[s]:   3623.65
	FillingsUpdate:  mu: -0.171251800  nElectrons: 400.230345  magneticMoment: [ Abs: 0.00416  Tot: +0.00289 ]
	SubspaceRotationAdjust: set factor to 0.0449
ElecMinimize: Iter:  19  G: -1386.710592970611742  |grad|_K:  6.774e-08  alpha:  2.184e-01  linmin:  2.985e-04  t[s]:   3645.76
	Linear fluid (dielectric constant: 78.4, screening length: 5.74355 Bohr) occupying 0.749584 of unit cell:	Completed after 0 iterations at t[s]:   3659.26
	Linear fluid (dielectric constant: 78.4, screening length: 5.74355 Bohr) occupying 0.749584 of unit cell:	Completed after 0 iterations at t[s]:   3676.16
	FillingsUpdate:  mu: -0.171251800  nElectrons: 400.230488  magneticMoment: [ Abs: 0.00415  Tot: +0.00288 ]
	SubspaceRotationAdjust: set factor to 0.051
ElecMinimize: Iter:  20  G: -1386.710593042486835  |grad|_K:  6.138e-08  alpha:  1.705e-01  linmin: -6.468e-08  t[s]:   3697.92
	Linear fluid (dielectric constant: 78.4, screening length: 5.74355 Bohr) occupying 0.749583 of unit cell:	Completed after 1 iterations at t[s]:   3711.52
	Linear fluid (dielectric constant: 78.4, screening length: 5.74355 Bohr) occupying 0.749584 of unit cell:	Completed after 0 iterations at t[s]:   3729.16
ElecMinimize: 	Step increased G by 1.910553e-08, reducing alpha to 7.547412e-03.
	Linear fluid (dielectric constant: 78.4, screening length: 5.74355 Bohr) occupying 0.749584 of unit cell:	Completed after 0 iterations at t[s]:   3761.91
ElecMinimize: 	Step increased G by 3.566265e-08, reducing alpha to 7.547412e-04.
	Linear fluid (dielectric constant: 78.4, screening length: 5.74355 Bohr) occupying 0.749584 of unit cell:	Completed after 0 iterations at t[s]:   3795.03
ElecMinimize: 	Step increased G by 3.821037e-08, reducing alpha to 7.547412e-05.
ElecMinimize: 	Step failed to reduce G after 3 attempts. Quitting step.
ElecMinimize: 	Undoing step.
	Linear fluid (dielectric constant: 78.4, screening length: 5.74355 Bohr) occupying 0.749584 of unit cell:	Completed after 0 iterations at t[s]:   3828.23
ElecMinimize: 	Step failed: resetting search direction.
	FillingsUpdate:  mu: -0.171251800  nElectrons: 400.230486  magneticMoment: [ Abs: 0.00415  Tot: +0.00288 ]
	SubspaceRotationAdjust: set factor to 0.0617
ElecMinimize: Iter:  21  G: -1386.710593004248494  |grad|_K:  3.918e-08  alpha:  7.547e-05
	Linear fluid (dielectric constant: 78.4, screening length: 5.74355 Bohr) occupying 0.749584 of unit cell:	Completed after 0 iterations at t[s]:   3863.34
	Linear fluid (dielectric constant: 78.4, screening length: 5.74355 Bohr) occupying 0.749583 of unit cell:	Completed after 0 iterations at t[s]:   3880.77
	FillingsUpdate:  mu: -0.171251800  nElectrons: 400.229960  magneticMoment: [ Abs: 0.00414  Tot: +0.00287 ]
	SubspaceRotationAdjust: set factor to 0.0747
ElecMinimize: Iter:  22  G: -1386.710593110513400  |grad|_K:  2.866e-08  alpha:  5.017e-01  linmin:  2.830e-06  t[s]:   3902.57
	Linear fluid (dielectric constant: 78.4, screening length: 5.74355 Bohr) occupying 0.749581 of unit cell:	Completed after 0 iterations at t[s]:   3915.55
	Linear fluid (dielectric constant: 78.4, screening length: 5.74355 Bohr) occupying 0.749580 of unit cell:	Completed after 1 iterations at t[s]:   3933.13
	FillingsUpdate:  mu: -0.171251800  nElectrons: 400.228570  magneticMoment: [ Abs: 0.00412  Tot: +0.00286 ]
	SubspaceRotationAdjust: set factor to 0.0802
ElecMinimize: Iter:  23  G: -1386.710593122929140  |grad|_K:  3.350e-08  alpha:  7.448e-01  linmin:  2.153e-04  t[s]:   3955.80
	Linear fluid (dielectric constant: 78.4, screening length: 5.74355 Bohr) occupying 0.749577 of unit cell:	Completed after 2 iterations at t[s]:   3969.68
	Linear fluid (dielectric constant: 78.4, screening length: 5.74355 Bohr) occupying 0.749580 of unit cell:	Completed after 0 iterations at t[s]:   3987.32
ElecMinimize: 	Step increased G by 4.848971e-09, reducing alpha to 1.927618e-02.
	Linear fluid (dielectric constant: 78.4, screening length: 5.74355 Bohr) occupying 0.749580 of unit cell:	Completed after 0 iterations at t[s]:   4020.42
	FillingsUpdate:  mu: -0.171251800  nElectrons: 400.228521  magneticMoment: [ Abs: 0.00412  Tot: +0.00286 ]
	SubspaceRotationAdjust: set factor to 0.0581
ElecMinimize: Iter:  24  G: -1386.710593142120160  |grad|_K:  7.499e-08  alpha:  1.928e-02  linmin:  1.157e-04  t[s]:   4042.19
	Linear fluid (dielectric constant: 78.4, screening length: 5.74355 Bohr) occupying 0.749580 of unit cell:	Completed after 0 iterations at t[s]:   4055.53
ElecMinimize: 	Predicted alpha/alphaT>3.000000, increasing alphaT to 5.782855e-02.
	Linear fluid (dielectric constant: 78.4, screening length: 5.74355 Bohr) occupying 0.749580 of unit cell:	Completed after 0 iterations at t[s]:   4072.34
	Linear fluid (dielectric constant: 78.4, screening length: 5.74355 Bohr) occupying 0.749579 of unit cell:	Completed after 0 iterations at t[s]:   4089.68
	FillingsUpdate:  mu: -0.171251800  nElectrons: 400.227969  magneticMoment: [ Abs: 0.00408  Tot: +0.00283 ]
	SubspaceRotationAdjust: set factor to 0.0429
ElecMinimize: Iter:  25  G: -1386.710593195705997  |grad|_K:  6.389e-08  alpha:  1.098e-01  linmin: -3.204e-07  t[s]:   4111.74
	Linear fluid (dielectric constant: 78.4, screening length: 5.74355 Bohr) occupying 0.749578 of unit cell:	Completed after 2 iterations at t[s]:   4125.57
	Linear fluid (dielectric constant: 78.4, screening length: 5.74355 Bohr) occupying 0.749579 of unit cell:	Completed after 0 iterations at t[s]:   4143.02
ElecMinimize: 	Step increased G by 2.604133e-08, reducing alpha to 4.664069e-03.
	Linear fluid (dielectric constant: 78.4, screening length: 5.74355 Bohr) occupying 0.749579 of unit cell:	Completed after 0 iterations at t[s]:   4175.62
ElecMinimize: 	Step increased G by 3.915807e-08, reducing alpha to 4.664069e-04.
	Linear fluid (dielectric constant: 78.4, screening length: 5.74355 Bohr) occupying 0.749579 of unit cell:	Completed after 0 iterations at t[s]:   4208.35
ElecMinimize: 	Step increased G by 4.093090e-08, reducing alpha to 4.664069e-05.
ElecMinimize: 	Step failed to reduce G after 3 attempts. Quitting step.
ElecMinimize: 	Undoing step.
	Linear fluid (dielectric constant: 78.4, screening length: 5.74355 Bohr) occupying 0.749579 of unit cell:	Completed after 0 iterations at t[s]:   4240.96
ElecMinimize: 	Step failed: resetting search direction.
	FillingsUpdate:  mu: -0.171251800  nElectrons: 400.227970  magneticMoment: [ Abs: 0.00408  Tot: +0.00283 ]
	SubspaceRotationAdjust: set factor to 0.0643
ElecMinimize: Iter:  26  G: -1386.710593154755543  |grad|_K:  2.899e-08  alpha:  4.664e-05
	Linear fluid (dielectric constant: 78.4, screening length: 5.74355 Bohr) occupying 0.749579 of unit cell:	Completed after 0 iterations at t[s]:   4276.13
ElecMinimize: 	Predicted alpha/alphaT>3.000000, increasing alphaT to 3.293546e-01.
	Linear fluid (dielectric constant: 78.4, screening length: 5.74355 Bohr) occupying 0.749580 of unit cell:	Completed after 0 iterations at t[s]:   4293.36
ElecMinimize: 	Predicted alpha/alphaT>3.000000, increasing alphaT to 9.880637e-01.
	Linear fluid (dielectric constant: 78.4, screening length: 5.74355 Bohr) occupying 0.749582 of unit cell:	Completed after 0 iterations at t[s]:   4310.40
	Linear fluid (dielectric constant: 78.4, screening length: 5.74355 Bohr) occupying 0.749582 of unit cell:	Completed after 0 iterations at t[s]:   4327.77
	FillingsUpdate:  mu: -0.171251800  nElectrons: 400.229590  magneticMoment: [ Abs: 0.00407  Tot: +0.00282 ]
	SubspaceRotationAdjust: set factor to 0.0734
ElecMinimize: Iter:  27  G: -1386.710593250067177  |grad|_K:  3.770e-08  alpha:  1.030e+00  linmin:  1.885e-04  t[s]:   4349.85
	Linear fluid (dielectric constant: 78.4, screening length: 5.74355 Bohr) occupying 0.749590 of unit cell:	Completed after 6 iterations at t[s]:   4364.40
	Linear fluid (dielectric constant: 78.4, screening length: 5.74355 Bohr) occupying 0.749583 of unit cell:	Completed after 3 iterations at t[s]:   4383.43
	FillingsUpdate:  mu: -0.171251800  nElectrons: 400.229981  magneticMoment: [ Abs: 0.00406  Tot: +0.00282 ]
	SubspaceRotationAdjust: set factor to 0.0477
ElecMinimize: Iter:  28  G: -1386.710593251481214  |grad|_K:  8.326e-08  alpha:  9.384e-02  linmin:  1.265e-03  t[s]:   4406.03
ElecMinimize: 	Bad step direction: g.d > 0.
ElecMinimize: 	Undoing step.
	Linear fluid (dielectric constant: 78.4, screening length: 5.74355 Bohr) occupying 0.749583 of unit cell:	Completed after 0 iterations at t[s]:   4419.28
ElecMinimize: 	Step failed: resetting search direction.
	FillingsUpdate:  mu: -0.171251800  nElectrons: 400.229981  magneticMoment: [ Abs: 0.00406  Tot: +0.00282 ]
	SubspaceRotationAdjust: set factor to 0.0348
ElecMinimize: Iter:  29  G: -1386.710593251479395  |grad|_K:  7.115e-08  alpha:  0.000e+00
	Linear fluid (dielectric constant: 78.4, screening length: 5.74355 Bohr) occupying 0.749582 of unit cell:	Completed after 0 iterations at t[s]:   4454.61
ElecMinimize: 	Predicted alpha/alphaT>3.000000, increasing alphaT to 2.815175e-01.
	Linear fluid (dielectric constant: 78.4, screening length: 5.74355 Bohr) occupying 0.749581 of unit cell:	Completed after 4 iterations at t[s]:   4472.41
	Linear fluid (dielectric constant: 78.4, screening length: 5.74355 Bohr) occupying 0.749582 of unit cell:	Completed after 0 iterations at t[s]:   4490.65
	FillingsUpdate:  mu: -0.171251800  nElectrons: 400.229061  magneticMoment: [ Abs: 0.00406  Tot: +0.00282 ]
	SubspaceRotationAdjust: set factor to 0.0161
ElecMinimize: Iter:  30  G: -1386.710593310583590  |grad|_K:  3.030e-08  alpha:  1.464e-01  linmin:  2.263e-03  t[s]:   4512.83
	Linear fluid (dielectric constant: 78.4, screening length: 5.74355 Bohr) occupying 0.749582 of unit cell:	Completed after 2 iterations at t[s]:   4526.63
	Linear fluid (dielectric constant: 78.4, screening length: 5.74355 Bohr) occupying 0.749582 of unit cell:	Completed after 0 iterations at t[s]:   4544.54
ElecMinimize: 	Step increased G by 7.231051e-08, reducing alpha to 2.229450e-03.
	Linear fluid (dielectric constant: 78.4, screening length: 5.74355 Bohr) occupying 0.749582 of unit cell:	Completed after 0 iterations at t[s]:   4577.65
ElecMinimize: 	Step increased G by 7.347739e-08, reducing alpha to 2.229450e-04.
	Linear fluid (dielectric constant: 78.4, screening length: 5.74355 Bohr) occupying 0.749582 of unit cell:	Completed after 0 iterations at t[s]:   4610.50
ElecMinimize: 	Step increased G by 7.359927e-08, reducing alpha to 2.229450e-05.
ElecMinimize: 	Step failed to reduce G after 3 attempts. Quitting step.
ElecMinimize: 	Undoing step.
	Linear fluid (dielectric constant: 78.4, screening length: 5.74355 Bohr) occupying 0.749582 of unit cell:	Completed after 0 iterations at t[s]:   4643.32
ElecMinimize: 	Step failed: resetting search direction.
	FillingsUpdate:  mu: -0.171251800  nElectrons: 400.229061  magneticMoment: [ Abs: 0.00406  Tot: +0.00282 ]
	SubspaceRotationAdjust: set factor to 0.0111
ElecMinimize: Iter:  31  G: -1386.710593236982959  |grad|_K:  1.568e-08  alpha:  2.229e-05
	Linear fluid (dielectric constant: 78.4, screening length: 5.74355 Bohr) occupying 0.749582 of unit cell:	Completed after 0 iterations at t[s]:   4678.52
	Linear fluid (dielectric constant: 78.4, screening length: 5.74355 Bohr) occupying 0.749582 of unit cell:	Completed after 0 iterations at t[s]:   4695.80
	FillingsUpdate:  mu: -0.171251800  nElectrons: 400.228919  magneticMoment: [ Abs: 0.00406  Tot: +0.00282 ]
	SubspaceRotationAdjust: set factor to 0.0148
ElecMinimize: Iter:  32  G: -1386.710593251312957  |grad|_K:  1.062e-08  alpha:  4.181e-01  linmin: -3.008e-05  t[s]:   4718.10
	Linear fluid (dielectric constant: 78.4, screening length: 5.74355 Bohr) occupying 0.749582 of unit cell:	Completed after 0 iterations at t[s]:   4731.33
	Linear fluid (dielectric constant: 78.4, screening length: 5.74355 Bohr) occupying 0.749581 of unit cell:	Completed after 0 iterations at t[s]:   4748.39
	FillingsUpdate:  mu: -0.171251800  nElectrons: 400.228515  magneticMoment: [ Abs: 0.00405  Tot: +0.00281 ]
	SubspaceRotationAdjust: set factor to 0.0174
ElecMinimize: Iter:  33  G: -1386.710593267551758  |grad|_K:  1.225e-08  alpha:  1.031e+00  linmin: -4.673e-07  t[s]:   4770.36
	Linear fluid (dielectric constant: 78.4, screening length: 5.74355 Bohr) occupying 0.749581 of unit cell:	Completed after 2 iterations at t[s]:   4783.85
	Linear fluid (dielectric constant: 78.4, screening length: 5.74355 Bohr) occupying 0.749581 of unit cell:	Completed after 0 iterations at t[s]:   4801.89
ElecMinimize: 	Step increased G by 8.016968e-09, reducing alpha to 1.431960e-02.
	Linear fluid (dielectric constant: 78.4, screening length: 5.74355 Bohr) occupying 0.749581 of unit cell:	Completed after 0 iterations at t[s]:   4834.40
	FillingsUpdate:  mu: -0.171251800  nElectrons: 400.228503  magneticMoment: [ Abs: 0.00405  Tot: +0.00281 ]
	SubspaceRotationAdjust: set factor to 0.0162
ElecMinimize: Iter:  34  G: -1386.710593272488950  |grad|_K:  3.382e-08  alpha:  1.432e-02  linmin:  7.554e-04  t[s]:   4856.54
ElecMinimize: 	Bad step direction: g.d > 0.
ElecMinimize: 	Undoing step.
	Linear fluid (dielectric constant: 78.4, screening length: 5.74355 Bohr) occupying 0.749581 of unit cell:	Completed after 0 iterations at t[s]:   4869.89
ElecMinimize: 	Step failed: resetting search direction.
	FillingsUpdate:  mu: -0.171251800  nElectrons: 400.228503  magneticMoment: [ Abs: 0.00405  Tot: +0.00281 ]
	SubspaceRotationAdjust: set factor to 0.0224
ElecMinimize: Iter:  35  G: -1386.710593272486221  |grad|_K:  3.346e-08  alpha:  0.000e+00
	Linear fluid (dielectric constant: 78.4, screening length: 5.74355 Bohr) occupying 0.749581 of unit cell:	Completed after 0 iterations at t[s]:   4904.93
ElecMinimize: 	Predicted alpha/alphaT>3.000000, increasing alphaT to 4.295879e-02.
	Linear fluid (dielectric constant: 78.4, screening length: 5.74355 Bohr) occupying 0.749581 of unit cell:	Completed after 0 iterations at t[s]:   4921.93
ElecMinimize: 	Predicted alpha/alphaT>3.000000, increasing alphaT to 1.288764e-01.
	Linear fluid (dielectric constant: 78.4, screening length: 5.74355 Bohr) occupying 0.749582 of unit cell:	Completed after 0 iterations at t[s]:   4938.78
ElecMinimize: 	Predicted alpha/alphaT>3.000000, increasing alphaT to 3.866291e-01.
	Linear fluid (dielectric constant: 78.4, screening length: 5.74355 Bohr) occupying 0.749583 of unit cell:	Completed after 3 iterations at t[s]:   4956.65
ElecMinimize: 	Step increased G by 4.321691e-07, reducing alpha to 1.377503e-01.
	Linear fluid (dielectric constant: 78.4, screening length: 5.74355 Bohr) occupying 0.749582 of unit cell:	Completed after 1 iterations at t[s]:   4990.58
ElecMinimize: 	Step increased G by 1.219860e-09, reducing alpha to 1.377503e-02.
	Linear fluid (dielectric constant: 78.4, screening length: 5.74355 Bohr) occupying 0.749581 of unit cell:	Completed after 0 iterations at t[s]:   5023.70
ElecMinimize: 	Step increased G by 3.269633e-09, reducing alpha to 1.377503e-03.
ElecMinimize: 	Step failed to reduce G after 3 attempts. Quitting step.
ElecMinimize: 	Undoing step.
	Linear fluid (dielectric constant: 78.4, screening length: 5.74355 Bohr) occupying 0.749581 of unit cell:	Completed after 0 iterations at t[s]:   5056.70
ElecMinimize: 	Step failed along negative gradient direction.
ElecMinimize: Probably at roundoff error limit. (Stopping)
Setting wave functions to eigenvectors of Hamiltonian
Single-point solvation energy estimate, DeltaG = +0.010286116091493

# Ionic positions in lattice coordinates:
ion V   0.000000007187500   0.000000004916667   0.499999995675510 1
ion V   0.250000007187500   0.000000004916667   0.499999995675510 1
ion V   0.500000007187500   0.000000004916667   0.499999995675510 1
ion V   0.750000007187500   0.000000004916667   0.499999995675510 1
ion V   0.000000007187500   0.250000004916667   0.499999995675510 1
ion V   0.250000007187500   0.250000004916667   0.499999995675510 1
ion V   0.500000007187500   0.250000004916667   0.499999995675510 1
ion V   0.750000007187500   0.250000004916667   0.499999995675510 1
ion V   0.000000007187500   0.500000004916667   0.499999995675510 1
ion V   0.250000007187500   0.500000004916667   0.499999995675510 1
ion V   0.500000007187500   0.500000004916667   0.499999995675510 1
ion V   0.750000007187500   0.500000004916667   0.499999995675510 1
ion V   1.000000007187500   0.750000004916667   0.499999995675510 1
ion V   0.250000007187500   0.750000004916667   0.499999995675510 1
ion V   0.500000007187500   0.750000004916667   0.499999995675510 1
ion V   0.750000007187500   0.750000004916667   0.499999995675510 1
ion Se   0.166666673854167   0.083333338250000   0.587361484715034 1
ion Se   0.083333340520833   0.166666671583333   0.412638506635987 1
ion Se   0.416666673854167   0.083333338250000   0.587361484715034 1
ion Se   0.333333340520833   0.166666671583333   0.412638506635987 1
ion Se   0.666666673854167   0.083333338250000   0.587361484715034 1
ion Se   0.583333340520833   0.166666671583333   0.412638506635987 1
ion Se   0.916666673854167   0.083333338250000   0.587361484715034 1
ion Se   0.833333340520833   0.166666671583333   0.412638506635987 1
ion Se   0.166666673854167   0.333333338250000   0.587361484715034 1
ion Se   0.083333340520833   0.416666671583333   0.412638506635987 1
ion Se   0.416666673854167   0.333333338250000   0.587361484715034 1
ion Se   0.333333340520833   0.416666671583333   0.412638506635987 1
ion Se   0.666666673854167   0.333333338250000   0.587361484715034 1
ion Se   0.583333340520833   0.416666671583333   0.412638506635987 1
ion Se   0.916666673854167   0.333333338250000   0.587361484715034 1
ion Se   0.833333340520833   0.416666671583333   0.412638506635987 1
ion Se   0.166666673854167   0.583333338250000   0.587361484715034 1
ion Se   0.083333340520833   0.666666671583333   0.412638506635987 1
ion Se   0.416666673854167   0.583333338250000   0.587361484715034 1
ion Se   0.333333340520833   0.666666671583333   0.412638506635987 1
ion Se   0.666666673854167   0.583333338250000   0.587361484715034 1
ion Se   0.583333340520833   0.666666671583333   0.412638506635987 1
ion Se   0.916666673854167   0.583333338250000   0.587361484715034 1
ion Se   0.833333340520833   0.666666671583333   0.412638506635987 1
ion Se   0.166666673854167   0.833333338250000   0.587361484715034 1
ion Se   0.083333340520833   0.916666671583333   0.412638506635987 1
ion Se   0.416666673854167   0.833333338250000   0.587361484715034 1
ion Se   0.333333340520833   0.916666671583333   0.412638506635987 1
ion Se   0.666666673854167   0.833333338250000   0.587361484715034 1
ion Se   0.583333340520833   0.916666671583333   0.412638506635987 1
ion Se   0.916666673854167   0.833333338250000   0.587361484715034 1
ion Se   0.833333340520833   0.916666671583333   0.412638506635987 1


# Forces in Lattice coordinates:
force V  -0.000000000000000   0.000000000000000   0.000000000000000 1
force V  -0.000000000000000   0.000000000000000   0.000000000000000 1
force V  -0.000000000000000   0.000000000000000   0.000000000000000 1
force V   0.000000000000000  -0.000000000000000  -0.000000000000000 1
force V   0.000000000000000  -0.000000000000000  -0.000000000000000 1
force V  -0.000000000000000  -0.000000000000000  -0.000000000000000 1
force V   0.000000000000000  -0.000000000000000  -0.000000000000000 1
force V   0.000000000000000  -0.000000000000000  -0.000000000000000 1
force V  -0.000000000000000   0.000000000000000  -0.000000000000000 1
force V  -0.000000000000000  -0.000000000000000   0.000000000000000 1
force V  -0.000000000000000  -0.000000000000000   0.000000000000000 1
force V   0.000000000000000   0.000000000000000   0.000000000000000 1
force V  -0.000000000000000   0.000000000000000  -0.000000000000000 1
force V  -0.000000000000000  -0.000000000000000   0.000000000000000 1
force V   0.000000000000000  -0.000000000000000   0.000000000000000 1
force V   0.000000000000000   0.000000000000000   0.000000000000000 1
force Se   0.000000000000000  -0.000000000000000  -0.005347831926201 1
force Se  -0.000000000000000   0.000000000000000   0.005347831927226 1
force Se   0.000000000000000  -0.000000000000000  -0.005347831926202 1
force Se  -0.000000000000000   0.000000000000000   0.005347831927113 1
force Se   0.000000000000000  -0.000000000000000  -0.005347831926201 1
force Se  -0.000000000000000   0.000000000000000   0.005347831927113 1
force Se  -0.000000000000000  -0.000000000000000  -0.005347831926201 1
force Se  -0.000000000000000   0.000000000000000   0.005347831927226 1
force Se  -0.000000000000000  -0.000000000000000  -0.005347831926202 1
force Se  -0.000000000000000   0.000000000000000   0.005347831927113 1
force Se   0.000000000000000  -0.000000000000000  -0.005347831926203 1
force Se  -0.000000000000000   0.000000000000000   0.005347831927113 1
force Se   0.000000000000000  -0.000000000000000  -0.005347831926202 1
force Se   0.000000000000000   0.000000000000000   0.005347831927112 1
force Se   0.000000000000000  -0.000000000000000  -0.005347831926203 1
force Se  -0.000000000000000   0.000000000000000   0.005347831927113 1
force Se  -0.000000000000000  -0.000000000000000  -0.005347831926203 1
force Se  -0.000000000000000   0.000000000000000   0.005347831927112 1
force Se   0.000000000000000  -0.000000000000000  -0.005347831926201 1
force Se  -0.000000000000000   0.000000000000000   0.005347831927113 1
force Se   0.000000000000000   0.000000000000000  -0.005347831926203 1
force Se   0.000000000000000   0.000000000000000   0.005347831927113 1
force Se   0.000000000000000  -0.000000000000000  -0.005347831926089 1
force Se   0.000000000000000   0.000000000000000   0.005347831927112 1
force Se   0.000000000000000   0.000000000000000  -0.005347831926088 1
force Se  -0.000000000000000   0.000000000000000   0.005347831927112 1
force Se   0.000000000000000   0.000000000000000  -0.005347831926202 1
force Se  -0.000000000000000   0.000000000000000   0.005347831927112 1
force Se  -0.000000000000000  -0.000000000000000  -0.005347831926201 1
force Se  -0.000000000000000   0.000000000000000   0.005347831926998 1
force Se   0.000000000000000  -0.000000000000000  -0.005347831926202 1
force Se  -0.000000000000000  -0.000000000000000   0.005347831927112 1

# Energy components:
   A_diel =       -0.0070948390707934
   Eewald =     7355.3611886338539989
       EH =     8571.5017814630991779
     Eloc =   -17652.0731385144681553
      Enl =      104.4034292159467014
      Exc =     -632.4143802008056809
 Exc_core =      404.2865653872538587
       KE =      393.7885033608611138
  MuShift =       -0.0024299455444890
-------------------------------------
     Etot =    -1455.1555754388737114
       TS =        0.0948715262871767
-------------------------------------
        F =    -1455.2504469651607906
      muN =      -68.5398536959565519
-------------------------------------
        G =    -1386.7105932692043098

IonicMinimize: Iter:   0  G: -1386.710593269204310  |grad|_K:  7.338e-05  t[s]:   5092.76
IonicMinimize: Converged (|grad|_K<1.000000e-04).

#--- Lowdin population analysis ---
# oxidation-state V +0.555 +0.555 +0.555 +0.555 +0.555 +0.555 +0.555 +0.555 +0.555 +0.555 +0.555 +0.555 +0.555 +0.555 +0.555 +0.555
# magnetic-moments V +0.000 +0.000 +0.000 +0.000 +0.000 +0.000 +0.000 +0.000 +0.000 +0.000 +0.000 +0.000 +0.000 +0.000 +0.000 +0.000
# oxidation-state Se -0.192 -0.192 -0.192 -0.192 -0.192 -0.192 -0.192 -0.192 -0.192 -0.192 -0.192 -0.192 -0.192 -0.192 -0.192 -0.192 -0.192 -0.192 -0.192 -0.192 -0.192 -0.192 -0.192 -0.192 -0.192 -0.192 -0.192 -0.192 -0.192 -0.192 -0.192 -0.192
# magnetic-moments Se -0.000 -0.000 -0.000 -0.000 -0.000 -0.000 -0.000 -0.000 -0.000 -0.000 -0.000 -0.000 -0.000 -0.000 -0.000 -0.000 -0.000 -0.000 -0.000 -0.000 -0.000 -0.000 -0.000 -0.000 -0.000 -0.000 -0.000 -0.000 -0.000 -0.000 -0.000 -0.000


Dumping 'NbTe2.fillings' ... done
Dumping 'NbTe2.wfns' ... done
Dumping 'NbTe2.fluidState' ... done
Dumping 'NbTe2.ionpos' ... done
Dumping 'NbTe2.eigenvals' ... done
End date and time: Thu Feb  4 16:46:33 2021  (Duration: 0-1:24:57.95)
Done!
