
*************** JDFTx 1.5.0  ***************

Start date and time: Thu Jan  7 06:43:05 2021
Executable jdftx_gpu with command-line: -i Charged.in -o Charged.out
Running on hosts (process indices):  amax (0-4)
Divided in process groups (process indices):  0 (0)  1 (1)  2 (2)  3 (3)  4 (4)
gpuInit: Found compatible cuda device 0 'Tesla K80'
gpuInit: Found compatible cuda device 1 'Tesla K80'
gpuInit: Found compatible cuda device 2 'Tesla K80'
gpuInit: Found compatible cuda device 3 'Tesla K80'
gpuInit: Found compatible cuda device 4 'Tesla K80'
gpuInit: Selected device 0
Resource initialization completed at t[s]:      2.96
Run totals: 5 processes, 24 threads, 5 GPUs


Input parsed successfully to the following command list (including defaults):

basis kpoint-dependent
cache-projectors no
coords-type Lattice
core-overlap-check none
coulomb-interaction Slab 001
coulomb-truncation-embed 0.5 0.5 0.5
davidson-band-ratio 1.1
dump End State
dump-name NbTe2.$VAR
elec-cutoff 20
elec-eigen-algo Davidson
elec-ex-corr gga-PBE
elec-initial-charge 0.000000
elec-initial-magnetization 5.000000 no
elec-smearing Gauss 0.0073499
electronic-minimize  \
	dirUpdateScheme      FletcherReeves \
	linminMethod         DirUpdateRecommended \
	nIterations          200 \
	history              15 \
	knormThreshold       0 \
	energyDiffThreshold  1e-08 \
	nEnergyDiff          2 \
	alphaTstart          1 \
	alphaTmin            1e-10 \
	updateTestStepSize   yes \
	alphaTreduceFactor   0.1 \
	alphaTincreaseFactor 3 \
	nAlphaAdjustMax      3 \
	wolfeEnergy          0.0001 \
	wolfeGradient        0.9 \
	fdTest               no
exchange-regularization WignerSeitzTruncated
fluid LinearPCM 298.000000 1.013250
fluid-anion F- 1 MeanFieldLJ \
	epsBulk 1 \
	pMol 0 \
	epsInf 1 \
	Pvap 0 \
	sigmaBulk 0 \
	Rvdw 2.24877 \
	Res 0 \
	tauNuc 343133
fluid-cation Na+ 1 MeanFieldLJ \
	epsBulk 1 \
	pMol 0 \
	epsInf 1 \
	Pvap 0 \
	sigmaBulk 0 \
	Rvdw 2.19208 \
	Res 0 \
	tauNuc 343133
fluid-ex-corr lda-TF lda-PZ
fluid-gummel-loop 10 1.000000e-05
fluid-minimize  \
	dirUpdateScheme      PolakRibiere \
	linminMethod         DirUpdateRecommended \
	nIterations          400 \
	history              15 \
	knormThreshold       1e-11 \
	energyDiffThreshold  0 \
	nEnergyDiff          2 \
	alphaTstart          1 \
	alphaTmin            1e-10 \
	updateTestStepSize   yes \
	alphaTreduceFactor   0.1 \
	alphaTincreaseFactor 3 \
	nAlphaAdjustMax      6 \
	wolfeEnergy          0.0001 \
	wolfeGradient        0.9 \
	fdTest               no
fluid-solvent H2O 55.338 ScalarEOS \
	epsBulk 78.4 \
	pMol 0.92466 \
	epsInf 1.77 \
	Pvap 1.06736e-10 \
	sigmaBulk 4.62e-05 \
	Rvdw 2.61727 \
	Res 1.42 \
	tauNuc 343133 \
	poleEl 15 7 1
forces-output-coords Positions
initial-state NbTe2.$VAR
ion Ta   0.166669984000002   0.083329999999997   0.500000000000000 1
ion Ta   0.416670001999996   0.083329999999997   0.500000000000000 1
ion Ta   0.666670019999998   0.083329999999997   0.500000000000000 1
ion Ta   0.916670037999999   0.083329999999997   0.500000000000000 1
ion Ta   0.166669994000003   0.333330001000000   0.500000000000000 1
ion Ta   0.416669994000003   0.333330001000000   0.500000000000000 1
ion Ta   0.666670011999997   0.333330001000000   0.500000000000000 1
ion Ta   0.916669994000003   0.333330001000000   0.500000000000000 1
ion Ta   0.166669994000003   0.583329982000002   0.500000000000000 1
ion Ta   0.416669994000003   0.583329982000002   0.500000000000000 1
ion Ta   0.666669994000003   0.583329982000002   0.500000000000000 1
ion Ta   0.916670011000001   0.583329982000002   0.500000000000000 1
ion Ta   0.166669992999999   0.833329962999997   0.500000000000000 1
ion Ta   0.416669992999999   0.833329962999997   0.500000000000000 1
ion Ta   0.666670011000001   0.833329962999997   0.500000000000000 1
ion Ta   0.916670029000002   0.833329962999997   0.500000000000000 1
ion S   0.000000000000000   0.000000000000000   0.586319975000002 1
ion S   0.000000000000000   0.000000000000000   0.413679999000003 1
ion S   0.250000000000000   0.000000000000000   0.586319975000002 1
ion S   0.250000000000000   0.000000000000000   0.413679999000003 1
ion S   0.500000000000000   0.000000000000000   0.586319975000002 1
ion S   0.500000000000000   0.000000000000000   0.413679999000003 1
ion S   0.749999981999999   0.000000000000000   0.586319975000002 1
ion S   0.749999981999999   0.000000000000000   0.413679999000003 1
ion S   0.000000000999996   0.250000002000000   0.586319975000002 1
ion S   0.000000000999996   0.250000002000000   0.413679999000003 1
ion S   0.250000000999996   0.250000002000000   0.586319975000002 1
ion S   0.250000000999996   0.250000002000000   0.413679999000003 1
ion S   0.499999991999999   0.250000002000000   0.586319975000002 1
ion S   0.499999991999999   0.250000002000000   0.413679999000003 1
ion S   0.750000010000001   0.250000002000000   0.586319975000002 1
ion S   0.750000010000001   0.250000002000000   0.413679999000003 1
ion S   0.000000002000000   0.500000002999997   0.586319975000002 1
ion S   0.000000002000000   0.500000002999997   0.413679999000003 1
ion S   0.250000002000000   0.500000002999997   0.586319975000002 1
ion S   0.250000002000000   0.500000002999997   0.413679999000003 1
ion S   0.500000002000000   0.500000002999997   0.586319975000002 1
ion S   0.500000002000000   0.500000002999997   0.413679999000003 1
ion S   0.749999965999997   0.500000002999997   0.586319975000002 1
ion S   0.749999965999997   0.500000002999997   0.413679999000003 1
ion S   0.000000022000002   0.750000026000002   0.586319975000002 1
ion S   0.000000022000002   0.750000026000002   0.413679999000003 1
ion S   0.250000022000002   0.750000026000002   0.586319975000002 1
ion S   0.250000022000002   0.750000026000002   0.413679999000003 1
ion S   0.500000022000002   0.750000026000002   0.586319975000002 1
ion S   0.500000022000002   0.750000026000002   0.413679999000003 1
ion S   0.750000004000000   0.750000026000002   0.586319975000002 1
ion S   0.750000004000000   0.750000026000002   0.413679999000003 1
ion-species GBRV/$ID_pbe.uspp
ion-width Ecut
ionic-minimize  \
	dirUpdateScheme      L-BFGS \
	linminMethod         DirUpdateRecommended \
	nIterations          500 \
	history              15 \
	knormThreshold       0.0001 \
	energyDiffThreshold  1e-06 \
	nEnergyDiff          2 \
	alphaTstart          1 \
	alphaTmin            1e-10 \
	updateTestStepSize   yes \
	alphaTreduceFactor   0.1 \
	alphaTincreaseFactor 3 \
	nAlphaAdjustMax      3 \
	wolfeEnergy          0.0001 \
	wolfeGradient        0.9 \
	fdTest               no
kpoint   0.000000000000   0.000000000000   0.000000000000  1.00000000000000
kpoint-folding 4 4 1 
latt-move-scale 1 1 1
latt-scale 1.88973 1.88973 1.88973 
lattice Triclinic 13.3213 13.3213 18.1305 90 90 120
lattice-minimize  \
	dirUpdateScheme      L-BFGS \
	linminMethod         DirUpdateRecommended \
	nIterations          0 \
	history              15 \
	knormThreshold       0 \
	energyDiffThreshold  1e-06 \
	nEnergyDiff          2 \
	alphaTstart          1 \
	alphaTmin            1e-10 \
	updateTestStepSize   yes \
	alphaTreduceFactor   0.1 \
	alphaTincreaseFactor 3 \
	nAlphaAdjustMax      3 \
	wolfeEnergy          0.0001 \
	wolfeGradient        0.9 \
	fdTest               no
lcao-params -1 1e-06 0.0073499
pcm-variant CANDLE
spintype z-spin
subspace-rotation-factor 1 yes
symmetries automatic
symmetry-threshold 0.0001



---------- Setting up symmetries ----------

Found 24 point-group symmetries of the bravais lattice
Found 192 space-group symmetries with basis
Applied RMS atom displacement 6.87527e-05 bohrs to make symmetries exact.

---------- Initializing the Grid ----------
R = 
[    25.1736   -12.5868          0  ]
[          0     21.801          0  ]
[          0          0    34.2617  ]
unit cell volume = 18803.1
G =
[   0.249594   0.144103         -0  ]
[          0   0.288207          0  ]
[          0         -0   0.183388  ]
Minimum fftbox size, Smin = [  104  104  140  ]
Chosen fftbox size, S = [  108  108  140  ]

---------- Exchange Correlation functional ----------
Initalized PBE GGA exchange.
Initalized PBE GGA correlation.

---------- Setting up pseudopotentials ----------
Width of ionic core gaussian charges (only for fluid interactions / plotting) set to 0.397384

Reading pseudopotential file '/home/guoxy/vasp/jdftx-1.5.0/build/pseudopotentials/GBRV/ta_pbe.uspp':
  Title: Ta.  Created by USPP 7.3.6 on 14-9-2013
  Reference state energy: -70.583193.  13 valence electrons in orbitals:
    |500>  occupation: 2  eigenvalue: -2.682396
    |510>  occupation: 6  eigenvalue: -1.447928
    |520>  occupation: 3  eigenvalue: -0.131987
    |600>  occupation: 2  eigenvalue: -0.199982
    |610>  occupation: 0  eigenvalue: -0.051129
  lMax: 3  lLocal: 3  QijEcut: 5
  7 projectors sampled on a log grid with 667 points:
    l: 0  eig: -2.682397  rCut: 1.4
    l: 0  eig: -0.199983  rCut: 1.4
    l: 1  eig: -1.447928  rCut: 1.5
    l: 1  eig: -0.051130  rCut: 1.5
    l: 2  eig: -0.131987  rCut: 1.7
    l: 2  eig: 0.150000  rCut: 1.7
    l: 3  eig: 0.250000  rCut: 2.3
  Partial core density with radius 1.2
  Transforming core density to a uniform radial grid of dG=0.02 with 1498 points.
  Transforming local potential to a uniform radial grid of dG=0.02 with 1498 points.
  Transforming nonlocal projectors to a uniform radial grid of dG=0.02 with 432 points.
  Transforming density augmentations to a uniform radial grid of dG=0.02 with 1498 points.
  Transforming atomic orbitals to a uniform radial grid of dG=0.02 with 432 points.
  Core radius for overlap checks: 2.30 bohrs.

Reading pseudopotential file '/home/guoxy/vasp/jdftx-1.5.0/build/pseudopotentials/GBRV/s_pbe.uspp':
  Title: S.  Created by USPP 7.3.6 on 1-4-15
  Reference state energy: -11.898476.  6 valence electrons in orbitals:
    |300>  occupation: 2  eigenvalue: -0.634167
    |310>  occupation: 4  eigenvalue: -0.257568
  lMax: 2  lLocal: 3  QijEcut: 6
  6 projectors sampled on a log grid with 635 points:
    l: 0  eig: -0.634161  rCut: 1.5
    l: 0  eig: 1.500000  rCut: 1.5
    l: 1  eig: -0.257567  rCut: 1.5
    l: 1  eig: 1.500000  rCut: 1.5
    l: 2  eig: -1.000000  rCut: 1.5
    l: 2  eig: 1.500000  rCut: 1.5
  Partial core density with radius 1.15
  Transforming core density to a uniform radial grid of dG=0.02 with 1498 points.
  Transforming local potential to a uniform radial grid of dG=0.02 with 1498 points.
  Transforming nonlocal projectors to a uniform radial grid of dG=0.02 with 432 points.
  Transforming density augmentations to a uniform radial grid of dG=0.02 with 1498 points.
  Transforming atomic orbitals to a uniform radial grid of dG=0.02 with 432 points.
  Core radius for overlap checks: 1.50 bohrs.

Initialized 2 species with 48 total atoms.

Folded 1 k-points by 4x4x1 to 16 k-points.

---------- Setting up k-points, bands, fillings ----------
Adding inversion symmetry to k-mesh for non-inversion-symmetric unit cell.
Reduced to 4 k-points under symmetry. 
Computing the number of bands and number of electrons
Calculating initial fillings.
nElectrons: 400.000000   nBands: 336   nStates: 8

----- Setting up reduced wavefunction bases (one per k-point) -----
average nbasis = 80337.188 , ideal nbasis = 80328.404

---------- Setting up coulomb interaction ----------
Fluid mode embedding: using embedded box, but periodic Coulomb kernel.
(Fluid response is responsible for (approximate) separation between periodic images.)
Setting up double-sized grid for truncated Coulomb potentials:
R = 
[    25.1736   -12.5868          0  ]
[          0     21.801          0  ]
[          0          0    68.5234  ]
unit cell volume = 37606.3
G =
[   0.249594   0.144103         -0  ]
[          0   0.288207          0  ]
[          0         -0  0.0916941  ]
Chosen fftbox size, S = [  108  108  280  ]
Integer grid location selected as the embedding center:
   Grid: [  54  54  70  ]
   Lattice: [  0.5  0.5  0.5  ]
   Cartesian: [  6.2934  10.9005  17.1308  ]
Constructing Wigner-Seitz cell: 8 faces (6 quadrilaterals, 2 hexagons)
Range-separation parameter for embedded mesh potentials due to point charges: 0.624095 bohrs.

Initializing van der Waals corrections
	NOTE: vdW corrections apply only for interactions with fluid.
	Ta:  C6:  815.23 Eh-a0^6  R0: 3.326 a0 (WARNING: beyond Grimme's data set)
	 S:  C6:   96.61 Eh-a0^6  R0: 3.180 a0

---------- Setting up ewald sum ----------
Optimum gaussian width for ewald sums = 7.011160 bohr.
Real space sum over 605 unit cells with max indices [  5  5  2  ]
Reciprocal space sum over 7425 terms with max indices [  7  7  16  ]

---------- Allocating electronic variables ----------
Initializing wave functions:  linear combination of atomic orbitals
Ta pseudo-atom occupations:   s ( 2 2 )  p ( 6 0 )  d ( 3 )
S pseudo-atom occupations:   s ( 2 )  p ( 4 )
	FillingsUpdate:  mu: +0.686602024  nElectrons: 400.000000  magneticMoment: [ Abs: 1.65443  Tot: +1.58120 ]
LCAOMinimize: Iter:   0  F: -1220.3086995102221408  |grad|_K:  2.883e-02  alpha:  1.000e+00
	FillingsUpdate:  mu: -0.945592990  nElectrons: 400.000000  magneticMoment: [ Abs: 1.41525  Tot: +1.41062 ]
LCAOMinimize: Iter:   1  F: -1228.4770664480272444  |grad|_K:  1.353e-02  alpha:  4.765e-01  linmin:  1.869e-01  cgtest: -2.254e+00  t[s]:    210.12
LCAOMinimize: 	Bad step direction: g.d > 0.
LCAOMinimize: 	Undoing step.
LCAOMinimize: 	Step failed: resetting search direction.
	FillingsUpdate:  mu: -0.945592990  nElectrons: 400.000000  magneticMoment: [ Abs: 1.41525  Tot: +1.41062 ]
LCAOMinimize: Iter:   2  F: -1228.4770664480272444  |grad|_K:  1.353e-02  alpha:  0.000e+00
	FillingsUpdate:  mu: -0.474563964  nElectrons: 400.000000  magneticMoment: [ Abs: 2.39342  Tot: +2.38633 ]
LCAOMinimize: Iter:   3  F: -1256.3917525122644747  |grad|_K:  7.660e-03  alpha:  1.777e-01  linmin: -3.585e-01  cgtest:  9.232e-01  t[s]:    320.14
LCAOMinimize: Encountered beta<0, resetting CG.
LCAOMinimize: 	Predicted alpha/alphaT>3.000000, increasing alphaT to 5.331683e-01.
	FillingsUpdate:  mu: -0.389137247  nElectrons: 400.000000  magneticMoment: [ Abs: 2.23171  Tot: +2.21102 ]
LCAOMinimize: Iter:   4  F: -1262.0639211455752502  |grad|_K:  6.409e-03  alpha:  1.051e-01  linmin: -3.646e-01  cgtest:  8.371e-01  t[s]:    405.46
LCAOMinimize: Encountered beta<0, resetting CG.
LCAOMinimize: 	Predicted alpha/alphaT>3.000000, increasing alphaT to 3.153135e-01.
	FillingsUpdate:  mu: -0.138062259  nElectrons: 400.000000  magneticMoment: [ Abs: 1.75136  Tot: +1.71247 ]
LCAOMinimize: Iter:   5  F: -1268.2234127612825887  |grad|_K:  9.807e-04  alpha:  2.656e-01  linmin:  4.327e-01  cgtest: -6.983e-01  t[s]:    490.20
LCAOMinimize: 	Bad step direction: g.d > 0.
LCAOMinimize: 	Undoing step.
LCAOMinimize: 	Step failed: resetting search direction.
	FillingsUpdate:  mu: -0.138062259  nElectrons: 400.000000  magneticMoment: [ Abs: 1.75136  Tot: +1.71247 ]
LCAOMinimize: Iter:   6  F: -1268.2234127612825887  |grad|_K:  9.807e-04  alpha:  0.000e+00
	FillingsUpdate:  mu: -0.182688261  nElectrons: 400.000000  magneticMoment: [ Abs: 1.66860  Tot: +1.62468 ]
LCAOMinimize: Iter:   7  F: -1268.2995131025174942  |grad|_K:  6.664e-05  alpha:  1.830e-01  linmin: -6.800e-02  cgtest:  1.132e-01  t[s]:    600.49
LCAOMinimize: Encountered beta<0, resetting CG.
LCAOMinimize: 	Predicted alpha/alphaT>3.000000, increasing alphaT to 5.489624e-01.
	FillingsUpdate:  mu: -0.182440807  nElectrons: 400.000000  magneticMoment: [ Abs: 1.11648  Tot: +1.06525 ]
LCAOMinimize: Iter:   8  F: -1268.3013368912625083  |grad|_K:  2.602e-05  alpha:  9.065e-01  linmin:  2.980e-03  cgtest: -2.840e-02  t[s]:    684.84
	FillingsUpdate:  mu: -0.180925725  nElectrons: 400.000000  magneticMoment: [ Abs: 0.94811  Tot: +0.89952 ]
LCAOMinimize: Iter:   9  F: -1268.3014381080956809  |grad|_K:  2.013e-05  alpha:  3.290e-01  linmin: -1.732e-03  cgtest:  2.353e-02  t[s]:    749.95
LCAOMinimize: 	Predicted alpha/alphaT>3.000000, increasing alphaT to 9.871383e-01.
	FillingsUpdate:  mu: -0.181804664  nElectrons: 400.000000  magneticMoment: [ Abs: 0.11219  Tot: +0.06672 ]
LCAOMinimize: Iter:  10  F: -1268.3016832680821153  |grad|_K:  5.971e-06  alpha:  1.327e+00  linmin:  5.583e-03  cgtest: -1.779e-01  t[s]:    834.57
	FillingsUpdate:  mu: -0.181543850  nElectrons: 400.000000  magneticMoment: [ Abs: 0.02285  Tot: -0.01189 ]
LCAOMinimize: Iter:  11  F: -1268.3016951046083705  |grad|_K:  4.371e-06  alpha:  7.346e-01  linmin: -1.990e-05  cgtest:  6.330e-03  t[s]:    899.57
	FillingsUpdate:  mu: -0.181734726  nElectrons: 400.000000  magneticMoment: [ Abs: 0.02483  Tot: -0.02430 ]
LCAOMinimize: Iter:  12  F: -1268.3016972997190805  |grad|_K:  9.560e-07  alpha:  2.534e-01  linmin:  1.475e-03  cgtest: -1.042e-02  t[s]:    964.53
LCAOMinimize: 	Predicted alpha/alphaT>3.000000, increasing alphaT to 7.602003e-01.
	FillingsUpdate:  mu: -0.181679361  nElectrons: 400.000000  magneticMoment: [ Abs: 0.01720  Tot: -0.01645 ]
LCAOMinimize: Iter:  13  F: -1268.3016976671408429  |grad|_K:  3.895e-07  alpha:  8.862e-01  linmin: -1.198e-04  cgtest:  4.475e-03  t[s]:   1049.14
	FillingsUpdate:  mu: -0.181702714  nElectrons: 400.000000  magneticMoment: [ Abs: 0.01398  Tot: -0.01308 ]
LCAOMinimize: Iter:  14  F: -1268.3016976960939246  |grad|_K:  3.481e-07  alpha:  4.206e-01  linmin:  9.848e-05  cgtest: -8.108e-04  t[s]:   1114.09
LCAOMinimize: Converged (|Delta F|<1.000000e-06 for 2 iters).
----- createFluidSolver() ----- (Fluid-side solver setup)
   Initializing fluid molecule 'H2O'
     Initializing site 'O'
       Electron density: proportional to exp(-r/0.36935)*erfc((r-0.51523)/0.36823) with norm 6.826
       Charge density: gaussian nuclear width 0.478731 with net site charge 0.826
       Polarizability: cuspless exponential with width 0.32 and norm 3.73
       Hard sphere radius: 2.57003 bohrs
       Positions in reference frame:
         [ +0.000000 +0.000000 +0.000000 ]
     Initializing site 'H'
       Electron density: proportional to exp(-r/0.34641)*erfc((r-0)/0.390882) with norm 0.587
       Charge density: gaussian nuclear width 0.377945 with net site charge -0.413
       Polarizability: cuspless exponential with width 0.39 and norm 3.3
       Positions in reference frame:
         [ +0.000000 -1.441945 +1.122523 ]
         [ +0.000000 +1.441945 +1.122523 ]
     Net charge: 0   dipole magnitude: 0.927204
     Initializing spherical shell mfKernel with radius 2.61727 Bohr
     deltaS corrections:
       site 'O': -7.54299
       site 'H': -6.83917
   Initializing fluid molecule 'Na+'
     Initializing site 'Na'
       Electron density: proportional to exp(-r/0.19682)*erfc((r-0.71491)/0.41314) with norm 8.1383
       Charge density: gaussian nuclear width 0.365347 with net site charge -1
       Hard sphere radius: 1.86327 bohrs
       Positions in reference frame:
         [ +0.000000 +0.000000 +0.000000 ]
     Net charge: -1   dipole magnitude: 0
     Initializing gaussian mfKernel with width: 1.55004 Bohr
     deltaS corrections:
       site 'Na': -22.3555
   Initializing fluid molecule 'F-'
     Initializing site 'F'
       Electron density: proportional to exp(-r/0.38886)*erfc((r-0)/0.438782) with norm 8
       Charge density: gaussian nuclear width 0.374796 with net site charge 1
       Hard sphere radius: 2.39995 bohrs
       Positions in reference frame:
         [ +0.000000 +0.000000 +0.000000 ]
     Net charge: 1   dipole magnitude: 0
     Initializing gaussian mfKernel with width: 1.59012 Bohr
     deltaS corrections:
       site 'F': -9.04335

Correction to mu due to finite nuclear width = -0.0105536
   Cavity determined by nc: 0.00142 and sigma: 0.707107
   Nonlocal vdW cavity from gaussian model electron density with norm = 8 and sigma = 0.993594 bohr
   Charge asymmetry in cavity with sensitivity pCavity = 36.5 e-bohr/Eh
   Electrostatic cavity expanded by eta = 1.46 bohrs
   Weighted density cavitation model constrained by Nbulk: 0.0049383 bohr^-3, Pvap: 3.14029 kPa, Rvdw: 2.61727 bohr and sigmaBulk: 4.62e-05 Eh/bohr^2 at T: 298 K.
   Weighted density dispersion model using vdW pair potentials with single solvent site with sqrtC6eff: 0.77 SI.


---- Citations for features of the code used in this run ----

   Software package:
      R. Sundararaman, K. Letchworth-Weaver, K.A. Schwarz, D. Gunceler, Y. Ozhabes and T.A. Arias, 'JDFTx: software for joint density-functional theory', SoftwareX 6, 278 (2017)

   gga-PBE exchange-correlation functional:
      J.P. Perdew, K. Burke and M. Ernzerhof, Phys. Rev. Lett. 77, 3865 (1996)

   Pseudopotentials:
      KF Garrity, JW Bennett, KM Rabe and D Vanderbilt, Comput. Mater. Sci. 81, 446 (2014)

   Truncated Coulomb potentials:
      R. Sundararaman and T.A. Arias, Phys. Rev. B 87, 165122 (2013)

   Van der Waals correction pair-potentials:
      S. Grimme, J. Comput. Chem. 27, 1787 (2006)

   Charge-asymmetric nonlocally-determined local-electric (CANDLE) solvation model:
      R. Sundararaman and W.A. Goddard III, J. Chem. Phys. 142, 064107 (2015)

   Total energy minimization with Auxiliary Hamiltonian:
      C. Freysoldt, S. Boeck, and J. Neugebauer, Phys. Rev. B 79, 241103(R) (2009)

This list may not be complete. Please suggest additional citations or
report any other bugs at https://github.com/shankar1729/jdftx/issues

Initialization completed successfully at t[s]:   1125.10

Fluid solver invoked on fresh (partially random / LCAO) wavefunctions
Running a vacuum solve first:

-------- Initial electronic minimization -----------
	FillingsUpdate:  mu: -0.181702714  nElectrons: 400.000000  magneticMoment: [ Abs: 0.01398  Tot: -0.01308 ]
ElecMinimize: Iter:   0  F: -1268.301697696070505  |grad|_K:  8.643e-05  alpha:  1.000e+00
	FillingsUpdate:  mu: -0.080701840  nElectrons: 400.000000  magneticMoment: [ Abs: 0.00982  Tot: -0.00910 ]
	SubspaceRotationAdjust: set factor to 0.933
ElecMinimize: Iter:   1  F: -1269.591680539861500  |grad|_K:  4.903e-05  alpha:  8.013e-01  linmin: -2.632e-05  t[s]:   1273.29
	FillingsUpdate:  mu: -0.139283045  nElectrons: 400.000000  magneticMoment: [ Abs: 0.00826  Tot: -0.00759 ]
	SubspaceRotationAdjust: set factor to 0.606
ElecMinimize: Iter:   2  F: -1269.786603307810765  |grad|_K:  3.340e-05  alpha:  4.084e-01  linmin:  3.229e-04  t[s]:   1364.62
	FillingsUpdate:  mu: -0.113970298  nElectrons: 400.000000  magneticMoment: [ Abs: 0.00633  Tot: -0.00571 ]
	SubspaceRotationAdjust: set factor to 0.487
ElecMinimize: Iter:   3  F: -1269.895396021000124  |grad|_K:  1.412e-05  alpha:  4.662e-01  linmin:  1.682e-04  t[s]:   1455.63
	FillingsUpdate:  mu: -0.117456589  nElectrons: 400.000000  magneticMoment: [ Abs: 0.00520  Tot: -0.00467 ]
	SubspaceRotationAdjust: set factor to 0.542
ElecMinimize: Iter:   4  F: -1269.921526091936357  |grad|_K:  8.744e-06  alpha:  6.197e-01  linmin:  1.914e-05  t[s]:   1547.05
	FillingsUpdate:  mu: -0.122287886  nElectrons: 400.000000  magneticMoment: [ Abs: 0.00429  Tot: -0.00385 ]
	SubspaceRotationAdjust: set factor to 0.609
ElecMinimize: Iter:   5  F: -1269.932001486178706  |grad|_K:  5.216e-06  alpha:  6.359e-01  linmin:  1.810e-05  t[s]:   1638.24
	FillingsUpdate:  mu: -0.119057870  nElectrons: 400.000000  magneticMoment: [ Abs: 0.00348  Tot: -0.00311 ]
	SubspaceRotationAdjust: set factor to 0.69
ElecMinimize: Iter:   6  F: -1269.935930488979011  |grad|_K:  3.256e-06  alpha:  6.699e-01  linmin:  2.320e-05  t[s]:   1729.46
	FillingsUpdate:  mu: -0.120197228  nElectrons: 400.000000  magneticMoment: [ Abs: 0.00282  Tot: -0.00252 ]
	SubspaceRotationAdjust: set factor to 0.861
ElecMinimize: Iter:   7  F: -1269.937291731169125  |grad|_K:  1.881e-06  alpha:  5.971e-01  linmin:  4.520e-06  t[s]:   1820.18
	FillingsUpdate:  mu: -0.120671766  nElectrons: 400.000000  magneticMoment: [ Abs: 0.00229  Tot: -0.00204 ]
	SubspaceRotationAdjust: set factor to 0.98
ElecMinimize: Iter:   8  F: -1269.937713974438566  |grad|_K:  1.037e-06  alpha:  5.527e-01  linmin:  2.763e-06  t[s]:   1910.35
	FillingsUpdate:  mu: -0.120040629  nElectrons: 400.000000  magneticMoment: [ Abs: 0.00179  Tot: -0.00159 ]
	SubspaceRotationAdjust: set factor to 0.905
ElecMinimize: Iter:   9  F: -1269.937845552911995  |grad|_K:  7.096e-07  alpha:  5.665e-01  linmin:  2.554e-06  t[s]:   2001.40
	FillingsUpdate:  mu: -0.120758087  nElectrons: 400.000000  magneticMoment: [ Abs: 0.00140  Tot: -0.00124 ]
	SubspaceRotationAdjust: set factor to 0.699
ElecMinimize: Iter:  10  F: -1269.937890712880062  |grad|_K:  4.095e-07  alpha:  4.148e-01  linmin:  5.024e-07  t[s]:   2091.89
	FillingsUpdate:  mu: -0.120522132  nElectrons: 400.000000  magneticMoment: [ Abs: 0.00102  Tot: -0.00089 ]
	SubspaceRotationAdjust: set factor to 0.688
ElecMinimize: Iter:  11  F: -1269.937910922268884  |grad|_K:  2.492e-07  alpha:  5.574e-01  linmin:  1.634e-06  t[s]:   2182.91
	FillingsUpdate:  mu: -0.120553029  nElectrons: 400.000000  magneticMoment: [ Abs: 0.00077  Tot: -0.00068 ]
	SubspaceRotationAdjust: set factor to 0.85
ElecMinimize: Iter:  12  F: -1269.937918004488665  |grad|_K:  1.577e-07  alpha:  5.277e-01  linmin:  6.687e-07  t[s]:   2273.65
	FillingsUpdate:  mu: -0.120617310  nElectrons: 400.000000  magneticMoment: [ Abs: 0.00059  Tot: -0.00052 ]
	SubspaceRotationAdjust: set factor to 0.91
ElecMinimize: Iter:  13  F: -1269.937920819968440  |grad|_K:  9.885e-08  alpha:  5.236e-01  linmin:  4.670e-07  t[s]:   2364.34
	FillingsUpdate:  mu: -0.120536750  nElectrons: 400.000000  magneticMoment: [ Abs: 0.00045  Tot: -0.00040 ]
	SubspaceRotationAdjust: set factor to 0.852
ElecMinimize: Iter:  14  F: -1269.937921848519181  |grad|_K:  6.016e-08  alpha:  4.866e-01  linmin:  1.242e-07  t[s]:   2455.27
	FillingsUpdate:  mu: -0.120565406  nElectrons: 400.000000  magneticMoment: [ Abs: 0.00034  Tot: -0.00029 ]
	SubspaceRotationAdjust: set factor to 0.818
ElecMinimize: Iter:  15  F: -1269.937922243151434  |grad|_K:  3.413e-08  alpha:  5.040e-01  linmin:  1.288e-07  t[s]:   2546.32
	FillingsUpdate:  mu: -0.120556744  nElectrons: 400.000000  magneticMoment: [ Abs: 0.00025  Tot: -0.00022 ]
	SubspaceRotationAdjust: set factor to 0.903
ElecMinimize: Iter:  16  F: -1269.937922379494921  |grad|_K:  2.254e-08  alpha:  5.406e-01  linmin:  2.229e-08  t[s]:   2636.89
	FillingsUpdate:  mu: -0.120553669  nElectrons: 400.000000  magneticMoment: [ Abs: 0.00018  Tot: -0.00016 ]
	SubspaceRotationAdjust: set factor to 1.03
ElecMinimize: Iter:  17  F: -1269.937922436948611  |grad|_K:  1.379e-08  alpha:  5.224e-01  linmin: -1.080e-08  t[s]:   2727.57
	FillingsUpdate:  mu: -0.120559945  nElectrons: 400.000000  magneticMoment: [ Abs: 0.00013  Tot: -0.00011 ]
	SubspaceRotationAdjust: set factor to 1.09
ElecMinimize: Iter:  18  F: -1269.937922459206902  |grad|_K:  8.983e-09  alpha:  5.403e-01  linmin: -1.059e-07  t[s]:   2818.28
	FillingsUpdate:  mu: -0.120553518  nElectrons: 400.000000  magneticMoment: [ Abs: 0.00010  Tot: -0.00008 ]
	SubspaceRotationAdjust: set factor to 0.939
ElecMinimize: Iter:  19  F: -1269.937922467029694  |grad|_K:  5.707e-09  alpha:  4.459e-01  linmin: -2.704e-07  t[s]:   2908.89
	FillingsUpdate:  mu: -0.120558049  nElectrons: 400.000000  magneticMoment: [ Abs: 0.00007  Tot: -0.00006 ]
	SubspaceRotationAdjust: set factor to 0.746
ElecMinimize: Iter:  20  F: -1269.937922470285230  |grad|_K:  3.595e-09  alpha:  4.578e-01  linmin: -1.721e-07  t[s]:   2999.81
ElecMinimize: Converged (|Delta F|<1.000000e-08 for 2 iters).
Setting wave functions to eigenvectors of Hamiltonian
Vacuum energy after initial minimize, F = -1269.937922470285230

	Linear fluid (dielectric constant: 78.4, screening length: 5.74355 Bohr) occupying 0.757258 of unit cell:	Completed after 15 iterations at t[s]:   3020.86

-------- Electronic minimization -----------
	Linear fluid (dielectric constant: 78.4, screening length: 5.74355 Bohr) occupying 0.757258 of unit cell:	Completed after 0 iterations at t[s]:   3044.76
	FillingsUpdate:  mu: -0.210345319  nElectrons: 400.000000  magneticMoment: [ Abs: 0.00005  Tot: -0.00004 ]
ElecMinimize: Iter:   0  F: -1269.927411386029689  |grad|_K:  6.866e-07  alpha:  1.000e+00
	Linear fluid (dielectric constant: 78.4, screening length: 5.74355 Bohr) occupying 0.757624 of unit cell:	Completed after 7 iterations at t[s]:   3116.31
	Linear fluid (dielectric constant: 78.4, screening length: 5.74355 Bohr) occupying 0.757671 of unit cell:	Completed after 2 iterations at t[s]:   3147.76
	FillingsUpdate:  mu: -0.208945097  nElectrons: 400.000000  magneticMoment: [ Abs: 0.00004  Tot: -0.00003 ]
	SubspaceRotationAdjust: set factor to 0.625
ElecMinimize: Iter:   1  F: -1269.927527252547179  |grad|_K:  3.528e-07  alpha:  1.131e+00  linmin: -3.798e-06  t[s]:   3187.82
	Linear fluid (dielectric constant: 78.4, screening length: 5.74355 Bohr) occupying 0.757792 of unit cell:	Completed after 5 iterations at t[s]:   3215.98
	Linear fluid (dielectric constant: 78.4, screening length: 5.74355 Bohr) occupying 0.757710 of unit cell:	Completed after 5 iterations at t[s]:   3246.98
	FillingsUpdate:  mu: -0.209408768  nElectrons: 400.000000  magneticMoment: [ Abs: 0.00003  Tot: -0.00003 ]
	SubspaceRotationAdjust: set factor to 0.336
ElecMinimize: Iter:   2  F: -1269.927537481238687  |grad|_K:  1.592e-07  alpha:  3.655e-01  linmin:  7.203e-07  t[s]:   3287.46
	Linear fluid (dielectric constant: 78.4, screening length: 5.74355 Bohr) occupying 0.757722 of unit cell:	Completed after 2 iterations at t[s]:   3315.35
	Linear fluid (dielectric constant: 78.4, screening length: 5.74355 Bohr) occupying 0.757733 of unit cell:	Completed after 2 iterations at t[s]:   3345.38
	FillingsUpdate:  mu: -0.209335061  nElectrons: 400.000000  magneticMoment: [ Abs: 0.00003  Tot: -0.00002 ]
	SubspaceRotationAdjust: set factor to 0.388
ElecMinimize: Iter:   3  F: -1269.927541463030138  |grad|_K:  8.269e-08  alpha:  7.003e-01  linmin: -1.305e-05  t[s]:   3385.25
	Linear fluid (dielectric constant: 78.4, screening length: 5.74355 Bohr) occupying 0.757743 of unit cell:	Completed after 0 iterations at t[s]:   3412.91
	Linear fluid (dielectric constant: 78.4, screening length: 5.74355 Bohr) occupying 0.757747 of unit cell:	Completed after 3 iterations at t[s]:   3442.72
	FillingsUpdate:  mu: -0.209262894  nElectrons: 400.000000  magneticMoment: [ Abs: 0.00002  Tot: -0.00002 ]
	SubspaceRotationAdjust: set factor to 0.398
ElecMinimize: Iter:   4  F: -1269.927542841230661  |grad|_K:  5.861e-08  alpha:  9.841e-01  linmin:  3.362e-05  t[s]:   3482.71
	Linear fluid (dielectric constant: 78.4, screening length: 5.74355 Bohr) occupying 0.757752 of unit cell:	Completed after 1 iterations at t[s]:   3510.58
	Linear fluid (dielectric constant: 78.4, screening length: 5.74355 Bohr) occupying 0.757750 of unit cell:	Completed after 0 iterations at t[s]:   3539.91
	FillingsUpdate:  mu: -0.209296538  nElectrons: 400.000000  magneticMoment: [ Abs: 0.00002  Tot: -0.00002 ]
	SubspaceRotationAdjust: set factor to 0.401
ElecMinimize: Iter:   5  F: -1269.927543233697406  |grad|_K:  3.375e-08  alpha:  5.718e-01  linmin:  2.991e-05  t[s]:   3579.39
	Linear fluid (dielectric constant: 78.4, screening length: 5.74355 Bohr) occupying 0.757749 of unit cell:	Completed after 0 iterations at t[s]:   3606.98
	Linear fluid (dielectric constant: 78.4, screening length: 5.74355 Bohr) occupying 0.757749 of unit cell:	Completed after 0 iterations at t[s]:   3636.00
	FillingsUpdate:  mu: -0.209296559  nElectrons: 400.000000  magneticMoment: [ Abs: 0.00002  Tot: -0.00001 ]
	SubspaceRotationAdjust: set factor to 0.513
ElecMinimize: Iter:   6  F: -1269.927543374211609  |grad|_K:  2.267e-08  alpha:  6.079e-01  linmin:  5.724e-08  t[s]:   3675.23
	Linear fluid (dielectric constant: 78.4, screening length: 5.74355 Bohr) occupying 0.757746 of unit cell:	Completed after 2 iterations at t[s]:   3703.32
	Linear fluid (dielectric constant: 78.4, screening length: 5.74355 Bohr) occupying 0.757748 of unit cell:	Completed after 0 iterations at t[s]:   3733.10
ElecMinimize: 	Step increased F by 2.636602e-08, reducing alpha to 2.142848e-02.
	Linear fluid (dielectric constant: 78.4, screening length: 5.74355 Bohr) occupying 0.757749 of unit cell:	Completed after 0 iterations at t[s]:   3793.98
ElecMinimize: 	Step increased F by 3.207674e-08, reducing alpha to 2.142848e-03.
	Linear fluid (dielectric constant: 78.4, screening length: 5.74355 Bohr) occupying 0.757749 of unit cell:	Completed after 0 iterations at t[s]:   3855.23
ElecMinimize: 	Step increased F by 3.344758e-08, reducing alpha to 2.142848e-04.
ElecMinimize: 	Step failed to reduce F after 3 attempts. Quitting step.
ElecMinimize: 	Undoing step.
	Linear fluid (dielectric constant: 78.4, screening length: 5.74355 Bohr) occupying 0.757749 of unit cell:	Completed after 0 iterations at t[s]:   3916.48
ElecMinimize: 	Step failed: resetting search direction.
	FillingsUpdate:  mu: -0.209255004  nElectrons: 400.000000  magneticMoment: [ Abs: 0.00002  Tot: -0.00001 ]
	SubspaceRotationAdjust: set factor to 0.478
ElecMinimize: Iter:   7  F: -1269.927543340729017  |grad|_K:  3.216e-08  alpha:  2.143e-04
	Linear fluid (dielectric constant: 78.4, screening length: 5.74355 Bohr) occupying 0.757746 of unit cell:	Completed after 1 iterations at t[s]:   3982.93
	Linear fluid (dielectric constant: 78.4, screening length: 5.74355 Bohr) occupying 0.757748 of unit cell:	Completed after 0 iterations at t[s]:   4012.30
	FillingsUpdate:  mu: -0.209302527  nElectrons: 400.000000  magneticMoment: [ Abs: 0.00002  Tot: -0.00001 ]
	SubspaceRotationAdjust: set factor to 0.301
ElecMinimize: Iter:   8  F: -1269.927543396945339  |grad|_K:  2.582e-08  alpha:  2.693e-01  linmin:  8.815e-05  t[s]:   4051.17
	Linear fluid (dielectric constant: 78.4, screening length: 5.74355 Bohr) occupying 0.757746 of unit cell:	Completed after 0 iterations at t[s]:   4078.77
	Linear fluid (dielectric constant: 78.4, screening length: 5.74355 Bohr) occupying 0.757744 of unit cell:	Completed after 0 iterations at t[s]:   4108.41
	FillingsUpdate:  mu: -0.209303361  nElectrons: 400.000000  magneticMoment: [ Abs: 0.00001  Tot: -0.00001 ]
	SubspaceRotationAdjust: set factor to 0.454
ElecMinimize: Iter:   9  F: -1269.927543433770779  |grad|_K:  2.647e-08  alpha:  6.279e-01  linmin:  1.527e-06  t[s]:   4147.42
	Linear fluid (dielectric constant: 78.4, screening length: 5.74355 Bohr) occupying 0.757740 of unit cell:	Completed after 2 iterations at t[s]:   4175.26
	Linear fluid (dielectric constant: 78.4, screening length: 5.74355 Bohr) occupying 0.757743 of unit cell:	Completed after 0 iterations at t[s]:   4205.06
ElecMinimize: 	Step increased F by 6.790515e-09, reducing alpha to 1.629009e-02.
	Linear fluid (dielectric constant: 78.4, screening length: 5.74355 Bohr) occupying 0.757744 of unit cell:	Completed after 0 iterations at t[s]:   4266.10
	FillingsUpdate:  mu: -0.209238293  nElectrons: 400.000000  magneticMoment: [ Abs: 0.00001  Tot: -0.00001 ]
	SubspaceRotationAdjust: set factor to 0.379
ElecMinimize: Iter:  10  F: -1269.927543456549984  |grad|_K:  3.859e-08  alpha:  1.629e-02  linmin:  2.005e-05  t[s]:   4305.27
	Linear fluid (dielectric constant: 78.4, screening length: 5.74355 Bohr) occupying 0.757744 of unit cell:	Completed after 0 iterations at t[s]:   4333.09
ElecMinimize: 	Predicted alpha/alphaT>3.000000, increasing alphaT to 4.887028e-02.
	Linear fluid (dielectric constant: 78.4, screening length: 5.74355 Bohr) occupying 0.757743 of unit cell:	Completed after 0 iterations at t[s]:   4361.76
	Linear fluid (dielectric constant: 78.4, screening length: 5.74355 Bohr) occupying 0.757743 of unit cell:	Completed after 0 iterations at t[s]:   4390.95
	FillingsUpdate:  mu: -0.209238299  nElectrons: 400.000000  magneticMoment: [ Abs: 0.00001  Tot: -0.00001 ]
	SubspaceRotationAdjust: set factor to 0.307
ElecMinimize: Iter:  11  F: -1269.927543466966199  |grad|_K:  3.288e-08  alpha:  6.990e-02  linmin: -1.976e-07  t[s]:   4429.96
	Linear fluid (dielectric constant: 78.4, screening length: 5.74355 Bohr) occupying 0.757742 of unit cell:	Completed after 0 iterations at t[s]:   4457.56
	Linear fluid (dielectric constant: 78.4, screening length: 5.74355 Bohr) occupying 0.757741 of unit cell:	Completed after 0 iterations at t[s]:   4486.79
	FillingsUpdate:  mu: -0.209238004  nElectrons: 400.000000  magneticMoment: [ Abs: 0.00001  Tot: -0.00001 ]
	SubspaceRotationAdjust: set factor to 0.363
ElecMinimize: Iter:  12  F: -1269.927543504132473  |grad|_K:  3.442e-08  alpha:  1.580e-01  linmin: -7.926e-08  t[s]:   4525.97
	Linear fluid (dielectric constant: 78.4, screening length: 5.74355 Bohr) occupying 0.757738 of unit cell:	Completed after 2 iterations at t[s]:   4553.92
	Linear fluid (dielectric constant: 78.4, screening length: 5.74355 Bohr) occupying 0.757740 of unit cell:	Completed after 0 iterations at t[s]:   4583.70
ElecMinimize: 	Step increased F by 9.165251e-08, reducing alpha to 2.505662e-03.
	Linear fluid (dielectric constant: 78.4, screening length: 5.74355 Bohr) occupying 0.757741 of unit cell:	Completed after 0 iterations at t[s]:   4644.86
ElecMinimize: 	Step increased F by 8.089023e-08, reducing alpha to 2.505662e-04.
	Linear fluid (dielectric constant: 78.4, screening length: 5.74355 Bohr) occupying 0.757741 of unit cell:	Completed after 0 iterations at t[s]:   4705.74
ElecMinimize: 	Step increased F by 7.989024e-08, reducing alpha to 2.505662e-05.
ElecMinimize: 	Step failed to reduce F after 3 attempts. Quitting step.
ElecMinimize: 	Undoing step.
	Linear fluid (dielectric constant: 78.4, screening length: 5.74355 Bohr) occupying 0.757741 of unit cell:	Completed after 0 iterations at t[s]:   4765.79
ElecMinimize: 	Step failed: resetting search direction.
	FillingsUpdate:  mu: -0.209303334  nElectrons: 400.000000  magneticMoment: [ Abs: 0.00001  Tot: -0.00001 ]
	SubspaceRotationAdjust: set factor to 0.247
ElecMinimize: Iter:  13  F: -1269.927543424162423  |grad|_K:  2.451e-08  alpha:  2.506e-05
	Linear fluid (dielectric constant: 78.4, screening length: 5.74355 Bohr) occupying 0.757741 of unit cell:	Completed after 0 iterations at t[s]:   4828.73
	Linear fluid (dielectric constant: 78.4, screening length: 5.74355 Bohr) occupying 0.757741 of unit cell:	Completed after 0 iterations at t[s]:   4855.58
	FillingsUpdate:  mu: -0.209303652  nElectrons: 400.000000  magneticMoment: [ Abs: 0.00001  Tot: -0.00001 ]
	SubspaceRotationAdjust: set factor to 0.321
ElecMinimize: Iter:  14  F: -1269.927543467643773  |grad|_K:  1.501e-08  alpha:  3.368e-01  linmin:  1.756e-06  t[s]:   4892.32
	Linear fluid (dielectric constant: 78.4, screening length: 5.74355 Bohr) occupying 0.757741 of unit cell:	Completed after 2 iterations at t[s]:   4918.96
	Linear fluid (dielectric constant: 78.4, screening length: 5.74355 Bohr) occupying 0.757741 of unit cell:	Completed after 0 iterations at t[s]:   4946.41
ElecMinimize: 	Step increased F by 5.641300e-08, reducing alpha to 4.737719e-03.
	Linear fluid (dielectric constant: 78.4, screening length: 5.74355 Bohr) occupying 0.757741 of unit cell:	Completed after 0 iterations at t[s]:   5004.18
ElecMinimize: 	Step increased F by 5.288803e-08, reducing alpha to 4.737719e-04.
	Linear fluid (dielectric constant: 78.4, screening length: 5.74355 Bohr) occupying 0.757741 of unit cell:	Completed after 0 iterations at t[s]:   5061.67
ElecMinimize: 	Step increased F by 5.249876e-08, reducing alpha to 4.737719e-05.
ElecMinimize: 	Step failed to reduce F after 3 attempts. Quitting step.
ElecMinimize: 	Undoing step.
	Linear fluid (dielectric constant: 78.4, screening length: 5.74355 Bohr) occupying 0.757741 of unit cell:	Completed after 0 iterations at t[s]:   5119.19
ElecMinimize: 	Step failed: resetting search direction.
	FillingsUpdate:  mu: -0.209260100  nElectrons: 400.000000  magneticMoment: [ Abs: 0.00001  Tot: -0.00001 ]
	SubspaceRotationAdjust: set factor to 0.247
ElecMinimize: Iter:  15  F: -1269.927543415067703  |grad|_K:  1.880e-08  alpha:  4.738e-05
	Linear fluid (dielectric constant: 78.4, screening length: 5.74355 Bohr) occupying 0.757741 of unit cell:	Completed after 0 iterations at t[s]:   5182.25
	Linear fluid (dielectric constant: 78.4, screening length: 5.74355 Bohr) occupying 0.757741 of unit cell:	Completed after 0 iterations at t[s]:   5209.19
	FillingsUpdate:  mu: -0.209259672  nElectrons: 400.000000  magneticMoment: [ Abs: 0.00001  Tot: -0.00001 ]
	SubspaceRotationAdjust: set factor to 0.329
ElecMinimize: Iter:  16  F: -1269.927543459546996  |grad|_K:  2.017e-08  alpha:  5.833e-01  linmin:  3.460e-07  t[s]:   5246.10
	Linear fluid (dielectric constant: 78.4, screening length: 5.74355 Bohr) occupying 0.757741 of unit cell:	Completed after 3 iterations at t[s]:   5272.65
	Linear fluid (dielectric constant: 78.4, screening length: 5.74355 Bohr) occupying 0.757741 of unit cell:	Completed after 0 iterations at t[s]:   5300.47
ElecMinimize: 	Step increased F by 5.958782e-09, reducing alpha to 8.960901e-03.
	Linear fluid (dielectric constant: 78.4, screening length: 5.74355 Bohr) occupying 0.757741 of unit cell:	Completed after 0 iterations at t[s]:   5357.89
	FillingsUpdate:  mu: -0.209338618  nElectrons: 400.000000  magneticMoment: [ Abs: 0.00001  Tot: -0.00001 ]
	SubspaceRotationAdjust: set factor to 0.287
ElecMinimize: Iter:  17  F: -1269.927543485891192  |grad|_K:  4.112e-08  alpha:  8.961e-03  linmin:  9.494e-05  t[s]:   5394.60
ElecMinimize: 	Bad step direction: g.d > 0.
ElecMinimize: 	Undoing step.
	Linear fluid (dielectric constant: 78.4, screening length: 5.74355 Bohr) occupying 0.757741 of unit cell:	Completed after 0 iterations at t[s]:   5421.22
ElecMinimize: 	Step failed: resetting search direction.
	FillingsUpdate:  mu: -0.209338618  nElectrons: 400.000000  magneticMoment: [ Abs: 0.00001  Tot: -0.00001 ]
	SubspaceRotationAdjust: set factor to 0.296
ElecMinimize: Iter:  18  F: -1269.927543485875958  |grad|_K:  3.973e-08  alpha:  0.000e+00
	Linear fluid (dielectric constant: 78.4, screening length: 5.74355 Bohr) occupying 0.757741 of unit cell:	Completed after 0 iterations at t[s]:   5484.07
ElecMinimize: 	Predicted alpha/alphaT>3.000000, increasing alphaT to 2.688270e-02.
	Linear fluid (dielectric constant: 78.4, screening length: 5.74355 Bohr) occupying 0.757741 of unit cell:	Completed after 0 iterations at t[s]:   5510.65
ElecMinimize: 	Predicted alpha/alphaT>3.000000, increasing alphaT to 8.064811e-02.
	Linear fluid (dielectric constant: 78.4, screening length: 5.74355 Bohr) occupying 0.757741 of unit cell:	Completed after 0 iterations at t[s]:   5537.14
ElecMinimize: 	Predicted alpha/alphaT>3.000000, increasing alphaT to 2.419443e-01.
	Linear fluid (dielectric constant: 78.4, screening length: 5.74355 Bohr) occupying 0.757741 of unit cell:	Completed after 1 iterations at t[s]:   5564.33
ElecMinimize: 	Step increased F by 4.252365e-07, reducing alpha to 8.107148e-02.
	Linear fluid (dielectric constant: 78.4, screening length: 5.74355 Bohr) occupying 0.757741 of unit cell:	Completed after 2 iterations at t[s]:   5622.55
ElecMinimize: 	Step increased F by 6.585174e-08, reducing alpha to 8.107148e-03.
	Linear fluid (dielectric constant: 78.4, screening length: 5.74355 Bohr) occupying 0.757741 of unit cell:	Completed after 0 iterations at t[s]:   5680.80
ElecMinimize: 	Step increased F by 7.621634e-08, reducing alpha to 8.107148e-04.
ElecMinimize: 	Step failed to reduce F after 3 attempts. Quitting step.
ElecMinimize: 	Undoing step.
	Linear fluid (dielectric constant: 78.4, screening length: 5.74355 Bohr) occupying 0.757741 of unit cell:	Completed after 0 iterations at t[s]:   5738.19
ElecMinimize: 	Step failed along negative gradient direction.
ElecMinimize: Probably at roundoff error limit. (Stopping)
Setting wave functions to eigenvectors of Hamiltonian
Single-point solvation energy estimate, DeltaF = +0.010379060816604

# Ionic positions in lattice coordinates:
ion Ta   0.166667780131944   0.083332222888888   0.499999991333335 1
ion Ta   0.416667780131944   0.083332222888888   0.499999991333335 1
ion Ta   0.666667780131944   0.083332222888888   0.499999991333335 1
ion Ta   0.916667780131944   0.083332222888888   0.499999991333335 1
ion Ta   0.166667780131944   0.333332222888888   0.499999991333335 1
ion Ta   0.416667780131944   0.333332222888888   0.499999991333335 1
ion Ta   0.666667780131944   0.333332222888888   0.499999991333335 1
ion Ta   0.916667780131944   0.333332222888888   0.499999991333335 1
ion Ta   0.166667780131944   0.583332222888888   0.499999991333335 1
ion Ta   0.416667780131944   0.583332222888888   0.499999991333335 1
ion Ta   0.666667780131944   0.583332222888888   0.499999991333335 1
ion Ta   0.916667780131944   0.583332222888888   0.499999991333335 1
ion Ta   0.166667780131944   0.833332222888888   0.499999991333335 1
ion Ta   0.416667780131944   0.833332222888888   0.499999991333335 1
ion Ta   0.666667780131944   0.833332222888888   0.499999991333335 1
ion Ta   0.916667780131944   0.833332222888888   0.499999991333335 1
ion S   0.000001113465278  -0.000001110444445   0.586319979333335 1
ion S   0.000001113465278  -0.000001110444445   0.413680003333335 1
ion S   0.250001113465278  -0.000001110444445   0.586319979333335 1
ion S   0.250001113465278  -0.000001110444445   0.413680003333335 1
ion S   0.500001113465278  -0.000001110444445   0.586319979333335 1
ion S   0.500001113465278  -0.000001110444445   0.413680003333335 1
ion S   0.750001113465278  -0.000001110444445   0.586319979333335 1
ion S   0.750001113465278  -0.000001110444445   0.413680003333335 1
ion S   0.000001113465278   0.249998889555555   0.586319979333335 1
ion S   0.000001113465278   0.249998889555555   0.413680003333335 1
ion S   0.250001113465278   0.249998889555555   0.586319979333335 1
ion S   0.250001113465278   0.249998889555555   0.413680003333335 1
ion S   0.500001113465278   0.249998889555555   0.586319979333335 1
ion S   0.500001113465278   0.249998889555555   0.413680003333335 1
ion S   0.750001113465278   0.249998889555555   0.586319979333335 1
ion S   0.750001113465278   0.249998889555555   0.413680003333335 1
ion S   0.000001113465278   0.499998889555555   0.586319979333335 1
ion S   0.000001113465278   0.499998889555555   0.413680003333335 1
ion S   0.250001113465278   0.499998889555555   0.586319979333335 1
ion S   0.250001113465278   0.499998889555555   0.413680003333335 1
ion S   0.500001113465278   0.499998889555555   0.586319979333335 1
ion S   0.500001113465278   0.499998889555555   0.413680003333335 1
ion S   0.750001113465278   0.499998889555555   0.586319979333335 1
ion S   0.750001113465278   0.499998889555555   0.413680003333335 1
ion S   0.000001113465278   0.749998889555555   0.586319979333335 1
ion S   0.000001113465278   0.749998889555555   0.413680003333335 1
ion S   0.250001113465278   0.749998889555555   0.586319979333335 1
ion S   0.250001113465278   0.749998889555555   0.413680003333335 1
ion S   0.500001113465278   0.749998889555555   0.586319979333335 1
ion S   0.500001113465278   0.749998889555555   0.413680003333335 1
ion S   0.750001113465278   0.749998889555555   0.586319979333335 1
ion S   0.750001113465278   0.749998889555555   0.413680003333335 1


# Forces in Lattice coordinates:
force Ta   0.000000000000000  -0.000000000000000   0.000000000000000 1
force Ta   0.000000000000000   0.000000000000000  -0.000000000000000 1
force Ta   0.000000000000000  -0.000000000000000   0.000000000000000 1
force Ta  -0.000000000000000   0.000000000000000  -0.000000000000000 1
force Ta  -0.000000000000000   0.000000000000000  -0.000000000000000 1
force Ta   0.000000000000000  -0.000000000000000  -0.000000000000000 1
force Ta  -0.000000000000000   0.000000000000000  -0.000000000000000 1
force Ta   0.000000000000000  -0.000000000000000  -0.000000000000000 1
force Ta   0.000000000000000   0.000000000000000   0.000000000000000 1
force Ta  -0.000000000000000  -0.000000000000000   0.000000000000000 1
force Ta   0.000000000000000   0.000000000000000   0.000000000000000 1
force Ta  -0.000000000000000   0.000000000000000  -0.000000000000000 1
force Ta  -0.000000000000000  -0.000000000000000  -0.000000000000000 1
force Ta   0.000000000000000  -0.000000000000000   0.000000000000000 1
force Ta   0.000000000000000   0.000000000000000   0.000000000000000 1
force Ta   0.000000000000000   0.000000000000000  -0.000000000000000 1
force S  -0.000000000000000   0.000000000000000   0.021276186733732 1
force S   0.000000000000000   0.000000000000000  -0.021276186733617 1
force S  -0.000000000000000  -0.000000000000000   0.021276186733732 1
force S  -0.000000000000000   0.000000000000000  -0.021276186733616 1
force S  -0.000000000000000  -0.000000000000000   0.021276186733733 1
force S  -0.000000000000000   0.000000000000000  -0.021276186733732 1
force S  -0.000000000000000  -0.000000000000000   0.021276186733619 1
force S   0.000000000000000   0.000000000000000  -0.021276186733617 1
force S  -0.000000000000000   0.000000000000000   0.021276186733732 1
force S   0.000000000000000   0.000000000000000  -0.021276186733731 1
force S  -0.000000000000000   0.000000000000000   0.021276186733619 1
force S   0.000000000000000  -0.000000000000000  -0.021276186733617 1
force S   0.000000000000000  -0.000000000000000   0.021276186733732 1
force S   0.000000000000000   0.000000000000000  -0.021276186733732 1
force S   0.000000000000000  -0.000000000000000   0.021276186733619 1
force S   0.000000000000000   0.000000000000000  -0.021276186733846 1
force S   0.000000000000000  -0.000000000000000   0.021276186733732 1
force S  -0.000000000000000  -0.000000000000000  -0.021276186733731 1
force S   0.000000000000000   0.000000000000000   0.021276186733732 1
force S  -0.000000000000000   0.000000000000000  -0.021276186733617 1
force S   0.000000000000000  -0.000000000000000   0.021276186733732 1
force S  -0.000000000000000   0.000000000000000  -0.021276186733731 1
force S   0.000000000000000  -0.000000000000000   0.021276186733619 1
force S   0.000000000000000   0.000000000000000  -0.021276186733617 1
force S  -0.000000000000000   0.000000000000000   0.021276186733732 1
force S  -0.000000000000000  -0.000000000000000  -0.021276186733618 1
force S   0.000000000000000   0.000000000000000   0.021276186733618 1
force S  -0.000000000000000   0.000000000000000  -0.021276186733844 1
force S   0.000000000000000   0.000000000000000   0.021276186733733 1
force S  -0.000000000000000   0.000000000000000  -0.021276186733617 1
force S   0.000000000000000  -0.000000000000000   0.021276186733618 1
force S  -0.000000000000000   0.000000000000000  -0.021276186733959 1

# Energy components:
   A_diel =        0.0102481520511730
   Eewald =     7269.5185627740620475
       EH =     8281.1328143637510948
     Eloc =   -16823.9951049087831052
      Enl =     -222.9938881892304607
      Exc =     -473.2630889464299457
 Exc_core =      252.5823485118696397
       KE =      447.1664218902869834
-------------------------------------
     Etot =    -1269.8416863524228120
       TS =        0.0858570570459009
-------------------------------------
        F =    -1269.9275434094686261

IonicMinimize: Iter:   0  F: -1269.927543409468626  |grad|_K:  2.927e-04  t[s]:   5793.24

#--- Lowdin population analysis ---
# oxidation-state Ta -0.391 -0.391 -0.391 -0.391 -0.391 -0.391 -0.391 -0.391 -0.391 -0.391 -0.391 -0.391 -0.391 -0.391 -0.391 -0.391
# magnetic-moments Ta -0.000 -0.000 -0.000 -0.000 -0.000 -0.000 -0.000 -0.000 -0.000 -0.000 -0.000 -0.000 -0.000 -0.000 -0.000 -0.000
# oxidation-state S +0.253 +0.253 +0.253 +0.253 +0.253 +0.253 +0.253 +0.253 +0.253 +0.253 +0.253 +0.253 +0.253 +0.253 +0.253 +0.253 +0.253 +0.253 +0.253 +0.253 +0.253 +0.253 +0.253 +0.253 +0.253 +0.253 +0.253 +0.253 +0.253 +0.253 +0.253 +0.253
# magnetic-moments S -0.000 -0.000 -0.000 -0.000 -0.000 -0.000 -0.000 -0.000 -0.000 -0.000 -0.000 -0.000 -0.000 -0.000 -0.000 -0.000 -0.000 -0.000 -0.000 -0.000 -0.000 -0.000 -0.000 -0.000 -0.000 -0.000 -0.000 -0.000 -0.000 -0.000 -0.000 -0.000

	Linear fluid (dielectric constant: 78.4, screening length: 5.74355 Bohr) occupying 0.757718 of unit cell:	Completed after 3 iterations at t[s]:   5820.90

-------- Electronic minimization -----------
	Linear fluid (dielectric constant: 78.4, screening length: 5.74355 Bohr) occupying 0.757718 of unit cell:	Completed after 0 iterations at t[s]:   5841.80
	FillingsUpdate:  mu: -0.209202784  nElectrons: 400.000000  magneticMoment: [ Abs: 0.00001  Tot: -0.00001 ]
ElecMinimize: Iter:   0  F: -1269.927552049896576  |grad|_K:  9.545e-08  alpha:  1.000e+00
	Linear fluid (dielectric constant: 78.4, screening length: 5.74355 Bohr) occupying 0.757719 of unit cell:	Completed after 1 iterations at t[s]:   5909.07
	Linear fluid (dielectric constant: 78.4, screening length: 5.74355 Bohr) occupying 0.757719 of unit cell:	Completed after 0 iterations at t[s]:   5936.48
	FillingsUpdate:  mu: -0.209303622  nElectrons: 400.000000  magneticMoment: [ Abs: 0.00001  Tot: -0.00001 ]
	SubspaceRotationAdjust: set factor to 0.354
ElecMinimize: Iter:   1  F: -1269.927553647538844  |grad|_K:  6.914e-08  alpha:  7.800e-01  linmin:  5.697e-04  t[s]:   5973.48
	Linear fluid (dielectric constant: 78.4, screening length: 5.74355 Bohr) occupying 0.757720 of unit cell:	Completed after 1 iterations at t[s]:   5999.96
	Linear fluid (dielectric constant: 78.4, screening length: 5.74355 Bohr) occupying 0.757720 of unit cell:	Completed after 0 iterations at t[s]:   6027.34
	FillingsUpdate:  mu: -0.209294206  nElectrons: 400.000000  magneticMoment: [ Abs: 0.00001  Tot: -0.00001 ]
	SubspaceRotationAdjust: set factor to 0.485
ElecMinimize: Iter:   2  F: -1269.927554084957819  |grad|_K:  5.452e-08  alpha:  5.028e-01  linmin: -3.986e-05  t[s]:   6064.08
	Linear fluid (dielectric constant: 78.4, screening length: 5.74355 Bohr) occupying 0.757721 of unit cell:	Completed after 1 iterations at t[s]:   6090.37
	Linear fluid (dielectric constant: 78.4, screening length: 5.74355 Bohr) occupying 0.757722 of unit cell:	Completed after 0 iterations at t[s]:   6117.76
	FillingsUpdate:  mu: -0.209278421  nElectrons: 400.000000  magneticMoment: [ Abs: 0.00001  Tot: -0.00000 ]
	SubspaceRotationAdjust: set factor to 0.718
ElecMinimize: Iter:   3  F: -1269.927554516298869  |grad|_K:  3.040e-08  alpha:  6.371e-01  linmin: -1.005e-04  t[s]:   6154.91
	Linear fluid (dielectric constant: 78.4, screening length: 5.74355 Bohr) occupying 0.757723 of unit cell:	Completed after 0 iterations at t[s]:   6181.08
	Linear fluid (dielectric constant: 78.4, screening length: 5.74355 Bohr) occupying 0.757723 of unit cell:	Completed after 0 iterations at t[s]:   6207.92
	FillingsUpdate:  mu: -0.209279246  nElectrons: 400.000000  magneticMoment: [ Abs: 0.00000  Tot: -0.00000 ]
	SubspaceRotationAdjust: set factor to 0.914
ElecMinimize: Iter:   4  F: -1269.927554684861889  |grad|_K:  1.951e-08  alpha:  7.346e-01  linmin:  2.368e-08  t[s]:   6244.83
	Linear fluid (dielectric constant: 78.4, screening length: 5.74355 Bohr) occupying 0.757725 of unit cell:	Completed after 0 iterations at t[s]:   6271.06
	Linear fluid (dielectric constant: 78.4, screening length: 5.74355 Bohr) occupying 0.757724 of unit cell:	Completed after 0 iterations at t[s]:   6298.01
	FillingsUpdate:  mu: -0.209279522  nElectrons: 400.000000  magneticMoment: [ Abs: 0.00000  Tot: -0.00000 ]
	SubspaceRotationAdjust: set factor to 0.999
ElecMinimize: Iter:   5  F: -1269.927554723034291  |grad|_K:  9.320e-09  alpha:  4.635e-01  linmin:  6.831e-08  t[s]:   6334.76
	Linear fluid (dielectric constant: 78.4, screening length: 5.74355 Bohr) occupying 0.757725 of unit cell:	Completed after 0 iterations at t[s]:   6361.16
	Linear fluid (dielectric constant: 78.4, screening length: 5.74355 Bohr) occupying 0.757725 of unit cell:	Completed after 0 iterations at t[s]:   6388.09
	FillingsUpdate:  mu: -0.209279526  nElectrons: 400.000000  magneticMoment: [ Abs: 0.00000  Tot: -0.00000 ]
	SubspaceRotationAdjust: set factor to 1.02
ElecMinimize: Iter:   6  F: -1269.927554732893441  |grad|_K:  5.327e-09  alpha:  5.241e-01  linmin: -1.178e-07  t[s]:   6424.82
	Linear fluid (dielectric constant: 78.4, screening length: 5.74355 Bohr) occupying 0.757725 of unit cell:	Completed after 0 iterations at t[s]:   6451.19
	Linear fluid (dielectric constant: 78.4, screening length: 5.74355 Bohr) occupying 0.757725 of unit cell:	Completed after 0 iterations at t[s]:   6478.16
	FillingsUpdate:  mu: -0.209279446  nElectrons: 400.000000  magneticMoment: [ Abs: 0.00000  Tot: -0.00000 ]
	SubspaceRotationAdjust: set factor to 1.26
ElecMinimize: Iter:   7  F: -1269.927554736097363  |grad|_K:  3.134e-09  alpha:  5.160e-01  linmin:  1.708e-07  t[s]:   6514.94
ElecMinimize: Converged (|Delta F|<1.000000e-08 for 2 iters).
Setting wave functions to eigenvectors of Hamiltonian

# Ionic positions in lattice coordinates:
ion Ta   0.166667780131944   0.083332222888888   0.499999991333335 1
ion Ta   0.416667780131944   0.083332222888888   0.499999991333335 1
ion Ta   0.666667780131944   0.083332222888888   0.499999991333335 1
ion Ta   0.916667780131944   0.083332222888888   0.499999991333335 1
ion Ta   0.166667780131944   0.333332222888888   0.499999991333335 1
ion Ta   0.416667780131944   0.333332222888888   0.499999991333335 1
ion Ta   0.666667780131944   0.333332222888888   0.499999991333335 1
ion Ta   0.916667780131944   0.333332222888888   0.499999991333335 1
ion Ta   0.166667780131944   0.583332222888888   0.499999991333335 1
ion Ta   0.416667780131944   0.583332222888888   0.499999991333335 1
ion Ta   0.666667780131944   0.583332222888888   0.499999991333335 1
ion Ta   0.916667780131944   0.583332222888888   0.499999991333335 1
ion Ta   0.166667780131944   0.833332222888888   0.499999991333335 1
ion Ta   0.416667780131944   0.833332222888888   0.499999991333335 1
ion Ta   0.666667780131944   0.833332222888888   0.499999991333335 1
ion Ta   0.916667780131944   0.833332222888888   0.499999991333335 1
ion S   0.000001113465278  -0.000001110444445   0.586338104272359 1
ion S   0.000001113465278  -0.000001110444445   0.413661878394311 1
ion S   0.250001113465278  -0.000001110444445   0.586338104272359 1
ion S   0.250001113465278  -0.000001110444445   0.413661878394311 1
ion S   0.500001113465278  -0.000001110444445   0.586338104272359 1
ion S   0.500001113465278  -0.000001110444445   0.413661878394311 1
ion S   0.750001113465278  -0.000001110444445   0.586338104272359 1
ion S   0.750001113465278  -0.000001110444445   0.413661878394311 1
ion S   0.000001113465278   0.249998889555555   0.586338104272359 1
ion S   0.000001113465278   0.249998889555555   0.413661878394311 1
ion S   0.250001113465278   0.249998889555555   0.586338104272359 1
ion S   0.250001113465278   0.249998889555555   0.413661878394311 1
ion S   0.500001113465278   0.249998889555555   0.586338104272359 1
ion S   0.500001113465278   0.249998889555555   0.413661878394311 1
ion S   0.750001113465278   0.249998889555555   0.586338104272359 1
ion S   0.750001113465278   0.249998889555555   0.413661878394311 1
ion S   0.000001113465278   0.499998889555555   0.586338104272359 1
ion S   0.000001113465278   0.499998889555555   0.413661878394311 1
ion S   0.250001113465278   0.499998889555555   0.586338104272359 1
ion S   0.250001113465278   0.499998889555555   0.413661878394311 1
ion S   0.500001113465278   0.499998889555555   0.586338104272359 1
ion S   0.500001113465278   0.499998889555555   0.413661878394311 1
ion S   0.750001113465278   0.499998889555555   0.586338104272359 1
ion S   0.750001113465278   0.499998889555555   0.413661878394311 1
ion S   0.000001113465278   0.749998889555555   0.586338104272359 1
ion S   0.000001113465278   0.749998889555555   0.413661878394311 1
ion S   0.250001113465278   0.749998889555555   0.586338104272359 1
ion S   0.250001113465278   0.749998889555555   0.413661878394311 1
ion S   0.500001113465278   0.749998889555555   0.586338104272359 1
ion S   0.500001113465278   0.749998889555555   0.413661878394311 1
ion S   0.750001113465278   0.749998889555555   0.586338104272359 1
ion S   0.750001113465278   0.749998889555555   0.413661878394311 1


# Forces in Lattice coordinates:
force Ta  -0.000000000000000  -0.000000000000000   0.000000000000000 1
force Ta   0.000000000000000   0.000000000000000   0.000000000000000 1
force Ta  -0.000000000000000   0.000000000000000  -0.000000000000000 1
force Ta   0.000000000000000  -0.000000000000000  -0.000000000000000 1
force Ta   0.000000000000000  -0.000000000000000  -0.000000000000000 1
force Ta   0.000000000000000  -0.000000000000000  -0.000000000000000 1
force Ta  -0.000000000000000  -0.000000000000000   0.000000000000000 1
force Ta   0.000000000000000   0.000000000000000   0.000000000000000 1
force Ta  -0.000000000000000  -0.000000000000000  -0.000000000000000 1
force Ta  -0.000000000000000   0.000000000000000  -0.000000000000000 1
force Ta  -0.000000000000000  -0.000000000000000  -0.000000000000000 1
force Ta  -0.000000000000000   0.000000000000000   0.000000000000000 1
force Ta   0.000000000000000  -0.000000000000000  -0.000000000000000 1
force Ta  -0.000000000000000   0.000000000000000  -0.000000000000000 1
force Ta  -0.000000000000000  -0.000000000000000  -0.000000000000000 1
force Ta  -0.000000000000000  -0.000000000000000  -0.000000000000000 1
force S  -0.000000000000000  -0.000000000000000   0.017560254824527 1
force S   0.000000000000000  -0.000000000000000  -0.017560254824525 1
force S  -0.000000000000000   0.000000000000000   0.017560254824526 1
force S   0.000000000000000  -0.000000000000000  -0.017560254824525 1
force S  -0.000000000000000   0.000000000000000   0.017560254824640 1
force S   0.000000000000000   0.000000000000000  -0.017560254824411 1
force S  -0.000000000000000   0.000000000000000   0.017560254824526 1
force S   0.000000000000000   0.000000000000000  -0.017560254824525 1
force S   0.000000000000000  -0.000000000000000   0.017560254824527 1
force S   0.000000000000000  -0.000000000000000  -0.017560254824411 1
force S   0.000000000000000   0.000000000000000   0.017560254824526 1
force S  -0.000000000000000  -0.000000000000000  -0.017560254824411 1
force S   0.000000000000000  -0.000000000000000   0.017560254824526 1
force S   0.000000000000000  -0.000000000000000  -0.017560254824525 1
force S  -0.000000000000000   0.000000000000000   0.017560254824526 1
force S   0.000000000000000  -0.000000000000000  -0.017560254824525 1
force S  -0.000000000000000   0.000000000000000   0.017560254824526 1
force S   0.000000000000000   0.000000000000000  -0.017560254824410 1
force S  -0.000000000000000   0.000000000000000   0.017560254824526 1
force S  -0.000000000000000   0.000000000000000  -0.017560254824411 1
force S  -0.000000000000000   0.000000000000000   0.017560254824526 1
force S  -0.000000000000000  -0.000000000000000  -0.017560254824298 1
force S  -0.000000000000000  -0.000000000000000   0.017560254824527 1
force S   0.000000000000000  -0.000000000000000  -0.017560254824411 1
force S  -0.000000000000000   0.000000000000000   0.017560254824413 1
force S   0.000000000000000   0.000000000000000  -0.017560254824525 1
force S   0.000000000000000   0.000000000000000   0.017560254824641 1
force S  -0.000000000000000  -0.000000000000000  -0.017560254824526 1
force S   0.000000000000000   0.000000000000000   0.017560254824526 1
force S  -0.000000000000000   0.000000000000000  -0.017560254824525 1
force S  -0.000000000000000   0.000000000000000   0.017560254824526 1
force S  -0.000000000000000   0.000000000000000  -0.017560254824410 1

# Energy components:
   A_diel =        0.0102508432142363
   Eewald =     7269.1744438491305118
       EH =     8280.8053547690215055
     Eloc =   -16823.3170132955710869
      Enl =     -222.9936695805667171
      Exc =     -473.2591888253342063
 Exc_core =      252.5823471786364109
       KE =      447.1557881004266051
-------------------------------------
     Etot =    -1269.8416869610423419
       TS =        0.0858677750551299
-------------------------------------
        F =    -1269.9275547360973633

IonicMinimize: Iter:   1  F: -1269.927554736097363  |grad|_K:  2.416e-04  alpha:  1.000e+00  linmin: -1.000e+00  t[s]:   6533.16

#--- Lowdin population analysis ---
# oxidation-state Ta -0.391 -0.391 -0.391 -0.391 -0.391 -0.391 -0.391 -0.391 -0.391 -0.391 -0.391 -0.391 -0.391 -0.391 -0.391 -0.391
# magnetic-moments Ta -0.000 -0.000 -0.000 -0.000 -0.000 -0.000 -0.000 -0.000 -0.000 -0.000 -0.000 -0.000 -0.000 -0.000 -0.000 -0.000
# oxidation-state S +0.253 +0.253 +0.253 +0.253 +0.253 +0.253 +0.253 +0.253 +0.253 +0.253 +0.253 +0.253 +0.253 +0.253 +0.253 +0.253 +0.253 +0.253 +0.253 +0.253 +0.253 +0.253 +0.253 +0.253 +0.253 +0.253 +0.253 +0.253 +0.253 +0.253 +0.253 +0.253
# magnetic-moments S -0.000 -0.000 -0.000 -0.000 -0.000 -0.000 -0.000 -0.000 -0.000 -0.000 -0.000 -0.000 -0.000 -0.000 -0.000 -0.000 -0.000 -0.000 -0.000 -0.000 -0.000 -0.000 -0.000 -0.000 -0.000 -0.000 -0.000 -0.000 -0.000 -0.000 -0.000 -0.000

	Linear fluid (dielectric constant: 78.4, screening length: 5.74355 Bohr) occupying 0.757621 of unit cell:	Completed after 5 iterations at t[s]:   6560.77

-------- Electronic minimization -----------
	Linear fluid (dielectric constant: 78.4, screening length: 5.74355 Bohr) occupying 0.757621 of unit cell:	Completed after 0 iterations at t[s]:   6582.15
	FillingsUpdate:  mu: -0.208809119  nElectrons: 400.000000  magneticMoment: [ Abs: 0.00003  Tot: -0.00000 ]
ElecMinimize: Iter:   0  F: -1269.927517751709729  |grad|_K:  7.530e-07  alpha:  1.000e+00
	Linear fluid (dielectric constant: 78.4, screening length: 5.74355 Bohr) occupying 0.757615 of unit cell:	Completed after 9 iterations at t[s]:   6649.95
	Linear fluid (dielectric constant: 78.4, screening length: 5.74355 Bohr) occupying 0.757620 of unit cell:	Completed after 10 iterations at t[s]:   6680.12
	FillingsUpdate:  mu: -0.209763936  nElectrons: 400.000000  magneticMoment: [ Abs: 0.00001  Tot: -0.00000 ]
	SubspaceRotationAdjust: set factor to 0.81
ElecMinimize: Iter:   1  F: -1269.927550947794316  |grad|_K:  5.190e-07  alpha:  2.729e-01  linmin:  3.413e-05  t[s]:   6719.53
	Linear fluid (dielectric constant: 78.4, screening length: 5.74355 Bohr) occupying 0.757638 of unit cell:	Completed after 3 iterations at t[s]:   6746.10
	Linear fluid (dielectric constant: 78.4, screening length: 5.74355 Bohr) occupying 0.757648 of unit cell:	Completed after 3 iterations at t[s]:   6774.18
	FillingsUpdate:  mu: -0.209334913  nElectrons: 400.000000  magneticMoment: [ Abs: 0.00000  Tot: -0.00000 ]
	SubspaceRotationAdjust: set factor to 0.753
ElecMinimize: Iter:   2  F: -1269.927575997705617  |grad|_K:  1.043e-07  alpha:  4.333e-01  linmin:  1.243e-04  t[s]:   6812.07
	Linear fluid (dielectric constant: 78.4, screening length: 5.74355 Bohr) occupying 0.757651 of unit cell:	Completed after 3 iterations at t[s]:   6838.72
	Linear fluid (dielectric constant: 78.4, screening length: 5.74355 Bohr) occupying 0.757652 of unit cell:	Completed after 0 iterations at t[s]:   6866.72
	FillingsUpdate:  mu: -0.209279424  nElectrons: 400.000000  magneticMoment: [ Abs: 0.00000  Tot: -0.00000 ]
	SubspaceRotationAdjust: set factor to 0.803
ElecMinimize: Iter:   3  F: -1269.927577174280941  |grad|_K:  4.393e-08  alpha:  4.895e-01  linmin: -4.379e-04  t[s]:   6903.45
	Linear fluid (dielectric constant: 78.4, screening length: 5.74355 Bohr) occupying 0.757652 of unit cell:	Completed after 0 iterations at t[s]:   6929.80
	Linear fluid (dielectric constant: 78.4, screening length: 5.74355 Bohr) occupying 0.757652 of unit cell:	Completed after 0 iterations at t[s]:   6956.70
	FillingsUpdate:  mu: -0.209278698  nElectrons: 400.000000  magneticMoment: [ Abs: 0.00000  Tot: -0.00000 ]
	SubspaceRotationAdjust: set factor to 0.869
ElecMinimize: Iter:   4  F: -1269.927577578964701  |grad|_K:  3.076e-08  alpha:  8.384e-01  linmin:  3.683e-07  t[s]:   6993.77
	Linear fluid (dielectric constant: 78.4, screening length: 5.74355 Bohr) occupying 0.757652 of unit cell:	Completed after 0 iterations at t[s]:   7020.05
	Linear fluid (dielectric constant: 78.4, screening length: 5.74355 Bohr) occupying 0.757652 of unit cell:	Completed after 0 iterations at t[s]:   7046.93
	FillingsUpdate:  mu: -0.209278423  nElectrons: 400.000000  magneticMoment: [ Abs: 0.00000  Tot: -0.00000 ]
	SubspaceRotationAdjust: set factor to 0.97
ElecMinimize: Iter:   5  F: -1269.927577699889980  |grad|_K:  1.733e-08  alpha:  5.911e-01  linmin: -4.254e-08  t[s]:   7083.69
	Linear fluid (dielectric constant: 78.4, screening length: 5.74355 Bohr) occupying 0.757652 of unit cell:	Completed after 0 iterations at t[s]:   7110.10
	Linear fluid (dielectric constant: 78.4, screening length: 5.74355 Bohr) occupying 0.757652 of unit cell:	Completed after 0 iterations at t[s]:   7137.07
	FillingsUpdate:  mu: -0.209278388  nElectrons: 400.000000  magneticMoment: [ Abs: 0.00000  Tot: -0.00000 ]
	SubspaceRotationAdjust: set factor to 1.09
ElecMinimize: Iter:   6  F: -1269.927577736260901  |grad|_K:  9.539e-09  alpha:  5.586e-01  linmin:  8.248e-08  t[s]:   7173.97
	Linear fluid (dielectric constant: 78.4, screening length: 5.74355 Bohr) occupying 0.757652 of unit cell:	Completed after 0 iterations at t[s]:   7200.16
	Linear fluid (dielectric constant: 78.4, screening length: 5.74355 Bohr) occupying 0.757652 of unit cell:	Completed after 0 iterations at t[s]:   7227.10
	FillingsUpdate:  mu: -0.209278430  nElectrons: 400.000000  magneticMoment: [ Abs: 0.00000  Tot: -0.00000 ]
	SubspaceRotationAdjust: set factor to 1.17
ElecMinimize: Iter:   7  F: -1269.927577747653004  |grad|_K:  6.532e-09  alpha:  5.751e-01  linmin: -7.766e-08  t[s]:   7263.80
	Linear fluid (dielectric constant: 78.4, screening length: 5.74355 Bohr) occupying 0.757652 of unit cell:	Completed after 0 iterations at t[s]:   7290.08
	Linear fluid (dielectric constant: 78.4, screening length: 5.74355 Bohr) occupying 0.757652 of unit cell:	Completed after 0 iterations at t[s]:   7317.03
	FillingsUpdate:  mu: -0.209278508  nElectrons: 400.000000  magneticMoment: [ Abs: 0.00000  Tot: -0.00000 ]
	SubspaceRotationAdjust: set factor to 1.27
ElecMinimize: Iter:   8  F: -1269.927577752393972  |grad|_K:  3.635e-09  alpha:  5.194e-01  linmin: -2.084e-07  t[s]:   7353.85
	Linear fluid (dielectric constant: 78.4, screening length: 5.74355 Bohr) occupying 0.757652 of unit cell:	Completed after 0 iterations at t[s]:   7380.12
	Linear fluid (dielectric constant: 78.4, screening length: 5.74355 Bohr) occupying 0.757652 of unit cell:	Completed after 0 iterations at t[s]:   7407.02
	FillingsUpdate:  mu: -0.209278581  nElectrons: 400.000000  magneticMoment: [ Abs: 0.00000  Tot: -0.00000 ]
	SubspaceRotationAdjust: set factor to 1.43
ElecMinimize: Iter:   9  F: -1269.927577753954210  |grad|_K:  2.320e-09  alpha:  5.348e-01  linmin:  6.295e-07  t[s]:   7443.83
ElecMinimize: Converged (|Delta F|<1.000000e-08 for 2 iters).
Setting wave functions to eigenvectors of Hamiltonian

# Ionic positions in lattice coordinates:
ion Ta   0.166667780131944   0.083332222888888   0.499999991333335 1
ion Ta   0.416667780131944   0.083332222888888   0.499999991333335 1
ion Ta   0.666667780131944   0.083332222888888   0.499999991333335 1
ion Ta   0.916667780131944   0.083332222888888   0.499999991333335 1
ion Ta   0.166667780131944   0.333332222888888   0.499999991333335 1
ion Ta   0.416667780131944   0.333332222888888   0.499999991333335 1
ion Ta   0.666667780131944   0.333332222888888   0.499999991333335 1
ion Ta   0.916667780131944   0.333332222888888   0.499999991333335 1
ion Ta   0.166667780131944   0.583332222888888   0.499999991333335 1
ion Ta   0.416667780131944   0.583332222888888   0.499999991333335 1
ion Ta   0.666667780131944   0.583332222888888   0.499999991333335 1
ion Ta   0.916667780131944   0.583332222888888   0.499999991333335 1
ion Ta   0.166667780131944   0.833332222888888   0.499999991333335 1
ion Ta   0.416667780131944   0.833332222888888   0.499999991333335 1
ion Ta   0.666667780131944   0.833332222888888   0.499999991333335 1
ion Ta   0.916667780131944   0.833332222888888   0.499999991333335 1
ion S   0.000001113465278  -0.000001110444445   0.586423756688958 1
ion S   0.000001113465278  -0.000001110444445   0.413576225977712 1
ion S   0.250001113465278  -0.000001110444445   0.586423756688958 1
ion S   0.250001113465278  -0.000001110444445   0.413576225977712 1
ion S   0.500001113465278  -0.000001110444445   0.586423756688958 1
ion S   0.500001113465278  -0.000001110444445   0.413576225977712 1
ion S   0.750001113465278  -0.000001110444445   0.586423756688958 1
ion S   0.750001113465278  -0.000001110444445   0.413576225977712 1
ion S   0.000001113465278   0.249998889555555   0.586423756688958 1
ion S   0.000001113465278   0.249998889555555   0.413576225977712 1
ion S   0.250001113465278   0.249998889555555   0.586423756688958 1
ion S   0.250001113465278   0.249998889555555   0.413576225977712 1
ion S   0.500001113465278   0.249998889555555   0.586423756688958 1
ion S   0.500001113465278   0.249998889555555   0.413576225977712 1
ion S   0.750001113465278   0.249998889555555   0.586423756688958 1
ion S   0.750001113465278   0.249998889555555   0.413576225977712 1
ion S   0.000001113465278   0.499998889555555   0.586423756688958 1
ion S   0.000001113465278   0.499998889555555   0.413576225977712 1
ion S   0.250001113465278   0.499998889555555   0.586423756688958 1
ion S   0.250001113465278   0.499998889555555   0.413576225977712 1
ion S   0.500001113465278   0.499998889555555   0.586423756688958 1
ion S   0.500001113465278   0.499998889555555   0.413576225977712 1
ion S   0.750001113465278   0.499998889555555   0.586423756688958 1
ion S   0.750001113465278   0.499998889555555   0.413576225977712 1
ion S   0.000001113465278   0.749998889555555   0.586423756688958 1
ion S   0.000001113465278   0.749998889555555   0.413576225977712 1
ion S   0.250001113465278   0.749998889555555   0.586423756688958 1
ion S   0.250001113465278   0.749998889555555   0.413576225977712 1
ion S   0.500001113465278   0.749998889555555   0.586423756688958 1
ion S   0.500001113465278   0.749998889555555   0.413576225977712 1
ion S   0.750001113465278   0.749998889555555   0.586423756688958 1
ion S   0.750001113465278   0.749998889555555   0.413576225977712 1


# Forces in Lattice coordinates:
force Ta  -0.000000000000000   0.000000000000000  -0.000000000000000 1
force Ta   0.000000000000000  -0.000000000000000   0.000000000000000 1
force Ta  -0.000000000000000   0.000000000000000  -0.000000000000000 1
force Ta  -0.000000000000000   0.000000000000000   0.000000000000000 1
force Ta   0.000000000000000   0.000000000000000   0.000000000000000 1
force Ta   0.000000000000000  -0.000000000000000   0.000000000000000 1
force Ta   0.000000000000000   0.000000000000000   0.000000000000000 1
force Ta   0.000000000000000   0.000000000000000   0.000000000000000 1
force Ta   0.000000000000000   0.000000000000000  -0.000000000000000 1
force Ta  -0.000000000000000   0.000000000000000   0.000000000000000 1
force Ta  -0.000000000000000   0.000000000000000  -0.000000000000000 1
force Ta  -0.000000000000000   0.000000000000000   0.000000000000000 1
force Ta   0.000000000000000   0.000000000000000   0.000000000000000 1
force Ta  -0.000000000000000   0.000000000000000  -0.000000000000000 1
force Ta   0.000000000000000   0.000000000000000   0.000000000000000 1
force Ta  -0.000000000000000   0.000000000000000   0.000000000000000 1
force S   0.000000000000000   0.000000000000000  -0.000612432740562 1
force S   0.000000000000000   0.000000000000000   0.000612432740790 1
force S  -0.000000000000000   0.000000000000000  -0.000612432740562 1
force S   0.000000000000000  -0.000000000000000   0.000612432740790 1
force S   0.000000000000000   0.000000000000000  -0.000612432740676 1
force S  -0.000000000000000  -0.000000000000000   0.000612432740790 1
force S  -0.000000000000000   0.000000000000000  -0.000612432740562 1
force S  -0.000000000000000  -0.000000000000000   0.000612432740789 1
force S  -0.000000000000000   0.000000000000000  -0.000612432740676 1
force S   0.000000000000000  -0.000000000000000   0.000612432740790 1
force S  -0.000000000000000  -0.000000000000000  -0.000612432740789 1
force S   0.000000000000000   0.000000000000000   0.000612432740790 1
force S  -0.000000000000000  -0.000000000000000  -0.000612432740790 1
force S   0.000000000000000  -0.000000000000000   0.000612432740676 1
force S  -0.000000000000000   0.000000000000000  -0.000612432740676 1
force S   0.000000000000000  -0.000000000000000   0.000612432740790 1
force S  -0.000000000000000   0.000000000000000  -0.000612432740789 1
force S   0.000000000000000   0.000000000000000   0.000612432740790 1
force S  -0.000000000000000   0.000000000000000  -0.000612432740562 1
force S   0.000000000000000   0.000000000000000   0.000612432740904 1
force S  -0.000000000000000  -0.000000000000000  -0.000612432740562 1
force S   0.000000000000000   0.000000000000000   0.000612432740790 1
force S  -0.000000000000000   0.000000000000000  -0.000612432740562 1
force S   0.000000000000000   0.000000000000000   0.000612432740790 1
force S  -0.000000000000000   0.000000000000000  -0.000612432740563 1
force S   0.000000000000000   0.000000000000000   0.000612432740790 1
force S   0.000000000000000   0.000000000000000  -0.000612432740562 1
force S  -0.000000000000000   0.000000000000000   0.000612432740904 1
force S   0.000000000000000  -0.000000000000000  -0.000612432740564 1
force S   0.000000000000000   0.000000000000000   0.000612432740790 1
force S   0.000000000000000   0.000000000000000  -0.000612432740563 1
force S   0.000000000000000  -0.000000000000000   0.000612432740790 1

# Energy components:
   A_diel =        0.0102636923217194
   Eewald =     7267.5481873164162607
       EH =     8279.2028041570174537
     Eloc =   -16820.0600298462413775
      Enl =     -222.9910517665851444
      Exc =     -473.2412484081876869
 Exc_core =      252.5823409247591371
       KE =      447.1070776532005198
-------------------------------------
     Etot =    -1269.8416562772995348
       TS =        0.0859214766547890
-------------------------------------
        F =    -1269.9275777539542105

IonicMinimize: Iter:   2  F: -1269.927577753954210  |grad|_K:  8.426e-06  alpha:  1.000e+00  linmin:  1.000e+00  t[s]:   7462.03
IonicMinimize: Converged (|grad|_K<1.000000e-04).

#--- Lowdin population analysis ---
# oxidation-state Ta -0.391 -0.391 -0.391 -0.391 -0.391 -0.391 -0.391 -0.391 -0.391 -0.391 -0.391 -0.391 -0.391 -0.391 -0.391 -0.391
# magnetic-moments Ta -0.000 -0.000 -0.000 -0.000 -0.000 -0.000 -0.000 -0.000 -0.000 -0.000 -0.000 -0.000 -0.000 -0.000 -0.000 -0.000
# oxidation-state S +0.253 +0.253 +0.253 +0.253 +0.253 +0.253 +0.253 +0.253 +0.253 +0.253 +0.253 +0.253 +0.253 +0.253 +0.253 +0.253 +0.253 +0.253 +0.253 +0.253 +0.253 +0.253 +0.253 +0.253 +0.253 +0.253 +0.253 +0.253 +0.253 +0.253 +0.253 +0.253
# magnetic-moments S +0.000 +0.000 +0.000 +0.000 +0.000 +0.000 +0.000 +0.000 +0.000 +0.000 +0.000 +0.000 +0.000 +0.000 +0.000 +0.000 +0.000 +0.000 +0.000 +0.000 +0.000 +0.000 +0.000 +0.000 +0.000 +0.000 +0.000 +0.000 +0.000 +0.000 +0.000 +0.000


Dumping 'NbTe2.fillings' ... done
Dumping 'NbTe2.wfns' ... done
Dumping 'NbTe2.fluidState' ... done
Dumping 'NbTe2.ionpos' ... done
Dumping 'NbTe2.eigenvals' ... done
End date and time: Thu Jan  7 08:47:35 2021  (Duration: 0-2:04:30.53)
Done!
