
*************** JDFTx 1.5.0  ***************

Start date and time: Sun Feb  7 05:40:46 2021
Executable jdftx_gpu with command-line: -i Charged.in -o Charged.out
Running on hosts (process indices):  amax (0-6)
Divided in process groups (process indices):  0 (0)  1 (1)  2 (2)  3 (3)  4 (4)  5 (5)  6 (6)
gpuInit: Found compatible cuda device 0 'Tesla K80'
gpuInit: Found compatible cuda device 1 'Tesla K80'
gpuInit: Found compatible cuda device 2 'Tesla K80'
gpuInit: Found compatible cuda device 3 'Tesla K80'
gpuInit: Found compatible cuda device 4 'Tesla K80'
gpuInit: Found compatible cuda device 5 'Tesla K80'
gpuInit: Found compatible cuda device 6 'Tesla K80'
gpuInit: Selected device 0
Resource initialization completed at t[s]:      3.51
Run totals: 7 processes, 24 threads, 7 GPUs


Input parsed successfully to the following command list (including defaults):

basis kpoint-dependent
cache-projectors no
coords-type Lattice
core-overlap-check none
coulomb-interaction Slab 001
coulomb-truncation-embed 0.5 0.5 0.5
davidson-band-ratio 1.1
dump End State
dump-name NbTe2.$VAR
elec-cutoff 20
elec-eigen-algo Davidson
elec-ex-corr gga-PBE
elec-initial-charge -1.000000
elec-initial-magnetization 10.000000 no
elec-smearing Gauss 0.0073499
electronic-minimize  \
	dirUpdateScheme      FletcherReeves \
	linminMethod         DirUpdateRecommended \
	nIterations          200 \
	history              15 \
	knormThreshold       0 \
	energyDiffThreshold  1e-08 \
	nEnergyDiff          2 \
	alphaTstart          1 \
	alphaTmin            1e-10 \
	updateTestStepSize   yes \
	alphaTreduceFactor   0.1 \
	alphaTincreaseFactor 3 \
	nAlphaAdjustMax      3 \
	wolfeEnergy          0.0001 \
	wolfeGradient        0.9 \
	fdTest               no
exchange-regularization WignerSeitzTruncated
fluid LinearPCM 298.000000 1.013250
fluid-anion F- 1 MeanFieldLJ \
	epsBulk 1 \
	pMol 0 \
	epsInf 1 \
	Pvap 0 \
	sigmaBulk 0 \
	Rvdw 2.24877 \
	Res 0 \
	tauNuc 343133
fluid-cation Na+ 1 MeanFieldLJ \
	epsBulk 1 \
	pMol 0 \
	epsInf 1 \
	Pvap 0 \
	sigmaBulk 0 \
	Rvdw 2.19208 \
	Res 0 \
	tauNuc 343133
fluid-ex-corr lda-TF lda-PZ
fluid-gummel-loop 10 1.000000e-05
fluid-minimize  \
	dirUpdateScheme      PolakRibiere \
	linminMethod         DirUpdateRecommended \
	nIterations          400 \
	history              15 \
	knormThreshold       1e-11 \
	energyDiffThreshold  0 \
	nEnergyDiff          2 \
	alphaTstart          1 \
	alphaTmin            1e-10 \
	updateTestStepSize   yes \
	alphaTreduceFactor   0.1 \
	alphaTincreaseFactor 3 \
	nAlphaAdjustMax      6 \
	wolfeEnergy          0.0001 \
	wolfeGradient        0.9 \
	fdTest               no
fluid-solvent H2O 55.338 ScalarEOS \
	epsBulk 78.4 \
	pMol 0.92466 \
	epsInf 1.77 \
	Pvap 1.06736e-10 \
	sigmaBulk 4.62e-05 \
	Rvdw 2.61727 \
	Res 1.42 \
	tauNuc 343133 \
	poleEl 15 7 1
forces-output-coords Positions
initial-state NbTe2.$VAR
ion Zr   0.125000000000000   0.000000000000000   0.600463993117415 1
ion Zr   0.000000000000000   0.125000000000000   0.399535992215919 1
ion Zr   0.375000000000000   0.000000000000000   0.600463993117415 1
ion Zr   0.250000000000000   0.125000000000000   0.399535992215919 1
ion Zr   0.625000000000000   0.000000000000000   0.600463993117415 1
ion Zr   0.500000000000000   0.125000000000000   0.399535992215919 1
ion Zr   0.875000000000000   0.000000000000000   0.600463993117415 1
ion Zr   0.750000000000000   0.125000000000000   0.399535992215919 1
ion Zr   0.125000000000000   0.250000000000000   0.600463993117415 1
ion Zr   0.000000000000000   0.375000000000000   0.399535992215919 1
ion Zr   0.375000000000000   0.250000000000000   0.600463993117415 1
ion Zr   0.250000000000000   0.375000000000000   0.399535992215919 1
ion Zr   0.625000000000000   0.250000000000000   0.600463993117415 1
ion Zr   0.500000000000000   0.375000000000000   0.399535992215919 1
ion Zr   0.875000000000000   0.250000000000000   0.600463993117415 1
ion Zr   0.750000000000000   0.375000000000000   0.399535992215919 1
ion Zr   0.125000000000000   0.500000000000000   0.600463993117415 1
ion Zr   0.000000000000000   0.625000000000000   0.399535992215919 1
ion Zr   0.375000000000000   0.500000000000000   0.600463993117415 1
ion Zr   0.250000000000000   0.625000000000000   0.399535992215919 1
ion Zr   0.625000000000000   0.500000000000000   0.600463993117415 1
ion Zr   0.500000000000000   0.625000000000000   0.399535992215919 1
ion Zr   0.875000000000000   0.500000000000000   0.600463993117415 1
ion Zr   0.750000000000000   0.625000000000000   0.399535992215919 1
ion Zr   0.125000000000000   0.750000000000000   0.600463993117415 1
ion Zr   0.000000000000000   0.875000000000000   0.399535992215919 1
ion Zr   0.375000000000000   0.750000000000000   0.600463993117415 1
ion Zr   0.250000000000000   0.875000000000000   0.399535992215919 1
ion Zr   0.625000000000000   0.750000000000000   0.600463993117415 1
ion Zr   0.500000000000000   0.875000000000000   0.399535992215919 1
ion Zr   0.875000000000000   0.750000000000000   0.600463993117415 1
ion Zr   0.750000000000000   0.875000000000000   0.399535992215919 1
ion Si   0.000000000000000   0.000000000000000   0.499999992666667 1
ion Si   0.125000000000000   0.125000000000000   0.499999992666667 1
ion Si   0.250000000000000   0.000000000000000   0.499999992666667 1
ion Si   0.375000000000000   0.125000000000000   0.499999992666667 1
ion Si   0.500000000000000   0.000000000000000   0.499999992666667 1
ion Si   0.625000000000000   0.125000000000000   0.499999992666667 1
ion Si   0.750000000000000   0.000000000000000   0.499999992666667 1
ion Si   0.875000000000000   0.125000000000000   0.499999992666667 1
ion Si   0.000000000000000   0.250000000000000   0.499999992666667 1
ion Si   0.125000000000000   0.375000000000000   0.499999992666667 1
ion Si   0.250000000000000   0.250000000000000   0.499999992666667 1
ion Si   0.375000000000000   0.375000000000000   0.499999992666667 1
ion Si   0.500000000000000   0.250000000000000   0.499999992666667 1
ion Si   0.625000000000000   0.375000000000000   0.499999992666667 1
ion Si   0.750000000000000   0.250000000000000   0.499999992666667 1
ion Si   0.875000000000000   0.375000000000000   0.499999992666667 1
ion Si   0.000000000000000   0.500000000000000   0.499999992666667 1
ion Si   0.125000000000000   0.625000000000000   0.499999992666667 1
ion Si   0.250000000000000   0.500000000000000   0.499999992666667 1
ion Si   0.375000000000000   0.625000000000000   0.499999992666667 1
ion Si   0.500000000000000   0.500000000000000   0.499999992666667 1
ion Si   0.625000000000000   0.625000000000000   0.499999992666667 1
ion Si   0.750000000000000   0.500000000000000   0.499999992666667 1
ion Si   0.875000000000000   0.625000000000000   0.499999992666667 1
ion Si   0.000000000000000   0.750000000000000   0.499999992666667 1
ion Si   0.125000000000000   0.875000000000000   0.499999992666667 1
ion Si   0.250000000000000   0.750000000000000   0.499999992666667 1
ion Si   0.375000000000000   0.875000000000000   0.499999992666667 1
ion Si   0.500000000000000   0.750000000000000   0.499999992666667 1
ion Si   0.625000000000000   0.875000000000000   0.499999992666667 1
ion Si   0.750000000000000   0.750000000000000   0.499999992666667 1
ion Si   0.875000000000000   0.875000000000000   0.499999992666667 1
ion Se   0.000000000000000   0.125000000000000   0.655072542915365 1
ion Se   0.125000000000000   0.000000000000000   0.344927442417968 1
ion Se   0.250000000000000   0.125000000000000   0.655072542915365 1
ion Se   0.375000000000000   0.000000000000000   0.344927442417968 1
ion Se   0.500000000000000   0.125000000000000   0.655072542915365 1
ion Se   0.625000000000000   0.000000000000000   0.344927442417968 1
ion Se   0.750000000000000   0.125000000000000   0.655072542915365 1
ion Se   0.875000000000000   0.000000000000000   0.344927442417968 1
ion Se   0.000000000000000   0.375000000000000   0.655072542915365 1
ion Se   0.125000000000000   0.250000000000000   0.344927442417968 1
ion Se   0.250000000000000   0.375000000000000   0.655072542915365 1
ion Se   0.375000000000000   0.250000000000000   0.344927442417968 1
ion Se   0.500000000000000   0.375000000000000   0.655072542915365 1
ion Se   0.625000000000000   0.250000000000000   0.344927442417968 1
ion Se   0.750000000000000   0.375000000000000   0.655072542915365 1
ion Se   0.875000000000000   0.250000000000000   0.344927442417968 1
ion Se   0.000000000000000   0.625000000000000   0.655072542915365 1
ion Se   0.125000000000000   0.500000000000000   0.344927442417968 1
ion Se   0.250000000000000   0.625000000000000   0.655072542915365 1
ion Se   0.375000000000000   0.500000000000000   0.344927442417968 1
ion Se   0.500000000000000   0.625000000000000   0.655072542915365 1
ion Se   0.625000000000000   0.500000000000000   0.344927442417968 1
ion Se   0.750000000000000   0.625000000000000   0.655072542915365 1
ion Se   0.875000000000000   0.500000000000000   0.344927442417968 1
ion Se   0.000000000000000   0.875000000000000   0.655072542915365 1
ion Se   0.125000000000000   0.750000000000000   0.344927442417968 1
ion Se   0.250000000000000   0.875000000000000   0.655072542915365 1
ion Se   0.375000000000000   0.750000000000000   0.344927442417968 1
ion Se   0.500000000000000   0.875000000000000   0.655072542915365 1
ion Se   0.625000000000000   0.750000000000000   0.344927442417968 1
ion Se   0.750000000000000   0.875000000000000   0.655072542915365 1
ion Se   0.875000000000000   0.750000000000000   0.344927442417968 1
ion-species GBRV/$ID_pbe.uspp
ion-width Ecut
ionic-minimize  \
	dirUpdateScheme      L-BFGS \
	linminMethod         DirUpdateRecommended \
	nIterations          500 \
	history              15 \
	knormThreshold       0.0001 \
	energyDiffThreshold  1e-06 \
	nEnergyDiff          2 \
	alphaTstart          1 \
	alphaTmin            1e-10 \
	updateTestStepSize   yes \
	alphaTreduceFactor   0.1 \
	alphaTincreaseFactor 3 \
	nAlphaAdjustMax      3 \
	wolfeEnergy          0.0001 \
	wolfeGradient        0.9 \
	fdTest               no
kpoint   0.000000000000   0.000000000000   0.000000000000  1.00000000000000
kpoint-folding 3 3 1 
latt-move-scale 1 1 1
latt-scale 1.88973 1.88973 1.88973 
lattice Triclinic 14.0807 14.0807 21.7064 90 90 90
lattice-minimize  \
	dirUpdateScheme      L-BFGS \
	linminMethod         DirUpdateRecommended \
	nIterations          0 \
	history              15 \
	knormThreshold       0 \
	energyDiffThreshold  1e-06 \
	nEnergyDiff          2 \
	alphaTstart          1 \
	alphaTmin            1e-10 \
	updateTestStepSize   yes \
	alphaTreduceFactor   0.1 \
	alphaTincreaseFactor 3 \
	nAlphaAdjustMax      3 \
	wolfeEnergy          0.0001 \
	wolfeGradient        0.9 \
	fdTest               no
lcao-params -1 1e-06 0.0073499
pcm-variant CANDLE
spintype z-spin
subspace-rotation-factor 1 yes
symmetries automatic
symmetry-threshold 0.0001



---------- Setting up symmetries ----------

Found 16 point-group symmetries of the bravais lattice
Found 256 space-group symmetries with basis
Applied RMS atom displacement 9.83785e-15 bohrs to make symmetries exact.

---------- Initializing the Grid ----------
R = 
[    26.6087          0          0  ]
[          0    26.6087          0  ]
[          0          0    41.0191  ]
unit cell volume = 29042.4
G =
[   0.236133          0          0  ]
[          0   0.236133          0  ]
[          0          0   0.153177  ]
Minimum fftbox size, Smin = [  108  108  168  ]
Chosen fftbox size, S = [  108  108  168  ]

---------- Exchange Correlation functional ----------
Initalized PBE GGA exchange.
Initalized PBE GGA correlation.

---------- Setting up pseudopotentials ----------
Width of ionic core gaussian charges (only for fluid interactions / plotting) set to 0.397384

Reading pseudopotential file '/home/guoxy/vasp/jdftx-1.5.0/build/pseudopotentials/GBRV/zr_pbe.uspp':
  Title: Zr.  Created by USPP 7.3.6 on 14-9-2013
  Reference state energy: -49.308156.  12 valence electrons in orbitals:
    |400>  occupation: 2  eigenvalue: -2.002953
    |410>  occupation: 6  eigenvalue: -1.192957
    |420>  occupation: 2  eigenvalue: -0.132269
    |500>  occupation: 2  eigenvalue: -0.163143
    |510>  occupation: 0  eigenvalue: -0.053997
  lMax: 2  lLocal: 3  QijEcut: 5
  6 projectors sampled on a log grid with 625 points:
    l: 0  eig: -2.002953  rCut: 1.8
    l: 0  eig: -0.132269  rCut: 1.8
    l: 1  eig: -1.192956  rCut: 2
    l: 1  eig: 0.150000  rCut: 2
    l: 2  eig: -0.163145  rCut: 2.2
    l: 2  eig: 0.150000  rCut: 2.2
  Partial core density with radius 1.2
  Transforming core density to a uniform radial grid of dG=0.02 with 1113 points.
  Transforming local potential to a uniform radial grid of dG=0.02 with 1113 points.
  Transforming nonlocal projectors to a uniform radial grid of dG=0.02 with 432 points.
  Transforming density augmentations to a uniform radial grid of dG=0.02 with 1113 points.
  Transforming atomic orbitals to a uniform radial grid of dG=0.02 with 432 points.
  Core radius for overlap checks: 2.20 bohrs.

Reading pseudopotential file '/home/guoxy/vasp/jdftx-1.5.0/build/pseudopotentials/GBRV/si_pbe.uspp':
  Title: Si.  Created by USPP 7.3.6 on 14-9-2013
  Reference state energy: -4.599342.  4 valence electrons in orbitals:
    |300>  occupation: 2  eigenvalue: -0.397366
    |310>  occupation: 2  eigenvalue: -0.149981
  lMax: 2  lLocal: 3  QijEcut: 5
  6 projectors sampled on a log grid with 627 points:
    l: 0  eig: -0.397364  rCut: 1.6
    l: 0  eig: 1.000000  rCut: 1.6
    l: 1  eig: -0.149982  rCut: 1.6
    l: 1  eig: 1.000000  rCut: 1.6
    l: 2  eig: -0.100000  rCut: 1.7
    l: 2  eig: 0.100000  rCut: 1.7
  Partial core density with radius 1.45
  Transforming core density to a uniform radial grid of dG=0.02 with 1113 points.
  Transforming local potential to a uniform radial grid of dG=0.02 with 1113 points.
  Transforming nonlocal projectors to a uniform radial grid of dG=0.02 with 432 points.
  Transforming density augmentations to a uniform radial grid of dG=0.02 with 1113 points.
  Transforming atomic orbitals to a uniform radial grid of dG=0.02 with 432 points.
  Core radius for overlap checks: 1.70 bohrs.

Reading pseudopotential file '/home/guoxy/vasp/jdftx-1.5.0/build/pseudopotentials/GBRV/se_pbe.uspp':
  Title: Se.  Created by USPP 7.3.6 on 14-9-2013
  Reference state energy: -21.672887.  6 valence electrons in orbitals:
    |400>  occupation: 2  eigenvalue: -0.635284
    |410>  occupation: 4  eigenvalue: -0.239295
  lMax: 2  lLocal: 3  QijEcut: 5
  6 projectors sampled on a log grid with 625 points:
    l: 0  eig: -0.635278  rCut: 1.5
    l: 0  eig: 0.500000  rCut: 1.5
    l: 1  eig: -0.239295  rCut: 1.5
    l: 1  eig: 0.500000  rCut: 1.5
    l: 2  eig: 0.000000  rCut: 1.8
    l: 2  eig: 1.000000  rCut: 1.8
  Partial core density with radius 1.2
  Transforming core density to a uniform radial grid of dG=0.02 with 1113 points.
  Transforming local potential to a uniform radial grid of dG=0.02 with 1113 points.
  Transforming nonlocal projectors to a uniform radial grid of dG=0.02 with 432 points.
  Transforming density augmentations to a uniform radial grid of dG=0.02 with 1113 points.
  Transforming atomic orbitals to a uniform radial grid of dG=0.02 with 432 points.
  Core radius for overlap checks: 1.80 bohrs.

Initialized 3 species with 96 total atoms.

Folded 1 k-points by 3x3x1 to 9 k-points.

---------- Setting up k-points, bands, fillings ----------
Reduced to 3 k-points under symmetry. 
Computing the number of bands and number of electrons
Calculating initial fillings.
nElectrons: 703.000000   nBands: 672   nStates: 6

----- Setting up reduced wavefunction bases (one per k-point) -----
average nbasis = 124069.667 , ideal nbasis = 124071.433

---------- Setting up coulomb interaction ----------
Fluid mode embedding: using embedded box, but periodic Coulomb kernel.
(Fluid response is responsible for (approximate) separation between periodic images.)
Setting up double-sized grid for truncated Coulomb potentials:
R = 
[    26.6087          0          0  ]
[          0    26.6087          0  ]
[          0          0    82.0383  ]
unit cell volume = 58084.8
G =
[   0.236133          0          0  ]
[          0   0.236133          0  ]
[          0          0  0.0765884  ]
Chosen fftbox size, S = [  108  108  336  ]
Integer grid location selected as the embedding center:
   Grid: [  54  54  84  ]
   Lattice: [  0.5  0.5  0.5  ]
   Cartesian: [  13.3043  13.3043  20.5096  ]
Constructing Wigner-Seitz cell: 6 faces (6 quadrilaterals, 0 hexagons)
Range-separation parameter for embedded mesh potentials due to point charges: 0.626195 bohrs.

Initializing van der Waals corrections
	NOTE: vdW corrections apply only for interactions with fluid.
	Zr:  C6:  427.91 Eh-a0^6  R0: 3.097 a0
	Si:  C6:  160.10 Eh-a0^6  R0: 3.243 a0
	Se:  C6:  219.24 Eh-a0^6  R0: 3.347 a0

---------- Setting up ewald sum ----------
Optimum gaussian width for ewald sums = 7.220254 bohr.
Real space sum over 405 unit cells with max indices [  4  4  2  ]
Reciprocal space sum over 8775 terms with max indices [  7  7  19  ]

---------- Allocating electronic variables ----------
Initializing wave functions:  linear combination of atomic orbitals
Zr pseudo-atom occupations:   s ( 2 2 )  p ( 6 0 )  d ( 2 )
Si pseudo-atom occupations:   s ( 2 )  p ( 2 )
Se pseudo-atom occupations:   s ( 2 )  p ( 4 )
	FillingsUpdate:  mu: -0.281327784  nElectrons: 703.000000  magneticMoment: [ Abs: 1.92775  Tot: +1.79905 ]
LCAOMinimize: Iter:   0  F: -1940.0939011033858606  |grad|_K:  5.005e-03  alpha:  1.000e+00
	FillingsUpdate:  mu: -0.162364265  nElectrons: 703.000000  magneticMoment: [ Abs: 1.50053  Tot: +1.34744 ]
LCAOMinimize: Iter:   1  F: -1945.2573231714854955  |grad|_K:  1.240e-03  alpha:  1.293e-01  linmin: -3.273e-01  cgtest:  9.450e-01  t[s]:    308.52
LCAOMinimize: Encountered beta<0, resetting CG.
	FillingsUpdate:  mu: -0.125762220  nElectrons: 703.000000  magneticMoment: [ Abs: 1.19524  Tot: +1.01983 ]
LCAOMinimize: Iter:   2  F: -1945.6961116595145995  |grad|_K:  2.421e-04  alpha:  2.070e-01  linmin: -6.887e-02  cgtest:  1.925e-01  t[s]:    397.47
	FillingsUpdate:  mu: -0.143856857  nElectrons: 703.000000  magneticMoment: [ Abs: 1.03164  Tot: +0.86346 ]
LCAOMinimize: Iter:   3  F: -1945.7112019696096468  |grad|_K:  5.597e-05  alpha:  1.898e-01  linmin: -1.556e-02  cgtest:  4.543e-02  t[s]:    486.35
	FillingsUpdate:  mu: -0.142449487  nElectrons: 703.000000  magneticMoment: [ Abs: 0.82358  Tot: +0.66348 ]
LCAOMinimize: Iter:   4  F: -1945.7123456699123381  |grad|_K:  2.353e-05  alpha:  2.662e-01  linmin: -1.040e-03  cgtest: -2.005e-02  t[s]:    574.38
	FillingsUpdate:  mu: -0.143000405  nElectrons: 703.000000  magneticMoment: [ Abs: 0.34657  Tot: +0.20683 ]
LCAOMinimize: Iter:   5  F: -1945.7128559503596534  |grad|_K:  1.119e-05  alpha:  6.775e-01  linmin:  9.661e-04  cgtest: -9.894e-03  t[s]:    663.46
	FillingsUpdate:  mu: -0.142051863  nElectrons: 703.000000  magneticMoment: [ Abs: 0.24327  Tot: +0.11573 ]
LCAOMinimize: Iter:   6  F: -1945.7129045673254950  |grad|_K:  6.912e-06  alpha:  2.862e-01  linmin: -3.008e-04  cgtest:  5.205e-03  t[s]:    750.24
	FillingsUpdate:  mu: -0.142458274  nElectrons: 703.000000  magneticMoment: [ Abs: 0.08554  Tot: -0.00112 ]
LCAOMinimize: Iter:   7  F: -1945.7129408647635955  |grad|_K:  3.262e-06  alpha:  5.591e-01  linmin:  7.681e-04  cgtest: -7.810e-03  t[s]:    839.11
	FillingsUpdate:  mu: -0.142430770  nElectrons: 703.000000  magneticMoment: [ Abs: 0.05404  Tot: -0.01252 ]
LCAOMinimize: Iter:   8  F: -1945.7129447060908660  |grad|_K:  8.889e-07  alpha:  2.661e-01  linmin:  1.335e-04  cgtest:  4.194e-03  t[s]:    928.12
	FillingsUpdate:  mu: -0.142515362  nElectrons: 703.000000  magneticMoment: [ Abs: 0.02540  Tot: -0.00637 ]
LCAOMinimize: Iter:   9  F: -1945.7129453839729649  |grad|_K:  9.530e-07  alpha:  6.315e-01  linmin:  5.120e-05  cgtest: -3.756e-04  t[s]:   1017.19
	FillingsUpdate:  mu: -0.142445244  nElectrons: 703.000000  magneticMoment: [ Abs: 0.00351  Tot: -0.00074 ]
LCAOMinimize: Iter:  10  F: -1945.7129457790772449  |grad|_K:  1.829e-07  alpha:  3.202e-01  linmin: -1.830e-04  cgtest:  1.422e-03  t[s]:   1106.95
LCAOMinimize: Converged (|Delta F|<1.000000e-06 for 2 iters).
----- createFluidSolver() ----- (Fluid-side solver setup)
   Initializing fluid molecule 'H2O'
     Initializing site 'O'
       Electron density: proportional to exp(-r/0.36935)*erfc((r-0.51523)/0.36823) with norm 6.826
       Charge density: gaussian nuclear width 0.478731 with net site charge 0.826
       Polarizability: cuspless exponential with width 0.32 and norm 3.73
       Hard sphere radius: 2.57003 bohrs
       Positions in reference frame:
         [ +0.000000 +0.000000 +0.000000 ]
     Initializing site 'H'
       Electron density: proportional to exp(-r/0.34641)*erfc((r-0)/0.390882) with norm 0.587
       Charge density: gaussian nuclear width 0.377945 with net site charge -0.413
       Polarizability: cuspless exponential with width 0.39 and norm 3.3
       Positions in reference frame:
         [ +0.000000 -1.441945 +1.122523 ]
         [ +0.000000 +1.441945 +1.122523 ]
     Net charge: 0   dipole magnitude: 0.927204
     Initializing spherical shell mfKernel with radius 2.61727 Bohr
     deltaS corrections:
       site 'O': -7.54299
       site 'H': -6.83917
   Initializing fluid molecule 'Na+'
     Initializing site 'Na'
       Electron density: proportional to exp(-r/0.19682)*erfc((r-0.71491)/0.41314) with norm 8.1383
       Charge density: gaussian nuclear width 0.365347 with net site charge -1
       Hard sphere radius: 1.86327 bohrs
       Positions in reference frame:
         [ +0.000000 +0.000000 +0.000000 ]
     Net charge: -1   dipole magnitude: 0
     Initializing gaussian mfKernel with width: 1.55004 Bohr
     deltaS corrections:
       site 'Na': -22.3555
   Initializing fluid molecule 'F-'
     Initializing site 'F'
       Electron density: proportional to exp(-r/0.38886)*erfc((r-0)/0.438782) with norm 8
       Charge density: gaussian nuclear width 0.374796 with net site charge 1
       Hard sphere radius: 2.39995 bohrs
       Positions in reference frame:
         [ +0.000000 +0.000000 +0.000000 ]
     Net charge: 1   dipole magnitude: 0
     Initializing gaussian mfKernel with width: 1.59012 Bohr
     deltaS corrections:
       site 'F': -9.04335

Correction to mu due to finite nuclear width = -0.0120257
   Cavity determined by nc: 0.00142 and sigma: 0.707107
   Nonlocal vdW cavity from gaussian model electron density with norm = 8 and sigma = 0.993594 bohr
   Charge asymmetry in cavity with sensitivity pCavity = 36.5 e-bohr/Eh
   Electrostatic cavity expanded by eta = 1.46 bohrs
   Weighted density cavitation model constrained by Nbulk: 0.0049383 bohr^-3, Pvap: 3.14029 kPa, Rvdw: 2.61727 bohr and sigmaBulk: 4.62e-05 Eh/bohr^2 at T: 298 K.
   Weighted density dispersion model using vdW pair potentials with single solvent site with sqrtC6eff: 0.77 SI.


---- Citations for features of the code used in this run ----

   Software package:
      R. Sundararaman, K. Letchworth-Weaver, K.A. Schwarz, D. Gunceler, Y. Ozhabes and T.A. Arias, 'JDFTx: software for joint density-functional theory', SoftwareX 6, 278 (2017)

   gga-PBE exchange-correlation functional:
      J.P. Perdew, K. Burke and M. Ernzerhof, Phys. Rev. Lett. 77, 3865 (1996)

   Pseudopotentials:
      KF Garrity, JW Bennett, KM Rabe and D Vanderbilt, Comput. Mater. Sci. 81, 446 (2014)

   Truncated Coulomb potentials:
      R. Sundararaman and T.A. Arias, Phys. Rev. B 87, 165122 (2013)

   Van der Waals correction pair-potentials:
      S. Grimme, J. Comput. Chem. 27, 1787 (2006)

   Charge-asymmetric nonlocally-determined local-electric (CANDLE) solvation model:
      R. Sundararaman and W.A. Goddard III, J. Chem. Phys. 142, 064107 (2015)

   Total energy minimization with Auxiliary Hamiltonian:
      C. Freysoldt, S. Boeck, and J. Neugebauer, Phys. Rev. B 79, 241103(R) (2009)

This list may not be complete. Please suggest additional citations or
report any other bugs at https://github.com/shankar1729/jdftx/issues

Initialization completed successfully at t[s]:   1130.98

Fluid solver invoked on fresh (partially random / LCAO) wavefunctions
Running a vacuum solve first:

-------- Initial electronic minimization -----------
	FillingsUpdate:  mu: -0.142445244  nElectrons: 703.000000  magneticMoment: [ Abs: 0.00351  Tot: -0.00074 ]
ElecMinimize: Iter:   0  F: -1945.712945779059737  |grad|_K:  5.900e-05  alpha:  1.000e+00
	FillingsUpdate:  mu: -0.081286947  nElectrons: 703.000000  magneticMoment: [ Abs: 0.00123  Tot: -0.00011 ]
	SubspaceRotationAdjust: set factor to 0.98
ElecMinimize: Iter:   1  F: -1947.450543766399278  |grad|_K:  2.964e-05  alpha:  9.954e-01  linmin: -9.404e-05  t[s]:   1372.80
	FillingsUpdate:  mu: -0.134916969  nElectrons: 703.000000  magneticMoment: [ Abs: 0.00080  Tot: -0.00001 ]
	SubspaceRotationAdjust: set factor to 0.656
ElecMinimize: Iter:   2  F: -1947.597248758673686  |grad|_K:  2.495e-05  alpha:  3.329e-01  linmin: -7.934e-06  t[s]:   1523.84
	FillingsUpdate:  mu: -0.111574846  nElectrons: 703.000000  magneticMoment: [ Abs: 0.00037  Tot: +0.00011 ]
	SubspaceRotationAdjust: set factor to 0.399
ElecMinimize: Iter:   3  F: -1947.746582490613036  |grad|_K:  9.767e-06  alpha:  4.872e-01  linmin:  3.376e-04  t[s]:   1675.66
	FillingsUpdate:  mu: -0.113290673  nElectrons: 703.000000  magneticMoment: [ Abs: 0.00031  Tot: +0.00012 ]
	SubspaceRotationAdjust: set factor to 0.309
ElecMinimize: Iter:   4  F: -1947.780199230252947  |grad|_K:  5.328e-06  alpha:  7.483e-01  linmin:  9.800e-05  t[s]:   1826.99
	FillingsUpdate:  mu: -0.108217473  nElectrons: 703.000000  magneticMoment: [ Abs: 0.00022  Tot: +0.00009 ]
	SubspaceRotationAdjust: set factor to 0.31
ElecMinimize: Iter:   5  F: -1947.791353775495963  |grad|_K:  3.153e-06  alpha:  7.968e-01  linmin:  4.695e-05  t[s]:   1978.25
	FillingsUpdate:  mu: -0.112099902  nElectrons: 703.000000  magneticMoment: [ Abs: 0.00015  Tot: +0.00007 ]
	SubspaceRotationAdjust: set factor to 0.346
ElecMinimize: Iter:   6  F: -1947.795421614005818  |grad|_K:  1.804e-06  alpha:  8.240e-01  linmin:  1.364e-05  t[s]:   2129.18
	FillingsUpdate:  mu: -0.111560721  nElectrons: 703.000000  magneticMoment: [ Abs: 0.00010  Tot: +0.00004 ]
	SubspaceRotationAdjust: set factor to 0.443
ElecMinimize: Iter:   7  F: -1947.796961605521346  |grad|_K:  1.241e-06  alpha:  9.477e-01  linmin:  1.542e-05  t[s]:   2280.15
	FillingsUpdate:  mu: -0.111043944  nElectrons: 703.000000  magneticMoment: [ Abs: 0.00006  Tot: +0.00002 ]
	SubspaceRotationAdjust: set factor to 0.538
ElecMinimize: Iter:   8  F: -1947.797572060397897  |grad|_K:  8.474e-07  alpha:  7.945e-01  linmin:  4.349e-06  t[s]:   2431.82
	FillingsUpdate:  mu: -0.111672974  nElectrons: 703.000000  magneticMoment: [ Abs: 0.00003  Tot: +0.00001 ]
	SubspaceRotationAdjust: set factor to 0.55
ElecMinimize: Iter:   9  F: -1947.797847855179498  |grad|_K:  5.811e-07  alpha:  7.679e-01  linmin:  4.078e-06  t[s]:   2582.90
	FillingsUpdate:  mu: -0.110925542  nElectrons: 703.000000  magneticMoment: [ Abs: 0.00002  Tot: -0.00000 ]
	SubspaceRotationAdjust: set factor to 0.445
ElecMinimize: Iter:  10  F: -1947.797955045127765  |grad|_K:  4.036e-07  alpha:  6.346e-01  linmin:  1.625e-06  t[s]:   2734.12
	FillingsUpdate:  mu: -0.111559566  nElectrons: 703.000000  magneticMoment: [ Abs: 0.00001  Tot: -0.00000 ]
	SubspaceRotationAdjust: set factor to 0.379
ElecMinimize: Iter:  11  F: -1947.798006681032120  |grad|_K:  3.094e-07  alpha:  6.338e-01  linmin:  1.140e-06  t[s]:   2886.05
	FillingsUpdate:  mu: -0.111351722  nElectrons: 703.000000  magneticMoment: [ Abs: 0.00002  Tot: -0.00001 ]
	SubspaceRotationAdjust: set factor to 0.456
ElecMinimize: Iter:  12  F: -1947.798046219241769  |grad|_K:  2.437e-07  alpha:  8.271e-01  linmin:  1.793e-06  t[s]:   3038.28
	FillingsUpdate:  mu: -0.111158984  nElectrons: 703.000000  magneticMoment: [ Abs: 0.00002  Tot: -0.00000 ]
	SubspaceRotationAdjust: set factor to 0.53
ElecMinimize: Iter:  13  F: -1947.798074063017111  |grad|_K:  2.222e-07  alpha:  9.419e-01  linmin:  2.846e-06  t[s]:   3189.65
	FillingsUpdate:  mu: -0.111443407  nElectrons: 703.000000  magneticMoment: [ Abs: 0.00002  Tot: -0.00000 ]
	SubspaceRotationAdjust: set factor to 0.499
ElecMinimize: Iter:  14  F: -1947.798092009807988  |grad|_K:  1.936e-07  alpha:  7.269e-01  linmin:  1.536e-06  t[s]:   3339.44
	FillingsUpdate:  mu: -0.111222646  nElectrons: 703.000000  magneticMoment: [ Abs: 0.00001  Tot: -0.00000 ]
	SubspaceRotationAdjust: set factor to 0.501
ElecMinimize: Iter:  15  F: -1947.798104396815916  |grad|_K:  1.447e-07  alpha:  6.611e-01  linmin:  1.664e-06  t[s]:   3490.80
	FillingsUpdate:  mu: -0.111261884  nElectrons: 703.000000  magneticMoment: [ Abs: 0.00001  Tot: +0.00000 ]
	SubspaceRotationAdjust: set factor to 0.635
ElecMinimize: Iter:  16  F: -1947.798112491274424  |grad|_K:  1.128e-07  alpha:  7.756e-01  linmin:  1.502e-06  t[s]:   3641.94
	FillingsUpdate:  mu: -0.111369187  nElectrons: 703.000000  magneticMoment: [ Abs: 0.00001  Tot: +0.00000 ]
	SubspaceRotationAdjust: set factor to 0.653
ElecMinimize: Iter:  17  F: -1947.798117045929530  |grad|_K:  9.466e-08  alpha:  7.171e-01  linmin:  1.894e-07  t[s]:   3793.94
	FillingsUpdate:  mu: -0.111238412  nElectrons: 703.000000  magneticMoment: [ Abs: 0.00001  Tot: +0.00000 ]
	SubspaceRotationAdjust: set factor to 0.663
ElecMinimize: Iter:  18  F: -1947.798119399406005  |grad|_K:  7.327e-08  alpha:  5.241e-01  linmin: -2.020e-08  t[s]:   3945.93
	FillingsUpdate:  mu: -0.111308107  nElectrons: 703.000000  magneticMoment: [ Abs: 0.00000  Tot: +0.00000 ]
	SubspaceRotationAdjust: set factor to 0.772
ElecMinimize: Iter:  19  F: -1947.798120819754331  |grad|_K:  4.531e-08  alpha:  5.274e-01  linmin: -3.369e-07  t[s]:   4098.30
	FillingsUpdate:  mu: -0.111305361  nElectrons: 703.000000  magneticMoment: [ Abs: 0.00000  Tot: +0.00000 ]
	SubspaceRotationAdjust: set factor to 0.936
ElecMinimize: Iter:  20  F: -1947.798121522232577  |grad|_K:  3.097e-08  alpha:  6.811e-01  linmin: -1.506e-07  t[s]:   4249.89
	FillingsUpdate:  mu: -0.111285618  nElectrons: 703.000000  magneticMoment: [ Abs: 0.00000  Tot: +0.00000 ]
	SubspaceRotationAdjust: set factor to 1.07
ElecMinimize: Iter:  21  F: -1947.798121836353175  |grad|_K:  2.425e-08  alpha:  6.527e-01  linmin:  4.364e-08  t[s]:   4401.20
	FillingsUpdate:  mu: -0.111319631  nElectrons: 703.000000  magneticMoment: [ Abs: 0.00000  Tot: -0.00000 ]
	SubspaceRotationAdjust: set factor to 0.839
ElecMinimize: Iter:  22  F: -1947.798121957077910  |grad|_K:  2.267e-08  alpha:  4.093e-01  linmin: -1.507e-08  t[s]:   4552.09
	FillingsUpdate:  mu: -0.111294535  nElectrons: 703.000000  magneticMoment: [ Abs: 0.00000  Tot: -0.00000 ]
	SubspaceRotationAdjust: set factor to 0.747
ElecMinimize: Iter:  23  F: -1947.798122038768042  |grad|_K:  1.349e-08  alpha:  3.168e-01  linmin:  8.584e-09  t[s]:   4704.27
	FillingsUpdate:  mu: -0.111298389  nElectrons: 703.000000  magneticMoment: [ Abs: 0.00000  Tot: -0.00000 ]
	SubspaceRotationAdjust: set factor to 0.888
ElecMinimize: Iter:  24  F: -1947.798122095862254  |grad|_K:  9.235e-09  alpha:  6.253e-01  linmin:  6.937e-08  t[s]:   4856.63
	FillingsUpdate:  mu: -0.111300556  nElectrons: 703.000000  magneticMoment: [ Abs: 0.00000  Tot: -0.00000 ]
	SubspaceRotationAdjust: set factor to 1.05
ElecMinimize: Iter:  25  F: -1947.798122127459237  |grad|_K:  8.015e-09  alpha:  7.391e-01  linmin:  2.183e-08  t[s]:   5008.92
	FillingsUpdate:  mu: -0.111290595  nElectrons: 703.000000  magneticMoment: [ Abs: 0.00000  Tot: +0.00000 ]
	SubspaceRotationAdjust: set factor to 0.871
ElecMinimize: Iter:  26  F: -1947.798122145324896  |grad|_K:  8.593e-09  alpha:  5.548e-01  linmin: -6.808e-08  t[s]:   5161.34
	FillingsUpdate:  mu: -0.111302203  nElectrons: 703.000000  magneticMoment: [ Abs: 0.00000  Tot: +0.00000 ]
	SubspaceRotationAdjust: set factor to 0.707
ElecMinimize: Iter:  27  F: -1947.798122157067382  |grad|_K:  6.079e-09  alpha:  3.168e-01  linmin:  3.689e-08  t[s]:   5312.27
	FillingsUpdate:  mu: -0.111298748  nElectrons: 703.000000  magneticMoment: [ Abs: 0.00000  Tot: +0.00000 ]
	SubspaceRotationAdjust: set factor to 0.821
ElecMinimize: Iter:  28  F: -1947.798122168939699  |grad|_K:  4.633e-09  alpha:  6.402e-01  linmin:  8.382e-09  t[s]:   5462.41
	FillingsUpdate:  mu: -0.111295502  nElectrons: 703.000000  magneticMoment: [ Abs: 0.00000  Tot: +0.00000 ]
	SubspaceRotationAdjust: set factor to 0.895
ElecMinimize: Iter:  29  F: -1947.798122177175856  |grad|_K:  4.405e-09  alpha:  7.645e-01  linmin: -1.328e-07  t[s]:   5614.19
	FillingsUpdate:  mu: -0.111302191  nElectrons: 703.000000  magneticMoment: [ Abs: 0.00000  Tot: +0.00000 ]
	SubspaceRotationAdjust: set factor to 0.795
ElecMinimize: Iter:  30  F: -1947.798122181669441  |grad|_K:  4.211e-09  alpha:  4.575e-01  linmin: -1.088e-08  t[s]:   5766.71
ElecMinimize: Converged (|Delta F|<1.000000e-08 for 2 iters).
Setting wave functions to eigenvectors of Hamiltonian
Vacuum energy after initial minimize, F = -1947.798122181669441

	Linear fluid (dielectric constant: 78.4, screening length: 5.74355 Bohr) occupying 0.712643 of unit cell:	Completed after 18 iterations at t[s]:   5794.09

-------- Electronic minimization -----------
	Linear fluid (dielectric constant: 78.4, screening length: 5.74355 Bohr) occupying 0.712643 of unit cell:	Completed after 0 iterations at t[s]:   5824.61
	FillingsUpdate:  mu: -0.187498185  nElectrons: 703.000000  magneticMoment: [ Abs: 0.00000  Tot: +0.00000 ]
ElecMinimize: Iter:   0  F: -1947.693538370076794  |grad|_K:  2.179e-06  alpha:  1.000e+00
	Linear fluid (dielectric constant: 78.4, screening length: 5.74355 Bohr) occupying 0.713403 of unit cell:	Completed after 13 iterations at t[s]:   5949.47
	Linear fluid (dielectric constant: 78.4, screening length: 5.74355 Bohr) occupying 0.712811 of unit cell:	Completed after 12 iterations at t[s]:   6000.60
	FillingsUpdate:  mu: -0.182496368  nElectrons: 703.000000  magneticMoment: [ Abs: 0.00002  Tot: -0.00000 ]
	SubspaceRotationAdjust: set factor to 0.575
ElecMinimize: Iter:   1  F: -1947.694050022521196  |grad|_K:  9.795e-07  alpha:  2.160e-01  linmin:  2.521e-06  t[s]:   6066.51
	Linear fluid (dielectric constant: 78.4, screening length: 5.74355 Bohr) occupying 0.712919 of unit cell:	Completed after 8 iterations at t[s]:   6119.05
ElecMinimize: 	Predicted alpha/alphaT>3.000000, increasing alphaT to 6.479252e-01.
	Linear fluid (dielectric constant: 78.4, screening length: 5.74355 Bohr) occupying 0.713132 of unit cell:	Completed after 10 iterations at t[s]:   6167.85
	Linear fluid (dielectric constant: 78.4, screening length: 5.74355 Bohr) occupying 0.713141 of unit cell:	Completed after 0 iterations at t[s]:   6216.06
	FillingsUpdate:  mu: -0.181437611  nElectrons: 703.000000  magneticMoment: [ Abs: 0.00005  Tot: +0.00000 ]
	SubspaceRotationAdjust: set factor to 0.413
ElecMinimize: Iter:   2  F: -1947.694369351992918  |grad|_K:  3.956e-07  alpha:  6.658e-01  linmin: -4.260e-06  t[s]:   6278.65
	Linear fluid (dielectric constant: 78.4, screening length: 5.74355 Bohr) occupying 0.713220 of unit cell:	Completed after 4 iterations at t[s]:   6330.31
	Linear fluid (dielectric constant: 78.4, screening length: 5.74355 Bohr) occupying 0.713220 of unit cell:	Completed after 0 iterations at t[s]:   6377.21
	FillingsUpdate:  mu: -0.181508988  nElectrons: 703.000000  magneticMoment: [ Abs: 0.00005  Tot: +0.00000 ]
	SubspaceRotationAdjust: set factor to 0.277
ElecMinimize: Iter:   3  F: -1947.694422396237542  |grad|_K:  1.751e-07  alpha:  6.637e-01  linmin:  2.592e-06  t[s]:   6439.76
	Linear fluid (dielectric constant: 78.4, screening length: 5.74355 Bohr) occupying 0.713238 of unit cell:	Completed after 3 iterations at t[s]:   6491.21
	Linear fluid (dielectric constant: 78.4, screening length: 5.74355 Bohr) occupying 0.713241 of unit cell:	Completed after 0 iterations at t[s]:   6537.66
	FillingsUpdate:  mu: -0.181480033  nElectrons: 703.000000  magneticMoment: [ Abs: 0.00004  Tot: +0.00000 ]
	SubspaceRotationAdjust: set factor to 0.417
ElecMinimize: Iter:   4  F: -1947.694434103685126  |grad|_K:  7.926e-08  alpha:  7.646e-01  linmin: -1.417e-05  t[s]:   6599.27
	Linear fluid (dielectric constant: 78.4, screening length: 5.74355 Bohr) occupying 0.713242 of unit cell:	Completed after 2 iterations at t[s]:   6650.20
	Linear fluid (dielectric constant: 78.4, screening length: 5.74355 Bohr) occupying 0.713242 of unit cell:	Completed after 0 iterations at t[s]:   6695.80
	FillingsUpdate:  mu: -0.181462477  nElectrons: 703.000000  magneticMoment: [ Abs: 0.00002  Tot: +0.00000 ]
	SubspaceRotationAdjust: set factor to 0.464
ElecMinimize: Iter:   5  F: -1947.694437313212575  |grad|_K:  4.850e-08  alpha:  9.455e-01  linmin: -3.307e-05  t[s]:   6757.66
	Linear fluid (dielectric constant: 78.4, screening length: 5.74355 Bohr) occupying 0.713233 of unit cell:	Completed after 0 iterations at t[s]:   6807.94
	Linear fluid (dielectric constant: 78.4, screening length: 5.74355 Bohr) occupying 0.713232 of unit cell:	Completed after 1 iterations at t[s]:   6853.41
	FillingsUpdate:  mu: -0.181462258  nElectrons: 703.000000  magneticMoment: [ Abs: 0.00001  Tot: -0.00000 ]
	SubspaceRotationAdjust: set factor to 0.577
ElecMinimize: Iter:   6  F: -1947.694438415234345  |grad|_K:  3.473e-08  alpha:  1.005e+00  linmin:  5.412e-05  t[s]:   6916.68
	Linear fluid (dielectric constant: 78.4, screening length: 5.74355 Bohr) occupying 0.713222 of unit cell:	Completed after 0 iterations at t[s]:   6967.55
	Linear fluid (dielectric constant: 78.4, screening length: 5.74355 Bohr) occupying 0.713225 of unit cell:	Completed after 0 iterations at t[s]:   7012.88
	FillingsUpdate:  mu: -0.181459264  nElectrons: 703.000000  magneticMoment: [ Abs: 0.00000  Tot: -0.00000 ]
	SubspaceRotationAdjust: set factor to 0.674
ElecMinimize: Iter:   7  F: -1947.694438784291606  |grad|_K:  2.025e-08  alpha:  7.291e-01  linmin: -4.785e-06  t[s]:   7075.35
	Linear fluid (dielectric constant: 78.4, screening length: 5.74355 Bohr) occupying 0.713221 of unit cell:	Completed after 0 iterations at t[s]:   7125.61
	Linear fluid (dielectric constant: 78.4, screening length: 5.74355 Bohr) occupying 0.713221 of unit cell:	Completed after 0 iterations at t[s]:   7170.94
	FillingsUpdate:  mu: -0.181460173  nElectrons: 703.000000  magneticMoment: [ Abs: 0.00000  Tot: -0.00000 ]
	SubspaceRotationAdjust: set factor to 0.737
ElecMinimize: Iter:   8  F: -1947.694438915969840  |grad|_K:  1.146e-08  alpha:  6.441e-01  linmin: -1.169e-05  t[s]:   7233.15
	Linear fluid (dielectric constant: 78.4, screening length: 5.74355 Bohr) occupying 0.713220 of unit cell:	Completed after 0 iterations at t[s]:   7283.52
	Linear fluid (dielectric constant: 78.4, screening length: 5.74355 Bohr) occupying 0.713220 of unit cell:	Completed after 0 iterations at t[s]:   7328.41
	FillingsUpdate:  mu: -0.181460328  nElectrons: 703.000000  magneticMoment: [ Abs: 0.00000  Tot: -0.00000 ]
	SubspaceRotationAdjust: set factor to 0.773
ElecMinimize: Iter:   9  F: -1947.694438974046534  |grad|_K:  7.988e-09  alpha:  8.113e-01  linmin:  1.442e-07  t[s]:   7390.57
	Linear fluid (dielectric constant: 78.4, screening length: 5.74355 Bohr) occupying 0.713219 of unit cell:	Completed after 0 iterations at t[s]:   7441.16
	Linear fluid (dielectric constant: 78.4, screening length: 5.74355 Bohr) occupying 0.713219 of unit cell:	Completed after 0 iterations at t[s]:   7486.79
	FillingsUpdate:  mu: -0.181460541  nElectrons: 703.000000  magneticMoment: [ Abs: 0.00000  Tot: -0.00000 ]
	SubspaceRotationAdjust: set factor to 0.85
ElecMinimize: Iter:  10  F: -1947.694438999482145  |grad|_K:  5.436e-09  alpha:  7.983e-01  linmin:  3.795e-08  t[s]:   7549.18
	Linear fluid (dielectric constant: 78.4, screening length: 5.74355 Bohr) occupying 0.713219 of unit cell:	Completed after 0 iterations at t[s]:   7599.82
	Linear fluid (dielectric constant: 78.4, screening length: 5.74355 Bohr) occupying 0.713219 of unit cell:	Completed after 0 iterations at t[s]:   7644.65
	FillingsUpdate:  mu: -0.181460649  nElectrons: 703.000000  magneticMoment: [ Abs: 0.00000  Tot: +0.00000 ]
	SubspaceRotationAdjust: set factor to 0.997
ElecMinimize: Iter:  11  F: -1947.694439010658016  |grad|_K:  3.436e-09  alpha:  7.541e-01  linmin:  1.970e-08  t[s]:   7706.80
	Linear fluid (dielectric constant: 78.4, screening length: 5.74355 Bohr) occupying 0.713219 of unit cell:	Completed after 0 iterations at t[s]:   7757.43
	Linear fluid (dielectric constant: 78.4, screening length: 5.74355 Bohr) occupying 0.713219 of unit cell:	Completed after 0 iterations at t[s]:   7802.75
	FillingsUpdate:  mu: -0.181460673  nElectrons: 703.000000  magneticMoment: [ Abs: 0.00000  Tot: +0.00000 ]
	SubspaceRotationAdjust: set factor to 1.11
ElecMinimize: Iter:  12  F: -1947.694439014930140  |grad|_K:  2.122e-09  alpha:  7.216e-01  linmin:  3.661e-07  t[s]:   7864.85
	Linear fluid (dielectric constant: 78.4, screening length: 5.74355 Bohr) occupying 0.713219 of unit cell:	Completed after 0 iterations at t[s]:   7915.57
	Linear fluid (dielectric constant: 78.4, screening length: 5.74355 Bohr) occupying 0.713219 of unit cell:	Completed after 0 iterations at t[s]:   7960.48
	FillingsUpdate:  mu: -0.181460675  nElectrons: 703.000000  magneticMoment: [ Abs: 0.00000  Tot: +0.00000 ]
	SubspaceRotationAdjust: set factor to 1.17
ElecMinimize: Iter:  13  F: -1947.694439016452179  |grad|_K:  1.352e-09  alpha:  6.826e-01  linmin: -2.689e-07  t[s]:   8022.83
ElecMinimize: Converged (|Delta F|<1.000000e-08 for 2 iters).
Setting wave functions to eigenvectors of Hamiltonian
Single-point solvation energy estimate, DeltaF = +0.103683165217262

# Ionic positions in lattice coordinates:
ion Zr   0.125000000000000   0.000000000000000   0.600463993117415 1
ion Zr   0.000000000000000   0.125000000000000   0.399535992215919 1
ion Zr   0.375000000000000   0.000000000000000   0.600463993117415 1
ion Zr   0.250000000000000   0.125000000000000   0.399535992215919 1
ion Zr   0.625000000000000   0.000000000000000   0.600463993117415 1
ion Zr   0.500000000000000   0.125000000000000   0.399535992215919 1
ion Zr   0.875000000000000   0.000000000000000   0.600463993117415 1
ion Zr   0.750000000000000   0.125000000000000   0.399535992215919 1
ion Zr   0.125000000000000   0.250000000000000   0.600463993117415 1
ion Zr   0.000000000000000   0.375000000000000   0.399535992215919 1
ion Zr   0.375000000000000   0.250000000000000   0.600463993117415 1
ion Zr   0.250000000000000   0.375000000000000   0.399535992215919 1
ion Zr   0.625000000000000   0.250000000000000   0.600463993117415 1
ion Zr   0.500000000000000   0.375000000000000   0.399535992215919 1
ion Zr   0.875000000000000   0.250000000000000   0.600463993117415 1
ion Zr   0.750000000000000   0.375000000000000   0.399535992215919 1
ion Zr   0.125000000000000   0.500000000000000   0.600463993117415 1
ion Zr   0.000000000000000   0.625000000000000   0.399535992215919 1
ion Zr   0.375000000000000   0.500000000000000   0.600463993117415 1
ion Zr   0.250000000000000   0.625000000000000   0.399535992215919 1
ion Zr   0.625000000000000   0.500000000000000   0.600463993117415 1
ion Zr   0.500000000000000   0.625000000000000   0.399535992215919 1
ion Zr   0.875000000000000   0.500000000000000   0.600463993117415 1
ion Zr   0.750000000000000   0.625000000000000   0.399535992215919 1
ion Zr   0.125000000000000   0.750000000000000   0.600463993117415 1
ion Zr   0.000000000000000   0.875000000000000   0.399535992215919 1
ion Zr   0.375000000000000   0.750000000000000   0.600463993117415 1
ion Zr   0.250000000000000   0.875000000000000   0.399535992215919 1
ion Zr   0.625000000000000   0.750000000000000   0.600463993117415 1
ion Zr   0.500000000000000   0.875000000000000   0.399535992215919 1
ion Zr   0.875000000000000   0.750000000000000   0.600463993117415 1
ion Zr   0.750000000000000   0.875000000000000   0.399535992215919 1
ion Si   0.000000000000000   0.000000000000000   0.499999992666667 1
ion Si   0.125000000000000   0.125000000000000   0.499999992666667 1
ion Si   0.250000000000000   0.000000000000000   0.499999992666667 1
ion Si   0.375000000000000   0.125000000000000   0.499999992666667 1
ion Si   0.500000000000000   0.000000000000000   0.499999992666667 1
ion Si   0.625000000000000   0.125000000000000   0.499999992666667 1
ion Si   0.750000000000000   0.000000000000000   0.499999992666667 1
ion Si   0.875000000000000   0.125000000000000   0.499999992666667 1
ion Si   0.000000000000000   0.250000000000000   0.499999992666667 1
ion Si   0.125000000000000   0.375000000000000   0.499999992666667 1
ion Si   0.250000000000000   0.250000000000000   0.499999992666667 1
ion Si   0.375000000000000   0.375000000000000   0.499999992666667 1
ion Si   0.500000000000000   0.250000000000000   0.499999992666667 1
ion Si   0.625000000000000   0.375000000000000   0.499999992666667 1
ion Si   0.750000000000000   0.250000000000000   0.499999992666667 1
ion Si   0.875000000000000   0.375000000000000   0.499999992666667 1
ion Si   0.000000000000000   0.500000000000000   0.499999992666667 1
ion Si   0.125000000000000   0.625000000000000   0.499999992666667 1
ion Si   0.250000000000000   0.500000000000000   0.499999992666667 1
ion Si   0.375000000000000   0.625000000000000   0.499999992666667 1
ion Si   0.500000000000000   0.500000000000000   0.499999992666667 1
ion Si   0.625000000000000   0.625000000000000   0.499999992666667 1
ion Si   0.750000000000000   0.500000000000000   0.499999992666667 1
ion Si   0.875000000000000   0.625000000000000   0.499999992666667 1
ion Si   0.000000000000000   0.750000000000000   0.499999992666667 1
ion Si   0.125000000000000   0.875000000000000   0.499999992666667 1
ion Si   0.250000000000000   0.750000000000000   0.499999992666667 1
ion Si   0.375000000000000   0.875000000000000   0.499999992666667 1
ion Si   0.500000000000000   0.750000000000000   0.499999992666667 1
ion Si   0.625000000000000   0.875000000000000   0.499999992666667 1
ion Si   0.750000000000000   0.750000000000000   0.499999992666667 1
ion Si   0.875000000000000   0.875000000000000   0.499999992666667 1
ion Se   0.000000000000000   0.125000000000000   0.655072542915365 1
ion Se   0.125000000000000   0.000000000000000   0.344927442417968 1
ion Se   0.250000000000000   0.125000000000000   0.655072542915365 1
ion Se   0.375000000000000   0.000000000000000   0.344927442417968 1
ion Se   0.500000000000000   0.125000000000000   0.655072542915365 1
ion Se   0.625000000000000   0.000000000000000   0.344927442417968 1
ion Se   0.750000000000000   0.125000000000000   0.655072542915365 1
ion Se   0.875000000000000   0.000000000000000   0.344927442417968 1
ion Se   0.000000000000000   0.375000000000000   0.655072542915365 1
ion Se   0.125000000000000   0.250000000000000   0.344927442417968 1
ion Se   0.250000000000000   0.375000000000000   0.655072542915365 1
ion Se   0.375000000000000   0.250000000000000   0.344927442417968 1
ion Se   0.500000000000000   0.375000000000000   0.655072542915365 1
ion Se   0.625000000000000   0.250000000000000   0.344927442417968 1
ion Se   0.750000000000000   0.375000000000000   0.655072542915365 1
ion Se   0.875000000000000   0.250000000000000   0.344927442417968 1
ion Se   0.000000000000000   0.625000000000000   0.655072542915365 1
ion Se   0.125000000000000   0.500000000000000   0.344927442417968 1
ion Se   0.250000000000000   0.625000000000000   0.655072542915365 1
ion Se   0.375000000000000   0.500000000000000   0.344927442417968 1
ion Se   0.500000000000000   0.625000000000000   0.655072542915365 1
ion Se   0.625000000000000   0.500000000000000   0.344927442417968 1
ion Se   0.750000000000000   0.625000000000000   0.655072542915365 1
ion Se   0.875000000000000   0.500000000000000   0.344927442417968 1
ion Se   0.000000000000000   0.875000000000000   0.655072542915365 1
ion Se   0.125000000000000   0.750000000000000   0.344927442417968 1
ion Se   0.250000000000000   0.875000000000000   0.655072542915365 1
ion Se   0.375000000000000   0.750000000000000   0.344927442417968 1
ion Se   0.500000000000000   0.875000000000000   0.655072542915365 1
ion Se   0.625000000000000   0.750000000000000   0.344927442417968 1
ion Se   0.750000000000000   0.875000000000000   0.655072542915365 1
ion Se   0.875000000000000   0.750000000000000   0.344927442417968 1


# Forces in Lattice coordinates:
force Zr  -0.000000000000000  -0.000000000000000   0.066471799720754 1
force Zr  -0.000000000000000   0.000000000000000  -0.066471799720982 1
force Zr   0.000000000000000  -0.000000000000000   0.066471799720754 1
force Zr   0.000000000000000   0.000000000000000  -0.066471799720981 1
force Zr  -0.000000000000000  -0.000000000000000   0.066471799720754 1
force Zr   0.000000000000000   0.000000000000000  -0.066471799720982 1
force Zr   0.000000000000000  -0.000000000000000   0.066471799720754 1
force Zr   0.000000000000000   0.000000000000000  -0.066471799720982 1
force Zr  -0.000000000000000  -0.000000000000000   0.066471799720981 1
force Zr  -0.000000000000000   0.000000000000000  -0.066471799720982 1
force Zr  -0.000000000000000   0.000000000000000   0.066471799720982 1
force Zr   0.000000000000000   0.000000000000000  -0.066471799720981 1
force Zr   0.000000000000000  -0.000000000000000   0.066471799720754 1
force Zr   0.000000000000000   0.000000000000000  -0.066471799720982 1
force Zr  -0.000000000000000  -0.000000000000000   0.066471799720754 1
force Zr   0.000000000000000  -0.000000000000000  -0.066471799720982 1
force Zr   0.000000000000000   0.000000000000000   0.066471799720754 1
force Zr  -0.000000000000000   0.000000000000000  -0.066471799721209 1
force Zr  -0.000000000000000  -0.000000000000000   0.066471799720754 1
force Zr   0.000000000000000   0.000000000000000  -0.066471799720981 1
force Zr   0.000000000000000  -0.000000000000000   0.066471799720754 1
force Zr  -0.000000000000000   0.000000000000000  -0.066471799720981 1
force Zr   0.000000000000000   0.000000000000000   0.066471799720754 1
force Zr   0.000000000000000  -0.000000000000000  -0.066471799720981 1
force Zr  -0.000000000000000   0.000000000000000   0.066471799720754 1
force Zr  -0.000000000000000   0.000000000000000  -0.066471799720981 1
force Zr   0.000000000000000   0.000000000000000   0.066471799720754 1
force Zr   0.000000000000000  -0.000000000000000  -0.066471799720981 1
force Zr  -0.000000000000000  -0.000000000000000   0.066471799720755 1
force Zr   0.000000000000000  -0.000000000000000  -0.066471799720982 1
force Zr   0.000000000000000   0.000000000000000   0.066471799720754 1
force Zr   0.000000000000000  -0.000000000000000  -0.066471799720981 1
force Si   0.000000000000000  -0.000000000000000   0.000000000000000 1
force Si   0.000000000000000  -0.000000000000000   0.000000000000000 1
force Si  -0.000000000000000   0.000000000000000  -0.000000000000000 1
force Si   0.000000000000000   0.000000000000000  -0.000000000000000 1
force Si  -0.000000000000000   0.000000000000000  -0.000000000000000 1
force Si   0.000000000000000   0.000000000000000  -0.000000000000000 1
force Si  -0.000000000000000   0.000000000000000  -0.000000000000000 1
force Si  -0.000000000000000   0.000000000000000   0.000000000000000 1
force Si   0.000000000000000   0.000000000000000  -0.000000000000000 1
force Si   0.000000000000000   0.000000000000000  -0.000000000000000 1
force Si   0.000000000000000   0.000000000000000   0.000000000000000 1
force Si   0.000000000000000  -0.000000000000000   0.000000000000000 1
force Si   0.000000000000000   0.000000000000000  -0.000000000000000 1
force Si   0.000000000000000   0.000000000000000  -0.000000000000000 1
force Si  -0.000000000000000   0.000000000000000  -0.000000000000000 1
force Si   0.000000000000000  -0.000000000000000   0.000000000000000 1
force Si   0.000000000000000  -0.000000000000000   0.000000000000000 1
force Si   0.000000000000000  -0.000000000000000  -0.000000000000000 1
force Si  -0.000000000000000  -0.000000000000000   0.000000000000000 1
force Si   0.000000000000000   0.000000000000000   0.000000000000000 1
force Si  -0.000000000000000   0.000000000000000   0.000000000000000 1
force Si  -0.000000000000000   0.000000000000000   0.000000000000000 1
force Si  -0.000000000000000   0.000000000000000   0.000000000000000 1
force Si  -0.000000000000000   0.000000000000000   0.000000000000000 1
force Si  -0.000000000000000  -0.000000000000000  -0.000000000000000 1
force Si   0.000000000000000   0.000000000000000  -0.000000000000000 1
force Si   0.000000000000000  -0.000000000000000  -0.000000000000000 1
force Si  -0.000000000000000  -0.000000000000000  -0.000000000000000 1
force Si  -0.000000000000000  -0.000000000000000   0.000000000000000 1
force Si   0.000000000000000  -0.000000000000000  -0.000000000000000 1
force Si   0.000000000000000   0.000000000000000   0.000000000000000 1
force Si   0.000000000000000   0.000000000000000   0.000000000000000 1
force Se   0.000000000000000  -0.000000000000000  -0.037343319964871 1
force Se   0.000000000000000  -0.000000000000000   0.037343319964757 1
force Se  -0.000000000000000  -0.000000000000000  -0.037343319964872 1
force Se  -0.000000000000000  -0.000000000000000   0.037343319964871 1
force Se  -0.000000000000000  -0.000000000000000  -0.037343319964986 1
force Se  -0.000000000000000   0.000000000000000   0.037343319964872 1
force Se   0.000000000000000  -0.000000000000000  -0.037343319965099 1
force Se   0.000000000000000  -0.000000000000000   0.037343319964986 1
force Se  -0.000000000000000   0.000000000000000  -0.037343319964759 1
force Se   0.000000000000000  -0.000000000000000   0.037343319964871 1
force Se  -0.000000000000000  -0.000000000000000  -0.037343319964872 1
force Se   0.000000000000000   0.000000000000000   0.037343319964871 1
force Se  -0.000000000000000  -0.000000000000000  -0.037343319965101 1
force Se  -0.000000000000000  -0.000000000000000   0.037343319964871 1
force Se   0.000000000000000  -0.000000000000000  -0.037343319964986 1
force Se  -0.000000000000000   0.000000000000000   0.037343319964985 1
force Se  -0.000000000000000   0.000000000000000  -0.037343319964873 1
force Se  -0.000000000000000  -0.000000000000000   0.037343319964984 1
force Se  -0.000000000000000  -0.000000000000000  -0.037343319964986 1
force Se  -0.000000000000000   0.000000000000000   0.037343319964983 1
force Se  -0.000000000000000   0.000000000000000  -0.037343319965100 1
force Se   0.000000000000000   0.000000000000000   0.037343319964983 1
force Se  -0.000000000000000  -0.000000000000000  -0.037343319964985 1
force Se  -0.000000000000000  -0.000000000000000   0.037343319964757 1
force Se  -0.000000000000000   0.000000000000000  -0.037343319964985 1
force Se   0.000000000000000   0.000000000000000   0.037343319964871 1
force Se  -0.000000000000000   0.000000000000000  -0.037343319964985 1
force Se   0.000000000000000  -0.000000000000000   0.037343319964984 1
force Se  -0.000000000000000   0.000000000000000  -0.037343319965100 1
force Se  -0.000000000000000  -0.000000000000000   0.037343319964757 1
force Se   0.000000000000000   0.000000000000000  -0.037343319965213 1
force Se  -0.000000000000000  -0.000000000000000   0.037343319964871 1

# Energy components:
   A_diel =        0.0907716041452572
   Eewald =    18049.5771535544081416
       EH =    19611.5028143748859293
     Eloc =   -40154.0573557695752243
      Enl =      286.5906825327983825
      Exc =     -831.0969452021448660
 Exc_core =      493.5807696735311083
       KE =      596.1723601970657000
  MuShift =        0.0120256746954854
-------------------------------------
     Etot =    -1947.6277233601917942
       TS =        0.0667156562603570
-------------------------------------
        F =    -1947.6944390164521792

IonicMinimize: Iter:   0  F: -1947.694439016452179  |grad|_K:  6.196e-04  t[s]:   8065.45

#--- Lowdin population analysis ---
# oxidation-state Zr -0.435 -0.435 -0.435 -0.435 -0.435 -0.435 -0.435 -0.435 -0.435 -0.435 -0.435 -0.435 -0.435 -0.435 -0.435 -0.435 -0.435 -0.435 -0.435 -0.435 -0.435 -0.435 -0.435 -0.435 -0.435 -0.435 -0.435 -0.435 -0.435 -0.435 -0.435 -0.435
# magnetic-moments Zr +0.000 +0.000 +0.000 +0.000 +0.000 +0.000 +0.000 +0.000 +0.000 +0.000 +0.000 +0.000 +0.000 +0.000 +0.000 +0.000 +0.000 +0.000 +0.000 +0.000 +0.000 +0.000 +0.000 +0.000 +0.000 +0.000 +0.000 +0.000 +0.000 +0.000 +0.000 +0.000
# oxidation-state Si +0.315 +0.315 +0.315 +0.315 +0.315 +0.315 +0.315 +0.315 +0.315 +0.315 +0.315 +0.315 +0.315 +0.315 +0.315 +0.315 +0.315 +0.315 +0.315 +0.315 +0.315 +0.315 +0.315 +0.315 +0.315 +0.315 +0.315 +0.315 +0.315 +0.315 +0.315 +0.315
# magnetic-moments Si -0.000 -0.000 -0.000 -0.000 -0.000 -0.000 -0.000 -0.000 -0.000 -0.000 -0.000 -0.000 -0.000 -0.000 -0.000 -0.000 -0.000 -0.000 -0.000 -0.000 -0.000 -0.000 -0.000 -0.000 -0.000 -0.000 -0.000 -0.000 -0.000 -0.000 -0.000 -0.000
# oxidation-state Se +0.231 +0.231 +0.231 +0.231 +0.231 +0.231 +0.231 +0.231 +0.231 +0.231 +0.231 +0.231 +0.231 +0.231 +0.231 +0.231 +0.231 +0.231 +0.231 +0.231 +0.231 +0.231 +0.231 +0.231 +0.231 +0.231 +0.231 +0.231 +0.231 +0.231 +0.231 +0.231
# magnetic-moments Se -0.000 -0.000 -0.000 -0.000 -0.000 -0.000 -0.000 -0.000 -0.000 -0.000 -0.000 -0.000 -0.000 -0.000 -0.000 -0.000 -0.000 -0.000 -0.000 -0.000 -0.000 -0.000 -0.000 -0.000 -0.000 -0.000 -0.000 -0.000 -0.000 -0.000 -0.000 -0.000

	Linear fluid (dielectric constant: 78.4, screening length: 5.74355 Bohr) occupying 0.713245 of unit cell:	Completed after 2 iterations at t[s]:   8118.98

-------- Electronic minimization -----------
	Linear fluid (dielectric constant: 78.4, screening length: 5.74355 Bohr) occupying 0.713245 of unit cell:	Completed after 0 iterations at t[s]:   8147.69
	FillingsUpdate:  mu: -0.181396777  nElectrons: 703.000000  magneticMoment: [ Abs: 0.00007  Tot: +0.00000 ]
ElecMinimize: Iter:   0  F: -1947.694499274142800  |grad|_K:  3.106e-07  alpha:  1.000e+00
	Linear fluid (dielectric constant: 78.4, screening length: 5.74355 Bohr) occupying 0.713236 of unit cell:	Completed after 5 iterations at t[s]:   8270.92
	Linear fluid (dielectric constant: 78.4, screening length: 5.74355 Bohr) occupying 0.713239 of unit cell:	Completed after 2 iterations at t[s]:   8317.73
	FillingsUpdate:  mu: -0.180942755  nElectrons: 703.000000  magneticMoment: [ Abs: 0.00002  Tot: -0.00000 ]
	SubspaceRotationAdjust: set factor to 0.63
ElecMinimize: Iter:   1  F: -1947.694531070661697  |grad|_K:  3.114e-07  alpha:  6.642e-01  linmin: -2.795e-06  t[s]:   8380.65
	Linear fluid (dielectric constant: 78.4, screening length: 5.74355 Bohr) occupying 0.713203 of unit cell:	Completed after 10 iterations at t[s]:   8433.22
	Linear fluid (dielectric constant: 78.4, screening length: 5.74355 Bohr) occupying 0.713231 of unit cell:	Completed after 9 iterations at t[s]:   8483.20
	FillingsUpdate:  mu: -0.181401711  nElectrons: 703.000000  magneticMoment: [ Abs: 0.00001  Tot: -0.00000 ]
	SubspaceRotationAdjust: set factor to 0.291
ElecMinimize: Iter:   2  F: -1947.694537925771556  |grad|_K:  4.369e-08  alpha:  1.472e-01  linmin:  2.327e-04  t[s]:   8548.39
	Linear fluid (dielectric constant: 78.4, screening length: 5.74355 Bohr) occupying 0.713232 of unit cell:	Completed after 0 iterations at t[s]:   8599.00
ElecMinimize: 	Predicted alpha/alphaT>3.000000, increasing alphaT to 4.416241e-01.
	Linear fluid (dielectric constant: 78.4, screening length: 5.74355 Bohr) occupying 0.713232 of unit cell:	Completed after 2 iterations at t[s]:   8643.22
	Linear fluid (dielectric constant: 78.4, screening length: 5.74355 Bohr) occupying 0.713232 of unit cell:	Completed after 0 iterations at t[s]:   8689.58
	FillingsUpdate:  mu: -0.181388692  nElectrons: 703.000000  magneticMoment: [ Abs: 0.00001  Tot: -0.00000 ]
	SubspaceRotationAdjust: set factor to 0.484
ElecMinimize: Iter:   3  F: -1947.694538414627232  |grad|_K:  1.704e-08  alpha:  5.023e-01  linmin: -3.242e-04  t[s]:   8751.90
	Linear fluid (dielectric constant: 78.4, screening length: 5.74355 Bohr) occupying 0.713233 of unit cell:	Completed after 0 iterations at t[s]:   8802.15
	Linear fluid (dielectric constant: 78.4, screening length: 5.74355 Bohr) occupying 0.713235 of unit cell:	Completed after 0 iterations at t[s]:   8847.06
	FillingsUpdate:  mu: -0.181389306  nElectrons: 703.000000  magneticMoment: [ Abs: 0.00001  Tot: -0.00000 ]
	SubspaceRotationAdjust: set factor to 0.656
ElecMinimize: Iter:   4  F: -1947.694538646581805  |grad|_K:  1.284e-08  alpha:  1.361e+00  linmin: -5.550e-07  t[s]:   8909.41
	Linear fluid (dielectric constant: 78.4, screening length: 5.74355 Bohr) occupying 0.713237 of unit cell:	Completed after 3 iterations at t[s]:   8960.66
	Linear fluid (dielectric constant: 78.4, screening length: 5.74355 Bohr) occupying 0.713235 of unit cell:	Completed after 0 iterations at t[s]:   9006.84
ElecMinimize: 	Step increased F by 4.568460e-08, reducing alpha to 2.019418e-02.
	Linear fluid (dielectric constant: 78.4, screening length: 5.74355 Bohr) occupying 0.713235 of unit cell:	Completed after 0 iterations at t[s]:   9105.57
	FillingsUpdate:  mu: -0.181284767  nElectrons: 703.000000  magneticMoment: [ Abs: 0.00001  Tot: -0.00000 ]
	SubspaceRotationAdjust: set factor to 0.4
ElecMinimize: Iter:   5  F: -1947.694538655434826  |grad|_K:  5.190e-08  alpha:  2.019e-02  linmin:  1.003e-04  t[s]:   9167.34
ElecMinimize: 	Bad step direction: g.d > 0.
ElecMinimize: 	Undoing step.
	Linear fluid (dielectric constant: 78.4, screening length: 5.74355 Bohr) occupying 0.713235 of unit cell:	Completed after 0 iterations at t[s]:   9218.53
ElecMinimize: 	Step failed: resetting search direction.
	FillingsUpdate:  mu: -0.181284767  nElectrons: 703.000000  magneticMoment: [ Abs: 0.00001  Tot: -0.00000 ]
	SubspaceRotationAdjust: set factor to 0.272
ElecMinimize: Iter:   6  F: -1947.694538655440738  |grad|_K:  4.280e-08  alpha:  0.000e+00
ElecMinimize: Converged (|Delta F|<1.000000e-08 for 2 iters).
Setting wave functions to eigenvectors of Hamiltonian

# Ionic positions in lattice coordinates:
ion Zr   0.125000000000000  -0.000000000000000   0.600503499217260 1
ion Zr   0.000000000000000   0.125000000000000   0.399496486116074 1
ion Zr   0.375000000000000  -0.000000000000000   0.600503499217260 1
ion Zr   0.250000000000000   0.125000000000000   0.399496486116074 1
ion Zr   0.625000000000000  -0.000000000000000   0.600503499217260 1
ion Zr   0.500000000000000   0.125000000000000   0.399496486116074 1
ion Zr   0.875000000000000  -0.000000000000000   0.600503499217260 1
ion Zr   0.750000000000000   0.125000000000000   0.399496486116074 1
ion Zr   0.125000000000000   0.250000000000000   0.600503499217260 1
ion Zr   0.000000000000000   0.375000000000000   0.399496486116074 1
ion Zr   0.375000000000000   0.250000000000000   0.600503499217260 1
ion Zr   0.250000000000000   0.375000000000000   0.399496486116074 1
ion Zr   0.625000000000000   0.250000000000000   0.600503499217260 1
ion Zr   0.500000000000000   0.375000000000000   0.399496486116074 1
ion Zr   0.875000000000000   0.250000000000000   0.600503499217260 1
ion Zr   0.750000000000000   0.375000000000000   0.399496486116074 1
ion Zr   0.125000000000000   0.500000000000000   0.600503499217260 1
ion Zr   0.000000000000000   0.625000000000000   0.399496486116074 1
ion Zr   0.375000000000000   0.500000000000000   0.600503499217260 1
ion Zr   0.250000000000000   0.625000000000000   0.399496486116074 1
ion Zr   0.625000000000000   0.500000000000000   0.600503499217260 1
ion Zr   0.500000000000000   0.625000000000000   0.399496486116074 1
ion Zr   0.875000000000000   0.500000000000000   0.600503499217260 1
ion Zr   0.750000000000000   0.625000000000000   0.399496486116074 1
ion Zr   0.125000000000000   0.750000000000000   0.600503499217260 1
ion Zr   0.000000000000000   0.875000000000000   0.399496486116074 1
ion Zr   0.375000000000000   0.750000000000000   0.600503499217260 1
ion Zr   0.250000000000000   0.875000000000000   0.399496486116074 1
ion Zr   0.625000000000000   0.750000000000000   0.600503499217260 1
ion Zr   0.500000000000000   0.875000000000000   0.399496486116074 1
ion Zr   0.875000000000000   0.750000000000000   0.600503499217260 1
ion Zr   0.750000000000000   0.875000000000000   0.399496486116074 1
ion Si   0.000000000000000   0.000000000000000   0.499999992666667 1
ion Si   0.125000000000000   0.125000000000000   0.499999992666667 1
ion Si   0.250000000000000   0.000000000000000   0.499999992666667 1
ion Si   0.375000000000000   0.125000000000000   0.499999992666667 1
ion Si   0.500000000000000   0.000000000000000   0.499999992666667 1
ion Si   0.625000000000000   0.125000000000000   0.499999992666667 1
ion Si   0.750000000000000  -0.000000000000000   0.499999992666667 1
ion Si   0.875000000000000   0.125000000000000   0.499999992666667 1
ion Si   0.000000000000000   0.250000000000000   0.499999992666667 1
ion Si   0.125000000000000   0.375000000000000   0.499999992666667 1
ion Si   0.250000000000000   0.250000000000000   0.499999992666667 1
ion Si   0.375000000000000   0.375000000000000   0.499999992666667 1
ion Si   0.500000000000000   0.250000000000000   0.499999992666667 1
ion Si   0.625000000000000   0.375000000000000   0.499999992666667 1
ion Si   0.750000000000000   0.250000000000000   0.499999992666667 1
ion Si   0.875000000000000   0.375000000000000   0.499999992666667 1
ion Si   0.000000000000000   0.500000000000000   0.499999992666667 1
ion Si   0.125000000000000   0.625000000000000   0.499999992666667 1
ion Si   0.250000000000000   0.500000000000000   0.499999992666667 1
ion Si   0.375000000000000   0.625000000000000   0.499999992666667 1
ion Si   0.500000000000000   0.500000000000000   0.499999992666667 1
ion Si   0.625000000000000   0.625000000000000   0.499999992666667 1
ion Si   0.750000000000000   0.500000000000000   0.499999992666667 1
ion Si   0.875000000000000   0.625000000000000   0.499999992666667 1
ion Si   0.000000000000000   0.750000000000000   0.499999992666667 1
ion Si   0.125000000000000   0.875000000000000   0.499999992666667 1
ion Si   0.250000000000000   0.750000000000000   0.499999992666667 1
ion Si   0.375000000000000   0.875000000000000   0.499999992666667 1
ion Si   0.500000000000000   0.750000000000000   0.499999992666667 1
ion Si   0.625000000000000   0.875000000000000   0.499999992666667 1
ion Si   0.750000000000000   0.750000000000000   0.499999992666667 1
ion Si   0.875000000000000   0.875000000000000   0.499999992666667 1
ion Se   0.000000000000000   0.125000000000000   0.655050348707697 1
ion Se   0.125000000000000   0.000000000000000   0.344949636625637 1
ion Se   0.250000000000000   0.125000000000000   0.655050348707697 1
ion Se   0.375000000000000  -0.000000000000000   0.344949636625637 1
ion Se   0.500000000000000   0.125000000000000   0.655050348707697 1
ion Se   0.625000000000000   0.000000000000000   0.344949636625637 1
ion Se   0.750000000000000   0.125000000000000   0.655050348707697 1
ion Se   0.875000000000000  -0.000000000000000   0.344949636625637 1
ion Se  -0.000000000000000   0.375000000000000   0.655050348707697 1
ion Se   0.125000000000000   0.250000000000000   0.344949636625637 1
ion Se   0.250000000000000   0.375000000000000   0.655050348707697 1
ion Se   0.375000000000000   0.250000000000000   0.344949636625637 1
ion Se   0.500000000000000   0.375000000000000   0.655050348707697 1
ion Se   0.625000000000000   0.250000000000000   0.344949636625637 1
ion Se   0.750000000000000   0.375000000000000   0.655050348707697 1
ion Se   0.875000000000000   0.250000000000000   0.344949636625637 1
ion Se   0.000000000000000   0.625000000000000   0.655050348707697 1
ion Se   0.125000000000000   0.500000000000000   0.344949636625637 1
ion Se   0.250000000000000   0.625000000000000   0.655050348707697 1
ion Se   0.375000000000000   0.500000000000000   0.344949636625637 1
ion Se   0.500000000000000   0.625000000000000   0.655050348707697 1
ion Se   0.625000000000000   0.500000000000000   0.344949636625637 1
ion Se   0.750000000000000   0.625000000000000   0.655050348707697 1
ion Se   0.875000000000000   0.500000000000000   0.344949636625637 1
ion Se   0.000000000000000   0.875000000000000   0.655050348707697 1
ion Se   0.125000000000000   0.750000000000000   0.344949636625637 1
ion Se   0.250000000000000   0.875000000000000   0.655050348707697 1
ion Se   0.375000000000000   0.750000000000000   0.344949636625637 1
ion Se   0.500000000000000   0.875000000000000   0.655050348707697 1
ion Se   0.625000000000000   0.750000000000000   0.344949636625637 1
ion Se   0.750000000000000   0.875000000000000   0.655050348707697 1
ion Se   0.875000000000000   0.750000000000000   0.344949636625637 1


# Forces in Lattice coordinates:
force Zr   0.000000000000000   0.000000000000000   0.044559095080979 1
force Zr   0.000000000000000   0.000000000000000  -0.044559095080979 1
force Zr   0.000000000000000   0.000000000000000   0.044559095080751 1
force Zr   0.000000000000000   0.000000000000000  -0.044559095080979 1
force Zr  -0.000000000000000  -0.000000000000000   0.044559095080979 1
force Zr   0.000000000000000   0.000000000000000  -0.044559095080979 1
force Zr  -0.000000000000000   0.000000000000000   0.044559095080752 1
force Zr   0.000000000000000  -0.000000000000000  -0.044559095080979 1
force Zr   0.000000000000000  -0.000000000000000   0.044559095080979 1
force Zr  -0.000000000000000  -0.000000000000000  -0.044559095080979 1
force Zr  -0.000000000000000   0.000000000000000   0.044559095080752 1
force Zr  -0.000000000000000   0.000000000000000  -0.044559095080979 1
force Zr  -0.000000000000000  -0.000000000000000   0.044559095080979 1
force Zr  -0.000000000000000   0.000000000000000  -0.044559095080979 1
force Zr  -0.000000000000000   0.000000000000000   0.044559095080979 1
force Zr   0.000000000000000  -0.000000000000000  -0.044559095080979 1
force Zr   0.000000000000000  -0.000000000000000   0.044559095080752 1
force Zr  -0.000000000000000   0.000000000000000  -0.044559095080752 1
force Zr  -0.000000000000000   0.000000000000000   0.044559095080752 1
force Zr   0.000000000000000   0.000000000000000  -0.044559095080979 1
force Zr  -0.000000000000000   0.000000000000000   0.044559095080752 1
force Zr  -0.000000000000000   0.000000000000000  -0.044559095080979 1
force Zr   0.000000000000000  -0.000000000000000   0.044559095080752 1
force Zr  -0.000000000000000   0.000000000000000  -0.044559095080979 1
force Zr  -0.000000000000000   0.000000000000000   0.044559095080979 1
force Zr   0.000000000000000   0.000000000000000  -0.044559095080979 1
force Zr   0.000000000000000   0.000000000000000   0.044559095080979 1
force Zr   0.000000000000000   0.000000000000000  -0.044559095080979 1
force Zr  -0.000000000000000   0.000000000000000   0.044559095080979 1
force Zr  -0.000000000000000  -0.000000000000000  -0.044559095080979 1
force Zr   0.000000000000000  -0.000000000000000   0.044559095080979 1
force Zr   0.000000000000000   0.000000000000000  -0.044559095080979 1
force Si  -0.000000000000000   0.000000000000000   0.000000000000000 1
force Si  -0.000000000000000  -0.000000000000000   0.000000000000000 1
force Si   0.000000000000000  -0.000000000000000   0.000000000000000 1
force Si   0.000000000000000  -0.000000000000000  -0.000000000000000 1
force Si  -0.000000000000000  -0.000000000000000   0.000000000000000 1
force Si  -0.000000000000000   0.000000000000000   0.000000000000000 1
force Si   0.000000000000000  -0.000000000000000  -0.000000000000000 1
force Si   0.000000000000000   0.000000000000000   0.000000000000000 1
force Si  -0.000000000000000  -0.000000000000000  -0.000000000000000 1
force Si  -0.000000000000000  -0.000000000000000   0.000000000000000 1
force Si   0.000000000000000  -0.000000000000000  -0.000000000000000 1
force Si   0.000000000000000   0.000000000000000  -0.000000000000000 1
force Si   0.000000000000000  -0.000000000000000  -0.000000000000000 1
force Si   0.000000000000000  -0.000000000000000  -0.000000000000000 1
force Si  -0.000000000000000  -0.000000000000000  -0.000000000000000 1
force Si   0.000000000000000   0.000000000000000   0.000000000000000 1
force Si  -0.000000000000000   0.000000000000000  -0.000000000000000 1
force Si  -0.000000000000000  -0.000000000000000  -0.000000000000000 1
force Si   0.000000000000000  -0.000000000000000   0.000000000000000 1
force Si   0.000000000000000  -0.000000000000000  -0.000000000000000 1
force Si  -0.000000000000000   0.000000000000000  -0.000000000000000 1
force Si  -0.000000000000000   0.000000000000000  -0.000000000000000 1
force Si  -0.000000000000000  -0.000000000000000  -0.000000000000000 1
force Si   0.000000000000000  -0.000000000000000  -0.000000000000000 1
force Si  -0.000000000000000  -0.000000000000000   0.000000000000000 1
force Si   0.000000000000000   0.000000000000000   0.000000000000000 1
force Si   0.000000000000000   0.000000000000000   0.000000000000000 1
force Si  -0.000000000000000   0.000000000000000  -0.000000000000000 1
force Si   0.000000000000000  -0.000000000000000  -0.000000000000000 1
force Si   0.000000000000000  -0.000000000000000  -0.000000000000000 1
force Si  -0.000000000000000   0.000000000000000  -0.000000000000000 1
force Si  -0.000000000000000  -0.000000000000000   0.000000000000000 1
force Se   0.000000000000000   0.000000000000000  -0.029353642284508 1
force Se   0.000000000000000  -0.000000000000000   0.029353642284281 1
force Se  -0.000000000000000  -0.000000000000000  -0.029353642284508 1
force Se  -0.000000000000000  -0.000000000000000   0.029353642284281 1
force Se  -0.000000000000000   0.000000000000000  -0.029353642284508 1
force Se   0.000000000000000  -0.000000000000000   0.029353642284280 1
force Se  -0.000000000000000  -0.000000000000000  -0.029353642284509 1
force Se   0.000000000000000   0.000000000000000   0.029353642284394 1
force Se   0.000000000000000  -0.000000000000000  -0.029353642284509 1
force Se  -0.000000000000000   0.000000000000000   0.029353642284280 1
force Se  -0.000000000000000   0.000000000000000  -0.029353642284508 1
force Se  -0.000000000000000  -0.000000000000000   0.029353642284282 1
force Se  -0.000000000000000  -0.000000000000000  -0.029353642284509 1
force Se  -0.000000000000000   0.000000000000000   0.029353642284280 1
force Se   0.000000000000000  -0.000000000000000  -0.029353642284395 1
force Se   0.000000000000000  -0.000000000000000   0.029353642284280 1
force Se   0.000000000000000  -0.000000000000000  -0.029353642284509 1
force Se  -0.000000000000000   0.000000000000000   0.029353642284280 1
force Se  -0.000000000000000  -0.000000000000000  -0.029353642284396 1
force Se  -0.000000000000000   0.000000000000000   0.029353642284281 1
force Se  -0.000000000000000   0.000000000000000  -0.029353642284394 1
force Se  -0.000000000000000   0.000000000000000   0.029353642284166 1
force Se   0.000000000000000   0.000000000000000  -0.029353642284507 1
force Se   0.000000000000000  -0.000000000000000   0.029353642284394 1
force Se   0.000000000000000   0.000000000000000  -0.029353642284623 1
force Se  -0.000000000000000   0.000000000000000   0.029353642284394 1
force Se  -0.000000000000000   0.000000000000000  -0.029353642284509 1
force Se  -0.000000000000000   0.000000000000000   0.029353642284280 1
force Se   0.000000000000000  -0.000000000000000  -0.029353642284623 1
force Se  -0.000000000000000  -0.000000000000000   0.029353642284280 1
force Se  -0.000000000000000   0.000000000000000  -0.029353642284508 1
force Se   0.000000000000000   0.000000000000000   0.029353642284394 1

# Energy components:
   A_diel =        0.0907195446973939
   Eewald =    18048.7506710994566674
       EH =    19610.7425603798183147
     Eloc =   -40152.4727361095137894
      Enl =      286.5925514688670432
      Exc =     -831.0987710792346661
 Exc_core =      493.5807599957956313
       KE =      596.1744064470221929
  MuShift =        0.0120256746954854
-------------------------------------
     Etot =    -1947.6278125783933319
       TS =        0.0667260770473006
-------------------------------------
        F =    -1947.6945386554407378

IonicMinimize: Iter:   1  F: -1947.694538655440738  |grad|_K:  4.336e-04  alpha:  1.000e+00  linmin: -9.975e-01  t[s]:   9321.64

#--- Lowdin population analysis ---
# oxidation-state Zr -0.434 -0.434 -0.434 -0.434 -0.434 -0.434 -0.434 -0.434 -0.434 -0.434 -0.434 -0.434 -0.434 -0.434 -0.434 -0.434 -0.434 -0.434 -0.434 -0.434 -0.434 -0.434 -0.434 -0.434 -0.434 -0.434 -0.434 -0.434 -0.434 -0.434 -0.434 -0.434
# magnetic-moments Zr +0.000 +0.000 +0.000 +0.000 +0.000 +0.000 +0.000 +0.000 +0.000 +0.000 +0.000 +0.000 +0.000 +0.000 +0.000 +0.000 +0.000 +0.000 +0.000 +0.000 +0.000 +0.000 +0.000 +0.000 +0.000 +0.000 +0.000 +0.000 +0.000 +0.000 +0.000 +0.000
# oxidation-state Si +0.315 +0.315 +0.315 +0.315 +0.315 +0.315 +0.315 +0.315 +0.315 +0.315 +0.315 +0.315 +0.315 +0.315 +0.315 +0.315 +0.315 +0.315 +0.315 +0.315 +0.315 +0.315 +0.315 +0.315 +0.315 +0.315 +0.315 +0.315 +0.315 +0.315 +0.315 +0.315
# magnetic-moments Si -0.000 -0.000 -0.000 -0.000 -0.000 -0.000 -0.000 -0.000 -0.000 -0.000 -0.000 -0.000 -0.000 -0.000 -0.000 -0.000 -0.000 -0.000 -0.000 -0.000 -0.000 -0.000 -0.000 -0.000 -0.000 -0.000 -0.000 -0.000 -0.000 -0.000 -0.000 -0.000
# oxidation-state Se +0.231 +0.231 +0.231 +0.231 +0.231 +0.231 +0.231 +0.231 +0.231 +0.231 +0.231 +0.231 +0.231 +0.231 +0.231 +0.231 +0.231 +0.231 +0.231 +0.231 +0.231 +0.231 +0.231 +0.231 +0.231 +0.231 +0.231 +0.231 +0.231 +0.231 +0.231 +0.231
# magnetic-moments Se -0.000 -0.000 -0.000 -0.000 -0.000 -0.000 -0.000 -0.000 -0.000 -0.000 -0.000 -0.000 -0.000 -0.000 -0.000 -0.000 -0.000 -0.000 -0.000 -0.000 -0.000 -0.000 -0.000 -0.000 -0.000 -0.000 -0.000 -0.000 -0.000 -0.000 -0.000 -0.000

	Linear fluid (dielectric constant: 78.4, screening length: 5.74355 Bohr) occupying 0.713308 of unit cell:	Completed after 4 iterations at t[s]:   9376.00

-------- Electronic minimization -----------
	Linear fluid (dielectric constant: 78.4, screening length: 5.74355 Bohr) occupying 0.713308 of unit cell:	Completed after 0 iterations at t[s]:   9404.91
	FillingsUpdate:  mu: -0.181594130  nElectrons: 703.000000  magneticMoment: [ Abs: 0.00018  Tot: -0.00000 ]
ElecMinimize: Iter:   0  F: -1947.694453660538784  |grad|_K:  4.514e-07  alpha:  1.000e+00
	Linear fluid (dielectric constant: 78.4, screening length: 5.74355 Bohr) occupying 0.713309 of unit cell:	Completed after 11 iterations at t[s]:   9529.40
	Linear fluid (dielectric constant: 78.4, screening length: 5.74355 Bohr) occupying 0.713309 of unit cell:	Completed after 0 iterations at t[s]:   9577.45
	FillingsUpdate:  mu: -0.180195669  nElectrons: 703.000000  magneticMoment: [ Abs: 0.00017  Tot: -0.00000 ]
	SubspaceRotationAdjust: set factor to 0.195
ElecMinimize: Iter:   1  F: -1947.694558222100568  |grad|_K:  4.096e-07  alpha:  1.024e+00  linmin:  6.510e-05  t[s]:   9640.27
	Linear fluid (dielectric constant: 78.4, screening length: 5.74355 Bohr) occupying 0.713293 of unit cell:	Completed after 6 iterations at t[s]:   9691.48
	Linear fluid (dielectric constant: 78.4, screening length: 5.74355 Bohr) occupying 0.713289 of unit cell:	Completed after 3 iterations at t[s]:   9739.52
	FillingsUpdate:  mu: -0.180995276  nElectrons: 703.000000  magneticMoment: [ Abs: 0.00010  Tot: -0.00000 ]
	SubspaceRotationAdjust: set factor to 0.233
ElecMinimize: Iter:   2  F: -1947.694665388049089  |grad|_K:  2.191e-07  alpha:  1.285e+00  linmin:  6.786e-05  t[s]:   9803.42
	Linear fluid (dielectric constant: 78.4, screening length: 5.74355 Bohr) occupying 0.713279 of unit cell:	Completed after 3 iterations at t[s]:   9854.58
	Linear fluid (dielectric constant: 78.4, screening length: 5.74355 Bohr) occupying 0.713283 of unit cell:	Completed after 2 iterations at t[s]:   9899.79
	FillingsUpdate:  mu: -0.181116045  nElectrons: 703.000000  magneticMoment: [ Abs: 0.00005  Tot: -0.00000 ]
[...]
ElecMinimize: 	Predicted alpha/alphaT>3.000000, increasing alphaT to 1.173866e+00.
	Linear fluid (dielectric constant: 78.4, screening length: 5.74355 Bohr) occupying 0.713319 of unit cell:	Completed after 3 iterations at t[s]:  20580.40
	Linear fluid (dielectric constant: 78.4, screening length: 5.74355 Bohr) occupying 0.713319 of unit cell:	Completed after 0 iterations at t[s]:  20623.97
	FillingsUpdate:  mu: -0.180783154  nElectrons: 703.000000  magneticMoment: [ Abs: 0.00000  Tot: -0.00000 ]
	SubspaceRotationAdjust: set factor to 0.0575
ElecMinimize: Iter:  14  F: -1947.694716591445058  |grad|_K:  1.617e-08  alpha:  3.916e-01  linmin:  7.623e-04  t[s]:  20684.02
	Linear fluid (dielectric constant: 78.4, screening length: 5.74355 Bohr) occupying 0.713319 of unit cell:	Completed after 0 iterations at t[s]:  20732.44
	Linear fluid (dielectric constant: 78.4, screening length: 5.74355 Bohr) occupying 0.713320 of unit cell:	Completed after 0 iterations at t[s]:  20775.04
	FillingsUpdate:  mu: -0.180783070  nElectrons: 703.000000  magneticMoment: [ Abs: 0.00000  Tot: -0.00000 ]
	SubspaceRotationAdjust: set factor to 0.088
ElecMinimize: Iter:  15  F: -1947.694716610019668  |grad|_K:  1.444e-08  alpha:  8.365e-01  linmin: -1.079e-08  t[s]:  20835.09
	Linear fluid (dielectric constant: 78.4, screening length: 5.74355 Bohr) occupying 0.713320 of unit cell:	Completed after 1 iterations at t[s]:  20884.25
	Linear fluid (dielectric constant: 78.4, screening length: 5.74355 Bohr) occupying 0.713320 of unit cell:	Completed after 0 iterations at t[s]:  20927.04
ElecMinimize: 	Step increased F by 9.701262e-08, reducing alpha to 1.869096e-02.
	Linear fluid (dielectric constant: 78.4, screening length: 5.74355 Bohr) occupying 0.713320 of unit cell:	Completed after 0 iterations at t[s]:  21021.53
ElecMinimize: 	Step increased F by 8.009647e-08, reducing alpha to 1.869096e-03.
	Linear fluid (dielectric constant: 78.4, screening length: 5.74355 Bohr) occupying 0.713320 of unit cell:	Completed after 0 iterations at t[s]:  21115.82
ElecMinimize: 	Step increased F by 7.877225e-08, reducing alpha to 1.869096e-04.
ElecMinimize: 	Step failed to reduce F after 3 attempts. Quitting step.
ElecMinimize: 	Undoing step.
	Linear fluid (dielectric constant: 78.4, screening length: 5.74355 Bohr) occupying 0.713320 of unit cell:	Completed after 0 iterations at t[s]:  21210.26
ElecMinimize: 	Step failed: resetting search direction.
	FillingsUpdate:  mu: -0.180815577  nElectrons: 703.000000  magneticMoment: [ Abs: 0.00000  Tot: -0.00000 ]
	SubspaceRotationAdjust: set factor to 0.0772
ElecMinimize: Iter:  16  F: -1947.694716531290624  |grad|_K:  1.289e-08  alpha:  1.869e-04
	Linear fluid (dielectric constant: 78.4, screening length: 5.74355 Bohr) occupying 0.713319 of unit cell:	Completed after 1 iterations at t[s]:  21318.96
	Linear fluid (dielectric constant: 78.4, screening length: 5.74355 Bohr) occupying 0.713320 of unit cell:	Completed after 0 iterations at t[s]:  21361.96
ElecMinimize: 	Step increased F by 1.304124e-08, reducing alpha to 3.273319e-02.
	Linear fluid (dielectric constant: 78.4, screening length: 5.74355 Bohr) occupying 0.713320 of unit cell:	Completed after 0 iterations at t[s]:  21456.42
ElecMinimize: 	Step increased F by 3.049149e-08, reducing alpha to 3.273319e-03.
	Linear fluid (dielectric constant: 78.4, screening length: 5.74355 Bohr) occupying 0.713320 of unit cell:	Completed after 0 iterations at t[s]:  21551.09
ElecMinimize: 	Step increased F by 3.360242e-08, reducing alpha to 3.273319e-04.
ElecMinimize: 	Step failed to reduce F after 3 attempts. Quitting step.
ElecMinimize: 	Undoing step.
	Linear fluid (dielectric constant: 78.4, screening length: 5.74355 Bohr) occupying 0.713320 of unit cell:	Completed after 0 iterations at t[s]:  21645.37
ElecMinimize: 	Step failed along negative gradient direction.
ElecMinimize: Probably at roundoff error limit. (Stopping)
Setting wave functions to eigenvectors of Hamiltonian

# Ionic positions in lattice coordinates:
ion Zr   0.125000000000000   0.000000000000000   0.600659501898913 1
ion Zr  -0.000000000000000   0.125000000000000   0.399340483434420 1
ion Zr   0.375000000000000   0.000000000000000   0.600659501898913 1
ion Zr   0.250000000000000   0.125000000000000   0.399340483434420 1
ion Zr   0.625000000000000   0.000000000000000   0.600659501898913 1
ion Zr   0.500000000000000   0.125000000000000   0.399340483434420 1
ion Zr   0.875000000000000   0.000000000000000   0.600659501898913 1
ion Zr   0.750000000000000   0.125000000000000   0.399340483434420 1
ion Zr   0.125000000000000   0.250000000000000   0.600659501898913 1
ion Zr  -0.000000000000000   0.375000000000000   0.399340483434420 1
ion Zr   0.375000000000000   0.250000000000000   0.600659501898913 1
ion Zr   0.250000000000000   0.375000000000000   0.399340483434420 1
ion Zr   0.625000000000000   0.250000000000000   0.600659501898913 1
ion Zr   0.500000000000000   0.375000000000000   0.399340483434420 1
ion Zr   0.875000000000000   0.250000000000000   0.600659501898913 1
ion Zr   0.750000000000000   0.375000000000000   0.399340483434420 1
ion Zr   0.125000000000000   0.500000000000000   0.600659501898913 1
ion Zr  -0.000000000000000   0.625000000000000   0.399340483434420 1
ion Zr   0.375000000000000   0.500000000000000   0.600659501898913 1
ion Zr   0.250000000000000   0.625000000000000   0.399340483434420 1
ion Zr   0.625000000000000   0.500000000000000   0.600659501898913 1
ion Zr   0.500000000000000   0.625000000000000   0.399340483434420 1
ion Zr   0.875000000000000   0.500000000000000   0.600659501898913 1
ion Zr   0.750000000000000   0.625000000000000   0.399340483434420 1
ion Zr   0.125000000000000   0.750000000000000   0.600659501898913 1
ion Zr  -0.000000000000000   0.875000000000000   0.399340483434420 1
ion Zr   0.375000000000000   0.750000000000000   0.600659501898913 1
ion Zr   0.250000000000000   0.875000000000000   0.399340483434420 1
ion Zr   0.625000000000000   0.750000000000000   0.600659501898913 1
ion Zr   0.500000000000000   0.875000000000000   0.399340483434420 1
ion Zr   0.875000000000000   0.750000000000000   0.600659501898913 1
ion Zr   0.750000000000000   0.875000000000000   0.399340483434420 1
ion Si  -0.000000000000000   0.000000000000000   0.499999992666667 1
ion Si   0.125000000000000   0.125000000000000   0.499999992666667 1
ion Si   0.250000000000000   0.000000000000000   0.499999992666667 1
ion Si   0.375000000000000   0.125000000000000   0.499999992666667 1
ion Si   0.500000000000000   0.000000000000000   0.499999992666667 1
ion Si   0.625000000000000   0.125000000000000   0.499999992666667 1
ion Si   0.750000000000000   0.000000000000000   0.499999992666667 1
ion Si   0.875000000000000   0.125000000000000   0.499999992666667 1
ion Si  -0.000000000000000   0.250000000000000   0.499999992666667 1
ion Si   0.125000000000000   0.375000000000000   0.499999992666667 1
ion Si   0.250000000000000   0.250000000000000   0.499999992666667 1
ion Si   0.375000000000000   0.375000000000000   0.499999992666667 1
ion Si   0.500000000000000   0.250000000000000   0.499999992666667 1
ion Si   0.625000000000000   0.375000000000000   0.499999992666667 1
ion Si   0.750000000000000   0.250000000000000   0.499999992666667 1
ion Si   0.875000000000000   0.375000000000000   0.499999992666667 1
ion Si  -0.000000000000000   0.500000000000000   0.499999992666667 1
ion Si   0.125000000000000   0.625000000000000   0.499999992666667 1
ion Si   0.250000000000000   0.500000000000000   0.499999992666667 1
ion Si   0.375000000000000   0.625000000000000   0.499999992666667 1
ion Si   0.500000000000000   0.500000000000000   0.499999992666667 1
ion Si   0.625000000000000   0.625000000000000   0.499999992666667 1
ion Si   0.750000000000000   0.500000000000000   0.499999992666667 1
ion Si   0.875000000000000   0.625000000000000   0.499999992666667 1
ion Si  -0.000000000000000   0.750000000000000   0.499999992666667 1
ion Si   0.125000000000000   0.875000000000000   0.499999992666667 1
ion Si   0.250000000000000   0.750000000000000   0.499999992666667 1
ion Si   0.375000000000000   0.875000000000000   0.499999992666667 1
ion Si   0.500000000000000   0.750000000000000   0.499999992666667 1
ion Si   0.625000000000000   0.875000000000000   0.499999992666667 1
ion Si   0.750000000000000   0.750000000000000   0.499999992666667 1
ion Si   0.875000000000000   0.875000000000000   0.499999992666667 1
ion Se  -0.000000000000000   0.125000000000000   0.654916936657332 1
ion Se   0.125000000000000   0.000000000000000   0.345083048676001 1
ion Se   0.250000000000000   0.125000000000000   0.654916936657332 1
ion Se   0.375000000000000   0.000000000000000   0.345083048676001 1
ion Se   0.500000000000000   0.125000000000000   0.654916936657332 1
ion Se   0.625000000000000   0.000000000000000   0.345083048676001 1
ion Se   0.750000000000000   0.125000000000000   0.654916936657332 1
ion Se   0.875000000000000   0.000000000000000   0.345083048676001 1
ion Se  -0.000000000000000   0.375000000000000   0.654916936657332 1
ion Se   0.125000000000000   0.250000000000000   0.345083048676001 1
ion Se   0.250000000000000   0.375000000000000   0.654916936657332 1
ion Se   0.375000000000000   0.250000000000000   0.345083048676001 1
ion Se   0.500000000000000   0.375000000000000   0.654916936657332 1
ion Se   0.625000000000000   0.250000000000000   0.345083048676001 1
ion Se   0.750000000000000   0.375000000000000   0.654916936657332 1
ion Se   0.875000000000000   0.250000000000000   0.345083048676001 1
ion Se  -0.000000000000000   0.625000000000000   0.654916936657332 1
ion Se   0.125000000000000   0.500000000000000   0.345083048676001 1
ion Se   0.250000000000000   0.625000000000000   0.654916936657332 1
ion Se   0.375000000000000   0.500000000000000   0.345083048676001 1
ion Se   0.500000000000000   0.625000000000000   0.654916936657332 1
ion Se   0.625000000000000   0.500000000000000   0.345083048676001 1
ion Se   0.750000000000000   0.625000000000000   0.654916936657332 1
ion Se   0.875000000000000   0.500000000000000   0.345083048676001 1
ion Se  -0.000000000000000   0.875000000000000   0.654916936657332 1
ion Se   0.125000000000000   0.750000000000000   0.345083048676001 1
ion Se   0.250000000000000   0.875000000000000   0.654916936657332 1
ion Se   0.375000000000000   0.750000000000000   0.345083048676001 1
ion Se   0.500000000000000   0.875000000000000   0.654916936657332 1
ion Se   0.625000000000000   0.750000000000000   0.345083048676001 1
ion Se   0.750000000000000   0.875000000000000   0.654916936657332 1
ion Se   0.875000000000000   0.750000000000000   0.345083048676001 1


# Forces in Lattice coordinates:
force Zr   0.000000000000000  -0.000000000000000  -0.006560965123505 1
force Zr  -0.000000000000000   0.000000000000000   0.006560965123505 1
force Zr   0.000000000000000  -0.000000000000000  -0.006560965123505 1
force Zr   0.000000000000000   0.000000000000000   0.006560965123505 1
force Zr  -0.000000000000000  -0.000000000000000  -0.006560965123505 1
force Zr  -0.000000000000000  -0.000000000000000   0.006560965123505 1
force Zr   0.000000000000000  -0.000000000000000  -0.006560965123505 1
force Zr   0.000000000000000  -0.000000000000000   0.006560965123505 1
force Zr   0.000000000000000  -0.000000000000000  -0.006560965123505 1
force Zr  -0.000000000000000   0.000000000000000   0.006560965123505 1
force Zr   0.000000000000000   0.000000000000000  -0.006560965123732 1
force Zr   0.000000000000000   0.000000000000000   0.006560965123505 1
force Zr  -0.000000000000000  -0.000000000000000  -0.006560965123505 1
force Zr   0.000000000000000  -0.000000000000000   0.006560965123505 1
force Zr   0.000000000000000   0.000000000000000  -0.006560965123505 1
force Zr   0.000000000000000  -0.000000000000000   0.006560965123505 1
force Zr  -0.000000000000000  -0.000000000000000  -0.006560965123278 1
force Zr  -0.000000000000000   0.000000000000000   0.006560965123505 1
force Zr  -0.000000000000000   0.000000000000000  -0.006560965123505 1
force Zr   0.000000000000000  -0.000000000000000   0.006560965123505 1
force Zr  -0.000000000000000   0.000000000000000  -0.006560965123505 1
force Zr  -0.000000000000000   0.000000000000000   0.006560965123505 1
force Zr   0.000000000000000   0.000000000000000  -0.006560965123505 1
force Zr   0.000000000000000  -0.000000000000000   0.006560965123505 1
force Zr  -0.000000000000000   0.000000000000000  -0.006560965123505 1
force Zr   0.000000000000000   0.000000000000000   0.006560965123505 1
force Zr   0.000000000000000  -0.000000000000000  -0.006560965123505 1
force Zr   0.000000000000000   0.000000000000000   0.006560965123505 1
force Zr  -0.000000000000000   0.000000000000000  -0.006560965123505 1
force Zr  -0.000000000000000   0.000000000000000   0.006560965123505 1
force Zr   0.000000000000000  -0.000000000000000  -0.006560965123505 1
force Zr  -0.000000000000000   0.000000000000000   0.006560965123505 1
force Si   0.000000000000000   0.000000000000000   0.000000000000000 1
force Si   0.000000000000000   0.000000000000000   0.000000000000000 1
force Si   0.000000000000000   0.000000000000000   0.000000000000000 1
force Si  -0.000000000000000  -0.000000000000000  -0.000000000000000 1
force Si  -0.000000000000000  -0.000000000000000  -0.000000000000000 1
force Si  -0.000000000000000  -0.000000000000000   0.000000000000000 1
force Si   0.000000000000000  -0.000000000000000  -0.000000000000000 1
force Si   0.000000000000000  -0.000000000000000   0.000000000000000 1
force Si  -0.000000000000000  -0.000000000000000  -0.000000000000000 1
force Si  -0.000000000000000  -0.000000000000000   0.000000000000000 1
force Si  -0.000000000000000  -0.000000000000000   0.000000000000000 1
force Si  -0.000000000000000   0.000000000000000  -0.000000000000000 1
force Si  -0.000000000000000  -0.000000000000000  -0.000000000000000 1
force Si  -0.000000000000000  -0.000000000000000   0.000000000000000 1
force Si   0.000000000000000  -0.000000000000000  -0.000000000000000 1
force Si  -0.000000000000000  -0.000000000000000   0.000000000000000 1
force Si  -0.000000000000000   0.000000000000000   0.000000000000000 1
force Si  -0.000000000000000  -0.000000000000000  -0.000000000000000 1
force Si  -0.000000000000000   0.000000000000000   0.000000000000000 1
force Si  -0.000000000000000  -0.000000000000000  -0.000000000000000 1
force Si   0.000000000000000  -0.000000000000000   0.000000000000000 1
force Si   0.000000000000000  -0.000000000000000   0.000000000000000 1
force Si   0.000000000000000  -0.000000000000000  -0.000000000000000 1
force Si  -0.000000000000000  -0.000000000000000  -0.000000000000000 1
force Si  -0.000000000000000   0.000000000000000  -0.000000000000000 1
force Si   0.000000000000000   0.000000000000000  -0.000000000000000 1
force Si   0.000000000000000   0.000000000000000   0.000000000000000 1
force Si   0.000000000000000  -0.000000000000000  -0.000000000000000 1
force Si   0.000000000000000  -0.000000000000000   0.000000000000000 1
force Si  -0.000000000000000   0.000000000000000   0.000000000000000 1
force Si  -0.000000000000000  -0.000000000000000  -0.000000000000000 1
force Si   0.000000000000000  -0.000000000000000   0.000000000000000 1
force Se   0.000000000000000   0.000000000000000   0.001724529466234 1
force Se   0.000000000000000   0.000000000000000  -0.001724529466236 1
force Se  -0.000000000000000   0.000000000000000   0.001724529466235 1
force Se   0.000000000000000   0.000000000000000  -0.001724529466236 1
force Se  -0.000000000000000  -0.000000000000000   0.001724529466234 1
force Se  -0.000000000000000  -0.000000000000000  -0.001724529466235 1
force Se  -0.000000000000000   0.000000000000000   0.001724529466234 1
force Se   0.000000000000000   0.000000000000000  -0.001724529466236 1
force Se  -0.000000000000000  -0.000000000000000   0.001724529466347 1
force Se   0.000000000000000  -0.000000000000000  -0.001724529466236 1
force Se  -0.000000000000000  -0.000000000000000   0.001724529466236 1
force Se   0.000000000000000   0.000000000000000  -0.001724529466235 1
force Se  -0.000000000000000  -0.000000000000000   0.001724529466347 1
force Se  -0.000000000000000  -0.000000000000000  -0.001724529466235 1
force Se  -0.000000000000000  -0.000000000000000   0.001724529466347 1
force Se   0.000000000000000  -0.000000000000000  -0.001724529466236 1
force Se   0.000000000000000   0.000000000000000   0.001724529466348 1
force Se   0.000000000000000   0.000000000000000  -0.001724529466236 1
force Se   0.000000000000000  -0.000000000000000   0.001724529466235 1
force Se   0.000000000000000   0.000000000000000  -0.001724529466236 1
force Se  -0.000000000000000  -0.000000000000000   0.001724529466234 1
force Se  -0.000000000000000   0.000000000000000  -0.001724529466235 1
force Se   0.000000000000000   0.000000000000000   0.001724529466347 1
force Se  -0.000000000000000  -0.000000000000000  -0.001724529466236 1
force Se   0.000000000000000   0.000000000000000   0.001724529466234 1
force Se  -0.000000000000000  -0.000000000000000  -0.001724529466124 1
force Se   0.000000000000000   0.000000000000000   0.001724529466234 1
force Se   0.000000000000000   0.000000000000000  -0.001724529466235 1
force Se  -0.000000000000000  -0.000000000000000   0.001724529466234 1
force Se  -0.000000000000000   0.000000000000000  -0.001724529466236 1
force Se  -0.000000000000000   0.000000000000000   0.001724529466234 1
force Se   0.000000000000000  -0.000000000000000  -0.001724529466236 1

# Energy components:
   A_diel =        0.0905753222362270
   Eewald =    18046.9039581273027579
       EH =    19608.8909220837231260
     Eloc =   -40148.7943143008451443
      Enl =      286.6063209445078428
      Exc =     -831.1121622812556780
 Exc_core =      493.5807251151782680
       KE =      596.1939821113314792
  MuShift =        0.0120256746954854
-------------------------------------
     Etot =    -1947.6279672031223527
       TS =        0.0667492945374582
-------------------------------------
        F =    -1947.6947164976597833

IonicMinimize: Iter:   3  F: -1947.694716497659783  |grad|_K:  5.513e-05  alpha:  1.000e+00  linmin:  9.108e-01  t[s]:  21744.63
IonicMinimize: Converged (|grad|_K<1.000000e-04).

#--- Lowdin population analysis ---
# oxidation-state Zr -0.435 -0.435 -0.435 -0.435 -0.435 -0.435 -0.435 -0.435 -0.435 -0.435 -0.435 -0.435 -0.435 -0.435 -0.435 -0.435 -0.435 -0.435 -0.435 -0.435 -0.435 -0.435 -0.435 -0.435 -0.435 -0.435 -0.435 -0.435 -0.435 -0.435 -0.435 -0.435
# magnetic-moments Zr +0.000 +0.000 +0.000 +0.000 +0.000 +0.000 +0.000 +0.000 +0.000 +0.000 +0.000 +0.000 +0.000 +0.000 +0.000 +0.000 +0.000 +0.000 +0.000 +0.000 +0.000 +0.000 +0.000 +0.000 +0.000 +0.000 +0.000 +0.000 +0.000 +0.000 +0.000 +0.000
# oxidation-state Si +0.314 +0.314 +0.314 +0.314 +0.314 +0.314 +0.314 +0.314 +0.314 +0.314 +0.314 +0.314 +0.314 +0.314 +0.314 +0.314 +0.314 +0.314 +0.314 +0.314 +0.314 +0.314 +0.314 +0.314 +0.314 +0.314 +0.314 +0.314 +0.314 +0.314 +0.314 +0.314
# magnetic-moments Si -0.000 -0.000 -0.000 -0.000 -0.000 -0.000 -0.000 -0.000 -0.000 -0.000 -0.000 -0.000 -0.000 -0.000 -0.000 -0.000 -0.000 -0.000 -0.000 -0.000 -0.000 -0.000 -0.000 -0.000 -0.000 -0.000 -0.000 -0.000 -0.000 -0.000 -0.000 -0.000
# oxidation-state Se +0.233 +0.233 +0.233 +0.233 +0.233 +0.233 +0.233 +0.233 +0.233 +0.233 +0.233 +0.233 +0.233 +0.233 +0.233 +0.233 +0.233 +0.233 +0.233 +0.233 +0.233 +0.233 +0.233 +0.233 +0.233 +0.233 +0.233 +0.233 +0.233 +0.233 +0.233 +0.233
# magnetic-moments Se -0.000 -0.000 -0.000 -0.000 -0.000 -0.000 -0.000 -0.000 -0.000 -0.000 -0.000 -0.000 -0.000 -0.000 -0.000 -0.000 -0.000 -0.000 -0.000 -0.000 -0.000 -0.000 -0.000 -0.000 -0.000 -0.000 -0.000 -0.000 -0.000 -0.000 -0.000 -0.000


Dumping 'NbTe2.fillings' ... done
Dumping 'NbTe2.wfns' ... done
Dumping 'NbTe2.fluidState' ... done
Dumping 'NbTe2.ionpos' ... done
Dumping 'NbTe2.eigenvals' ... done
End date and time: Sun Feb  7 11:43:31 2021  (Duration: 0-6:02:45.53)
Done!
