
*************** JDFTx 1.5.0  ***************

Start date and time: Tue Apr  6 18:45:13 2021
Executable jdftx_gpu with command-line: -i Charged.in -o Charged.out
Running on hosts (process indices):  amax (0-6)
Divided in process groups (process indices):  0 (0)  1 (1)  2 (2)  3 (3)  4 (4)  5 (5)  6 (6)
gpuInit: Found compatible cuda device 0 'Tesla K80'
gpuInit: Found compatible cuda device 1 'Tesla K80'
gpuInit: Found compatible cuda device 2 'Tesla K80'
gpuInit: Found compatible cuda device 3 'Tesla K80'
gpuInit: Found compatible cuda device 4 'Tesla K80'
gpuInit: Found compatible cuda device 5 'Tesla K80'
gpuInit: Found compatible cuda device 6 'Tesla K80'
gpuInit: Selected device 0
Resource initialization completed at t[s]:      3.53
Run totals: 7 processes, 24 threads, 7 GPUs


Input parsed successfully to the following command list (including defaults):

basis kpoint-dependent
cache-projectors no
coords-type Lattice
core-overlap-check none
coulomb-interaction Slab 001
coulomb-truncation-embed 0.5 0.5 0.5
davidson-band-ratio 1.1
dump End State
dump-name NbTe2.$VAR
elec-cutoff 20
elec-eigen-algo Davidson
elec-ex-corr gga-PBE
elec-initial-charge 0.000000
elec-smearing Gauss 0.0073499
electronic-minimize  \
	dirUpdateScheme      FletcherReeves \
	linminMethod         DirUpdateRecommended \
	nIterations          200 \
	history              15 \
	knormThreshold       0 \
	energyDiffThreshold  1e-08 \
	nEnergyDiff          2 \
	alphaTstart          1 \
	alphaTmin            1e-10 \
	updateTestStepSize   yes \
	alphaTreduceFactor   0.1 \
	alphaTincreaseFactor 3 \
	nAlphaAdjustMax      3 \
	wolfeEnergy          0.0001 \
	wolfeGradient        0.9 \
	fdTest               no
exchange-regularization WignerSeitzTruncated
fluid LinearPCM 298.000000 1.013250
fluid-anion F- 1 MeanFieldLJ \
	epsBulk 1 \
	pMol 0 \
	epsInf 1 \
	Pvap 0 \
	sigmaBulk 0 \
	Rvdw 2.24877 \
	Res 0 \
	tauNuc 343133
fluid-cation Na+ 1 MeanFieldLJ \
	epsBulk 1 \
	pMol 0 \
	epsInf 1 \
	Pvap 0 \
	sigmaBulk 0 \
	Rvdw 2.19208 \
	Res 0 \
	tauNuc 343133
fluid-ex-corr lda-TF lda-PZ
fluid-gummel-loop 10 1.000000e-05
fluid-minimize  \
	dirUpdateScheme      PolakRibiere \
	linminMethod         DirUpdateRecommended \
	nIterations          400 \
	history              15 \
	knormThreshold       1e-11 \
	energyDiffThreshold  0 \
	nEnergyDiff          2 \
	alphaTstart          1 \
	alphaTmin            1e-10 \
	updateTestStepSize   yes \
	alphaTreduceFactor   0.1 \
	alphaTincreaseFactor 3 \
	nAlphaAdjustMax      6 \
	wolfeEnergy          0.0001 \
	wolfeGradient        0.9 \
	fdTest               no
fluid-solvent H2O 55.338 ScalarEOS \
	epsBulk 78.4 \
	pMol 0.92466 \
	epsInf 1.77 \
	Pvap 1.06736e-10 \
	sigmaBulk 4.62e-05 \
	Rvdw 2.61727 \
	Res 1.42 \
	tauNuc 343133 \
	poleEl 15 7 1
forces-output-coords Positions
initial-state NbTe2.$VAR
ion Mo   0.166669998000000   0.083329999000000   0.557990007000000 1
ion Mo   0.083330000000000   0.166669990000000   0.442000000000000 1
ion Mo   0.416669998000000   0.083329999000000   0.557990007000000 1
ion Mo   0.333329990000000   0.166669990000000   0.442000000000000 1
ion Mo   0.666669998000000   0.083329999000000   0.557990007000000 1
ion Mo   0.583329951000000   0.166669990000000   0.442000000000000 1
ion Mo   0.916670037000000   0.083329999000000   0.557990007000000 1
ion Mo   0.833329990000000   0.166669990000000   0.442000000000000 1
ion Mo   0.166670006000000   0.333329987000000   0.557990007000000 1
ion Mo   0.083330006000000   0.416669995000000   0.442000000000000 1
ion Mo   0.416670006000000   0.333329987000000   0.557990007000000 1
ion Mo   0.333330006000000   0.416669995000000   0.442000000000000 1
ion Mo   0.666669986000000   0.333329987000000   0.557990007000000 1
ion Mo   0.583329948000000   0.416669995000000   0.442000000000000 1
ion Mo   0.916670025000000   0.333329987000000   0.557990007000000 1
ion Mo   0.833329987000000   0.416669995000000   0.442000000000000 1
ion Mo   0.166670016000000   0.583329982000000   0.557990007000000 1
ion Mo   0.083329978000000   0.666669990000000   0.442000000000000 1
ion Mo   0.416670016000000   0.583329982000000   0.557990007000000 1
ion Mo   0.333329978000000   0.666669990000000   0.442000000000000 1
ion Mo   0.666670016000000   0.583329982000000   0.557990007000000 1
ion Mo   0.583329939000000   0.666669990000000   0.442000000000000 1
ion Mo   0.916670055000000   0.583329982000000   0.557990007000000 1
ion Mo   0.833329978000000   0.666669990000000   0.442000000000000 1
ion Mo   0.166670007000000   0.833329976000000   0.557990007000000 1
ion Mo   0.083330030000000   0.916670029000000   0.442000000000000 1
ion Mo   0.416670007000000   0.833329976000000   0.557990007000000 1
ion Mo   0.333330030000000   0.916670029000000   0.442000000000000 1
ion Mo   0.666670007000000   0.833329976000000   0.557990007000000 1
ion Mo   0.583329991000000   0.916670029000000   0.442000000000000 1
ion Mo   0.916670046000000   0.833329976000000   0.557990007000000 1
ion Mo   0.833330030000000   0.916670029000000   0.442000000000000 1
ion C  -0.000000000000000  -0.000000000000000   0.499990007000000 1
ion C   0.250000000000000  -0.000000000000000   0.499990007000000 1
ion C   0.500000000000000  -0.000000000000000   0.499990007000000 1
ion C   0.750000039000000  -0.000000000000000   0.499990007000000 1
ion C   0.000000001000000   0.249999994000000   0.499990007000000 1
ion C   0.250000001000000   0.249999994000000   0.499990007000000 1
ion C   0.499999991000000   0.249999994000000   0.499990007000000 1
ion C   0.750000030000000   0.249999994000000   0.499990007000000 1
ion C   0.000000002000000   0.499999988000000   0.499990007000000 1
ion C   0.250000002000000   0.499999988000000   0.499990007000000 1
ion C   0.500000002000000   0.499999988000000   0.499990007000000 1
ion C   0.750000021000000   0.499999988000000   0.499990007000000 1
ion C   0.000000012000000   0.749999983000000   0.499990007000000 1
ion C   0.250000012000000   0.749999983000000   0.499990007000000 1
ion C   0.500000012000000   0.749999983000000   0.499990007000000 1
ion C   0.750000051000000   0.749999983000000   0.499990007000000 1
ion O   0.083330000000000   0.166669990000000   0.616140007000000 1
ion O   0.166669998000000   0.083329999000000   0.383840006000000 1
ion O   0.333329990000000   0.166669990000000   0.616140007000000 1
ion O   0.416669998000000   0.083329999000000   0.383840006000000 1
ion O   0.583329951000000   0.166669990000000   0.616140007000000 1
ion O   0.666669998000000   0.083329999000000   0.383840006000000 1
ion O   0.833329990000000   0.166669990000000   0.616140007000000 1
ion O   0.916670037000000   0.083329999000000   0.383840006000000 1
ion O   0.083330006000000   0.416669995000000   0.616140007000000 1
ion O   0.166670006000000   0.333329987000000   0.383840006000000 1
ion O   0.333330006000000   0.416669995000000   0.616140007000000 1
ion O   0.416670006000000   0.333329987000000   0.383840006000000 1
ion O   0.583329948000000   0.416669995000000   0.616140007000000 1
ion O   0.666669986000000   0.333329987000000   0.383840006000000 1
ion O   0.833329987000000   0.416669995000000   0.616140007000000 1
ion O   0.916670025000000   0.333329987000000   0.383840006000000 1
ion O   0.083329978000000   0.666669990000000   0.616140007000000 1
ion O   0.166670016000000   0.583329982000000   0.383840006000000 1
ion O   0.333329978000000   0.666669990000000   0.616140007000000 1
ion O   0.416670016000000   0.583329982000000   0.383840006000000 1
ion O   0.583329939000000   0.666669990000000   0.616140007000000 1
ion O   0.666670016000000   0.583329982000000   0.383840006000000 1
ion O   0.833329978000000   0.666669990000000   0.616140007000000 1
ion O   0.916670055000000   0.583329982000000   0.383840006000000 1
ion O   0.083330030000000   0.916670029000000   0.616140007000000 1
ion O   0.166670007000000   0.833329976000000   0.383840006000000 1
ion O   0.333330030000000   0.916670029000000   0.616140007000000 1
ion O   0.416670007000000   0.833329976000000   0.383840006000000 1
ion O   0.583329991000000   0.916670029000000   0.616140007000000 1
ion O   0.666670007000000   0.833329976000000   0.383840006000000 1
ion O   0.833330030000000   0.916670029000000   0.616140007000000 1
ion O   0.916670046000000   0.833329976000000   0.383840006000000 1
ion-species GBRV/$ID_pbe.uspp
ion-width Ecut
ionic-minimize  \
	dirUpdateScheme      L-BFGS \
	linminMethod         DirUpdateRecommended \
	nIterations          500 \
	history              15 \
	knormThreshold       0.0001 \
	energyDiffThreshold  1e-06 \
	nEnergyDiff          2 \
	alphaTstart          1 \
	alphaTmin            1e-10 \
	updateTestStepSize   yes \
	alphaTreduceFactor   0.1 \
	alphaTincreaseFactor 3 \
	nAlphaAdjustMax      3 \
	wolfeEnergy          0.0001 \
	wolfeGradient        0.9 \
	fdTest               no
kpoint   0.000000000000   0.000000000000   0.000000000000  1.00000000000000
kpoint-folding 3 3 1 
latt-move-scale 1 1 1
latt-scale 1.88973 1.88973 1.88973 
lattice Triclinic 12.2054 12.2053 19.4677 90 90 120
lattice-minimize  \
	dirUpdateScheme      L-BFGS \
	linminMethod         DirUpdateRecommended \
	nIterations          0 \
	history              15 \
	knormThreshold       0 \
	energyDiffThreshold  1e-06 \
	nEnergyDiff          2 \
	alphaTstart          1 \
	alphaTmin            1e-10 \
	updateTestStepSize   yes \
	alphaTreduceFactor   0.1 \
	alphaTincreaseFactor 3 \
	nAlphaAdjustMax      3 \
	wolfeEnergy          0.0001 \
	wolfeGradient        0.9 \
	fdTest               no
lcao-params -1 1e-06 0.0073499
pcm-variant CANDLE
spintype no-spin
subspace-rotation-factor 1 yes
symmetries automatic
symmetry-threshold 0.0001



---------- Setting up symmetries ----------

Found 24 point-group symmetries of the bravais lattice
Found 64 space-group symmetries with basis
Applied RMS atom displacement 9.00579e-05 bohrs to make symmetries exact.

---------- Initializing the Grid ----------
R = 
[    23.0649   -11.5324          0  ]
[          0    19.9746          0  ]
[          0          0    36.7886  ]
unit cell volume = 16948.9
G =
[   0.272414   0.157279         -0  ]
[          0   0.314559          0  ]
[          0         -0   0.170792  ]
Minimum fftbox size, Smin = [  96  96  152  ]
Chosen fftbox size, S = [  96  96  160  ]

---------- Exchange Correlation functional ----------
Initalized PBE GGA exchange.
Initalized PBE GGA correlation.

---------- Setting up pseudopotentials ----------
Width of ionic core gaussian charges (only for fluid interactions / plotting) set to 0.397384

Reading pseudopotential file '/home/guoxy/vasp/jdftx-1.5.0/build/pseudopotentials/GBRV/mo_pbe.uspp':
  Title: Mo.  Created by USPP 7.3.6 on 14-9-2013
  Reference state energy: -69.261020.  14 valence electrons in orbitals:
    |400>  occupation: 2  eigenvalue: -2.465796
    |410>  occupation: 6  eigenvalue: -1.510132
    |420>  occupation: 4  eigenvalue: -0.207728
    |500>  occupation: 2  eigenvalue: -0.179278
    |510>  occupation: 0  eigenvalue: -0.052696
  lMax: 2  lLocal: 3  QijEcut: 5
  6 projectors sampled on a log grid with 629 points:
    l: 0  eig: -2.465797  rCut: 1.8
    l: 0  eig: -0.179280  rCut: 1.8
    l: 1  eig: -1.510132  rCut: 2
    l: 1  eig: 0.150000  rCut: 2
    l: 2  eig: -0.052696  rCut: 2.2
    l: 2  eig: 0.150000  rCut: 2.2
  Partial core density with radius 1.2
  Transforming core density to a uniform radial grid of dG=0.02 with 1481 points.
  Transforming local potential to a uniform radial grid of dG=0.02 with 1481 points.
  Transforming nonlocal projectors to a uniform radial grid of dG=0.02 with 432 points.
  Transforming density augmentations to a uniform radial grid of dG=0.02 with 1481 points.
  Transforming atomic orbitals to a uniform radial grid of dG=0.02 with 432 points.
  Core radius for overlap checks: 2.20 bohrs.

Reading pseudopotential file '/home/guoxy/vasp/jdftx-1.5.0/build/pseudopotentials/GBRV/c_pbe.uspp':
  Title: C.  Created by USPP 7.3.6 on 3-2-2014
  Reference state energy: -5.406344.  4 valence electrons in orbitals:
    |200>  occupation: 2  eigenvalue: -0.504890
    |210>  occupation: 2  eigenvalue: -0.194356
  lMax: 1  lLocal: 2  QijEcut: 5
  4 projectors sampled on a log grid with 503 points:
    l: 0  eig: -0.504890  rCut: 1.3
    l: 0  eig: 0.000000  rCut: 1.3
    l: 1  eig: -0.194357  rCut: 1.3
    l: 1  eig: 0.000000  rCut: 1.3
  Partial core density with radius 1.1
  Transforming core density to a uniform radial grid of dG=0.02 with 1481 points.
  Transforming local potential to a uniform radial grid of dG=0.02 with 1481 points.
  Transforming nonlocal projectors to a uniform radial grid of dG=0.02 with 432 points.
  Transforming density augmentations to a uniform radial grid of dG=0.02 with 1481 points.
  Transforming atomic orbitals to a uniform radial grid of dG=0.02 with 432 points.
  Core radius for overlap checks: 1.30 bohrs.

Reading pseudopotential file '/home/guoxy/vasp/jdftx-1.5.0/build/pseudopotentials/GBRV/o_pbe.uspp':
  Title: O.  Created by USPP 7.3.6 on 3-2-2014
  Reference state energy: -15.894388.  6 valence electrons in orbitals:
    |200>  occupation: 2  eigenvalue: -0.878823
    |210>  occupation: 4  eigenvalue: -0.332131
  lMax: 2  lLocal: 2  QijEcut: 6
  5 projectors sampled on a log grid with 511 points:
    l: 0  eig: -0.878823  rCut: 1.25
    l: 0  eig: 0.000000  rCut: 1.25
    l: 1  eig: -0.332132  rCut: 1.25
    l: 1  eig: 0.000000  rCut: 1.25
    l: 2  eig: 1.000000  rCut: 1.25
  Partial core density with radius 0.7
  Transforming core density to a uniform radial grid of dG=0.02 with 1481 points.
  Transforming local potential to a uniform radial grid of dG=0.02 with 1481 points.
  Transforming nonlocal projectors to a uniform radial grid of dG=0.02 with 432 points.
  Transforming density augmentations to a uniform radial grid of dG=0.02 with 1481 points.
  Transforming atomic orbitals to a uniform radial grid of dG=0.02 with 432 points.
  Core radius for overlap checks: 1.25 bohrs.

Initialized 3 species with 80 total atoms.

Folded 1 k-points by 3x3x1 to 9 k-points.
Coulomb truncation embedding center is not invariant under symmetry matrix:
[  -1   0   0  ]
[   0  -1   0  ]
[   0   0  -1  ]
[  0.5  0.25  -1.59892e-05  ]
Coulomb truncation embedding center is not invariant under symmetries.
End date and time: Tue Apr  6 18:45:18 2021  (Duration: 0-0:00:04.80)
Failed.

*************** JDFTx 1.5.0  ***************

Start date and time: Tue Apr 13 13:19:48 2021
Executable jdftx_gpu with command-line: -i Charged.in -o Charged.out
Running on hosts (process indices):  amax (0-6)
Divided in process groups (process indices):  0 (0)  1 (1)  2 (2)  3 (3)  4 (4)  5 (5)  6 (6)
gpuInit: Found compatible cuda device 0 'Tesla K80'
gpuInit: Found compatible cuda device 1 'Tesla K80'
gpuInit: Found compatible cuda device 2 'Tesla K80'
gpuInit: Found compatible cuda device 3 'Tesla K80'
gpuInit: Found compatible cuda device 4 'Tesla K80'
gpuInit: Found compatible cuda device 5 'Tesla K80'
gpuInit: Found compatible cuda device 6 'Tesla K80'
gpuInit: Selected device 0
Resource initialization completed at t[s]:      3.92
Run totals: 7 processes, 24 threads, 7 GPUs


Input parsed successfully to the following command list (including defaults):

basis kpoint-dependent
cache-projectors no
coords-type Lattice
core-overlap-check none
coulomb-interaction Slab 001
coulomb-truncation-embed 0.5 0.5 0.5
davidson-band-ratio 1.1
dump End State
dump-name NbTe2.$VAR
elec-cutoff 20
elec-eigen-algo Davidson
elec-ex-corr gga-PBE
elec-initial-charge 0.000000
elec-smearing Gauss 0.0073499
electronic-minimize  \
	dirUpdateScheme      FletcherReeves \
	linminMethod         DirUpdateRecommended \
	nIterations          200 \
	history              15 \
	knormThreshold       0 \
	energyDiffThreshold  1e-08 \
	nEnergyDiff          2 \
	alphaTstart          1 \
	alphaTmin            1e-10 \
	updateTestStepSize   yes \
	alphaTreduceFactor   0.1 \
	alphaTincreaseFactor 3 \
	nAlphaAdjustMax      3 \
	wolfeEnergy          0.0001 \
	wolfeGradient        0.9 \
	fdTest               no
exchange-regularization WignerSeitzTruncated
fluid LinearPCM 298.000000 1.013250
fluid-anion F- 1 MeanFieldLJ \
	epsBulk 1 \
	pMol 0 \
	epsInf 1 \
	Pvap 0 \
	sigmaBulk 0 \
	Rvdw 2.24877 \
	Res 0 \
	tauNuc 343133
fluid-cation Na+ 1 MeanFieldLJ \
	epsBulk 1 \
	pMol 0 \
	epsInf 1 \
	Pvap 0 \
	sigmaBulk 0 \
	Rvdw 2.19208 \
	Res 0 \
	tauNuc 343133
fluid-ex-corr lda-TF lda-PZ
fluid-gummel-loop 10 1.000000e-05
fluid-minimize  \
	dirUpdateScheme      PolakRibiere \
	linminMethod         DirUpdateRecommended \
	nIterations          400 \
	history              15 \
	knormThreshold       1e-11 \
	energyDiffThreshold  0 \
	nEnergyDiff          2 \
	alphaTstart          1 \
	alphaTmin            1e-10 \
	updateTestStepSize   yes \
	alphaTreduceFactor   0.1 \
	alphaTincreaseFactor 3 \
	nAlphaAdjustMax      6 \
	wolfeEnergy          0.0001 \
	wolfeGradient        0.9 \
	fdTest               no
fluid-solvent H2O 55.338 ScalarEOS \
	epsBulk 78.4 \
	pMol 0.92466 \
	epsInf 1.77 \
	Pvap 1.06736e-10 \
	sigmaBulk 4.62e-05 \
	Rvdw 2.61727 \
	Res 1.42 \
	tauNuc 343133 \
	poleEl 15 7 1
forces-output-coords Positions
initial-state NbTe2.$VAR
ion Mo   0.166669998000000   0.083329999000000   0.558000000500000 1
ion Mo   0.083330000000000   0.166669990000000   0.442009993500000 1
ion Mo   0.416669998000000   0.083329999000000   0.558000000500000 1
ion Mo   0.333329990000000   0.166669990000000   0.442009993500000 1
ion Mo   0.666669998000000   0.083329999000000   0.558000000500000 1
ion Mo   0.583329951000000   0.166669990000000   0.442009993500000 1
ion Mo   0.916670037000000   0.083329999000000   0.558000000500000 1
ion Mo   0.833329990000000   0.166669990000000   0.442009993500000 1
ion Mo   0.166670006000000   0.333329987000000   0.558000000500000 1
ion Mo   0.083330006000000   0.416669995000000   0.442009993500000 1
ion Mo   0.416670006000000   0.333329987000000   0.558000000500000 1
ion Mo   0.333330006000000   0.416669995000000   0.442009993500000 1
ion Mo   0.666669986000000   0.333329987000000   0.558000000500000 1
ion Mo   0.583329948000000   0.416669995000000   0.442009993500000 1
ion Mo   0.916670025000000   0.333329987000000   0.558000000500000 1
ion Mo   0.833329987000000   0.416669995000000   0.442009993500000 1
ion Mo   0.166670016000000   0.583329982000000   0.558000000500000 1
ion Mo   0.083329978000000   0.666669990000000   0.442009993500000 1
ion Mo   0.416670016000000   0.583329982000000   0.558000000500000 1
ion Mo   0.333329978000000   0.666669990000000   0.442009993500000 1
ion Mo   0.666670016000000   0.583329982000000   0.558000000500000 1
ion Mo   0.583329939000000   0.666669990000000   0.442009993500000 1
ion Mo   0.916670055000000   0.583329982000000   0.558000000500000 1
ion Mo   0.833329978000000   0.666669990000000   0.442009993500000 1
ion Mo   0.166670007000000   0.833329976000000   0.558000000500000 1
ion Mo   0.083330030000000   0.916670029000000   0.442009993500000 1
ion Mo   0.416670007000000   0.833329976000000   0.558000000500000 1
ion Mo   0.333330030000000   0.916670029000000   0.442009993500000 1
ion Mo   0.666670007000000   0.833329976000000   0.558000000500000 1
ion Mo   0.583329991000000   0.916670029000000   0.442009993500000 1
ion Mo   0.916670046000000   0.833329976000000   0.558000000500000 1
ion Mo   0.833330030000000   0.916670029000000   0.442009993500000 1
ion C   0.000000000000000   0.000000000000000   0.500000000500000 1
ion C   0.250000000000000   0.000000000000000   0.500000000500000 1
ion C   0.500000000000000   0.000000000000000   0.500000000500000 1
ion C   0.750000039000000   0.000000000000000   0.500000000500000 1
ion C   0.000000001000000   0.249999994000000   0.500000000500000 1
ion C   0.250000001000000   0.249999994000000   0.500000000500000 1
ion C   0.499999991000000   0.249999994000000   0.500000000500000 1
ion C   0.750000030000000   0.249999994000000   0.500000000500000 1
ion C   0.000000002000000   0.499999988000000   0.500000000500000 1
ion C   0.250000002000000   0.499999988000000   0.500000000500000 1
ion C   0.500000002000000   0.499999988000000   0.500000000500000 1
ion C   0.750000021000000   0.499999988000000   0.500000000500000 1
ion C   0.000000012000000   0.749999983000000   0.500000000500000 1
ion C   0.250000012000000   0.749999983000000   0.500000000500000 1
ion C   0.500000012000000   0.749999983000000   0.500000000500000 1
ion C   0.750000051000000   0.749999983000000   0.500000000500000 1
ion O   0.083330000000000   0.166669990000000   0.616150000500000 1
ion O   0.166669998000000   0.083329999000000   0.383849999500000 1
ion O   0.333329990000000   0.166669990000000   0.616150000500000 1
ion O   0.416669998000000   0.083329999000000   0.383849999500000 1
ion O   0.583329951000000   0.166669990000000   0.616150000500000 1
ion O   0.666669998000000   0.083329999000000   0.383849999500000 1
ion O   0.833329990000000   0.166669990000000   0.616150000500000 1
ion O   0.916670037000000   0.083329999000000   0.383849999500000 1
ion O   0.083330006000000   0.416669995000000   0.616150000500000 1
ion O   0.166670006000000   0.333329987000000   0.383849999500000 1
ion O   0.333330006000000   0.416669995000000   0.616150000500000 1
ion O   0.416670006000000   0.333329987000000   0.383849999500000 1
ion O   0.583329948000000   0.416669995000000   0.616150000500000 1
ion O   0.666669986000000   0.333329987000000   0.383849999500000 1
ion O   0.833329987000000   0.416669995000000   0.616150000500000 1
ion O   0.916670025000000   0.333329987000000   0.383849999500000 1
ion O   0.083329978000000   0.666669990000000   0.616150000500000 1
ion O   0.166670016000000   0.583329982000000   0.383849999500000 1
ion O   0.333329978000000   0.666669990000000   0.616150000500000 1
ion O   0.416670016000000   0.583329982000000   0.383849999500000 1
ion O   0.583329939000000   0.666669990000000   0.616150000500000 1
ion O   0.666670016000000   0.583329982000000   0.383849999500000 1
ion O   0.833329978000000   0.666669990000000   0.616150000500000 1
ion O   0.916670055000000   0.583329982000000   0.383849999500000 1
ion O   0.083330030000000   0.916670029000000   0.616150000500000 1
ion O   0.166670007000000   0.833329976000000   0.383849999500000 1
ion O   0.333330030000000   0.916670029000000   0.616150000500000 1
ion O   0.416670007000000   0.833329976000000   0.383849999500000 1
ion O   0.583329991000000   0.916670029000000   0.616150000500000 1
ion O   0.666670007000000   0.833329976000000   0.383849999500000 1
ion O   0.833330030000000   0.916670029000000   0.616150000500000 1
ion O   0.916670046000000   0.833329976000000   0.383849999500000 1
ion-species GBRV/$ID_pbe.uspp
ion-width Ecut
ionic-minimize  \
	dirUpdateScheme      L-BFGS \
	linminMethod         DirUpdateRecommended \
	nIterations          500 \
	history              15 \
	knormThreshold       0.0001 \
	energyDiffThreshold  1e-06 \
	nEnergyDiff          2 \
	alphaTstart          1 \
	alphaTmin            1e-10 \
	updateTestStepSize   yes \
	alphaTreduceFactor   0.1 \
	alphaTincreaseFactor 3 \
	nAlphaAdjustMax      3 \
	wolfeEnergy          0.0001 \
	wolfeGradient        0.9 \
	fdTest               no
kpoint   0.000000000000   0.000000000000   0.000000000000  1.00000000000000
kpoint-folding 3 3 1 
latt-move-scale 1 1 1
latt-scale 1.88973 1.88973 1.88973 
lattice Triclinic 12.2054 12.2053 19.4677 90 90 120
lattice-minimize  \
	dirUpdateScheme      L-BFGS \
	linminMethod         DirUpdateRecommended \
	nIterations          0 \
	history              15 \
	knormThreshold       0 \
	energyDiffThreshold  1e-06 \
	nEnergyDiff          2 \
	alphaTstart          1 \
	alphaTmin            1e-10 \
	updateTestStepSize   yes \
	alphaTreduceFactor   0.1 \
	alphaTincreaseFactor 3 \
	nAlphaAdjustMax      3 \
	wolfeEnergy          0.0001 \
	wolfeGradient        0.9 \
	fdTest               no
lcao-params -1 1e-06 0.0073499
pcm-variant CANDLE
spintype no-spin
subspace-rotation-factor 1 yes
symmetries automatic
symmetry-threshold 0.0005



---------- Setting up symmetries ----------

Found 24 point-group symmetries of the bravais lattice
Found 192 space-group symmetries with basis
Applied RMS atom displacement 0.000149602 bohrs to make symmetries exact.

---------- Initializing the Grid ----------
R = 
[    23.0649   -11.5324          0  ]
[          0    19.9746          0  ]
[          0          0    36.7886  ]
unit cell volume = 16948.9
G =
[   0.272414   0.157279         -0  ]
[          0   0.314559          0  ]
[          0         -0   0.170792  ]
Minimum fftbox size, Smin = [  96  96  152  ]
Chosen fftbox size, S = [  96  96  160  ]

---------- Exchange Correlation functional ----------
Initalized PBE GGA exchange.
Initalized PBE GGA correlation.

---------- Setting up pseudopotentials ----------
Width of ionic core gaussian charges (only for fluid interactions / plotting) set to 0.397384

Reading pseudopotential file '/home/guoxy/vasp/jdftx-1.5.0/build/pseudopotentials/GBRV/mo_pbe.uspp':
  Title: Mo.  Created by USPP 7.3.6 on 14-9-2013
  Reference state energy: -69.261020.  14 valence electrons in orbitals:
    |400>  occupation: 2  eigenvalue: -2.465796
    |410>  occupation: 6  eigenvalue: -1.510132
    |420>  occupation: 4  eigenvalue: -0.207728
    |500>  occupation: 2  eigenvalue: -0.179278
    |510>  occupation: 0  eigenvalue: -0.052696
  lMax: 2  lLocal: 3  QijEcut: 5
  6 projectors sampled on a log grid with 629 points:
    l: 0  eig: -2.465797  rCut: 1.8
    l: 0  eig: -0.179280  rCut: 1.8
    l: 1  eig: -1.510132  rCut: 2
    l: 1  eig: 0.150000  rCut: 2
    l: 2  eig: -0.052696  rCut: 2.2
    l: 2  eig: 0.150000  rCut: 2.2
  Partial core density with radius 1.2
  Transforming core density to a uniform radial grid of dG=0.02 with 1481 points.
  Transforming local potential to a uniform radial grid of dG=0.02 with 1481 points.
  Transforming nonlocal projectors to a uniform radial grid of dG=0.02 with 432 points.
  Transforming density augmentations to a uniform radial grid of dG=0.02 with 1481 points.
  Transforming atomic orbitals to a uniform radial grid of dG=0.02 with 432 points.
  Core radius for overlap checks: 2.20 bohrs.

Reading pseudopotential file '/home/guoxy/vasp/jdftx-1.5.0/build/pseudopotentials/GBRV/c_pbe.uspp':
  Title: C.  Created by USPP 7.3.6 on 3-2-2014
  Reference state energy: -5.406344.  4 valence electrons in orbitals:
    |200>  occupation: 2  eigenvalue: -0.504890
    |210>  occupation: 2  eigenvalue: -0.194356
  lMax: 1  lLocal: 2  QijEcut: 5
  4 projectors sampled on a log grid with 503 points:
    l: 0  eig: -0.504890  rCut: 1.3
    l: 0  eig: 0.000000  rCut: 1.3
    l: 1  eig: -0.194357  rCut: 1.3
    l: 1  eig: 0.000000  rCut: 1.3
  Partial core density with radius 1.1
  Transforming core density to a uniform radial grid of dG=0.02 with 1481 points.
  Transforming local potential to a uniform radial grid of dG=0.02 with 1481 points.
  Transforming nonlocal projectors to a uniform radial grid of dG=0.02 with 432 points.
  Transforming density augmentations to a uniform radial grid of dG=0.02 with 1481 points.
  Transforming atomic orbitals to a uniform radial grid of dG=0.02 with 432 points.
  Core radius for overlap checks: 1.30 bohrs.

Reading pseudopotential file '/home/guoxy/vasp/jdftx-1.5.0/build/pseudopotentials/GBRV/o_pbe.uspp':
  Title: O.  Created by USPP 7.3.6 on 3-2-2014
  Reference state energy: -15.894388.  6 valence electrons in orbitals:
    |200>  occupation: 2  eigenvalue: -0.878823
    |210>  occupation: 4  eigenvalue: -0.332131
  lMax: 2  lLocal: 2  QijEcut: 6
  5 projectors sampled on a log grid with 511 points:
    l: 0  eig: -0.878823  rCut: 1.25
    l: 0  eig: 0.000000  rCut: 1.25
    l: 1  eig: -0.332132  rCut: 1.25
    l: 1  eig: 0.000000  rCut: 1.25
    l: 2  eig: 1.000000  rCut: 1.25
  Partial core density with radius 0.7
  Transforming core density to a uniform radial grid of dG=0.02 with 1481 points.
  Transforming local potential to a uniform radial grid of dG=0.02 with 1481 points.
  Transforming nonlocal projectors to a uniform radial grid of dG=0.02 with 432 points.
  Transforming density augmentations to a uniform radial grid of dG=0.02 with 1481 points.
  Transforming atomic orbitals to a uniform radial grid of dG=0.02 with 432 points.
  Core radius for overlap checks: 1.25 bohrs.

Initialized 3 species with 80 total atoms.

Folded 1 k-points by 3x3x1 to 9 k-points.

---------- Setting up k-points, bands, fillings ----------
Reduced to 3 k-points under symmetry. 
Computing the number of bands and number of electrons
Calculating initial fillings.
nElectrons: 704.000000   nBands: 608   nStates: 3

----- Setting up reduced wavefunction bases (one per k-point) -----
average nbasis = 72392.333 , ideal nbasis = 72407.045

---------- Setting up coulomb interaction ----------
Fluid mode embedding: using embedded box, but periodic Coulomb kernel.
(Fluid response is responsible for (approximate) separation between periodic images.)
Setting up double-sized grid for truncated Coulomb potentials:
R = 
[    23.0649   -11.5324          0  ]
[          0    19.9746          0  ]
[          0          0    73.5772  ]
unit cell volume = 33897.8
G =
[   0.272414   0.157279         -0  ]
[          0   0.314559          0  ]
[          0         -0  0.0853958  ]
Chosen fftbox size, S = [  96  96  320  ]
Integer grid location selected as the embedding center:
   Grid: [  48  48  80  ]
   Lattice: [  0.5  0.5  0.5  ]
   Cartesian: [  5.76625  9.98729  18.3943  ]
Constructing Wigner-Seitz cell: 8 faces (6 quadrilaterals, 2 hexagons)
Range-separation parameter for embedded mesh potentials due to point charges: 0.618372 bohrs.

Initializing van der Waals corrections
	NOTE: vdW corrections apply only for interactions with fluid.
	Mo:  C6:  427.91 Eh-a0^6  R0: 3.097 a0
	 C:  C6:   30.35 Eh-a0^6  R0: 2.744 a0
	 O:  C6:   12.14 Eh-a0^6  R0: 2.536 a0

---------- Setting up ewald sum ----------
Optimum gaussian width for ewald sums = 6.219933 bohr.
Real space sum over 405 unit cells with max indices [  4  4  2  ]
Reciprocal space sum over 8775 terms with max indices [  7  7  19  ]

---------- Allocating electronic variables ----------
Initializing wave functions:  linear combination of atomic orbitals
Mo pseudo-atom occupations:   s ( 2 0 )  p ( 6 0 )  d ( 6 )
C pseudo-atom occupations:   s ( 2 )  p ( 2 )
O pseudo-atom occupations:   s ( 2 )  p ( 4 )
	FillingsUpdate:  mu: -0.925445565  nElectrons: 704.000000
LCAOMinimize: Iter:   0  F: -2745.7780854320785693  |grad|_K:  1.807e-02  alpha:  1.000e+00
	FillingsUpdate:  mu: -0.197889310  nElectrons: 704.000000
LCAOMinimize: Iter:   1  F: -2789.4279710021205574  |grad|_K:  5.232e-03  alpha:  2.237e-01  linmin: -2.813e-01  cgtest:  6.158e-01  t[s]:     57.73
LCAOMinimize: Encountered beta<0, resetting CG.
	FillingsUpdate:  mu: -0.000947082  nElectrons: 704.000000
LCAOMinimize: Iter:   2  F: -2793.4616552801116995  |grad|_K:  3.597e-03  alpha:  3.403e-01  linmin:  2.053e-01  cgtest: -4.611e-01  t[s]:     77.22
LCAOMinimize: 	Bad step direction: g.d > 0.
LCAOMinimize: 	Undoing step.
LCAOMinimize: 	Step failed: resetting search direction.
	FillingsUpdate:  mu: -0.000947082  nElectrons: 704.000000
LCAOMinimize: Iter:   3  F: -2793.4616552801116995  |grad|_K:  3.597e-03  alpha:  0.000e+00
	FillingsUpdate:  mu: -0.163795166  nElectrons: 704.000000
LCAOMinimize: Iter:   4  F: -2794.2914136931813118  |grad|_K:  8.361e-04  alpha:  1.553e-01  linmin:  2.418e-01  cgtest: -7.574e-01  t[s]:    109.82
	FillingsUpdate:  mu: -0.159356563  nElectrons: 704.000000
LCAOMinimize: Iter:   5  F: -2794.3292335812780038  |grad|_K:  7.118e-04  alpha:  2.118e-01  linmin:  1.379e-03  cgtest:  8.091e-01  t[s]:    128.64
	FillingsUpdate:  mu: -0.129069214  nElectrons: 704.000000
LCAOMinimize: Iter:   6  F: -2794.3714109813799951  |grad|_K:  1.486e-04  alpha:  1.455e-01  linmin:  4.419e-03  cgtest: -2.038e-02  t[s]:    147.98
LCAOMinimize: 	Predicted alpha/alphaT>3.000000, increasing alphaT to 4.364793e-01.
	FillingsUpdate:  mu: -0.126680847  nElectrons: 704.000000
LCAOMinimize: Iter:   7  F: -2794.3784124554736081  |grad|_K:  8.322e-05  alpha:  5.723e-01  linmin:  3.439e-03  cgtest:  4.415e-02  t[s]:    173.05
	FillingsUpdate:  mu: -0.127780385  nElectrons: 704.000000
LCAOMinimize: Iter:   8  F: -2794.3796477797104671  |grad|_K:  3.142e-05  alpha:  3.225e-01  linmin: -3.899e-04  cgtest:  1.297e-02  t[s]:    192.35
	FillingsUpdate:  mu: -0.126526655  nElectrons: 704.000000
LCAOMinimize: Iter:   9  F: -2794.3797304813574556  |grad|_K:  6.008e-06  alpha:  1.502e-01  linmin: -2.022e-03  cgtest:  4.253e-03  t[s]:    211.98
LCAOMinimize: 	Predicted alpha/alphaT>3.000000, increasing alphaT to 4.504823e-01.
	FillingsUpdate:  mu: -0.126819076  nElectrons: 704.000000
LCAOMinimize: Iter:  10  F: -2794.3797447501101487  |grad|_K:  1.951e-06  alpha:  7.099e-01  linmin:  4.910e-04  cgtest: -6.341e-03  t[s]:    237.09
	FillingsUpdate:  mu: -0.126893246  nElectrons: 704.000000
LCAOMinimize: Iter:  11  F: -2794.3797452478052037  |grad|_K:  8.403e-07  alpha:  2.352e-01  linmin:  9.664e-05  cgtest:  1.487e-03  t[s]:    256.72
	FillingsUpdate:  mu: -0.126860509  nElectrons: 704.000000
LCAOMinimize: Iter:  12  F: -2794.3797453204820158  |grad|_K:  2.446e-07  alpha:  1.852e-01  linmin:  6.641e-04  cgtest: -1.786e-03  t[s]:    276.74
LCAOMinimize: Converged (|Delta F|<1.000000e-06 for 2 iters).
----- createFluidSolver() ----- (Fluid-side solver setup)
   Initializing fluid molecule 'H2O'
     Initializing site 'O'
       Electron density: proportional to exp(-r/0.36935)*erfc((r-0.51523)/0.36823) with norm 6.826
       Charge density: gaussian nuclear width 0.478731 with net site charge 0.826
       Polarizability: cuspless exponential with width 0.32 and norm 3.73
       Hard sphere radius: 2.57003 bohrs
       Positions in reference frame:
         [ +0.000000 +0.000000 +0.000000 ]
     Initializing site 'H'
       Electron density: proportional to exp(-r/0.34641)*erfc((r-0)/0.390882) with norm 0.587
       Charge density: gaussian nuclear width 0.377945 with net site charge -0.413
       Polarizability: cuspless exponential with width 0.39 and norm 3.3
       Positions in reference frame:
         [ +0.000000 -1.441945 +1.122523 ]
         [ +0.000000 +1.441945 +1.122523 ]
     Net charge: 0   dipole magnitude: 0.927204
     Initializing spherical shell mfKernel with radius 2.61727 Bohr
     deltaS corrections:
       site 'O': -7.54299
       site 'H': -6.83917
   Initializing fluid molecule 'Na+'
     Initializing site 'Na'
       Electron density: proportional to exp(-r/0.19682)*erfc((r-0.71491)/0.41314) with norm 8.1383
       Charge density: gaussian nuclear width 0.365347 with net site charge -1
       Hard sphere radius: 1.86327 bohrs
       Positions in reference frame:
         [ +0.000000 +0.000000 +0.000000 ]
     Net charge: -1   dipole magnitude: 0
     Initializing gaussian mfKernel with width: 1.55004 Bohr
     deltaS corrections:
       site 'Na': -22.3555
   Initializing fluid molecule 'F-'
     Initializing site 'F'
       Electron density: proportional to exp(-r/0.38886)*erfc((r-0)/0.438782) with norm 8
       Charge density: gaussian nuclear width 0.374796 with net site charge 1
       Hard sphere radius: 2.39995 bohrs
       Positions in reference frame:
         [ +0.000000 +0.000000 +0.000000 ]
     Net charge: 1   dipole magnitude: 0
     Initializing gaussian mfKernel with width: 1.59012 Bohr
     deltaS corrections:
       site 'F': -9.04335

Correction to mu due to finite nuclear width = -0.0206063
   Cavity determined by nc: 0.00142 and sigma: 0.707107
   Nonlocal vdW cavity from gaussian model electron density with norm = 8 and sigma = 0.993594 bohr
   Charge asymmetry in cavity with sensitivity pCavity = 36.5 e-bohr/Eh
   Electrostatic cavity expanded by eta = 1.46 bohrs
   Weighted density cavitation model constrained by Nbulk: 0.0049383 bohr^-3, Pvap: 3.14029 kPa, Rvdw: 2.61727 bohr and sigmaBulk: 4.62e-05 Eh/bohr^2 at T: 298 K.
   Weighted density dispersion model using vdW pair potentials with single solvent site with sqrtC6eff: 0.77 SI.


---- Citations for features of the code used in this run ----

   Software package:
      R. Sundararaman, K. Letchworth-Weaver, K.A. Schwarz, D. Gunceler, Y. Ozhabes and T.A. Arias, 'JDFTx: software for joint density-functional theory', SoftwareX 6, 278 (2017)

   gga-PBE exchange-correlation functional:
      J.P. Perdew, K. Burke and M. Ernzerhof, Phys. Rev. Lett. 77, 3865 (1996)

   Pseudopotentials:
      KF Garrity, JW Bennett, KM Rabe and D Vanderbilt, Comput. Mater. Sci. 81, 446 (2014)

   Truncated Coulomb potentials:
      R. Sundararaman and T.A. Arias, Phys. Rev. B 87, 165122 (2013)

   Van der Waals correction pair-potentials:
      S. Grimme, J. Comput. Chem. 27, 1787 (2006)

   Charge-asymmetric nonlocally-determined local-electric (CANDLE) solvation model:
      R. Sundararaman and W.A. Goddard III, J. Chem. Phys. 142, 064107 (2015)

   Total energy minimization with Auxiliary Hamiltonian:
      C. Freysoldt, S. Boeck, and J. Neugebauer, Phys. Rev. B 79, 241103(R) (2009)

This list may not be complete. Please suggest additional citations or
report any other bugs at https://github.com/shankar1729/jdftx/issues

Initialization completed successfully at t[s]:    282.11

Fluid solver invoked on fresh (partially random / LCAO) wavefunctions
Running a vacuum solve first:

-------- Initial electronic minimization -----------
	FillingsUpdate:  mu: -0.126860509  nElectrons: 704.000000
ElecMinimize: Iter:   0  F: -2794.379745320526126  |grad|_K:  1.498e-04  alpha:  1.000e+00
	FillingsUpdate:  mu: -0.043966315  nElectrons: 704.000000
	SubspaceRotationAdjust: set factor to 0.78
ElecMinimize: Iter:   1  F: -2796.198994023786327  |grad|_K:  1.111e-04  alpha:  6.104e-01  linmin:  3.195e-06  t[s]:    326.58
	FillingsUpdate:  mu: -0.122248507  nElectrons: 704.000000
	SubspaceRotationAdjust: set factor to 0.423
ElecMinimize: Iter:   2  F: -2796.557606864982972  |grad|_K:  6.340e-05  alpha:  2.646e-01  linmin:  2.260e-04  t[s]:    354.42
	FillingsUpdate:  mu: -0.089513658  nElectrons: 704.000000
	SubspaceRotationAdjust: set factor to 0.562
ElecMinimize: Iter:   3  F: -2796.733933402223556  |grad|_K:  3.080e-05  alpha:  3.654e-01  linmin:  2.496e-05  t[s]:    382.36
	FillingsUpdate:  mu: -0.087941140  nElectrons: 704.000000
	SubspaceRotationAdjust: set factor to 0.618
ElecMinimize: Iter:   4  F: -2796.787065430354232  |grad|_K:  1.683e-05  alpha:  4.276e-01  linmin:  2.316e-05  t[s]:    410.46
	FillingsUpdate:  mu: -0.096379785  nElectrons: 704.000000
	SubspaceRotationAdjust: set factor to 0.706
ElecMinimize: Iter:   5  F: -2796.804658942642618  |grad|_K:  1.089e-05  alpha:  4.704e-01  linmin: -5.741e-07  t[s]:    438.54
	FillingsUpdate:  mu: -0.091838189  nElectrons: 704.000000
	SubspaceRotationAdjust: set factor to 0.863
ElecMinimize: Iter:   6  F: -2796.810747806126983  |grad|_K:  6.381e-06  alpha:  3.862e-01  linmin:  3.615e-06  t[s]:    466.66
	FillingsUpdate:  mu: -0.090387842  nElectrons: 704.000000
	SubspaceRotationAdjust: set factor to 0.99
ElecMinimize: Iter:   7  F: -2796.813373067848715  |grad|_K:  3.839e-06  alpha:  4.889e-01  linmin:  1.676e-05  t[s]:    493.98
	FillingsUpdate:  mu: -0.092285024  nElectrons: 704.000000
	SubspaceRotationAdjust: set factor to 0.804
ElecMinimize: Iter:   8  F: -2796.814026917968931  |grad|_K:  2.356e-06  alpha:  3.387e-01  linmin:  1.083e-07  t[s]:    521.69
	FillingsUpdate:  mu: -0.091183875  nElectrons: 704.000000
	SubspaceRotationAdjust: set factor to 0.57
ElecMinimize: Iter:   9  F: -2796.814250097148943  |grad|_K:  1.295e-06  alpha:  3.030e-01  linmin:  8.946e-07  t[s]:    550.60
	FillingsUpdate:  mu: -0.091668952  nElectrons: 704.000000
	SubspaceRotationAdjust: set factor to 0.69
ElecMinimize: Iter:  10  F: -2796.814333337319113  |grad|_K:  7.872e-07  alpha:  3.747e-01  linmin:  2.455e-07  t[s]:    578.31
	FillingsUpdate:  mu: -0.091861236  nElectrons: 704.000000
	SubspaceRotationAdjust: set factor to 0.796
ElecMinimize: Iter:  11  F: -2796.814368666841801  |grad|_K:  5.277e-07  alpha:  4.300e-01  linmin:  2.911e-07  t[s]:    606.30
	FillingsUpdate:  mu: -0.091565876  nElectrons: 704.000000
	SubspaceRotationAdjust: set factor to 0.838
ElecMinimize: Iter:  12  F: -2796.814383461526177  |grad|_K:  3.781e-07  alpha:  4.007e-01  linmin:  2.291e-07  t[s]:    634.62
	FillingsUpdate:  mu: -0.091679841  nElectrons: 704.000000
	SubspaceRotationAdjust: set factor to 0.855
ElecMinimize: Iter:  13  F: -2796.814391883853204  |grad|_K:  2.484e-07  alpha:  4.447e-01  linmin:  4.095e-07  t[s]:    662.42
	FillingsUpdate:  mu: -0.091684460  nElectrons: 704.000000
	SubspaceRotationAdjust: set factor to 0.91
ElecMinimize: Iter:  14  F: -2796.814395206633890  |grad|_K:  1.626e-07  alpha:  4.067e-01  linmin:  6.730e-08  t[s]:    690.70
	FillingsUpdate:  mu: -0.091636602  nElectrons: 704.000000
	SubspaceRotationAdjust: set factor to 0.907
ElecMinimize: Iter:  15  F: -2796.814396688912893  |grad|_K:  1.205e-07  alpha:  4.227e-01  linmin:  1.750e-08  t[s]:    718.94
	FillingsUpdate:  mu: -0.091690203  nElectrons: 704.000000
	SubspaceRotationAdjust: set factor to 0.872
ElecMinimize: Iter:  16  F: -2796.814397437537991  |grad|_K:  8.841e-08  alpha:  3.886e-01  linmin:  2.145e-08  t[s]:    746.28
	FillingsUpdate:  mu: -0.091649550  nElectrons: 704.000000
	SubspaceRotationAdjust: set factor to 0.932
ElecMinimize: Iter:  17  F: -2796.814397878074487  |grad|_K:  6.058e-08  alpha:  4.250e-01  linmin:  5.834e-08  t[s]:    774.37
	FillingsUpdate:  mu: -0.091658941  nElectrons: 704.000000
	SubspaceRotationAdjust: set factor to 1.03
ElecMinimize: Iter:  18  F: -2796.814398072096537  |grad|_K:  4.294e-08  alpha:  3.990e-01  linmin:  2.638e-08  t[s]:    802.51
	FillingsUpdate:  mu: -0.091664866  nElectrons: 704.000000
	SubspaceRotationAdjust: set factor to 1.1
ElecMinimize: Iter:  19  F: -2796.814398166278352  |grad|_K:  2.526e-08  alpha:  3.854e-01  linmin:  1.820e-08  t[s]:    830.72
	FillingsUpdate:  mu: -0.091653408  nElectrons: 704.000000
	SubspaceRotationAdjust: set factor to 0.989
ElecMinimize: Iter:  20  F: -2796.814398198827348  |grad|_K:  1.932e-08  alpha:  3.847e-01  linmin: -1.355e-08  t[s]:    858.52
	FillingsUpdate:  mu: -0.091664756  nElectrons: 704.000000
	SubspaceRotationAdjust: set factor to 0.801
ElecMinimize: Iter:  21  F: -2796.814398213170080  |grad|_K:  1.269e-08  alpha:  2.886e-01  linmin: -2.781e-08  t[s]:    886.91
	FillingsUpdate:  mu: -0.091661250  nElectrons: 704.000000
	SubspaceRotationAdjust: set factor to 0.926
ElecMinimize: Iter:  22  F: -2796.814398222251839  |grad|_K:  7.895e-09  alpha:  4.251e-01  linmin:  4.816e-08  t[s]:    914.80
	FillingsUpdate:  mu: -0.091659735  nElectrons: 704.000000
	SubspaceRotationAdjust: set factor to 1.03
ElecMinimize: Iter:  23  F: -2796.814398225199511  |grad|_K:  5.276e-09  alpha:  3.537e-01  linmin: -5.701e-08  t[s]:    943.00
ElecMinimize: Converged (|Delta F|<1.000000e-08 for 2 iters).
Setting wave functions to eigenvectors of Hamiltonian
Vacuum energy after initial minimize, F = -2796.814398225199511

	Linear fluid (dielectric constant: 78.4, screening length: 5.74355 Bohr) occupying 0.755633 of unit cell:	Completed after 19 iterations at t[s]:    952.96

-------- Electronic minimization -----------
	Linear fluid (dielectric constant: 78.4, screening length: 5.74355 Bohr) occupying 0.755633 of unit cell:	Completed after 0 iterations at t[s]:    963.47
	FillingsUpdate:  mu: -0.226797473  nElectrons: 704.000000
ElecMinimize: Iter:   0  F: -2796.814114488691757  |grad|_K:  1.062e-06  alpha:  1.000e+00
	Linear fluid (dielectric constant: 78.4, screening length: 5.74355 Bohr) occupying 0.755947 of unit cell:	Completed after 10 iterations at t[s]:    988.24
	Linear fluid (dielectric constant: 78.4, screening length: 5.74355 Bohr) occupying 0.755851 of unit cell:	Completed after 3 iterations at t[s]:   1001.97
	FillingsUpdate:  mu: -0.226665606  nElectrons: 704.000000
	SubspaceRotationAdjust: set factor to 0.702
ElecMinimize: Iter:   1  F: -2796.814216270509405  |grad|_K:  8.561e-07  alpha:  6.853e-01  linmin:  5.778e-08  t[s]:   1015.74
	Linear fluid (dielectric constant: 78.4, screening length: 5.74355 Bohr) occupying 0.756043 of unit cell:	Completed after 11 iterations at t[s]:   1026.72
	Linear fluid (dielectric constant: 78.4, screening length: 5.74355 Bohr) occupying 0.755906 of unit cell:	Completed after 11 iterations at t[s]:   1042.11
	FillingsUpdate:  mu: -0.225966425  nElectrons: 704.000000
	SubspaceRotationAdjust: set factor to 0.376
ElecMinimize: Iter:   2  F: -2796.814235148127409  |grad|_K:  2.810e-07  alpha:  1.931e-01  linmin: -8.671e-08  t[s]:   1057.18
	Linear fluid (dielectric constant: 78.4, screening length: 5.74355 Bohr) occupying 0.755915 of unit cell:	Completed after 3 iterations at t[s]:   1066.45
	Linear fluid (dielectric constant: 78.4, screening length: 5.74355 Bohr) occupying 0.755930 of unit cell:	Completed after 2 iterations at t[s]:   1079.12
	FillingsUpdate:  mu: -0.226072643  nElectrons: 704.000000
	SubspaceRotationAdjust: set factor to 0.435
ElecMinimize: Iter:   3  F: -2796.814240634695580  |grad|_K:  1.372e-07  alpha:  5.243e-01  linmin:  1.732e-07  t[s]:   1092.79
	Linear fluid (dielectric constant: 78.4, screening length: 5.74355 Bohr) occupying 0.755938 of unit cell:	Completed after 2 iterations at t[s]:   1102.78
	Linear fluid (dielectric constant: 78.4, screening length: 5.74355 Bohr) occupying 0.755937 of unit cell:	Completed after 0 iterations at t[s]:   1114.33
	FillingsUpdate:  mu: -0.226126988  nElectrons: 704.000000
	SubspaceRotationAdjust: set factor to 0.435
ElecMinimize: Iter:   4  F: -2796.814241837958889  |grad|_K:  9.023e-08  alpha:  4.847e-01  linmin: -3.356e-07  t[s]:   1127.57
	Linear fluid (dielectric constant: 78.4, screening length: 5.74355 Bohr) occupying 0.755942 of unit cell:	Completed after 2 iterations at t[s]:   1137.40
	Linear fluid (dielectric constant: 78.4, screening length: 5.74355 Bohr) occupying 0.755942 of unit cell:	Completed after 0 iterations at t[s]:   1148.60
	FillingsUpdate:  mu: -0.226114749  nElectrons: 704.000000
	SubspaceRotationAdjust: set factor to 0.556
ElecMinimize: Iter:   5  F: -2796.814242463883147  |grad|_K:  5.572e-08  alpha:  5.686e-01  linmin: -5.991e-06  t[s]:   1162.24
	Linear fluid (dielectric constant: 78.4, screening length: 5.74355 Bohr) occupying 0.755943 of unit cell:	Completed after 2 iterations at t[s]:   1171.64
	Linear fluid (dielectric constant: 78.4, screening length: 5.74355 Bohr) occupying 0.755943 of unit cell:	Completed after 0 iterations at t[s]:   1182.73
	FillingsUpdate:  mu: -0.226089466  nElectrons: 704.000000
	SubspaceRotationAdjust: set factor to 0.555
ElecMinimize: Iter:   6  F: -2796.814242600052694  |grad|_K:  4.928e-08  alpha:  3.554e-01  linmin: -5.790e-07  t[s]:   1195.58
	Linear fluid (dielectric constant: 78.4, screening length: 5.74355 Bohr) occupying 0.755943 of unit cell:	Completed after 1 iterations at t[s]:   1205.08
	Linear fluid (dielectric constant: 78.4, screening length: 5.74355 Bohr) occupying 0.755943 of unit cell:	Completed after 0 iterations at t[s]:   1216.39
	FillingsUpdate:  mu: -0.226094084  nElectrons: 704.000000
	SubspaceRotationAdjust: set factor to 0.83
ElecMinimize: Iter:   7  F: -2796.814242715251567  |grad|_K:  3.998e-08  alpha:  3.552e-01  linmin: -5.164e-06  t[s]:   1229.79
	Linear fluid (dielectric constant: 78.4, screening length: 5.74355 Bohr) occupying 0.755942 of unit cell:	Completed after 2 iterations at t[s]:   1239.25
	Linear fluid (dielectric constant: 78.4, screening length: 5.74355 Bohr) occupying 0.755942 of unit cell:	Completed after 0 iterations at t[s]:   1250.87
	FillingsUpdate:  mu: -0.226133756  nElectrons: 704.000000
	SubspaceRotationAdjust: set factor to 0.609
ElecMinimize: Iter:   8  F: -2796.814242745590946  |grad|_K:  5.457e-08  alpha:  1.445e-01  linmin:  1.099e-05  t[s]:   1264.37
	Linear fluid (dielectric constant: 78.4, screening length: 5.74355 Bohr) occupying 0.755942 of unit cell:	Completed after 0 iterations at t[s]:   1273.16
	Linear fluid (dielectric constant: 78.4, screening length: 5.74355 Bohr) occupying 0.755942 of unit cell:	Completed after 0 iterations at t[s]:   1284.07
	FillingsUpdate:  mu: -0.226133782  nElectrons: 704.000000
	SubspaceRotationAdjust: set factor to 0.484
ElecMinimize: Iter:   9  F: -2796.814242761282003  |grad|_K:  4.760e-08  alpha:  8.452e-02  linmin: -2.256e-08  t[s]:   1297.61
	Linear fluid (dielectric constant: 78.4, screening length: 5.74355 Bohr) occupying 0.755941 of unit cell:	Completed after 0 iterations at t[s]:   1307.16
	Linear fluid (dielectric constant: 78.4, screening length: 5.74355 Bohr) occupying 0.755941 of unit cell:	Completed after 2 iterations at t[s]:   1318.94
ElecMinimize: 	Step increased F by 2.745946e-08, reducing alpha to 2.120112e-02.
	Linear fluid (dielectric constant: 78.4, screening length: 5.74355 Bohr) occupying 0.755942 of unit cell:	Completed after 0 iterations at t[s]:   1340.04
	FillingsUpdate:  mu: -0.226108580  nElectrons: 704.000000
	SubspaceRotationAdjust: set factor to 0.483
ElecMinimize: Iter:  10  F: -2796.814242771614772  |grad|_K:  2.389e-08  alpha:  2.120e-02  linmin: -2.291e-06  t[s]:   1353.46
	Linear fluid (dielectric constant: 78.4, screening length: 5.74355 Bohr) occupying 0.755942 of unit cell:	Completed after 0 iterations at t[s]:   1362.37
ElecMinimize: 	Predicted alpha/alphaT>3.000000, increasing alphaT to 6.360337e-02.
	Linear fluid (dielectric constant: 78.4, screening length: 5.74355 Bohr) occupying 0.755942 of unit cell:	Completed after 0 iterations at t[s]:   1373.05
ElecMinimize: 	Predicted alpha/alphaT>3.000000, increasing alphaT to 1.908101e-01.
	Linear fluid (dielectric constant: 78.4, screening length: 5.74355 Bohr) occupying 0.755941 of unit cell:	Completed after 0 iterations at t[s]:   1383.81
	Linear fluid (dielectric constant: 78.4, screening length: 5.74355 Bohr) occupying 0.755941 of unit cell:	Completed after 0 iterations at t[s]:   1395.58
	FillingsUpdate:  mu: -0.226108569  nElectrons: 704.000000
	SubspaceRotationAdjust: set factor to 0.596
ElecMinimize: Iter:  11  F: -2796.814242801046476  |grad|_K:  1.691e-08  alpha:  3.453e-01  linmin: -6.280e-09  t[s]:   1408.87
	Linear fluid (dielectric constant: 78.4, screening length: 5.74355 Bohr) occupying 0.755940 of unit cell:	Completed after 0 iterations at t[s]:   1418.04
	Linear fluid (dielectric constant: 78.4, screening length: 5.74355 Bohr) occupying 0.755941 of unit cell:	Completed after 0 iterations at t[s]:   1428.90
	FillingsUpdate:  mu: -0.226108846  nElectrons: 704.000000
	SubspaceRotationAdjust: set factor to 0.751
ElecMinimize: Iter:  12  F: -2796.814242801569435  |grad|_K:  1.282e-08  alpha:  1.964e-01  linmin: -5.430e-06  t[s]:   1442.17
	Linear fluid (dielectric constant: 78.4, screening length: 5.74355 Bohr) occupying 0.755940 of unit cell:	Completed after 0 iterations at t[s]:   1451.02
	Linear fluid (dielectric constant: 78.4, screening length: 5.74355 Bohr) occupying 0.755940 of unit cell:	Completed after 0 iterations at t[s]:   1462.37
	FillingsUpdate:  mu: -0.226109452  nElectrons: 704.000000
	SubspaceRotationAdjust: set factor to 0.862
ElecMinimize: Iter:  13  F: -2796.814242802435274  |grad|_K:  1.055e-08  alpha:  3.656e-01  linmin:  1.779e-06  t[s]:   1475.98
ElecMinimize: Converged (|Delta F|<1.000000e-08 for 2 iters).
Setting wave functions to eigenvectors of Hamiltonian
Single-point solvation energy estimate, DeltaF = +0.000155422764237

# Ionic positions in lattice coordinates:
ion Mo   0.166666670266667   0.083333326383333   0.557997002400000 1
ion Mo   0.083333336933333   0.166666659716667   0.442006995400000 1
ion Mo   0.416666670266667   0.083333326383333   0.557997002400000 1
ion Mo   0.333333336933333   0.166666659716667   0.442006995400000 1
ion Mo   0.666666670266667   0.083333326383333   0.557997002400000 1
ion Mo   0.583333336933333   0.166666659716667   0.442006995400000 1
ion Mo   0.916666670266667   0.083333326383333   0.557997002400000 1
ion Mo   0.833333336933333   0.166666659716667   0.442006995400000 1
ion Mo   0.166666670266667   0.333333326383333   0.557997002400000 1
ion Mo   0.083333336933333   0.416666659716667   0.442006995400000 1
ion Mo   0.416666670266667   0.333333326383333   0.557997002400000 1
ion Mo   0.333333336933333   0.416666659716667   0.442006995400000 1
ion Mo   0.666666670266667   0.333333326383333   0.557997002400000 1
ion Mo   0.583333336933333   0.416666659716667   0.442006995400000 1
ion Mo   0.916666670266667   0.333333326383333   0.557997002400000 1
ion Mo   0.833333336933333   0.416666659716667   0.442006995400000 1
ion Mo   0.166666670266667   0.583333326383333   0.557997002400000 1
ion Mo   0.083333336933333   0.666666659716667   0.442006995400000 1
ion Mo   0.416666670266667   0.583333326383333   0.557997002400000 1
ion Mo   0.333333336933333   0.666666659716667   0.442006995400000 1
ion Mo   0.666666670266667   0.583333326383333   0.557997002400000 1
ion Mo   0.583333336933333   0.666666659716667   0.442006995400000 1
ion Mo   0.916666670266667   0.583333326383333   0.557997002400000 1
ion Mo   0.833333336933333   0.666666659716667   0.442006995400000 1
ion Mo   0.166666670266667   0.833333326383333   0.557997002400000 1
ion Mo   0.083333336933333   0.916666659716667   0.442006995400000 1
ion Mo   0.416666670266667   0.833333326383333   0.557997002400000 1
ion Mo   0.333333336933333   0.916666659716667   0.442006995400000 1
ion Mo   0.666666670266667   0.833333326383333   0.557997002400000 1
ion Mo   0.583333336933333   0.916666659716667   0.442006995400000 1
ion Mo   0.916666670266667   0.833333326383333   0.557997002400000 1
ion Mo   0.833333336933333   0.916666659716667   0.442006995400000 1
ion C   0.000000003600000  -0.000000006950000   0.500001998900000 1
ion C   0.250000003600000  -0.000000006950000   0.500001998900000 1
ion C   0.500000003600000  -0.000000006950000   0.500001998900000 1
ion C   0.750000003600000  -0.000000006950000   0.500001998900000 1
ion C   0.000000003600000   0.249999993050000   0.500001998900000 1
ion C   0.250000003600000   0.249999993050000   0.500001998900000 1
ion C   0.500000003600000   0.249999993050000   0.500001998900000 1
ion C   0.750000003600000   0.249999993050000   0.500001998900000 1
ion C   0.000000003600000   0.499999993050000   0.500001998900000 1
ion C   0.250000003600000   0.499999993050000   0.500001998900000 1
ion C   0.500000003600000   0.499999993050000   0.500001998900000 1
ion C   0.750000003600000   0.499999993050000   0.500001998900000 1
ion C   0.000000003600000   0.749999993050000   0.500001998900000 1
ion C   0.250000003600000   0.749999993050000   0.500001998900000 1
ion C   0.500000003600000   0.749999993050000   0.500001998900000 1
ion C   0.750000003600000   0.749999993050000   0.500001998900000 1
ion O   0.083333336933333   0.166666659716667   0.616151999400000 1
ion O   0.166666670266667   0.083333326383333   0.383851998400000 1
ion O   0.333333336933333   0.166666659716667   0.616151999400000 1
ion O   0.416666670266667   0.083333326383333   0.383851998400000 1
ion O   0.583333336933333   0.166666659716667   0.616151999400000 1
ion O   0.666666670266667   0.083333326383333   0.383851998400000 1
ion O   0.833333336933333   0.166666659716667   0.616151999400000 1
ion O   0.916666670266667   0.083333326383333   0.383851998400000 1
ion O   0.083333336933333   0.416666659716667   0.616151999400000 1
ion O   0.166666670266667   0.333333326383333   0.383851998400000 1
ion O   0.333333336933333   0.416666659716667   0.616151999400000 1
ion O   0.416666670266667   0.333333326383333   0.383851998400000 1
ion O   0.583333336933333   0.416666659716667   0.616151999400000 1
ion O   0.666666670266667   0.333333326383333   0.383851998400000 1
ion O   0.833333336933333   0.416666659716667   0.616151999400000 1
ion O   0.916666670266667   0.333333326383333   0.383851998400000 1
ion O   0.083333336933333   0.666666659716667   0.616151999400000 1
ion O   0.166666670266667   0.583333326383333   0.383851998400000 1
ion O   0.333333336933333   0.666666659716667   0.616151999400000 1
ion O   0.416666670266667   0.583333326383333   0.383851998400000 1
ion O   0.583333336933333   0.666666659716667   0.616151999400000 1
ion O   0.666666670266667   0.583333326383333   0.383851998400000 1
ion O   0.833333336933333   0.666666659716667   0.616151999400000 1
ion O   0.916666670266667   0.583333326383333   0.383851998400000 1
ion O   0.083333336933333   0.916666659716667   0.616151999400000 1
ion O   0.166666670266667   0.833333326383333   0.383851998400000 1
ion O   0.333333336933333   0.916666659716667   0.616151999400000 1
ion O   0.416666670266667   0.833333326383333   0.383851998400000 1
ion O   0.583333336933333   0.916666659716667   0.616151999400000 1
ion O   0.666666670266667   0.833333326383333   0.383851998400000 1
ion O   0.833333336933333   0.916666659716667   0.616151999400000 1
ion O   0.916666670266667   0.833333326383333   0.383851998400000 1


# Forces in Lattice coordinates:
force Mo   0.000000000000000  -0.000000000000000   0.158435579502694 1
force Mo  -0.000000000000000   0.000000000000000  -0.158435579504285 1
force Mo   0.000000000000000  -0.000000000000000   0.158435579502239 1
force Mo  -0.000000000000000   0.000000000000000  -0.158435579504513 1
force Mo   0.000000000000000   0.000000000000000   0.158435579502921 1
force Mo  -0.000000000000000   0.000000000000000  -0.158435579503831 1
force Mo   0.000000000000000  -0.000000000000000   0.158435579502012 1
force Mo  -0.000000000000000  -0.000000000000000  -0.158435579504286 1
force Mo   0.000000000000000  -0.000000000000000   0.158435579502239 1
force Mo  -0.000000000000000   0.000000000000000  -0.158435579503831 1
force Mo   0.000000000000000  -0.000000000000000   0.158435579502011 1
force Mo  -0.000000000000000  -0.000000000000000  -0.158435579504968 1
force Mo  -0.000000000000000   0.000000000000000   0.158435579501329 1
force Mo  -0.000000000000000   0.000000000000000  -0.158435579504059 1
force Mo   0.000000000000000   0.000000000000000   0.158435579501329 1
force Mo  -0.000000000000000  -0.000000000000000  -0.158435579504286 1
force Mo   0.000000000000000  -0.000000000000000   0.158435579502012 1
force Mo  -0.000000000000000   0.000000000000000  -0.158435579503149 1
force Mo  -0.000000000000000  -0.000000000000000   0.158435579502239 1
force Mo  -0.000000000000000   0.000000000000000  -0.158435579504286 1
force Mo   0.000000000000000  -0.000000000000000   0.158435579502693 1
force Mo  -0.000000000000000   0.000000000000000  -0.158435579504286 1
force Mo   0.000000000000000  -0.000000000000000   0.158435579501330 1
force Mo  -0.000000000000000   0.000000000000000  -0.158435579503604 1
force Mo   0.000000000000000  -0.000000000000000   0.158435579501784 1
force Mo  -0.000000000000000   0.000000000000000  -0.158435579503604 1
force Mo   0.000000000000000  -0.000000000000000   0.158435579503148 1
force Mo  -0.000000000000000   0.000000000000000  -0.158435579503831 1
force Mo   0.000000000000000  -0.000000000000000   0.158435579502694 1
force Mo  -0.000000000000000   0.000000000000000  -0.158435579503604 1
force Mo   0.000000000000000  -0.000000000000000   0.158435579502012 1
force Mo  -0.000000000000000   0.000000000000000  -0.158435579503377 1
force C   0.000000000000000  -0.000000000000000   0.000000000000000 1
force C  -0.000000000000000   0.000000000000000  -0.000000000000000 1
force C  -0.000000000000000   0.000000000000000   0.000000000000000 1
force C   0.000000000000000  -0.000000000000000   0.000000000000000 1
force C   0.000000000000000   0.000000000000000   0.000000000000000 1
force C  -0.000000000000000   0.000000000000000  -0.000000000000000 1
force C  -0.000000000000000   0.000000000000000  -0.000000000000000 1
force C  -0.000000000000000  -0.000000000000000   0.000000000000000 1
force C   0.000000000000000   0.000000000000000   0.000000000000000 1
force C  -0.000000000000000   0.000000000000000   0.000000000000000 1
force C  -0.000000000000000   0.000000000000000  -0.000000000000000 1
force C   0.000000000000000  -0.000000000000000  -0.000000000000000 1
force C   0.000000000000000   0.000000000000000   0.000000000000000 1
force C  -0.000000000000000   0.000000000000000   0.000000000000000 1
force C  -0.000000000000000   0.000000000000000   0.000000000000000 1
force C  -0.000000000000000   0.000000000000000  -0.000000000000000 1
force O   0.000000000000000  -0.000000000000000  -0.010399194232338 1
force O   0.000000000000000  -0.000000000000000   0.010399194230054 1
force O  -0.000000000000000   0.000000000000000  -0.010399194232338 1
force O  -0.000000000000000   0.000000000000000   0.010399194229599 1
force O   0.000000000000000  -0.000000000000000  -0.010399194232338 1
force O  -0.000000000000000  -0.000000000000000   0.010399194229603 1
force O  -0.000000000000000   0.000000000000000  -0.010399194232338 1
force O   0.000000000000000   0.000000000000000   0.010399194229599 1
force O  -0.000000000000000   0.000000000000000  -0.010399194232335 1
force O  -0.000000000000000  -0.000000000000000   0.010399194229603 1
force O  -0.000000000000000   0.000000000000000  -0.010399194232335 1
force O   0.000000000000000  -0.000000000000000   0.010399194229603 1
force O   0.000000000000000   0.000000000000000  -0.010399194232335 1
force O   0.000000000000000  -0.000000000000000   0.010399194229603 1
force O   0.000000000000000   0.000000000000000  -0.010399194232335 1
force O   0.000000000000000  -0.000000000000000   0.010399194229599 1
force O   0.000000000000000  -0.000000000000000  -0.010399194232335 1
force O  -0.000000000000000   0.000000000000000   0.010399194229599 1
force O  -0.000000000000000  -0.000000000000000  -0.010399194232335 1
force O  -0.000000000000000   0.000000000000000   0.010399194229599 1
force O   0.000000000000000  -0.000000000000000  -0.010399194232335 1
force O   0.000000000000000  -0.000000000000000   0.010399194229603 1
force O   0.000000000000000   0.000000000000000  -0.010399194232338 1
force O   0.000000000000000   0.000000000000000   0.010399194229599 1
force O  -0.000000000000000   0.000000000000000  -0.010399194232342 1
force O  -0.000000000000000   0.000000000000000   0.010399194230057 1
force O  -0.000000000000000   0.000000000000000  -0.010399194232335 1
force O   0.000000000000000   0.000000000000000   0.010399194229603 1
force O   0.000000000000000  -0.000000000000000  -0.010399194232338 1
force O   0.000000000000000   0.000000000000000   0.010399194230054 1
force O  -0.000000000000000   0.000000000000000  -0.010399194232338 1
force O  -0.000000000000000  -0.000000000000000   0.010399194230057 1

# Energy components:
   A_diel =        0.0000287680347503
   Eewald =    28656.7715832585927274
       EH =    30977.5714400617871433
     Eloc =   -63268.0474079718260327
      Enl =      495.1453106455157354
      Exc =     -455.4586568909231801
 Exc_core =       41.6778248376179619
       KE =      755.6367994935717434
-------------------------------------
     Etot =    -2796.7030777976297031
       TS =        0.1111650048057364
-------------------------------------
        F =    -2796.8142428024352739

IonicMinimize: Iter:   0  F: -2796.814242802435274  |grad|_K:  1.576e-03  t[s]:   1488.62

#--- Lowdin population analysis ---
# oxidation-state Mo +0.545 +0.545 +0.545 +0.545 +0.545 +0.545 +0.545 +0.545 +0.545 +0.545 +0.545 +0.545 +0.545 +0.545 +0.545 +0.545 +0.545 +0.545 +0.545 +0.545 +0.545 +0.545 +0.545 +0.545 +0.545 +0.545 +0.545 +0.545 +0.545 +0.545 +0.545 +0.545
# oxidation-state C -0.230 -0.230 -0.230 -0.230 -0.230 -0.230 -0.230 -0.230 -0.230 -0.230 -0.230 -0.230 -0.230 -0.230 -0.230 -0.230
# oxidation-state O -0.368 -0.368 -0.368 -0.368 -0.368 -0.368 -0.368 -0.368 -0.368 -0.368 -0.368 -0.368 -0.368 -0.368 -0.368 -0.368 -0.368 -0.368 -0.368 -0.368 -0.368 -0.368 -0.368 -0.368 -0.368 -0.368 -0.368 -0.368 -0.368 -0.368 -0.368 -0.368

	Linear fluid (dielectric constant: 78.4, screening length: 5.74355 Bohr) occupying 0.755930 of unit cell:	Completed after 10 iterations at t[s]:   1500.89

-------- Electronic minimization -----------
	Linear fluid (dielectric constant: 78.4, screening length: 5.74355 Bohr) occupying 0.755930 of unit cell:	Completed after 0 iterations at t[s]:   1510.45
	FillingsUpdate:  mu: -0.224239620  nElectrons: 704.000000
ElecMinimize: Iter:   0  F: -2796.813760359284970  |grad|_K:  2.735e-06  alpha:  1.000e+00
	Linear fluid (dielectric constant: 78.4, screening length: 5.74355 Bohr) occupying 0.755893 of unit cell:	Completed after 12 iterations at t[s]:   1536.48
	Linear fluid (dielectric constant: 78.4, screening length: 5.74355 Bohr) occupying 0.755907 of unit cell:	Completed after 10 iterations at t[s]:   1551.72
	FillingsUpdate:  mu: -0.227590651  nElectrons: 704.000000
	SubspaceRotationAdjust: set factor to 0.499
ElecMinimize: Iter:   1  F: -2796.814405870693008  |grad|_K:  2.730e-06  alpha:  6.510e-01  linmin: -7.357e-07  t[s]:   1566.50
	Linear fluid (dielectric constant: 78.4, screening length: 5.74355 Bohr) occupying 0.755925 of unit cell:	Completed after 12 iterations at t[s]:   1577.62
	Linear fluid (dielectric constant: 78.4, screening length: 5.74355 Bohr) occupying 0.755915 of unit cell:	Completed after 12 iterations at t[s]:   1593.01
	FillingsUpdate:  mu: -0.225548815  nElectrons: 704.000000
	SubspaceRotationAdjust: set factor to 0.44
ElecMinimize: Iter:   2  F: -2796.814685654010646  |grad|_K:  8.825e-07  alpha:  2.826e-01  linmin: -5.666e-06  t[s]:   1607.99
	Linear fluid (dielectric constant: 78.4, screening length: 5.74355 Bohr) occupying 0.755919 of unit cell:	Completed after 2 iterations at t[s]:   1617.27
	Linear fluid (dielectric constant: 78.4, screening length: 5.74355 Bohr) occupying 0.755920 of unit cell:	Completed after 2 iterations at t[s]:   1629.50
	FillingsUpdate:  mu: -0.225465661  nElectrons: 704.000000
	SubspaceRotationAdjust: set factor to 0.638
ElecMinimize: Iter:   3  F: -2796.814723784194484  |grad|_K:  2.559e-07  alpha:  3.692e-01  linmin:  1.374e-05  t[s]:   1643.12
	Linear fluid (dielectric constant: 78.4, screening length: 5.74355 Bohr) occupying 0.755922 of unit cell:	Completed after 3 iterations at t[s]:   1652.81
	Linear fluid (dielectric constant: 78.4, screening length: 5.74355 Bohr) occupying 0.755923 of unit cell:	Completed after 0 iterations at t[s]:   1664.61
	FillingsUpdate:  mu: -0.225440980  nElectrons: 704.000000
	SubspaceRotationAdjust: set factor to 0.818
ElecMinimize: Iter:   4  F: -2796.814727520315955  |grad|_K:  1.159e-07  alpha:  4.284e-01  linmin: -5.748e-05  t[s]:   1678.17
	Linear fluid (dielectric constant: 78.4, screening length: 5.74355 Bohr) occupying 0.755925 of unit cell:	Completed after 1 iterations at t[s]:   1687.72
	Linear fluid (dielectric constant: 78.4, screening length: 5.74355 Bohr) occupying 0.755925 of unit cell:	Completed after 0 iterations at t[s]:   1698.98
	FillingsUpdate:  mu: -0.225448187  nElectrons: 704.000000
	SubspaceRotationAdjust: set factor to 1.1
ElecMinimize: Iter:   5  F: -2796.814728323402051  |grad|_K:  6.124e-08  alpha:  4.337e-01  linmin: -1.122e-05  t[s]:   1712.23
	Linear fluid (dielectric constant: 78.4, screening length: 5.74355 Bohr) occupying 0.755928 of unit cell:	Completed after 2 iterations at t[s]:   1721.62
	Linear fluid (dielectric constant: 78.4, screening length: 5.74355 Bohr) occupying 0.755927 of unit cell:	Completed after 0 iterations at t[s]:   1733.09
	FillingsUpdate:  mu: -0.225418954  nElectrons: 704.000000
	SubspaceRotationAdjust: set factor to 1.19
ElecMinimize: Iter:   6  F: -2796.814728517292679  |grad|_K:  4.249e-08  alpha:  3.851e-01  linmin: -3.773e-06  t[s]:   1746.62
	Linear fluid (dielectric constant: 78.4, screening length: 5.74355 Bohr) occupying 0.755929 of unit cell:	Completed after 0 iterations at t[s]:   1755.55
	Linear fluid (dielectric constant: 78.4, screening length: 5.74355 Bohr) occupying 0.755929 of unit cell:	Completed after 0 iterations at t[s]:   1766.30
	FillingsUpdate:  mu: -0.225418273  nElectrons: 704.000000
	SubspaceRotationAdjust: set factor to 1.6
ElecMinimize: Iter:   7  F: -2796.814728616277080  |grad|_K:  2.442e-08  alpha:  4.385e-01  linmin:  1.245e-06  t[s]:   1779.47
	Linear fluid (dielectric constant: 78.4, screening length: 5.74355 Bohr) occupying 0.755930 of unit cell:	Completed after 1 iterations at t[s]:   1789.07
	Linear fluid (dielectric constant: 78.4, screening length: 5.74355 Bohr) occupying 0.755929 of unit cell:	Completed after 0 iterations at t[s]:   1800.73
	FillingsUpdate:  mu: -0.225430666  nElectrons: 704.000000
	SubspaceRotationAdjust: set factor to 0.966
ElecMinimize: Iter:   8  F: -2796.814728617704532  |grad|_K:  6.097e-08  alpha:  9.689e-02  linmin:  2.369e-05  t[s]:   1813.80
ElecMinimize: 	Bad step direction: g.d > 0.
ElecMinimize: 	Undoing step.
	Linear fluid (dielectric constant: 78.4, screening length: 5.74355 Bohr) occupying 0.755929 of unit cell:	Completed after 0 iterations at t[s]:   1823.45
ElecMinimize: 	Step failed: resetting search direction.
	FillingsUpdate:  mu: -0.225430666  nElectrons: 704.000000
	SubspaceRotationAdjust: set factor to 0.648
ElecMinimize: Iter:   9  F: -2796.814728617692253  |grad|_K:  4.992e-08  alpha:  0.000e+00
	Linear fluid (dielectric constant: 78.4, screening length: 5.74355 Bohr) occupying 0.755929 of unit cell:	Completed after 2 iterations at t[s]:   1845.98
	Linear fluid (dielectric constant: 78.4, screening length: 5.74355 Bohr) occupying 0.755929 of unit cell:	Completed after 0 iterations at t[s]:   1857.53
ElecMinimize: 	Step increased F by 1.190165e-08, reducing alpha to 4.561600e-03.
	Linear fluid (dielectric constant: 78.4, screening length: 5.74355 Bohr) occupying 0.755929 of unit cell:	Completed after 0 iterations at t[s]:   1877.92
ElecMinimize: 	Step increased F by 1.943090e-08, reducing alpha to 4.561600e-04.
	Linear fluid (dielectric constant: 78.4, screening length: 5.74355 Bohr) occupying 0.755929 of unit cell:	Completed after 0 iterations at t[s]:   1898.35
ElecMinimize: 	Step increased F by 2.022762e-08, reducing alpha to 4.561600e-05.
ElecMinimize: 	Step failed to reduce F after 3 attempts. Quitting step.
ElecMinimize: 	Undoing step.
	Linear fluid (dielectric constant: 78.4, screening length: 5.74355 Bohr) occupying 0.755929 of unit cell:	Completed after 0 iterations at t[s]:   1918.89
ElecMinimize: 	Step failed along negative gradient direction.
ElecMinimize: Probably at roundoff error limit. (Stopping)
Setting wave functions to eigenvectors of Hamiltonian

# Ionic positions in lattice coordinates:
ion Mo   0.166666670266667   0.083333326383333   0.558114067044263 1
ion Mo   0.083333336933333   0.166666659716667   0.441889930755737 1
ion Mo   0.416666670266667   0.083333326383333   0.558114067044263 1
ion Mo   0.333333336933333   0.166666659716667   0.441889930755737 1
ion Mo   0.666666670266667   0.083333326383333   0.558114067044263 1
ion Mo   0.583333336933333   0.166666659716667   0.441889930755737 1
ion Mo   0.916666670266667   0.083333326383333   0.558114067044263 1
ion Mo   0.833333336933333   0.166666659716667   0.441889930755737 1
ion Mo   0.166666670266667   0.333333326383333   0.558114067044263 1
ion Mo   0.083333336933333   0.416666659716667   0.441889930755737 1
ion Mo   0.416666670266667   0.333333326383333   0.558114067044263 1
ion Mo   0.333333336933333   0.416666659716667   0.441889930755737 1
ion Mo   0.666666670266667   0.333333326383333   0.558114067044263 1
ion Mo   0.583333336933333   0.416666659716667   0.441889930755737 1
ion Mo   0.916666670266667   0.333333326383333   0.558114067044263 1
ion Mo   0.833333336933333   0.416666659716667   0.441889930755737 1
ion Mo   0.166666670266667   0.583333326383333   0.558114067044263 1
ion Mo   0.083333336933333   0.666666659716667   0.441889930755737 1
ion Mo   0.416666670266667   0.583333326383333   0.558114067044263 1
ion Mo   0.333333336933333   0.666666659716667   0.441889930755737 1
ion Mo   0.666666670266667   0.583333326383333   0.558114067044263 1
ion Mo   0.583333336933333   0.666666659716667   0.441889930755737 1
ion Mo   0.916666670266667   0.583333326383333   0.558114067044263 1
ion Mo   0.833333336933333   0.666666659716667   0.441889930755737 1
ion Mo   0.166666670266667   0.833333326383333   0.558114067044263 1
ion Mo   0.083333336933333   0.916666659716667   0.441889930755737 1
ion Mo   0.416666670266667   0.833333326383333   0.558114067044263 1
ion Mo   0.333333336933333   0.916666659716667   0.441889930755737 1
ion Mo   0.666666670266667   0.833333326383333   0.558114067044263 1
ion Mo   0.583333336933333   0.916666659716667   0.441889930755737 1
ion Mo   0.916666670266667   0.833333326383333   0.558114067044263 1
ion Mo   0.833333336933333   0.916666659716667   0.441889930755737 1
ion C   0.000000003600000  -0.000000006950000   0.500001998900000 1
ion C   0.250000003600000  -0.000000006950000   0.500001998900000 1
ion C   0.500000003600000  -0.000000006950000   0.500001998900000 1
ion C   0.750000003600000  -0.000000006950000   0.500001998900000 1
ion C   0.000000003600000   0.249999993050000   0.500001998900000 1
ion C   0.250000003600000   0.249999993050000   0.500001998900000 1
ion C   0.500000003600000   0.249999993050000   0.500001998900000 1
ion C   0.750000003600000   0.249999993050000   0.500001998900000 1
ion C   0.000000003600000   0.499999993050000   0.500001998900000 1
ion C   0.250000003600000   0.499999993050000   0.500001998900000 1
ion C   0.500000003600000   0.499999993050000   0.500001998900000 1
ion C   0.750000003600000   0.499999993050000   0.500001998900000 1
ion C   0.000000003600000   0.749999993050000   0.500001998900000 1
ion C   0.250000003600000   0.749999993050000   0.500001998900000 1
ion C   0.500000003600000   0.749999993050000   0.500001998900000 1
ion C   0.750000003600000   0.749999993050000   0.500001998900000 1
ion O   0.083333336933333   0.166666659716667   0.616144315658904 1
ion O   0.166666670266667   0.083333326383333   0.383859682141096 1
ion O   0.333333336933333   0.166666659716667   0.616144315658904 1
ion O   0.416666670266667   0.083333326383333   0.383859682141096 1
ion O   0.583333336933333   0.166666659716667   0.616144315658904 1
ion O   0.666666670266667   0.083333326383333   0.383859682141096 1
ion O   0.833333336933333   0.166666659716667   0.616144315658904 1
ion O   0.916666670266667   0.083333326383333   0.383859682141096 1
ion O   0.083333336933333   0.416666659716667   0.616144315658904 1
ion O   0.166666670266667   0.333333326383333   0.383859682141096 1
ion O   0.333333336933333   0.416666659716667   0.616144315658904 1
ion O   0.416666670266667   0.333333326383333   0.383859682141096 1
ion O   0.583333336933333   0.416666659716667   0.616144315658904 1
ion O   0.666666670266667   0.333333326383333   0.383859682141096 1
ion O   0.833333336933333   0.416666659716667   0.616144315658904 1
ion O   0.916666670266667   0.333333326383333   0.383859682141096 1
ion O   0.083333336933333   0.666666659716667   0.616144315658904 1
ion O   0.166666670266667   0.583333326383333   0.383859682141096 1
ion O   0.333333336933333   0.666666659716667   0.616144315658904 1
ion O   0.416666670266667   0.583333326383333   0.383859682141096 1
ion O   0.583333336933333   0.666666659716667   0.616144315658904 1
ion O   0.666666670266667   0.583333326383333   0.383859682141096 1
ion O   0.833333336933333   0.666666659716667   0.616144315658904 1
ion O   0.916666670266667   0.583333326383333   0.383859682141096 1
ion O   0.083333336933333   0.916666659716667   0.616144315658904 1
ion O   0.166666670266667   0.833333326383333   0.383859682141096 1
ion O   0.333333336933333   0.916666659716667   0.616144315658904 1
ion O   0.416666670266667   0.833333326383333   0.383859682141096 1
ion O   0.583333336933333   0.916666659716667   0.616144315658904 1
ion O   0.666666670266667   0.833333326383333   0.383859682141096 1
ion O   0.833333336933333   0.916666659716667   0.616144315658904 1
ion O   0.916666670266667   0.833333326383333   0.383859682141096 1


# Forces in Lattice coordinates:
force Mo  -0.000000000000000   0.000000000000000   0.106583214409714 1
force Mo  -0.000000000000000   0.000000000000000  -0.106583214404484 1
force Mo   0.000000000000000   0.000000000000000   0.106583214409715 1
force Mo  -0.000000000000000   0.000000000000000  -0.106583214404484 1
force Mo   0.000000000000000   0.000000000000000   0.106583214409260 1
force Mo  -0.000000000000000   0.000000000000000  -0.106583214404484 1
force Mo  -0.000000000000000   0.000000000000000   0.106583214409714 1
force Mo  -0.000000000000000   0.000000000000000  -0.106583214404483 1
force Mo   0.000000000000000   0.000000000000000   0.106583214409714 1
force Mo   0.000000000000000   0.000000000000000  -0.106583214404483 1
force Mo  -0.000000000000000  -0.000000000000000   0.106583214409714 1
force Mo  -0.000000000000000  -0.000000000000000  -0.106583214404484 1
force Mo   0.000000000000000   0.000000000000000   0.106583214409714 1
force Mo  -0.000000000000000   0.000000000000000  -0.106583214404484 1
force Mo  -0.000000000000000   0.000000000000000   0.106583214409715 1
force Mo  -0.000000000000000  -0.000000000000000  -0.106583214404484 1
force Mo   0.000000000000000  -0.000000000000000   0.106583214409260 1
force Mo   0.000000000000000  -0.000000000000000  -0.106583214404483 1
force Mo   0.000000000000000   0.000000000000000   0.106583214409715 1
force Mo   0.000000000000000   0.000000000000000  -0.106583214404483 1
force Mo  -0.000000000000000   0.000000000000000   0.106583214409260 1
force Mo  -0.000000000000000  -0.000000000000000  -0.106583214404483 1
force Mo  -0.000000000000000   0.000000000000000   0.106583214409715 1
force Mo  -0.000000000000000  -0.000000000000000  -0.106583214404483 1
force Mo   0.000000000000000  -0.000000000000000   0.106583214409715 1
force Mo   0.000000000000000   0.000000000000000  -0.106583214404483 1
force Mo  -0.000000000000000  -0.000000000000000   0.106583214409715 1
force Mo   0.000000000000000   0.000000000000000  -0.106583214404483 1
force Mo  -0.000000000000000   0.000000000000000   0.106583214409260 1
force Mo   0.000000000000000  -0.000000000000000  -0.106583214404483 1
force Mo  -0.000000000000000   0.000000000000000   0.106583214409714 1
force Mo  -0.000000000000000  -0.000000000000000  -0.106583214404484 1
force C   0.000000000000000   0.000000000000000   0.000000000000000 1
force C  -0.000000000000000  -0.000000000000000  -0.000000000000000 1
force C  -0.000000000000000   0.000000000000000   0.000000000000000 1
force C   0.000000000000000  -0.000000000000000  -0.000000000000000 1
force C  -0.000000000000000  -0.000000000000000  -0.000000000000000 1
force C   0.000000000000000   0.000000000000000  -0.000000000000000 1
force C  -0.000000000000000  -0.000000000000000   0.000000000000000 1
force C  -0.000000000000000   0.000000000000000  -0.000000000000000 1
force C   0.000000000000000  -0.000000000000000  -0.000000000000000 1
force C   0.000000000000000   0.000000000000000   0.000000000000000 1
force C  -0.000000000000000  -0.000000000000000   0.000000000000000 1
force C   0.000000000000000  -0.000000000000000  -0.000000000000000 1
force C   0.000000000000000  -0.000000000000000   0.000000000000000 1
force C  -0.000000000000000   0.000000000000000   0.000000000000000 1
force C  -0.000000000000000   0.000000000000000   0.000000000000000 1
force C  -0.000000000000000   0.000000000000000   0.000000000000000 1
force O   0.000000000000000   0.000000000000000   0.009031068358972 1
force O  -0.000000000000000   0.000000000000000  -0.009031068362606 1
force O  -0.000000000000000   0.000000000000000   0.009031068359192 1
force O   0.000000000000000   0.000000000000000  -0.009031068362141 1
force O   0.000000000000000  -0.000000000000000   0.009031068358968 1
[...]
# oxidation-state O -0.367 -0.367 -0.367 -0.367 -0.367 -0.367 -0.367 -0.367 -0.367 -0.367 -0.367 -0.367 -0.367 -0.367 -0.367 -0.367 -0.367 -0.367 -0.367 -0.367 -0.367 -0.367 -0.367 -0.367 -0.367 -0.367 -0.367 -0.367 -0.367 -0.367 -0.367 -0.367

	Linear fluid (dielectric constant: 78.4, screening length: 5.74355 Bohr) occupying 0.755536 of unit cell:	Completed after 11 iterations at t[s]:   3967.78

-------- Electronic minimization -----------
	Linear fluid (dielectric constant: 78.4, screening length: 5.74355 Bohr) occupying 0.755536 of unit cell:	Completed after 0 iterations at t[s]:   3977.23
	FillingsUpdate:  mu: -0.224466561  nElectrons: 704.000000
ElecMinimize: Iter:   0  F: -2796.815201983717998  |grad|_K:  1.331e-06  alpha:  1.000e+00
	Linear fluid (dielectric constant: 78.4, screening length: 5.74355 Bohr) occupying 0.755549 of unit cell:	Completed after 5 iterations at t[s]:   4000.97
	Linear fluid (dielectric constant: 78.4, screening length: 5.74355 Bohr) occupying 0.755549 of unit cell:	Completed after 0 iterations at t[s]:   4012.87
	FillingsUpdate:  mu: -0.224446483  nElectrons: 704.000000
	SubspaceRotationAdjust: set factor to 0.673
ElecMinimize: Iter:   1  F: -2796.815425967355623  |grad|_K:  9.063e-07  alpha:  9.530e-01  linmin:  4.340e-05  t[s]:   4026.07
	Linear fluid (dielectric constant: 78.4, screening length: 5.74355 Bohr) occupying 0.755560 of unit cell:	Completed after 2 iterations at t[s]:   4035.79
	Linear fluid (dielectric constant: 78.4, screening length: 5.74355 Bohr) occupying 0.755556 of unit cell:	Completed after 2 iterations at t[s]:   4047.84
	FillingsUpdate:  mu: -0.224467919  nElectrons: 704.000000
	SubspaceRotationAdjust: set factor to 0.792
ElecMinimize: Iter:   2  F: -2796.815495058352099  |grad|_K:  6.147e-07  alpha:  6.413e-01  linmin: -7.986e-06  t[s]:   4061.48
	Linear fluid (dielectric constant: 78.4, screening length: 5.74355 Bohr) occupying 0.755560 of unit cell:	Completed after 3 iterations at t[s]:   4071.10
	Linear fluid (dielectric constant: 78.4, screening length: 5.74355 Bohr) occupying 0.755558 of unit cell:	Completed after 2 iterations at t[s]:   4083.16
	FillingsUpdate:  mu: -0.224251889  nElectrons: 704.000000
	SubspaceRotationAdjust: set factor to 0.777
ElecMinimize: Iter:   3  F: -2796.815515433811925  |grad|_K:  3.014e-07  alpha:  4.058e-01  linmin:  7.368e-07  t[s]:   4096.97
	Linear fluid (dielectric constant: 78.4, screening length: 5.74355 Bohr) occupying 0.755557 of unit cell:	Completed after 2 iterations at t[s]:   4106.47
	Linear fluid (dielectric constant: 78.4, screening length: 5.74355 Bohr) occupying 0.755557 of unit cell:	Completed after 2 iterations at t[s]:   4118.32
	FillingsUpdate:  mu: -0.224431965  nElectrons: 704.000000
	SubspaceRotationAdjust: set factor to 0.471
ElecMinimize: Iter:   4  F: -2796.815519294734713  |grad|_K:  1.294e-07  alpha:  3.220e-01  linmin:  7.599e-06  t[s]:   4132.11
	Linear fluid (dielectric constant: 78.4, screening length: 5.74355 Bohr) occupying 0.755557 of unit cell:	Completed after 3 iterations at t[s]:   4141.78
	Linear fluid (dielectric constant: 78.4, screening length: 5.74355 Bohr) occupying 0.755557 of unit cell:	Completed after 0 iterations at t[s]:   4153.85
	FillingsUpdate:  mu: -0.224385109  nElectrons: 704.000000
	SubspaceRotationAdjust: set factor to 0.36
ElecMinimize: Iter:   5  F: -2796.815520039273906  |grad|_K:  6.096e-08  alpha:  3.384e-01  linmin: -1.136e-05  t[s]:   4166.90
	Linear fluid (dielectric constant: 78.4, screening length: 5.74355 Bohr) occupying 0.755556 of unit cell:	Completed after 0 iterations at t[s]:   4176.02
	Linear fluid (dielectric constant: 78.4, screening length: 5.74355 Bohr) occupying 0.755556 of unit cell:	Completed after 0 iterations at t[s]:   4187.06
	FillingsUpdate:  mu: -0.224384976  nElectrons: 704.000000
	SubspaceRotationAdjust: set factor to 0.466
ElecMinimize: Iter:   6  F: -2796.815520273115453  |grad|_K:  3.233e-08  alpha:  4.495e-01  linmin: -7.963e-08  t[s]:   4200.14
	Linear fluid (dielectric constant: 78.4, screening length: 5.74355 Bohr) occupying 0.755556 of unit cell:	Completed after 0 iterations at t[s]:   4208.99
	Linear fluid (dielectric constant: 78.4, screening length: 5.74355 Bohr) occupying 0.755556 of unit cell:	Completed after 0 iterations at t[s]:   4220.33
	FillingsUpdate:  mu: -0.224384727  nElectrons: 704.000000
	SubspaceRotationAdjust: set factor to 0.603
ElecMinimize: Iter:   7  F: -2796.815520348698101  |grad|_K:  2.401e-08  alpha:  5.439e-01  linmin: -1.616e-07  t[s]:   4233.81
	Linear fluid (dielectric constant: 78.4, screening length: 5.74355 Bohr) occupying 0.755556 of unit cell:	Completed after 2 iterations at t[s]:   4243.47
	Linear fluid (dielectric constant: 78.4, screening length: 5.74355 Bohr) occupying 0.755556 of unit cell:	Completed after 0 iterations at t[s]:   4254.65
ElecMinimize: 	Step increased F by 4.084040e-08, reducing alpha to 9.033264e-03.
	Linear fluid (dielectric constant: 78.4, screening length: 5.74355 Bohr) occupying 0.755556 of unit cell:	Completed after 0 iterations at t[s]:   4275.30
ElecMinimize: 	Step increased F by 2.330080e-08, reducing alpha to 9.033264e-04.
	Linear fluid (dielectric constant: 78.4, screening length: 5.74355 Bohr) occupying 0.755556 of unit cell:	Completed after 0 iterations at t[s]:   4295.88
ElecMinimize: 	Step increased F by 2.156776e-08, reducing alpha to 9.033264e-05.
ElecMinimize: 	Step failed to reduce F after 3 attempts. Quitting step.
ElecMinimize: 	Undoing step.
	Linear fluid (dielectric constant: 78.4, screening length: 5.74355 Bohr) occupying 0.755556 of unit cell:	Completed after 0 iterations at t[s]:   4316.20
ElecMinimize: 	Step failed: resetting search direction.
	FillingsUpdate:  mu: -0.224409897  nElectrons: 704.000000
	SubspaceRotationAdjust: set factor to 0.534
ElecMinimize: Iter:   8  F: -2796.815520327158538  |grad|_K:  6.144e-08  alpha:  9.033e-05
	Linear fluid (dielectric constant: 78.4, screening length: 5.74355 Bohr) occupying 0.755556 of unit cell:	Completed after 2 iterations at t[s]:   4339.36
	Linear fluid (dielectric constant: 78.4, screening length: 5.74355 Bohr) occupying 0.755556 of unit cell:	Completed after 1 iterations at t[s]:   4351.32
ElecMinimize: 	Step increased F by 1.846229e-08, reducing alpha to 1.544208e-02.
	Linear fluid (dielectric constant: 78.4, screening length: 5.74355 Bohr) occupying 0.755556 of unit cell:	Completed after 0 iterations at t[s]:   4372.44
ElecMinimize: 	Step increased F by 2.801244e-09, reducing alpha to 1.544208e-03.
	Linear fluid (dielectric constant: 78.4, screening length: 5.74355 Bohr) occupying 0.755556 of unit cell:	Completed after 0 iterations at t[s]:   4392.82
ElecMinimize: 	Step increased F by 1.575245e-09, reducing alpha to 1.544208e-04.
ElecMinimize: 	Step failed to reduce F after 3 attempts. Quitting step.
ElecMinimize: 	Undoing step.
	Linear fluid (dielectric constant: 78.4, screening length: 5.74355 Bohr) occupying 0.755556 of unit cell:	Completed after 0 iterations at t[s]:   4412.58
ElecMinimize: 	Step failed along negative gradient direction.
ElecMinimize: Probably at roundoff error limit. (Stopping)
Setting wave functions to eigenvectors of Hamiltonian

# Ionic positions in lattice coordinates:
ion Mo   0.166666670266667   0.083333326383333   0.558556097997901 1
ion Mo   0.083333336933333   0.166666659716667   0.441447899802099 1
ion Mo   0.416666670266667   0.083333326383333   0.558556097997901 1
ion Mo   0.333333336933333   0.166666659716667   0.441447899802099 1
ion Mo   0.666666670266667   0.083333326383333   0.558556097997901 1
ion Mo   0.583333336933333   0.166666659716667   0.441447899802099 1
ion Mo   0.916666670266667   0.083333326383333   0.558556097997901 1
ion Mo   0.833333336933333   0.166666659716667   0.441447899802099 1
ion Mo   0.166666670266667   0.333333326383333   0.558556097997901 1
ion Mo   0.083333336933333   0.416666659716667   0.441447899802099 1
ion Mo   0.416666670266667   0.333333326383333   0.558556097997901 1
ion Mo   0.333333336933333   0.416666659716667   0.441447899802099 1
ion Mo   0.666666670266667   0.333333326383333   0.558556097997901 1
ion Mo   0.583333336933333   0.416666659716667   0.441447899802099 1
ion Mo   0.916666670266667   0.333333326383333   0.558556097997901 1
ion Mo   0.833333336933333   0.416666659716667   0.441447899802099 1
ion Mo   0.166666670266667   0.583333326383333   0.558556097997901 1
ion Mo   0.083333336933333   0.666666659716667   0.441447899802099 1
ion Mo   0.416666670266667   0.583333326383333   0.558556097997901 1
ion Mo   0.333333336933333   0.666666659716667   0.441447899802099 1
ion Mo   0.666666670266667   0.583333326383333   0.558556097997901 1
ion Mo   0.583333336933333   0.666666659716667   0.441447899802099 1
ion Mo   0.916666670266667   0.583333326383333   0.558556097997901 1
ion Mo   0.833333336933333   0.666666659716667   0.441447899802099 1
ion Mo   0.166666670266667   0.833333326383333   0.558556097997901 1
ion Mo   0.083333336933333   0.916666659716667   0.441447899802099 1
ion Mo   0.416666670266667   0.833333326383333   0.558556097997901 1
ion Mo   0.333333336933333   0.916666659716667   0.441447899802099 1
ion Mo   0.666666670266667   0.833333326383333   0.558556097997901 1
ion Mo   0.583333336933333   0.916666659716667   0.441447899802099 1
ion Mo   0.916666670266667   0.833333326383333   0.558556097997901 1
ion Mo   0.833333336933333   0.916666659716667   0.441447899802099 1
ion C   0.000000003600000  -0.000000006950000   0.500001998900000 1
ion C   0.250000003600000  -0.000000006950000   0.500001998900000 1
ion C   0.500000003600000  -0.000000006950000   0.500001998900000 1
ion C   0.750000003600000  -0.000000006950000   0.500001998900000 1
ion C   0.000000003600000   0.249999993050000   0.500001998900000 1
ion C   0.250000003600000   0.249999993050000   0.500001998900000 1
ion C   0.500000003600000   0.249999993050000   0.500001998900000 1
ion C   0.750000003600000   0.249999993050000   0.500001998900000 1
ion C   0.000000003600000   0.499999993050000   0.500001998900000 1
ion C   0.250000003600000   0.499999993050000   0.500001998900000 1
ion C   0.500000003600000   0.499999993050000   0.500001998900000 1
ion C   0.750000003600000   0.499999993050000   0.500001998900000 1
ion C   0.000000003600000   0.749999993050000   0.500001998900000 1
ion C   0.250000003600000   0.749999993050000   0.500001998900000 1
ion C   0.500000003600000   0.749999993050000   0.500001998900000 1
ion C   0.750000003600000   0.749999993050000   0.500001998900000 1
ion O   0.083333336933333   0.166666659716667   0.616517487420202 1
ion O   0.166666670266667   0.083333326383333   0.383486510379798 1
ion O   0.333333336933333   0.166666659716667   0.616517487420202 1
ion O   0.416666670266667   0.083333326383333   0.383486510379798 1
ion O   0.583333336933333   0.166666659716667   0.616517487420202 1
ion O   0.666666670266667   0.083333326383333   0.383486510379798 1
ion O   0.833333336933333   0.166666659716667   0.616517487420202 1
ion O   0.916666670266667   0.083333326383333   0.383486510379798 1
ion O   0.083333336933333   0.416666659716667   0.616517487420202 1
ion O   0.166666670266667   0.333333326383333   0.383486510379798 1
ion O   0.333333336933333   0.416666659716667   0.616517487420202 1
ion O   0.416666670266667   0.333333326383333   0.383486510379798 1
ion O   0.583333336933333   0.416666659716667   0.616517487420202 1
ion O   0.666666670266667   0.333333326383333   0.383486510379798 1
ion O   0.833333336933333   0.416666659716667   0.616517487420202 1
ion O   0.916666670266667   0.333333326383333   0.383486510379798 1
ion O   0.083333336933333   0.666666659716667   0.616517487420202 1
ion O   0.166666670266667   0.583333326383333   0.383486510379798 1
ion O   0.333333336933333   0.666666659716667   0.616517487420202 1
ion O   0.416666670266667   0.583333326383333   0.383486510379798 1
ion O   0.583333336933333   0.666666659716667   0.616517487420202 1
ion O   0.666666670266667   0.583333326383333   0.383486510379798 1
ion O   0.833333336933333   0.666666659716667   0.616517487420202 1
ion O   0.916666670266667   0.583333326383333   0.383486510379798 1
ion O   0.083333336933333   0.916666659716667   0.616517487420202 1
ion O   0.166666670266667   0.833333326383333   0.383486510379798 1
ion O   0.333333336933333   0.916666659716667   0.616517487420202 1
ion O   0.416666670266667   0.833333326383333   0.383486510379798 1
ion O   0.583333336933333   0.916666659716667   0.616517487420202 1
ion O   0.666666670266667   0.833333326383333   0.383486510379798 1
ion O   0.833333336933333   0.916666659716667   0.616517487420202 1
ion O   0.916666670266667   0.833333326383333   0.383486510379798 1


# Forces in Lattice coordinates:
force Mo   0.000000000000000  -0.000000000000000  -0.005893935086247 1
force Mo  -0.000000000000000  -0.000000000000000   0.005893935080335 1
force Mo  -0.000000000000000  -0.000000000000000  -0.005893935086247 1
force Mo  -0.000000000000000   0.000000000000000   0.005893935079880 1
force Mo  -0.000000000000000   0.000000000000000  -0.005893935086247 1
force Mo   0.000000000000000  -0.000000000000000   0.005893935080335 1
force Mo  -0.000000000000000   0.000000000000000  -0.005893935086247 1
force Mo  -0.000000000000000   0.000000000000000   0.005893935080334 1
force Mo  -0.000000000000000  -0.000000000000000  -0.005893935086247 1
force Mo   0.000000000000000   0.000000000000000   0.005893935080335 1
force Mo   0.000000000000000  -0.000000000000000  -0.005893935086247 1
force Mo  -0.000000000000000   0.000000000000000   0.005893935080789 1
force Mo   0.000000000000000   0.000000000000000  -0.005893935086247 1
force Mo   0.000000000000000  -0.000000000000000   0.005893935080789 1
force Mo  -0.000000000000000  -0.000000000000000  -0.005893935086247 1
force Mo   0.000000000000000  -0.000000000000000   0.005893935080334 1
force Mo  -0.000000000000000   0.000000000000000  -0.005893935086247 1
force Mo  -0.000000000000000  -0.000000000000000   0.005893935080789 1
force Mo  -0.000000000000000  -0.000000000000000  -0.005893935086247 1
force Mo   0.000000000000000  -0.000000000000000   0.005893935080789 1
force Mo   0.000000000000000  -0.000000000000000  -0.005893935086247 1
force Mo   0.000000000000000   0.000000000000000   0.005893935080335 1
force Mo  -0.000000000000000   0.000000000000000  -0.005893935086247 1
force Mo   0.000000000000000  -0.000000000000000   0.005893935080335 1
force Mo  -0.000000000000000  -0.000000000000000  -0.005893935086247 1
force Mo   0.000000000000000   0.000000000000000   0.005893935080335 1
force Mo  -0.000000000000000   0.000000000000000  -0.005893935086247 1
force Mo  -0.000000000000000  -0.000000000000000   0.005893935079880 1
force Mo  -0.000000000000000   0.000000000000000  -0.005893935086247 1
force Mo   0.000000000000000  -0.000000000000000   0.005893935080335 1
force Mo   0.000000000000000  -0.000000000000000  -0.005893935086247 1
force Mo   0.000000000000000   0.000000000000000   0.005893935080335 1
force C  -0.000000000000000   0.000000000000000   0.000000000000000 1
force C  -0.000000000000000   0.000000000000000   0.000000000000000 1
force C   0.000000000000000   0.000000000000000   0.000000000000000 1
force C  -0.000000000000000   0.000000000000000  -0.000000000000000 1
force C   0.000000000000000  -0.000000000000000  -0.000000000000000 1
force C   0.000000000000000   0.000000000000000   0.000000000000000 1
force C  -0.000000000000000  -0.000000000000000  -0.000000000000000 1
force C  -0.000000000000000  -0.000000000000000   0.000000000000000 1
force C   0.000000000000000  -0.000000000000000  -0.000000000000000 1
force C   0.000000000000000   0.000000000000000   0.000000000000000 1
force C  -0.000000000000000  -0.000000000000000   0.000000000000000 1
force C   0.000000000000000   0.000000000000000  -0.000000000000000 1
force C   0.000000000000000   0.000000000000000  -0.000000000000000 1
force C  -0.000000000000000   0.000000000000000   0.000000000000000 1
force C  -0.000000000000000  -0.000000000000000  -0.000000000000000 1
force C  -0.000000000000000   0.000000000000000  -0.000000000000000 1
force O   0.000000000000000  -0.000000000000000   0.001664649079430 1
force O   0.000000000000000  -0.000000000000000  -0.001664649080787 1
force O   0.000000000000000   0.000000000000000   0.001664649079427 1
force O  -0.000000000000000  -0.000000000000000  -0.001664649080784 1
force O   0.000000000000000   0.000000000000000   0.001664649079430 1
force O  -0.000000000000000  -0.000000000000000  -0.001664649080787 1
force O  -0.000000000000000  -0.000000000000000   0.001664649079427 1
force O   0.000000000000000  -0.000000000000000  -0.001664649080780 1
force O  -0.000000000000000   0.000000000000000   0.001664649079430 1
force O   0.000000000000000   0.000000000000000  -0.001664649080784 1
force O   0.000000000000000  -0.000000000000000   0.001664649079430 1
force O   0.000000000000000  -0.000000000000000  -0.001664649080784 1
force O  -0.000000000000000   0.000000000000000   0.001664649079430 1
force O   0.000000000000000   0.000000000000000  -0.001664649080784 1
force O  -0.000000000000000  -0.000000000000000   0.001664649079427 1
force O  -0.000000000000000   0.000000000000000  -0.001664649080787 1
force O   0.000000000000000   0.000000000000000   0.001664649079430 1
force O   0.000000000000000  -0.000000000000000  -0.001664649080787 1
force O   0.000000000000000  -0.000000000000000   0.001664649079427 1
force O  -0.000000000000000   0.000000000000000  -0.001664649080780 1
force O   0.000000000000000   0.000000000000000   0.001664649079430 1
force O   0.000000000000000  -0.000000000000000  -0.001664649080784 1
force O  -0.000000000000000   0.000000000000000   0.001664649079430 1
force O   0.000000000000000   0.000000000000000  -0.001664649080787 1
force O  -0.000000000000000   0.000000000000000   0.001664649079427 1
force O  -0.000000000000000  -0.000000000000000  -0.001664649080787 1
force O  -0.000000000000000   0.000000000000000   0.001664649079430 1
force O  -0.000000000000000  -0.000000000000000  -0.001664649080784 1
force O  -0.000000000000000  -0.000000000000000   0.001664649079427 1
force O  -0.000000000000000   0.000000000000000  -0.001664649080784 1
force O  -0.000000000000000   0.000000000000000   0.001664649079430 1
force O   0.000000000000000  -0.000000000000000  -0.001664649080787 1

# Energy components:
   A_diel =        0.0000267379018822
   Eewald =    28608.1972240998766210
       EH =    30929.8161533227539621
     Eloc =   -63171.4955699431884568
      Enl =      495.1584376782023469
      Exc =     -455.3338024598216975
 Exc_core =       41.6778461789883465
       KE =      755.2823923640842168
-------------------------------------
     Etot =    -2796.6972920212010649
       TS =        0.1182283044846512
-------------------------------------
        F =    -2796.8155203256856112

IonicMinimize: Iter:   4  F: -2796.815520325685611  |grad|_K:  6.079e-05  alpha:  1.000e+00  linmin:  4.920e-02  t[s]:   4438.38
IonicMinimize: Converged (|grad|_K<1.000000e-04).

#--- Lowdin population analysis ---
# oxidation-state Mo +0.544 +0.544 +0.544 +0.544 +0.544 +0.544 +0.544 +0.544 +0.544 +0.544 +0.544 +0.544 +0.544 +0.544 +0.544 +0.544 +0.544 +0.544 +0.544 +0.544 +0.544 +0.544 +0.544 +0.544 +0.544 +0.544 +0.544 +0.544 +0.544 +0.544 +0.544 +0.544
# oxidation-state C -0.232 -0.232 -0.232 -0.232 -0.232 -0.232 -0.232 -0.232 -0.232 -0.232 -0.232 -0.232 -0.232 -0.232 -0.232 -0.232
# oxidation-state O -0.367 -0.367 -0.367 -0.367 -0.367 -0.367 -0.367 -0.367 -0.367 -0.367 -0.367 -0.367 -0.367 -0.367 -0.367 -0.367 -0.367 -0.367 -0.367 -0.367 -0.367 -0.367 -0.367 -0.367 -0.367 -0.367 -0.367 -0.367 -0.367 -0.367 -0.367 -0.367


Dumping 'NbTe2.fillings' ... done
Dumping 'NbTe2.wfns' ... done
Dumping 'NbTe2.fluidState' ... done
Dumping 'NbTe2.ionpos' ... done
Dumping 'NbTe2.eigenvals' ... done
End date and time: Tue Apr 13 14:33:51 2021  (Duration: 0-1:14:03.31)
Done!
