
*************** JDFTx 1.5.0  ***************

Start date and time: Fri Jul 17 09:13:43 2020
Executable jdftx_gpu with command-line: -i Neutral.in -o Neutral.out
Running on hosts (process indices):  amax (0-5)
Divided in process groups (process indices):  0 (0)  1 (1)  2 (2)  3 (3)  4 (4)  5 (5)
gpuInit: Found compatible cuda device 0 'Tesla K80'
gpuInit: Found compatible cuda device 1 'Tesla K80'
gpuInit: Found compatible cuda device 2 'Tesla K80'
gpuInit: Found compatible cuda device 3 'Tesla K80'
gpuInit: Found compatible cuda device 4 'Tesla K80'
gpuInit: Found compatible cuda device 5 'Tesla K80'
gpuInit: Selected device 0
Resource initialization completed at t[s]:     15.11
Run totals: 6 processes, 24 threads, 6 GPUs


Input parsed successfully to the following command list (including defaults):

basis kpoint-dependent
cache-projectors no
coords-type Lattice
core-overlap-check none
coulomb-interaction Slab 001
coulomb-truncation-embed 0 0 0.5
davidson-band-ratio 1.1
dump End State
dump-name NbTe2.$VAR
elec-cutoff 20 100
elec-eigen-algo Davidson
elec-ex-corr gga-PBE
elec-smearing Gauss 0.0073499
electronic-minimize  \
	dirUpdateScheme      FletcherReeves \
	linminMethod         DirUpdateRecommended \
	nIterations          500 \
	history              15 \
	knormThreshold       0 \
	energyDiffThreshold  1e-08 \
	nEnergyDiff          2 \
	alphaTstart          1 \
	alphaTmin            1e-10 \
	updateTestStepSize   yes \
	alphaTreduceFactor   0.1 \
	alphaTincreaseFactor 3 \
	nAlphaAdjustMax      3 \
	wolfeEnergy          0.0001 \
	wolfeGradient        0.9 \
	fdTest               no
exchange-regularization WignerSeitzTruncated
fluid LinearPCM 298.000000 1.013250
fluid-anion F- 1 MeanFieldLJ \
	epsBulk 1 \
	pMol 0 \
	epsInf 1 \
	Pvap 0 \
	sigmaBulk 0 \
	Rvdw 2.24877 \
	Res 0 \
	tauNuc 343133
fluid-cation Na+ 1 MeanFieldLJ \
	epsBulk 1 \
	pMol 0 \
	epsInf 1 \
	Pvap 0 \
	sigmaBulk 0 \
	Rvdw 2.19208 \
	Res 0 \
	tauNuc 343133
fluid-ex-corr lda-TF lda-PZ
fluid-gummel-loop 10 1.000000e-05
fluid-minimize  \
	dirUpdateScheme      PolakRibiere \
	linminMethod         DirUpdateRecommended \
	nIterations          400 \
	history              15 \
	knormThreshold       1e-11 \
	energyDiffThreshold  0 \
	nEnergyDiff          2 \
	alphaTstart          1 \
	alphaTmin            1e-10 \
	updateTestStepSize   yes \
	alphaTreduceFactor   0.1 \
	alphaTincreaseFactor 3 \
	nAlphaAdjustMax      6 \
	wolfeEnergy          0.0001 \
	wolfeGradient        0.9 \
	fdTest               no
fluid-solvent H2O 55.338 ScalarEOS \
	epsBulk 78.4 \
	pMol 0.92466 \
	epsInf 1.77 \
	Pvap 1.06736e-10 \
	sigmaBulk 4.62e-05 \
	Rvdw 2.61727 \
	Res 1.42 \
	tauNuc 343133 \
	poleEl 15 7 1
forces-output-coords Positions
initial-state NbTe2.$VAR
ion Nb   0.083333332889758   0.872972890075729   0.499760336618091 0
ion Nb   0.416666666223094   0.872972890075729   0.499760336618091 0
ion Nb   0.749999999556422   0.872972890075729   0.499760336618091 0
ion Nb   0.250000001238021   0.127027630144916   0.500240374430515 0
ion Nb   0.583333334571357   0.127027630144916   0.500240374430515 0
ion Nb   0.916666667904693   0.127027630144916   0.500240374430515 0
ion Nb   0.083333330025432   0.561172216038176   0.448955839792056 0
ion Nb   0.416666663358768   0.561172216038176   0.448955839792056 0
ion Nb   0.749999996692104   0.561172216038176   0.448955839792056 0
ion Nb   0.250000002840899   0.438827130714917   0.551043466851297 0
ion Nb   0.583333336174235   0.438827130714917   0.551043466851297 0
ion Nb   0.916666669507570   0.438827130714917   0.551043466851297 0
ion Se   0.083333334459290   0.057430061603423   0.402373375127626 0
ion Se   0.416666667792619   0.057430061603423   0.402373375127626 0
ion Se   0.750000001125954   0.057430061603423   0.402373375127626 0
ion Se   0.249999999488992   0.942572690146125   0.597627431537175 0
ion Se   0.583333332822320   0.942572690146125   0.597627431537175 0
ion Se   0.916666666155656   0.942572690146125   0.597627431537175 0
ion Se   0.083333334928952   0.249191687966920   0.593883568322163 0
ion Se   0.416666668262280   0.249191687966920   0.593883568322163 0
ion Se   0.750000001595616   0.249191687966920   0.593883568322163 0
ion Se   0.249999998576079   0.750805708101474   0.406117100737453 0
ion Se   0.583333331909415   0.750805708101474   0.406117100737453 0
ion Se   0.916666665242744   0.750805708101474   0.406117100737453 0
ion Se   0.249999997230098   0.368363392128050   0.418170761237178 0
ion Se   0.583333330563434   0.368363392128050   0.418170761237178 0
ion Se   0.916666663896770   0.368363392128050   0.418170761237178 0
ion Se   0.083333334989142   0.631636593080269   0.581827745346437 0
ion Se   0.416666668322471   0.631636593080269   0.581827745346437 0
ion Se   0.750000001655806   0.631636593080269   0.581827745346437 0
ion-species GBRV/$ID_pbe.uspp
ion-width Ecut
ionic-minimize  \
	dirUpdateScheme      L-BFGS \
	linminMethod         DirUpdateRecommended \
	nIterations          0 \
	history              15 \
	knormThreshold       0.0001 \
	energyDiffThreshold  1e-06 \
	nEnergyDiff          2 \
	alphaTstart          1 \
	alphaTmin            1e-10 \
	updateTestStepSize   yes \
	alphaTreduceFactor   0.1 \
	alphaTincreaseFactor 3 \
	nAlphaAdjustMax      3 \
	wolfeEnergy          0.0001 \
	wolfeGradient        0.9 \
	fdTest               no
kpoint   0.000000000000   0.000000000000   0.000000000000  1.00000000000000
kpoint-folding 3 3 1 
latt-move-scale 1 1 1
latt-scale 1 1 1 
lattice Triclinic 19.1384 18.5288 35.4661 90 90 90
lattice-minimize  \
	dirUpdateScheme      L-BFGS \
	linminMethod         DirUpdateRecommended \
	nIterations          0 \
	history              15 \
	knormThreshold       0 \
	energyDiffThreshold  1e-06 \
	nEnergyDiff          2 \
	alphaTstart          1 \
	alphaTmin            1e-10 \
	updateTestStepSize   yes \
	alphaTreduceFactor   0.1 \
	alphaTincreaseFactor 3 \
	nAlphaAdjustMax      3 \
	wolfeEnergy          0.0001 \
	wolfeGradient        0.9 \
	fdTest               no
lcao-params -1 1e-06 0.0073499
pcm-variant CANDLE
spintype no-spin
subspace-rotation-factor 1 yes
symmetries automatic
symmetry-threshold 0.0001



---------- Setting up symmetries ----------

Found 8 point-group symmetries of the bravais lattice
Found 12 space-group symmetries with basis
Applied RMS atom displacement 2.30158e-05 bohrs to make symmetries exact.

---------- Initializing the Grid ----------
R = 
[    19.1384          0          0  ]
[          0    18.5288          0  ]
[          0          0    35.4661  ]
unit cell volume = 12576.7
G =
[   0.328303          0          0  ]
[          0   0.339104          0  ]
[          0          0    0.17716  ]
Minimum fftbox size, Smin = [  88  84  160  ]
Chosen fftbox size, S = [  90  84  160  ]

---------- Initializing tighter grid for wavefunction operations ----------
R = 
[    19.1384          0          0  ]
[          0    18.5288          0  ]
[          0          0    35.4661  ]
unit cell volume = 12576.7
G =
[   0.328303          0          0  ]
[          0   0.339104          0  ]
[          0          0    0.17716  ]
Minimum fftbox size, Smin = [  80  76  144  ]
Chosen fftbox size, S = [  80  80  144  ]

---------- Exchange Correlation functional ----------
Initalized PBE GGA exchange.
Initalized PBE GGA correlation.

---------- Setting up pseudopotentials ----------
Width of ionic core gaussian charges (only for fluid interactions / plotting) set to 0.397384

Reading pseudopotential file '/home/guoxy/vasp/jdftx-1.5.0/build/pseudopotentials/GBRV/nb_pbe.uspp':
  Title: Nb.  Created by USPP 7.3.6 on 14-9-2013
  Reference state energy: -58.592548.  13 valence electrons in orbitals:
    |400>  occupation: 2  eigenvalue: -2.145853
    |410>  occupation: 6  eigenvalue: -1.268635
    |420>  occupation: 4  eigenvalue: -0.111734
    |500>  occupation: 1  eigenvalue: -0.146332
    |510>  occupation: 0  eigenvalue: -0.040820
  lMax: 2  lLocal: 3  QijEcut: 5
  6 projectors sampled on a log grid with 627 points:
    l: 0  eig: -2.145854  rCut: 1.8
    l: 0  eig: -0.146334  rCut: 1.8
    l: 1  eig: -1.268634  rCut: 2
    l: 1  eig: 0.150000  rCut: 2
    l: 2  eig: -0.040820  rCut: 2.2
    l: 2  eig: 0.150000  rCut: 2.2
  Partial core density with radius 1.2
  Transforming core density to a uniform radial grid of dG=0.02 with 1252 points.
  Transforming local potential to a uniform radial grid of dG=0.02 with 1252 points.
  Transforming nonlocal projectors to a uniform radial grid of dG=0.02 with 432 points.
  Transforming density augmentations to a uniform radial grid of dG=0.02 with 1252 points.
  Transforming atomic orbitals to a uniform radial grid of dG=0.02 with 432 points.
  Core radius for overlap checks: 2.20 bohrs.

Reading pseudopotential file '/home/guoxy/vasp/jdftx-1.5.0/build/pseudopotentials/GBRV/se_pbe.uspp':
  Title: Se.  Created by USPP 7.3.6 on 14-9-2013
  Reference state energy: -21.672887.  6 valence electrons in orbitals:
    |400>  occupation: 2  eigenvalue: -0.635284
    |410>  occupation: 4  eigenvalue: -0.239295
  lMax: 2  lLocal: 3  QijEcut: 5
  6 projectors sampled on a log grid with 625 points:
    l: 0  eig: -0.635278  rCut: 1.5
    l: 0  eig: 0.500000  rCut: 1.5
    l: 1  eig: -0.239295  rCut: 1.5
    l: 1  eig: 0.500000  rCut: 1.5
    l: 2  eig: 0.000000  rCut: 1.8
    l: 2  eig: 1.000000  rCut: 1.8
  Partial core density with radius 1.2
  Transforming core density to a uniform radial grid of dG=0.02 with 1252 points.
  Transforming local potential to a uniform radial grid of dG=0.02 with 1252 points.
  Transforming nonlocal projectors to a uniform radial grid of dG=0.02 with 432 points.
  Transforming density augmentations to a uniform radial grid of dG=0.02 with 1252 points.
  Transforming atomic orbitals to a uniform radial grid of dG=0.02 with 432 points.
  Core radius for overlap checks: 1.80 bohrs.

Initialized 2 species with 30 total atoms.

Folded 1 k-points by 3x3x1 to 9 k-points.

---------- Setting up k-points, bands, fillings ----------
Reduced to 4 k-points under symmetry. 
Computing the number of bands and number of electrons
Calculating initial fillings.
nElectrons: 264.000000   nBands: 228   nStates: 4

----- Setting up reduced wavefunction bases (one per k-point) -----
average nbasis = 53719.444 , ideal nbasis = 53728.490

---------- Setting up coulomb interaction ----------
Fluid mode embedding: using embedded box, but periodic Coulomb kernel.
(Fluid response is responsible for (approximate) separation between periodic images.)
Setting up double-sized grid for truncated Coulomb potentials:
R = 
[    19.1384          0          0  ]
[          0    18.5288          0  ]
[          0          0    70.9323  ]
unit cell volume = 25153.3
G =
[   0.328303          0          0  ]
[          0   0.339104          0  ]
[          0          0  0.0885801  ]
Chosen fftbox size, S = [  90  84  320  ]
Integer grid location selected as the embedding center:
   Grid: [  0  0  80  ]
   Lattice: [  0  0  0.5  ]
   Cartesian: [  0  0  17.7331  ]
Constructing Wigner-Seitz cell: 6 faces (6 quadrilaterals, 0 hexagons)
Range-separation parameter for embedded mesh potentials due to point charges: 0.59396 bohrs.

Initializing van der Waals corrections
	NOTE: vdW corrections apply only for interactions with fluid.
	Nb:  C6:  427.91 Eh-a0^6  R0: 3.097 a0
	Se:  C6:  219.24 Eh-a0^6  R0: 3.347 a0

---------- Setting up ewald sum ----------
Optimum gaussian width for ewald sums = 6.631143 bohr.
Real space sum over 605 unit cells with max indices [  5  5  2  ]
Reciprocal space sum over 6253 terms with max indices [  6  6  18  ]

---------- Allocating electronic variables ----------
Initializing wave functions:  linear combination of atomic orbitals
Nb pseudo-atom occupations:   s ( 2 2 )  p ( 6 0 )  d ( 3 )
Se pseudo-atom occupations:   s ( 2 )  p ( 4 )
	FillingsUpdate:  mu: +0.329744954  nElectrons: 264.000000
LCAOMinimize: Iter:   0  F: -855.0486417866238753  |grad|_K:  1.879e-02  alpha:  1.000e+00
	FillingsUpdate:  mu: -0.345240653  nElectrons: 264.000000
LCAOMinimize: Iter:   1  F: -856.0591085002547516  |grad|_K:  1.222e-02  alpha:  3.383e-01  linmin:  2.253e-01  cgtest: -1.446e+00  t[s]:     35.32
LCAOMinimize: 	Bad step direction: g.d > 0.
LCAOMinimize: 	Undoing step.
LCAOMinimize: 	Step failed: resetting search direction.
	FillingsUpdate:  mu: -0.345240653  nElectrons: 264.000000
LCAOMinimize: Iter:   2  F: -856.0591085002547516  |grad|_K:  1.222e-02  alpha:  0.000e+00
	FillingsUpdate:  mu: -0.311508201  nElectrons: 264.000000
LCAOMinimize: Iter:   3  F: -858.1674721905616252  |grad|_K:  7.562e-03  alpha:  8.369e-02  linmin: -3.077e-01  cgtest:  7.298e-01  t[s]:     46.45
LCAOMinimize: Encountered beta<0, resetting CG.
LCAOMinimize: 	Predicted alpha/alphaT>3.000000, increasing alphaT to 2.510791e-01.
	FillingsUpdate:  mu: -0.083735874  nElectrons: 264.000000
LCAOMinimize: Iter:   4  F: -859.5864912795757391  |grad|_K:  2.074e-03  alpha:  2.161e-01  linmin:  1.342e-01  cgtest: -4.149e-01  t[s]:     55.57
	FillingsUpdate:  mu: -0.078897467  nElectrons: 264.000000
LCAOMinimize: Iter:   5  F: -859.5999480443564380  |grad|_K:  1.357e-03  alpha:  5.353e-02  linmin: -7.399e-03  cgtest:  8.080e-01  t[s]:     62.04
LCAOMinimize: Encountered beta<0, resetting CG.
	FillingsUpdate:  mu: -0.098692965  nElectrons: 264.000000
LCAOMinimize: Iter:   6  F: -859.6244585310629418  |grad|_K:  5.893e-04  alpha:  1.251e-01  linmin: -1.721e-02  cgtest:  7.540e-02  t[s]:     68.55
	FillingsUpdate:  mu: -0.108800304  nElectrons: 264.000000
LCAOMinimize: Iter:   7  F: -859.6281539071077304  |grad|_K:  1.386e-04  alpha:  9.935e-02  linmin: -1.822e-03  cgtest: -1.398e-01  t[s]:     75.66
LCAOMinimize: 	Predicted alpha/alphaT>3.000000, increasing alphaT to 2.980529e-01.
	FillingsUpdate:  mu: -0.111131101  nElectrons: 264.000000
LCAOMinimize: Iter:   8  F: -859.6288325613052166  |grad|_K:  1.349e-04  alpha:  3.361e-01  linmin: -1.342e-04  cgtest: -5.414e-04  t[s]:     84.73
	FillingsUpdate:  mu: -0.110942317  nElectrons: 264.000000
LCAOMinimize: Iter:   9  F: -859.6291953659208502  |grad|_K:  8.096e-05  alpha:  1.884e-01  linmin: -8.264e-04  cgtest:  1.040e-02  t[s]:     90.27
	FillingsUpdate:  mu: -0.109743720  nElectrons: 264.000000
LCAOMinimize: Iter:  10  F: -859.6292822710072414  |grad|_K:  2.882e-05  alpha:  1.260e-01  linmin:  3.684e-06  cgtest: -1.569e-03  t[s]:     96.82
	FillingsUpdate:  mu: -0.109758855  nElectrons: 264.000000
LCAOMinimize: Iter:  11  F: -859.6293023224063745  |grad|_K:  2.009e-05  alpha:  2.303e-01  linmin:  3.020e-04  cgtest:  2.243e-03  t[s]:    103.11
	FillingsUpdate:  mu: -0.109856757  nElectrons: 264.000000
LCAOMinimize: Iter:  12  F: -859.6293083646864943  |grad|_K:  1.071e-05  alpha:  1.429e-01  linmin:  1.921e-05  cgtest:  1.490e-03  t[s]:    114.05
	FillingsUpdate:  mu: -0.110059913  nElectrons: 264.000000
LCAOMinimize: Iter:  13  F: -859.6293106578898460  |grad|_K:  6.428e-06  alpha:  1.906e-01  linmin: -5.553e-05  cgtest: -6.056e-04  t[s]:    124.55
	FillingsUpdate:  mu: -0.109977990  nElectrons: 264.000000
LCAOMinimize: Iter:  14  F: -859.6293116596738173  |grad|_K:  4.124e-06  alpha:  2.311e-01  linmin:  3.502e-06  cgtest: -6.621e-04  t[s]:    139.04
	FillingsUpdate:  mu: -0.109943485  nElectrons: 264.000000
LCAOMinimize: Iter:  15  F: -859.6293118589657070  |grad|_K:  1.236e-06  alpha:  1.117e-01  linmin:  9.167e-06  cgtest:  1.463e-04  t[s]:    150.81
	FillingsUpdate:  mu: -0.109916473  nElectrons: 264.000000
LCAOMinimize: Iter:  16  F: -859.6293118877007373  |grad|_K:  7.534e-07  alpha:  1.795e-01  linmin:  2.030e-04  cgtest: -7.398e-04  t[s]:    162.16
LCAOMinimize: Converged (|Delta F|<1.000000e-06 for 2 iters).
----- createFluidSolver() ----- (Fluid-side solver setup)
   Initializing fluid molecule 'H2O'
     Initializing site 'O'
       Electron density: proportional to exp(-r/0.36935)*erfc((r-0.51523)/0.36823) with norm 6.826
       Charge density: gaussian nuclear width 0.478731 with net site charge 0.826
       Polarizability: cuspless exponential with width 0.32 and norm 3.73
       Hard sphere radius: 2.57003 bohrs
       Positions in reference frame:
         [ +0.000000 +0.000000 +0.000000 ]
     Initializing site 'H'
       Electron density: proportional to exp(-r/0.34641)*erfc((r-0)/0.390882) with norm 0.587
       Charge density: gaussian nuclear width 0.377945 with net site charge -0.413
       Polarizability: cuspless exponential with width 0.39 and norm 3.3
       Positions in reference frame:
         [ +0.000000 -1.441945 +1.122523 ]
         [ +0.000000 +1.441945 +1.122523 ]
     Net charge: 0   dipole magnitude: 0.927204
     Initializing spherical shell mfKernel with radius 2.61727 Bohr
     deltaS corrections:
       site 'O': -7.54299
       site 'H': -6.83917
   Initializing fluid molecule 'Na+'
     Initializing site 'Na'
       Electron density: proportional to exp(-r/0.19682)*erfc((r-0.71491)/0.41314) with norm 8.1383
       Charge density: gaussian nuclear width 0.365347 with net site charge -1
       Hard sphere radius: 1.86327 bohrs
       Positions in reference frame:
         [ +0.000000 +0.000000 +0.000000 ]
     Net charge: -1   dipole magnitude: 0
     Initializing gaussian mfKernel with width: 1.55004 Bohr
     deltaS corrections:
       site 'Na': -22.3555
   Initializing fluid molecule 'F-'
     Initializing site 'F'
       Electron density: proportional to exp(-r/0.38886)*erfc((r-0)/0.438782) with norm 8
       Charge density: gaussian nuclear width 0.374796 with net site charge 1
       Hard sphere radius: 2.39995 bohrs
       Positions in reference frame:
         [ +0.000000 +0.000000 +0.000000 ]
     Net charge: 1   dipole magnitude: 0
     Initializing gaussian mfKernel with width: 1.59012 Bohr
     deltaS corrections:
       site 'F': -9.04335

Correction to mu due to finite nuclear width = -0.0104138
   Cavity determined by nc: 0.00142 and sigma: 0.707107
   Nonlocal vdW cavity from gaussian model electron density with norm = 8 and sigma = 0.993594 bohr
   Charge asymmetry in cavity with sensitivity pCavity = 36.5 e-bohr/Eh
   Electrostatic cavity expanded by eta = 1.46 bohrs
   Weighted density cavitation model constrained by Nbulk: 0.0049383 bohr^-3, Pvap: 3.14029 kPa, Rvdw: 2.61727 bohr and sigmaBulk: 4.62e-05 Eh/bohr^2 at T: 298 K.
   Weighted density dispersion model using vdW pair potentials with single solvent site with sqrtC6eff: 0.77 SI.


---- Citations for features of the code used in this run ----

   Software package:
      R. Sundararaman, K. Letchworth-Weaver, K.A. Schwarz, D. Gunceler, Y. Ozhabes and T.A. Arias, 'JDFTx: software for joint density-functional theory', SoftwareX 6, 278 (2017)

   gga-PBE exchange-correlation functional:
      J.P. Perdew, K. Burke and M. Ernzerhof, Phys. Rev. Lett. 77, 3865 (1996)

   Pseudopotentials:
      KF Garrity, JW Bennett, KM Rabe and D Vanderbilt, Comput. Mater. Sci. 81, 446 (2014)

   Truncated Coulomb potentials:
      R. Sundararaman and T.A. Arias, Phys. Rev. B 87, 165122 (2013)

   Van der Waals correction pair-potentials:
      S. Grimme, J. Comput. Chem. 27, 1787 (2006)

   Charge-asymmetric nonlocally-determined local-electric (CANDLE) solvation model:
      R. Sundararaman and W.A. Goddard III, J. Chem. Phys. 142, 064107 (2015)

   Total energy minimization with Auxiliary Hamiltonian:
      C. Freysoldt, S. Boeck, and J. Neugebauer, Phys. Rev. B 79, 241103(R) (2009)

This list may not be complete. Please suggest additional citations or
report any other bugs at https://github.com/shankar1729/jdftx/issues

Initialization completed successfully at t[s]:    165.30

Fluid solver invoked on fresh (partially random / LCAO) wavefunctions
Running a vacuum solve first:

-------- Initial electronic minimization -----------
	FillingsUpdate:  mu: -0.109916473  nElectrons: 264.000000
ElecMinimize: Iter:   0  F: -859.629311887692779  |grad|_K:  1.093e-04  alpha:  1.000e+00
	FillingsUpdate:  mu: -0.042942850  nElectrons: 264.000000
	SubspaceRotationAdjust: set factor to 0.861
ElecMinimize: Iter:   1  F: -860.161930661091446  |grad|_K:  6.028e-05  alpha:  9.090e-01  linmin: -8.884e-05  t[s]:    191.30
	FillingsUpdate:  mu: -0.085386706  nElectrons: 264.000000
	SubspaceRotationAdjust: set factor to 0.577
ElecMinimize: Iter:   2  F: -860.215543012020703  |grad|_K:  4.976e-05  alpha:  3.287e-01  linmin:  2.600e-04  t[s]:    207.15
	FillingsUpdate:  mu: -0.091208039  nElectrons: 264.000000
	SubspaceRotationAdjust: set factor to 0.362
ElecMinimize: Iter:   3  F: -860.245585670633659  |grad|_K:  4.415e-05  alpha:  2.613e-01  linmin:  2.810e-05  t[s]:    222.02
	FillingsUpdate:  mu: -0.074882990  nElectrons: 264.000000
	SubspaceRotationAdjust: set factor to 0.416
ElecMinimize: Iter:   4  F: -860.270686036535039  |grad|_K:  1.583e-05  alpha:  2.635e-01  linmin:  7.403e-05  t[s]:    237.35
	FillingsUpdate:  mu: -0.071123508  nElectrons: 264.000000
	SubspaceRotationAdjust: set factor to 0.325
ElecMinimize: Iter:   5  F: -860.278235391254611  |grad|_K:  1.422e-05  alpha:  6.207e-01  linmin:  4.202e-05  t[s]:    250.69
	FillingsUpdate:  mu: -0.074073065  nElectrons: 264.000000
	SubspaceRotationAdjust: set factor to 0.236
ElecMinimize: Iter:   6  F: -860.280973572314451  |grad|_K:  8.750e-06  alpha:  2.754e-01  linmin: -1.859e-05  t[s]:    265.97
	FillingsUpdate:  mu: -0.075807384  nElectrons: 264.000000
	SubspaceRotationAdjust: set factor to 0.344
ElecMinimize: Iter:   7  F: -860.283126640112187  |grad|_K:  5.964e-06  alpha:  5.719e-01  linmin:  1.725e-05  t[s]:    282.63
	FillingsUpdate:  mu: -0.074858637  nElectrons: 264.000000
	SubspaceRotationAdjust: set factor to 0.3
ElecMinimize: Iter:   8  F: -860.283950589043002  |grad|_K:  4.883e-06  alpha:  4.740e-01  linmin:  1.871e-06  t[s]:    297.90
	FillingsUpdate:  mu: -0.074136548  nElectrons: 264.000000
	SubspaceRotationAdjust: set factor to 0.318
ElecMinimize: Iter:   9  F: -860.284510887571173  |grad|_K:  2.896e-06  alpha:  4.790e-01  linmin:  7.097e-06  t[s]:    312.72
	FillingsUpdate:  mu: -0.073923008  nElectrons: 264.000000
	SubspaceRotationAdjust: set factor to 0.369
ElecMinimize: Iter:  10  F: -860.284755282814217  |grad|_K:  2.249e-06  alpha:  5.965e-01  linmin:  3.218e-06  t[s]:    328.71
	FillingsUpdate:  mu: -0.073937329  nElectrons: 264.000000
	SubspaceRotationAdjust: set factor to 0.319
ElecMinimize: Iter:  11  F: -860.284879708365111  |grad|_K:  1.793e-06  alpha:  5.021e-01  linmin:  2.978e-07  t[s]:    344.24
	FillingsUpdate:  mu: -0.074365159  nElectrons: 264.000000
	SubspaceRotationAdjust: set factor to 0.25
ElecMinimize: Iter:  12  F: -860.284946561688116  |grad|_K:  1.308e-06  alpha:  4.235e-01  linmin:  7.525e-07  t[s]:    360.88
	FillingsUpdate:  mu: -0.074306483  nElectrons: 264.000000
	SubspaceRotationAdjust: set factor to 0.287
ElecMinimize: Iter:  13  F: -860.284997404372234  |grad|_K:  9.940e-07  alpha:  6.058e-01  linmin:  1.038e-06  t[s]:    376.51
	FillingsUpdate:  mu: -0.074018666  nElectrons: 264.000000
	SubspaceRotationAdjust: set factor to 0.284
ElecMinimize: Iter:  14  F: -860.285029054235110  |grad|_K:  8.454e-07  alpha:  6.537e-01  linmin:  2.790e-07  t[s]:    392.84
	FillingsUpdate:  mu: -0.074037674  nElectrons: 264.000000
	SubspaceRotationAdjust: set factor to 0.254
ElecMinimize: Iter:  15  F: -860.285048200267852  |grad|_K:  7.416e-07  alpha:  5.457e-01  linmin:  2.435e-07  t[s]:    406.68
	FillingsUpdate:  mu: -0.074136735  nElectrons: 264.000000
	SubspaceRotationAdjust: set factor to 0.301
ElecMinimize: Iter:  16  F: -860.285067048912651  |grad|_K:  6.191e-07  alpha:  6.987e-01  linmin:  8.577e-07  t[s]:    421.29
	FillingsUpdate:  mu: -0.074266888  nElectrons: 264.000000
	SubspaceRotationAdjust: set factor to 0.313
ElecMinimize: Iter:  17  F: -860.285080424612943  |grad|_K:  5.576e-07  alpha:  7.124e-01  linmin:  4.613e-07  t[s]:    438.27
	FillingsUpdate:  mu: -0.074296884  nElectrons: 264.000000
	SubspaceRotationAdjust: set factor to 0.283
ElecMinimize: Iter:  18  F: -860.285088327161588  |grad|_K:  4.616e-07  alpha:  5.180e-01  linmin:  5.842e-08  t[s]:    452.52
	FillingsUpdate:  mu: -0.074133552  nElectrons: 264.000000
	SubspaceRotationAdjust: set factor to 0.301
ElecMinimize: Iter:  19  F: -860.285094100469564  |grad|_K:  3.295e-07  alpha:  5.520e-01  linmin:  7.766e-08  t[s]:    467.80
	FillingsUpdate:  mu: -0.074133936  nElectrons: 264.000000
	SubspaceRotationAdjust: set factor to 0.358
ElecMinimize: Iter:  20  F: -860.285097511483400  |grad|_K:  2.476e-07  alpha:  6.398e-01  linmin:  3.093e-08  t[s]:    484.43
	FillingsUpdate:  mu: -0.074216284  nElectrons: 264.000000
	SubspaceRotationAdjust: set factor to 0.335
ElecMinimize: Iter:  21  F: -860.285099128633306  |grad|_K:  2.055e-07  alpha:  5.373e-01  linmin: -3.900e-08  t[s]:    499.48
	FillingsUpdate:  mu: -0.074201361  nElectrons: 264.000000
	SubspaceRotationAdjust: set factor to 0.305
ElecMinimize: Iter:  22  F: -860.285099989490391  |grad|_K:  1.350e-07  alpha:  4.152e-01  linmin: -2.698e-08  t[s]:    515.56
	FillingsUpdate:  mu: -0.074168105  nElectrons: 264.000000
	SubspaceRotationAdjust: set factor to 0.365
ElecMinimize: Iter:  23  F: -860.285100504085790  |grad|_K:  9.156e-08  alpha:  5.749e-01  linmin: -1.088e-07  t[s]:    532.05
	FillingsUpdate:  mu: -0.074163488  nElectrons: 264.000000
	SubspaceRotationAdjust: set factor to 0.434
ElecMinimize: Iter:  24  F: -860.285100745174987  |grad|_K:  6.812e-08  alpha:  5.854e-01  linmin: -2.291e-08  t[s]:    546.06
	FillingsUpdate:  mu: -0.074165579  nElectrons: 264.000000
	SubspaceRotationAdjust: set factor to 0.384
ElecMinimize: Iter:  25  F: -860.285100860261196  |grad|_K:  5.925e-08  alpha:  5.051e-01  linmin: -1.919e-09  t[s]:    560.92
	FillingsUpdate:  mu: -0.074174467  nElectrons: 264.000000
	SubspaceRotationAdjust: set factor to 0.308
ElecMinimize: Iter:  26  F: -860.285100922580909  |grad|_K:  4.178e-08  alpha:  3.615e-01  linmin:  8.766e-09  t[s]:    575.42
	FillingsUpdate:  mu: -0.074166036  nElectrons: 264.000000
	SubspaceRotationAdjust: set factor to 0.333
ElecMinimize: Iter:  27  F: -860.285100972391660  |grad|_K:  2.827e-08  alpha:  5.808e-01  linmin: -8.235e-08  t[s]:    590.99
	FillingsUpdate:  mu: -0.074165641  nElectrons: 264.000000
	SubspaceRotationAdjust: set factor to 0.363
ElecMinimize: Iter:  28  F: -860.285100998108987  |grad|_K:  2.382e-08  alpha:  6.552e-01  linmin:  5.954e-08  t[s]:    606.14
	FillingsUpdate:  mu: -0.074170106  nElectrons: 264.000000
	SubspaceRotationAdjust: set factor to 0.35
ElecMinimize: Iter:  29  F: -860.285101014616657  |grad|_K:  2.101e-08  alpha:  5.922e-01  linmin: -1.992e-08  t[s]:    622.84
	FillingsUpdate:  mu: -0.074168338  nElectrons: 264.000000
	SubspaceRotationAdjust: set factor to 0.304
ElecMinimize: Iter:  30  F: -860.285101025912695  |grad|_K:  1.926e-08  alpha:  5.210e-01  linmin: -4.779e-09  t[s]:    637.71
	FillingsUpdate:  mu: -0.074169801  nElectrons: 264.000000
	SubspaceRotationAdjust: set factor to 0.318
ElecMinimize: Iter:  31  F: -860.285101036756600  |grad|_K:  1.472e-08  alpha:  5.951e-01  linmin: -6.348e-08  t[s]:    653.48
	FillingsUpdate:  mu: -0.074170956  nElectrons: 264.000000
	SubspaceRotationAdjust: set factor to 0.367
ElecMinimize: Iter:  32  F: -860.285101044272096  |grad|_K:  1.218e-08  alpha:  7.044e-01  linmin: -4.453e-09  t[s]:    671.14
	FillingsUpdate:  mu: -0.074169531  nElectrons: 264.000000
	SubspaceRotationAdjust: set factor to 0.358
ElecMinimize: Iter:  33  F: -860.285101048629485  |grad|_K:  1.076e-08  alpha:  5.975e-01  linmin: -5.312e-08  t[s]:    685.98
ElecMinimize: Converged (|Delta F|<1.000000e-08 for 2 iters).
Setting wave functions to eigenvectors of Hamiltonian
Vacuum energy after initial minimize, F = -860.285101048629485

	Linear fluid (dielectric constant: 78.4, screening length: 5.74355 Bohr) occupying 0.752009 of unit cell:	Completed after 21 iterations at t[s]:    696.24

-------- Electronic minimization -----------
	Linear fluid (dielectric constant: 78.4, screening length: 5.74355 Bohr) occupying 0.752009 of unit cell:	Completed after 0 iterations at t[s]:    703.33
	FillingsUpdate:  mu: -0.162347069  nElectrons: 264.000000
ElecMinimize: Iter:   0  F: -860.282978306039240  |grad|_K:  5.556e-06  alpha:  1.000e+00
	Linear fluid (dielectric constant: 78.4, screening length: 5.74355 Bohr) occupying 0.752422 of unit cell:	Completed after 15 iterations at t[s]:    718.82
	Linear fluid (dielectric constant: 78.4, screening length: 5.74355 Bohr) occupying 0.752154 of unit cell:	Completed after 15 iterations at t[s]:    729.80
	FillingsUpdate:  mu: -0.161754200  nElectrons: 264.000000
	SubspaceRotationAdjust: set factor to 0.26
ElecMinimize: Iter:   1  F: -860.283525195208881  |grad|_K:  4.511e-06  alpha:  3.630e-01  linmin:  6.753e-06  t[s]:    736.39
	Linear fluid (dielectric constant: 78.4, screening length: 5.74355 Bohr) occupying 0.752366 of unit cell:	Completed after 8 iterations at t[s]:    743.86
	Linear fluid (dielectric constant: 78.4, screening length: 5.74355 Bohr) occupying 0.752545 of unit cell:	Completed after 10 iterations at t[s]:    754.80
	FillingsUpdate:  mu: -0.162513790  nElectrons: 264.000000
	SubspaceRotationAdjust: set factor to 0.291
ElecMinimize: Iter:   2  F: -860.284199739656401  |grad|_K:  2.456e-06  alpha:  6.748e-01  linmin: -5.928e-06  t[s]:    761.04
	Linear fluid (dielectric constant: 78.4, screening length: 5.74355 Bohr) occupying 0.752724 of unit cell:	Completed after 12 iterations at t[s]:    768.92
	Linear fluid (dielectric constant: 78.4, screening length: 5.74355 Bohr) occupying 0.752750 of unit cell:	Completed after 3 iterations at t[s]:    777.06
	FillingsUpdate:  mu: -0.160982733  nElectrons: 264.000000
	SubspaceRotationAdjust: set factor to 0.368
ElecMinimize: Iter:   3  F: -860.284431515171377  |grad|_K:  1.551e-06  alpha:  7.738e-01  linmin: -2.667e-06  t[s]:    784.55
	Linear fluid (dielectric constant: 78.4, screening length: 5.74355 Bohr) occupying 0.752834 of unit cell:	Completed after 9 iterations at t[s]:    792.09
	Linear fluid (dielectric constant: 78.4, screening length: 5.74355 Bohr) occupying 0.752830 of unit cell:	Completed after 2 iterations at t[s]:    801.22
	FillingsUpdate:  mu: -0.160696945  nElectrons: 264.000000
	SubspaceRotationAdjust: set factor to 0.489
ElecMinimize: Iter:   4  F: -860.284519519019000  |grad|_K:  8.815e-07  alpha:  7.408e-01  linmin: -1.330e-06  t[s]:    808.28
	Linear fluid (dielectric constant: 78.4, screening length: 5.74355 Bohr) occupying 0.752842 of unit cell:	Completed after 4 iterations at t[s]:    815.16
	Linear fluid (dielectric constant: 78.4, screening length: 5.74355 Bohr) occupying 0.752844 of unit cell:	Completed after 2 iterations at t[s]:    823.27
	FillingsUpdate:  mu: -0.160909356  nElectrons: 264.000000
	SubspaceRotationAdjust: set factor to 0.59
ElecMinimize: Iter:   5  F: -860.284551552054154  |grad|_K:  5.750e-07  alpha:  8.369e-01  linmin: -7.580e-07  t[s]:    830.43
	Linear fluid (dielectric constant: 78.4, screening length: 5.74355 Bohr) occupying 0.752840 of unit cell:	Completed after 3 iterations at t[s]:    836.76
	Linear fluid (dielectric constant: 78.4, screening length: 5.74355 Bohr) occupying 0.752841 of unit cell:	Completed after 2 iterations at t[s]:    846.71
	FillingsUpdate:  mu: -0.160856872  nElectrons: 264.000000
	SubspaceRotationAdjust: set factor to 0.57
ElecMinimize: Iter:   6  F: -860.284560254409939  |grad|_K:  4.189e-07  alpha:  5.353e-01  linmin:  2.739e-06  t[s]:    853.81
	Linear fluid (dielectric constant: 78.4, screening length: 5.74355 Bohr) occupying 0.752835 of unit cell:	Completed after 6 iterations at t[s]:    861.49
	Linear fluid (dielectric constant: 78.4, screening length: 5.74355 Bohr) occupying 0.752839 of unit cell:	Completed after 3 iterations at t[s]:    872.54
	FillingsUpdate:  mu: -0.160771383  nElectrons: 264.000000
	SubspaceRotationAdjust: set factor to 0.364
ElecMinimize: Iter:   7  F: -860.284562340082289  |grad|_K:  3.209e-07  alpha:  2.463e-01  linmin:  8.844e-06  t[s]:    881.89
	Linear fluid (dielectric constant: 78.4, screening length: 5.74355 Bohr) occupying 0.752833 of unit cell:	Completed after 2 iterations at t[s]:    887.89
	Linear fluid (dielectric constant: 78.4, screening length: 5.74355 Bohr) occupying 0.752832 of unit cell:	Completed after 0 iterations at t[s]:    895.06
	FillingsUpdate:  mu: -0.160808636  nElectrons: 264.000000
	SubspaceRotationAdjust: set factor to 0.647
ElecMinimize: Iter:   8  F: -860.284564019925710  |grad|_K:  1.382e-07  alpha:  3.283e-01  linmin: -1.190e-04  t[s]:    902.99
	Linear fluid (dielectric constant: 78.4, screening length: 5.74355 Bohr) occupying 0.752828 of unit cell:	Completed after 2 iterations at t[s]:    907.65
	Linear fluid (dielectric constant: 78.4, screening length: 5.74355 Bohr) occupying 0.752829 of unit cell:	Completed after 0 iterations at t[s]:    916.63
	FillingsUpdate:  mu: -0.160844136  nElectrons: 264.000000
	SubspaceRotationAdjust: set factor to 0.454
ElecMinimize: Iter:   9  F: -860.284564275467346  |grad|_K:  1.739e-07  alpha:  2.716e-01  linmin: -1.779e-04  t[s]:    923.42
	Linear fluid (dielectric constant: 78.4, screening length: 5.74355 Bohr) occupying 0.752823 of unit cell:	Completed after 3 iterations at t[s]:    929.48
	Linear fluid (dielectric constant: 78.4, screening length: 5.74355 Bohr) occupying 0.752825 of unit cell:	Completed after 0 iterations at t[s]:    937.11
	FillingsUpdate:  mu: -0.160850776  nElectrons: 264.000000
	SubspaceRotationAdjust: set factor to 0.225
ElecMinimize: Iter:  10  F: -860.284564594715562  |grad|_K:  7.793e-08  alpha:  1.868e-01  linmin:  9.592e-05  t[s]:    945.01
	Linear fluid (dielectric constant: 78.4, screening length: 5.74355 Bohr) occupying 0.752824 of unit cell:	Completed after 1 iterations at t[s]:    952.06
	Linear fluid (dielectric constant: 78.4, screening length: 5.74355 Bohr) occupying 0.752824 of unit cell:	Completed after 0 iterations at t[s]:    959.83
	FillingsUpdate:  mu: -0.160860233  nElectrons: 264.000000
	SubspaceRotationAdjust: set factor to 0.273
ElecMinimize: Iter:  11  F: -860.284564661321838  |grad|_K:  4.752e-08  alpha:  2.205e-01  linmin: -2.159e-04  t[s]:    969.14
	Linear fluid (dielectric constant: 78.4, screening length: 5.74355 Bohr) occupying 0.752823 of unit cell:	Completed after 0 iterations at t[s]:    974.88
	Linear fluid (dielectric constant: 78.4, screening length: 5.74355 Bohr) occupying 0.752822 of unit cell:	Completed after 0 iterations at t[s]:    981.67
	FillingsUpdate:  mu: -0.160856938  nElectrons: 264.000000
	SubspaceRotationAdjust: set factor to 0.304
ElecMinimize: Iter:  12  F: -860.284564721197512  |grad|_K:  2.879e-08  alpha:  3.171e-01  linmin: -2.110e-04  t[s]:    989.62
	Linear fluid (dielectric constant: 78.4, screening length: 5.74355 Bohr) occupying 0.752822 of unit cell:	Completed after 1 iterations at t[s]:    995.44
	Linear fluid (dielectric constant: 78.4, screening length: 5.74355 Bohr) occupying 0.752822 of unit cell:	Completed after 0 iterations at t[s]:   1003.28
ElecMinimize: 	Step increased F by 2.281888e-08, reducing alpha to 1.087359e-02.
	Linear fluid (dielectric constant: 78.4, screening length: 5.74355 Bohr) occupying 0.752822 of unit cell:	Completed after 0 iterations at t[s]:   1015.80
ElecMinimize: 	Step increased F by 2.811964e-08, reducing alpha to 1.087359e-03.
	Linear fluid (dielectric constant: 78.4, screening length: 5.74355 Bohr) occupying 0.752822 of unit cell:	Completed after 0 iterations at t[s]:   1028.33
ElecMinimize: 	Step increased F by 2.877925e-08, reducing alpha to 1.087359e-04.
ElecMinimize: 	Step failed to reduce F after 3 attempts. Quitting step.
ElecMinimize: 	Undoing step.
	Linear fluid (dielectric constant: 78.4, screening length: 5.74355 Bohr) occupying 0.752822 of unit cell:	Completed after 0 iterations at t[s]:   1040.63
ElecMinimize: 	Step failed: resetting search direction.
	FillingsUpdate:  mu: -0.160858404  nElectrons: 264.000000
	SubspaceRotationAdjust: set factor to 0.267
ElecMinimize: Iter:  13  F: -860.284564692423487  |grad|_K:  5.082e-08  alpha:  1.087e-04
	Linear fluid (dielectric constant: 78.4, screening length: 5.74355 Bohr) occupying 0.752822 of unit cell:	Completed after 0 iterations at t[s]:   1054.58
ElecMinimize: 	Predicted alpha/alphaT>3.000000, increasing alphaT to 9.514443e-01.
	Linear fluid (dielectric constant: 78.4, screening length: 5.74355 Bohr) occupying 0.752822 of unit cell:	Completed after 1 iterations at t[s]:   1062.41
	Linear fluid (dielectric constant: 78.4, screening length: 5.74355 Bohr) occupying 0.752822 of unit cell:	Completed after 3 iterations at t[s]:   1070.79
	FillingsUpdate:  mu: -0.160856656  nElectrons: 264.000000
	SubspaceRotationAdjust: set factor to 0.142
ElecMinimize: Iter:  14  F: -860.284564726657550  |grad|_K:  2.450e-08  alpha:  2.813e-01  linmin:  2.099e-04  t[s]:   1078.86
	Linear fluid (dielectric constant: 78.4, screening length: 5.74355 Bohr) occupying 0.752822 of unit cell:	Completed after 0 iterations at t[s]:   1085.89
ElecMinimize: 	Predicted alpha/alphaT>3.000000, increasing alphaT to 8.438433e-01.
	Linear fluid (dielectric constant: 78.4, screening length: 5.74355 Bohr) occupying 0.752821 of unit cell:	Completed after 0 iterations at t[s]:   1094.03
	Linear fluid (dielectric constant: 78.4, screening length: 5.74355 Bohr) occupying 0.752821 of unit cell:	Completed after 0 iterations at t[s]:   1101.88
	FillingsUpdate:  mu: -0.160855920  nElectrons: 264.000000
	SubspaceRotationAdjust: set factor to 0.211
ElecMinimize: Iter:  15  F: -860.284564762074638  |grad|_K:  2.309e-08  alpha:  1.353e+00  linmin: -6.878e-08  t[s]:   1110.44
	Linear fluid (dielectric constant: 78.4, screening length: 5.74355 Bohr) occupying 0.752819 of unit cell:	Completed after 2 iterations at t[s]:   1116.22
	Linear fluid (dielectric constant: 78.4, screening length: 5.74355 Bohr) occupying 0.752821 of unit cell:	Completed after 0 iterations at t[s]:   1123.75
	FillingsUpdate:  mu: -0.160862852  nElectrons: 264.000000
	SubspaceRotationAdjust: set factor to 0.14
ElecMinimize: Iter:  16  F: -860.284564778083677  |grad|_K:  7.862e-08  alpha:  2.384e-01  linmin:  2.165e-04  t[s]:   1131.78
ElecMinimize: 	Bad step direction: g.d > 0.
ElecMinimize: 	Undoing step.
	Linear fluid (dielectric constant: 78.4, screening length: 5.74355 Bohr) occupying 0.752821 of unit cell:	Completed after 0 iterations at t[s]:   1137.09
ElecMinimize: 	Step failed: resetting search direction.
	FillingsUpdate:  mu: -0.160862852  nElectrons: 264.000000
	SubspaceRotationAdjust: set factor to 0.104
ElecMinimize: Iter:  17  F: -860.284564778083904  |grad|_K:  6.789e-08  alpha:  0.000e+00
	Linear fluid (dielectric constant: 78.4, screening length: 5.74355 Bohr) occupying 0.752821 of unit cell:	Completed after 3 iterations at t[s]:   1150.99
	Linear fluid (dielectric constant: 78.4, screening length: 5.74355 Bohr) occupying 0.752821 of unit cell:	Completed after 0 iterations at t[s]:   1158.83
ElecMinimize: 	Step increased F by 1.546459e-08, reducing alpha to 9.811084e-03.
	Linear fluid (dielectric constant: 78.4, screening length: 5.74355 Bohr) occupying 0.752821 of unit cell:	Completed after 0 iterations at t[s]:   1172.62
ElecMinimize: 	Step increased F by 1.236060e-08, reducing alpha to 9.811084e-04.
	Linear fluid (dielectric constant: 78.4, screening length: 5.74355 Bohr) occupying 0.752821 of unit cell:	Completed after 0 iterations at t[s]:   1184.23
ElecMinimize: 	Step increased F by 1.212970e-08, reducing alpha to 9.811084e-05.
ElecMinimize: 	Step failed to reduce F after 3 attempts. Quitting step.
ElecMinimize: 	Undoing step.
	Linear fluid (dielectric constant: 78.4, screening length: 5.74355 Bohr) occupying 0.752821 of unit cell:	Completed after 0 iterations at t[s]:   1196.59
ElecMinimize: 	Step failed along negative gradient direction.
ElecMinimize: Probably at roundoff error limit. (Stopping)
Setting wave functions to eigenvectors of Hamiltonian
Single-point solvation energy estimate, DeltaF = +0.000536282677899

# Ionic positions in lattice coordinates:
ion Nb   0.083333333333333   0.872972629965407   0.499759981093787 0
ion Nb   0.416666666666666   0.872972629965407   0.499759981093787 0
ion Nb   0.750000000000000   0.872972629965407   0.499759981093787 0
ion Nb   0.250000000000000   0.127027370034593   0.500240018906211 0
ion Nb   0.583333333333333   0.127027370034593   0.500240018906211 0
ion Nb   0.916666666666666   0.127027370034593   0.500240018906211 0
ion Nb   0.083333333333333   0.561172542661630   0.448956186470379 0
ion Nb   0.416666666666666   0.561172542661630   0.448956186470379 0
ion Nb   0.750000000000000   0.561172542661630   0.448956186470379 0
ion Nb   0.250000000000000   0.438827457338370   0.551043813529620 0
ion Nb   0.583333333333333   0.438827457338370   0.551043813529620 0
ion Nb   0.916666666666666   0.438827457338370   0.551043813529620 0
ion Se   0.083333333333333   0.057428685728649   0.402372971795225 0
ion Se   0.416666666666666   0.057428685728649   0.402372971795225 0
ion Se   0.750000000000000   0.057428685728649   0.402372971795225 0
ion Se   0.250000000000000   0.942571314271351   0.597627028204774 0
ion Se   0.583333333333333   0.942571314271351   0.597627028204774 0
ion Se   0.916666666666666   0.942571314271351   0.597627028204774 0
ion Se   0.083333333333333   0.249192989932723   0.593883233792354 0
ion Se   0.416666666666666   0.249192989932723   0.593883233792354 0
ion Se   0.750000000000000   0.249192989932723   0.593883233792354 0
ion Se   0.250000000000000   0.750807010067277   0.406116766207644 0
ion Se   0.583333333333333   0.750807010067277   0.406116766207644 0
ion Se   0.916666666666666   0.750807010067277   0.406116766207644 0
ion Se   0.250000000000000   0.368363399523890   0.418171507945370 0
ion Se   0.583333333333333   0.368363399523890   0.418171507945370 0
ion Se   0.916666666666666   0.368363399523890   0.418171507945370 0
ion Se   0.083333333333333   0.631636600476109   0.581828492054629 0
ion Se   0.416666666666666   0.631636600476109   0.581828492054629 0
ion Se   0.750000000000000   0.631636600476109   0.581828492054629 0


# Forces in Lattice coordinates:
force Nb   0.000000000000000   0.003033254863026   0.008316331981994 0
force Nb   0.000000000000000   0.003033254863033   0.008316331981997 0
force Nb   0.000000000000000   0.003033254863030   0.008316331981997 0
force Nb   0.000000000000000  -0.003033254863034  -0.008316331981997 0
force Nb   0.000000000000000  -0.003033254863026  -0.008316331982001 0
force Nb   0.000000000000000  -0.003033254863023  -0.008316331981994 0
force Nb  -0.000000000000000  -0.032830436775504  -0.120094021636342 0
force Nb   0.000000000000000  -0.032830436775505  -0.120094021636569 0
force Nb   0.000000000000000  -0.032830436775504  -0.120094021636683 0
force Nb  -0.000000000000000   0.032830436775505   0.120094021636683 0
force Nb   0.000000000000000   0.032830436775504   0.120094021636683 0
force Nb  -0.000000000000000   0.032830436775504   0.120094021636455 0
force Se  -0.000000000000000  -0.002581250686511  -0.020044403597174 0
force Se   0.000000000000000  -0.002581250686509  -0.020044403597400 0
force Se   0.000000000000000  -0.002581250686511  -0.020044403597401 0
force Se  -0.000000000000000   0.002581250686512   0.020044403597401 0
force Se  -0.000000000000000   0.002581250686516   0.020044403597401 0
force Se  -0.000000000000000   0.002581250686516   0.020044403597288 0
force Se   0.000000000000000  -0.009077215361457  -0.025517842228030 0
force Se  -0.000000000000000  -0.009077215361453  -0.025517842228030 0
force Se   0.000000000000000  -0.009077215361457  -0.025517842228030 0
force Se   0.000000000000000   0.009077215361453   0.025517842228030 0
force Se   0.000000000000000   0.009077215361453   0.025517842228030 0
force Se  -0.000000000000000   0.009077215361453   0.025517842228030 0
force Se  -0.000000000000000  -0.001464137341988   0.011681203166477 0
force Se   0.000000000000000  -0.001464137341988   0.011681203166477 0
force Se   0.000000000000000  -0.001464137341981   0.011681203166705 0
force Se  -0.000000000000000   0.001464137341988  -0.011681203166591 0
force Se   0.000000000000000   0.001464137341988  -0.011681203166477 0
force Se   0.000000000000000   0.001464137341981  -0.011681203166477 0

# Energy components:
   A_diel =       -0.0017514828882635
   Eewald =     5003.8276237830368700
       EH =     5713.0779780568454953
     Eloc =   -11826.6994667117778590
      Enl =      165.2543639245624263
      Exc =     -378.2949618509569518
 Exc_core =      240.6670514917221908
       KE =      221.9204982935499970
-------------------------------------
     Etot =     -860.2486644959064961
       TS =        0.0359002700451420
-------------------------------------
        F =     -860.2845647659515862

IonicMinimize: Iter:   0  F: -860.284564765951586  |grad|_K:  0.000e+00  t[s]:   1218.82
IonicMinimize: Converged (|grad|_K<1.000000e-04).

#--- Lowdin population analysis ---
# oxidation-state Nb -0.533 -0.533 -0.533 -0.533 -0.533 -0.533 -0.372 -0.372 -0.372 -0.372 -0.372 -0.372
# oxidation-state Se +0.319 +0.319 +0.319 +0.319 +0.319 +0.319 +0.314 +0.314 +0.314 +0.314 +0.314 +0.314 +0.404 +0.404 +0.404 +0.404 +0.404 +0.404


Dumping 'NbTe2.fillings' ... done
Dumping 'NbTe2.wfns' ... done
Dumping 'NbTe2.fluidState' ... done
Dumping 'NbTe2.eigenvals' ... done
End date and time: Fri Jul 17 09:34:04 2020  (Duration: 0-0:20:20.76)
Done!
