
*************** JDFTx 1.5.0  ***************

Start date and time: Sun Jul  5 11:45:53 2020
Executable jdftx_gpu with command-line: -i Charged.in -o Charged.out
Running on hosts (process indices):  amax (0)
Divided in process groups (process indices):  0 (0)
gpuInit: Found compatible cuda device 0 'Tesla K80'
gpuInit: Selected device 0
Resource initialization completed at t[s]:      9.92
Run totals: 1 processes, 24 threads, 1 GPUs


Input parsed successfully to the following command list (including defaults):

basis kpoint-dependent
cache-projectors no
coords-type Lattice
core-overlap-check none
coulomb-interaction Slab 001
coulomb-truncation-embed 0 0 0.5
davidson-band-ratio 1.1
dump End State
dump-name NbTe2.$VAR
elec-cutoff 20 100
elec-eigen-algo Davidson
elec-ex-corr gga-PBE
elec-smearing Gauss 0.0073499
electronic-minimize  \
	dirUpdateScheme      FletcherReeves \
	linminMethod         DirUpdateRecommended \
	nIterations          100 \
	history              15 \
	knormThreshold       0 \
	energyDiffThreshold  1e-08 \
	nEnergyDiff          2 \
	alphaTstart          1 \
	alphaTmin            1e-10 \
	updateTestStepSize   yes \
	alphaTreduceFactor   0.1 \
	alphaTincreaseFactor 3 \
	nAlphaAdjustMax      3 \
	wolfeEnergy          0.0001 \
	wolfeGradient        0.9 \
	fdTest               no
electronic-scf  \
	nIterations	200 \
	energyDiffThreshold	1e-08 \
	residualThreshold	1e-07 \
	mixFraction	0.5 \
	qMetric	0.8 \
	history	10 \
	nEigSteps	2 \
	eigDiffThreshold	1e-08 \
	mixedVariable	Density \
	qKerker	0.8 \
	qKappa	-1 \
	verbose	no \
	mixFractionMag	1.5
exchange-regularization WignerSeitzTruncated
fluid LinearPCM 298.000000 1.013250
fluid-anion F- 1 MeanFieldLJ \
	epsBulk 1 \
	pMol 0 \
	epsInf 1 \
	Pvap 0 \
	sigmaBulk 0 \
	Rvdw 2.24877 \
	Res 0 \
	tauNuc 343133
fluid-cation Na+ 1 MeanFieldLJ \
	epsBulk 1 \
	pMol 0 \
	epsInf 1 \
	Pvap 0 \
	sigmaBulk 0 \
	Rvdw 2.19208 \
	Res 0 \
	tauNuc 343133
fluid-ex-corr lda-TF lda-PZ
fluid-gummel-loop 10 1.000000e-05
fluid-minimize  \
	dirUpdateScheme      PolakRibiere \
	linminMethod         DirUpdateRecommended \
	nIterations          400 \
	history              15 \
	knormThreshold       1e-11 \
	energyDiffThreshold  0 \
	nEnergyDiff          2 \
	alphaTstart          1 \
	alphaTmin            1e-10 \
	updateTestStepSize   yes \
	alphaTreduceFactor   0.1 \
	alphaTincreaseFactor 3 \
	nAlphaAdjustMax      6 \
	wolfeEnergy          0.0001 \
	wolfeGradient        0.9 \
	fdTest               no
fluid-solvent H2O 55.338 ScalarEOS \
	epsBulk 78.4 \
	pMol 0.92466 \
	epsInf 1.77 \
	Pvap 1.06736e-10 \
	sigmaBulk 4.62e-05 \
	Rvdw 2.61727 \
	Res 1.42 \
	tauNuc 343133 \
	poleEl 15 7 1
forces-output-coords Positions
initial-state NbTe2.$VAR
ion Li   0.333220023999999   0.333550008000003   0.500000000000000 0
ion Li   0.833219941999999   0.333550008000003   0.500000000000000 0
ion Li   0.333220027000003   0.833550000000002   0.500000000000000 0
ion Li   0.833220027000003   0.833550000000002   0.500000000000000 0
ion Ni   0.167329991999999   0.165340006000001   0.500000000000000 0
ion Ni   0.667330053999997   0.165340006000001   0.500000000000000 0
ion Ni   0.167329963000000   0.665340020999999   0.500000000000000 0
ion Ni   0.667330045000000   0.665340020999999   0.500000000000000 0
ion P   0.499349969000001   0.499460034000002   0.559999982999997 0
ion P   0.001199993000000   0.499460034000002   0.439999991000000 0
ion P   0.999349969000001   0.499460034000002   0.559999982999997 0
ion P   0.501199993000000   0.499460034000002   0.439999991000000 0
ion P   0.499350043000000   0.999460048000003   0.559999982999997 0
ion P   0.001199984999999   0.999460048000003   0.439999991000000 0
ion P   0.999349961000000   0.999460048000003   0.559999982999997 0
ion P   0.501199985000000   0.999460048000003   0.439999991000000 0
ion S   0.013710001000000   0.323610015000000   0.587220002000002 0
ion S   0.321410008000001   0.162349999000000   0.585420030000002 0
ion S   0.016249991999999   0.162349999000000   0.414579996000001 0
ion S   0.162680012999999   0.323610015000000   0.412779997999998 0
ion S   0.323890003000002   0.015140000000002   0.412519979999999 0
ion S   0.160970001000003   0.015140000000002   0.587480020000001 0
ion S   0.513710021999998   0.323610015000000   0.587220002000002 0
ion S   0.821410008000001   0.162349999000000   0.585420030000002 0
ion S   0.516250032999999   0.162349999000000   0.414579996000001 0
ion S   0.662679971999999   0.323610015000000   0.412779997999998 0
ion S   0.823889983000001   0.015140000000002   0.412519979999999 0
ion S   0.660970001000003   0.015140000000002   0.587480020000001 0
ion S   0.013709949000003   0.823610076999998   0.587220002000002 0
ion S   0.321409987999999   0.662350037000003   0.585420030000002 0
ion S   0.016249971000001   0.662350037000003   0.414579996000001 0
ion S   0.162679939999997   0.823610076999998   0.412779997999998 0
ion S   0.323889983999997   0.515139996000002   0.412519979999999 0
ion S   0.160970001999999   0.515139996000002   0.587480020000001 0
ion S   0.513709990000002   0.823610076999998   0.587220002000002 0
ion S   0.821409987999999   0.662350037000003   0.585420030000002 0
ion S   0.516250012000000   0.662350037000003   0.414579996000001 0
ion S   0.662679939999997   0.823610076999998   0.412779997999998 0
ion S   0.823889983999997   0.515139996000002   0.412519979999999 0
ion S   0.660969960999999   0.515139996000002   0.587480020000001 0
ion-species GBRV/$ID_pbe.uspp
ion-width Ecut
ionic-minimize  \
	dirUpdateScheme      L-BFGS \
	linminMethod         DirUpdateRecommended \
	nIterations          0 \
	history              15 \
	knormThreshold       0.0001 \
	energyDiffThreshold  1e-06 \
	nEnergyDiff          2 \
	alphaTstart          1 \
	alphaTmin            1e-10 \
	updateTestStepSize   yes \
	alphaTreduceFactor   0.1 \
	alphaTincreaseFactor 3 \
	nAlphaAdjustMax      3 \
	wolfeEnergy          0.0001 \
	wolfeGradient        0.9 \
	fdTest               no
kpoint   0.000000000000   0.000000000000   0.000000000000  1.00000000000000
kpoint-folding 3 3 1 
latt-move-scale 1 1 1
latt-scale 1 1 1 
lattice Triclinic 21.9941 22.0864 34.3361 90 90 60.1379
lattice-minimize  \
	dirUpdateScheme      L-BFGS \
	linminMethod         DirUpdateRecommended \
	nIterations          0 \
	history              15 \
	knormThreshold       0 \
	energyDiffThreshold  1e-06 \
	nEnergyDiff          2 \
	alphaTstart          1 \
	alphaTmin            1e-10 \
	updateTestStepSize   yes \
	alphaTreduceFactor   0.1 \
	alphaTincreaseFactor 3 \
	nAlphaAdjustMax      3 \
	wolfeEnergy          0.0001 \
	wolfeGradient        0.9 \
	fdTest               no
lcao-params -1 1e-06 0.0073499
pcm-variant CANDLE
spintype no-spin
subspace-rotation-factor 1 yes
symmetries automatic
symmetry-threshold 0.0001
target-mu -0.24475 no




---------- Setting up symmetries ----------

Found 8 point-group symmetries of the bravais lattice
Found 4 space-group symmetries with basis
Applied RMS atom displacement 5.99288e-07 bohrs to make symmetries exact.

---------- Initializing the Grid ----------
R = 
[    21.9941    10.9971          0  ]
[          0    19.1539          0  ]
[          0          0    34.3361  ]
unit cell volume = 14464.9
G =
[   0.285675  -0.164019          0  ]
[          0   0.328037          0  ]
[          0          0    0.18299  ]
Minimum fftbox size, Smin = [  100  100  156  ]
Chosen fftbox size, S = [  100  100  160  ]

---------- Initializing tighter grid for wavefunction operations ----------
R = 
[    21.9941    10.9971          0  ]
[          0    19.1539          0  ]
[          0          0    34.3361  ]
unit cell volume = 14464.9
G =
[   0.285675  -0.164019          0  ]
[          0   0.328037          0  ]
[          0          0    0.18299  ]
Minimum fftbox size, Smin = [  92  92  140  ]
Chosen fftbox size, S = [  96  96  140  ]

---------- Exchange Correlation functional ----------
Initalized PBE GGA exchange.
Initalized PBE GGA correlation.

---------- Setting up pseudopotentials ----------
Width of ionic core gaussian charges (only for fluid interactions / plotting) set to 0.397384

Reading pseudopotential file '/home/guoxy/vasp/jdftx-1.5.0/build/pseudopotentials/GBRV/li_pbe.uspp':
  Title: Li.  Created by USPP 7.3.6 on 8-4-15
  Reference state energy: -7.100502.  3 valence electrons in orbitals:
    |100>  occupation: 2  eigenvalue: -2.033252
    |200>  occupation: 0.55  eigenvalue: -0.187138
    |210>  occupation: 0  eigenvalue: -0.114272
  lMax: 1  lLocal: 2  QijEcut: 6
  5 projectors sampled on a log grid with 541 points:
    l: 0  eig: -2.033252  rCut: 1.3
    l: 0  eig: -0.187138  rCut: 1.3
    l: 0  eig: 1.000000  rCut: 1.3
    l: 1  eig: -0.114273  rCut: 2.001
    l: 1  eig: 1.000000  rCut: 2.001
  Transforming local potential to a uniform radial grid of dG=0.02 with 1605 points.
  Transforming nonlocal projectors to a uniform radial grid of dG=0.02 with 432 points.
  Transforming density augmentations to a uniform radial grid of dG=0.02 with 1605 points.
  Transforming atomic orbitals to a uniform radial grid of dG=0.02 with 432 points.
  Core radius for overlap checks: 2.00 bohrs.

Reading pseudopotential file '/home/guoxy/vasp/jdftx-1.5.0/build/pseudopotentials/GBRV/ni_pbe.uspp':
  Title: Ni.  Created by USPP 7.3.6 on 1-4-15
  Reference state energy: -170.398381.  18 valence electrons in orbitals:
    |300>  occupation: 2  eigenvalue: -4.804705
    |310>  occupation: 6  eigenvalue: -3.347751
    |320>  occupation: 8  eigenvalue: -1.042415
    |400>  occupation: 0  eigenvalue: -0.795539
    |410>  occupation: 0  eigenvalue: -0.551375
  lMax: 2  lLocal: 3  QijEcut: 6.5
  6 projectors sampled on a log grid with 611 points:
    l: 0  eig: -4.804708  rCut: 1.44
    l: 0  eig: -0.795541  rCut: 1.44
    l: 1  eig: -3.347753  rCut: 1.55
    l: 1  eig: 0.500000  rCut: 1.55
    l: 2  eig: -1.042418  rCut: 1.5
    l: 2  eig: -0.450000  rCut: 1.5
  Partial core density with radius 0.65
  Transforming core density to a uniform radial grid of dG=0.02 with 1605 points.
  Transforming local potential to a uniform radial grid of dG=0.02 with 1605 points.
  Transforming nonlocal projectors to a uniform radial grid of dG=0.02 with 432 points.
  Transforming density augmentations to a uniform radial grid of dG=0.02 with 1605 points.
  Transforming atomic orbitals to a uniform radial grid of dG=0.02 with 432 points.
  Core radius for overlap checks: 1.55 bohrs.

Reading pseudopotential file '/home/guoxy/vasp/jdftx-1.5.0/build/pseudopotentials/GBRV/p_pbe.uspp':
  Title: P.  Created by USPP 7.3.6 on 11-6-15
  Reference state energy: -7.561951.  5 valence electrons in orbitals:
    |300>  occupation: 2  eigenvalue: -0.513368
    |310>  occupation: 3  eigenvalue: -0.202371
  lMax: 2  lLocal: 3  QijEcut: 5
  6 projectors sampled on a log grid with 631 points:
    l: 0  eig: -0.513363  rCut: 1.5
    l: 0  eig: 0.500000  rCut: 1.5
    l: 1  eig: -0.202372  rCut: 1.5
    l: 1  eig: 1.000000  rCut: 1.5
    l: 2  eig: -0.500000  rCut: 1.5
    l: 2  eig: 1.500000  rCut: 1.5
  Partial core density with radius 1.35
  Transforming core density to a uniform radial grid of dG=0.02 with 1605 points.
  Transforming local potential to a uniform radial grid of dG=0.02 with 1605 points.
  Transforming nonlocal projectors to a uniform radial grid of dG=0.02 with 432 points.
  Transforming density augmentations to a uniform radial grid of dG=0.02 with 1605 points.
  Transforming atomic orbitals to a uniform radial grid of dG=0.02 with 432 points.
  Core radius for overlap checks: 1.50 bohrs.

Reading pseudopotential file '/home/guoxy/vasp/jdftx-1.5.0/build/pseudopotentials/GBRV/s_pbe.uspp':
  Title: S.  Created by USPP 7.3.6 on 1-4-15
  Reference state energy: -11.898476.  6 valence electrons in orbitals:
    |300>  occupation: 2  eigenvalue: -0.634167
    |310>  occupation: 4  eigenvalue: -0.257568
  lMax: 2  lLocal: 3  QijEcut: 6
  6 projectors sampled on a log grid with 635 points:
    l: 0  eig: -0.634161  rCut: 1.5
    l: 0  eig: 1.500000  rCut: 1.5
    l: 1  eig: -0.257567  rCut: 1.5
    l: 1  eig: 1.500000  rCut: 1.5
    l: 2  eig: -1.000000  rCut: 1.5
    l: 2  eig: 1.500000  rCut: 1.5
  Partial core density with radius 1.15
  Transforming core density to a uniform radial grid of dG=0.02 with 1605 points.
  Transforming local potential to a uniform radial grid of dG=0.02 with 1605 points.
  Transforming nonlocal projectors to a uniform radial grid of dG=0.02 with 432 points.
  Transforming density augmentations to a uniform radial grid of dG=0.02 with 1605 points.
  Transforming atomic orbitals to a uniform radial grid of dG=0.02 with 432 points.
  Core radius for overlap checks: 1.50 bohrs.

Initialized 4 species with 40 total atoms.

Folded 1 k-points by 3x3x1 to 9 k-points.

---------- Setting up k-points, bands, fillings ----------
Adding inversion symmetry to k-mesh for non-inversion-symmetric unit cell.
Reduced to 5 k-points under symmetry. 
Computing the number of bands and number of electrons
Reading initial fillings from file NbTe2.fillings.
nElectrons: 268.000000   nBands: 200   nStates: 5

----- Setting up reduced wavefunction bases (one per k-point) -----
average nbasis = 61788.111 , ideal nbasis = 61795.097

---------- Setting up coulomb interaction ----------
Fluid mode embedding: using embedded box, but periodic Coulomb kernel.
(Fluid response is responsible for (approximate) separation between periodic images.)
Setting up double-sized grid for truncated Coulomb potentials:
R = 
[    21.9941    10.9971          0  ]
[          0    19.1539          0  ]
[          0          0    68.6723  ]
unit cell volume = 28929.8
G =
[   0.285675  -0.164019          0  ]
[          0   0.328037          0  ]
[          0          0  0.0914952  ]
Chosen fftbox size, S = [  100  100  320  ]
Integer grid location selected as the embedding center:
   Grid: [  0  0  80  ]
   Lattice: [  0  0  0.5  ]
   Cartesian: [  0  0  17.1681  ]
Constructing Wigner-Seitz cell: 8 faces (6 quadrilaterals, 2 hexagons)
Range-separation parameter for embedded mesh potentials due to point charges: 0.592887 bohrs.

Initializing van der Waals corrections
	NOTE: vdW corrections apply only for interactions with fluid.
	Li:  C6:   27.93 Eh-a0^6  R0: 1.559 a0
	Ni:  C6:  187.33 Eh-a0^6  R0: 2.952 a0
	 P:  C6:  135.99 Eh-a0^6  R0: 3.222 a0
	 S:  C6:   96.61 Eh-a0^6  R0: 3.180 a0

---------- Setting up ewald sum ----------
Optimum gaussian width for ewald sums = 6.622395 bohr.
Real space sum over 605 unit cells with max indices [  5  5  2  ]
Reciprocal space sum over 7875 terms with max indices [  7  7  17  ]

---------- Allocating electronic variables ----------
Initializing wave functions:  reading from 'NbTe2.wfns'
----- createFluidSolver() ----- (Fluid-side solver setup)
   Initializing fluid molecule 'H2O'
     Initializing site 'O'
       Electron density: proportional to exp(-r/0.36935)*erfc((r-0.51523)/0.36823) with norm 6.826
       Charge density: gaussian nuclear width 0.478731 with net site charge 0.826
       Polarizability: cuspless exponential with width 0.32 and norm 3.73
       Hard sphere radius: 2.57003 bohrs
       Positions in reference frame:
         [ +0.000000 +0.000000 +0.000000 ]
     Initializing site 'H'
       Electron density: proportional to exp(-r/0.34641)*erfc((r-0)/0.390882) with norm 0.587
       Charge density: gaussian nuclear width 0.377945 with net site charge -0.413
       Polarizability: cuspless exponential with width 0.39 and norm 3.3
       Positions in reference frame:
         [ +0.000000 -1.441945 +1.122523 ]
         [ +0.000000 +1.441945 +1.122523 ]
     Net charge: 0   dipole magnitude: 0.927204
     Initializing spherical shell mfKernel with radius 2.61727 Bohr
     deltaS corrections:
       site 'O': -7.54299
       site 'H': -6.83917
   Initializing fluid molecule 'Na+'
     Initializing site 'Na'
       Electron density: proportional to exp(-r/0.19682)*erfc((r-0.71491)/0.41314) with norm 8.1383
       Charge density: gaussian nuclear width 0.365347 with net site charge -1
       Hard sphere radius: 1.86327 bohrs
       Positions in reference frame:
         [ +0.000000 +0.000000 +0.000000 ]
     Net charge: -1   dipole magnitude: 0
     Initializing gaussian mfKernel with width: 1.55004 Bohr
     deltaS corrections:
       site 'Na': -22.3555
   Initializing fluid molecule 'F-'
     Initializing site 'F'
       Electron density: proportional to exp(-r/0.38886)*erfc((r-0)/0.438782) with norm 8
       Charge density: gaussian nuclear width 0.374796 with net site charge 1
       Hard sphere radius: 2.39995 bohrs
       Positions in reference frame:
         [ +0.000000 +0.000000 +0.000000 ]
     Net charge: 1   dipole magnitude: 0
     Initializing gaussian mfKernel with width: 1.59012 Bohr
     deltaS corrections:
       site 'F': -9.04335

Correction to mu due to finite nuclear width = -0.00919156
   Cavity determined by nc: 0.00142 and sigma: 0.707107
   Nonlocal vdW cavity from gaussian model electron density with norm = 8 and sigma = 0.993594 bohr
   Charge asymmetry in cavity with sensitivity pCavity = 36.5 e-bohr/Eh
   Electrostatic cavity expanded by eta = 1.46 bohrs
   Weighted density cavitation model constrained by Nbulk: 0.0049383 bohr^-3, Pvap: 3.14029 kPa, Rvdw: 2.61727 bohr and sigmaBulk: 4.62e-05 Eh/bohr^2 at T: 298 K.
   Weighted density dispersion model using vdW pair potentials with single solvent site with sqrtC6eff: 0.77 SI.
Reading fluid state from 'NbTe2.fluidState'


---- Citations for features of the code used in this run ----

   Software package:
      R. Sundararaman, K. Letchworth-Weaver, K.A. Schwarz, D. Gunceler, Y. Ozhabes and T.A. Arias, 'JDFTx: software for joint density-functional theory', SoftwareX 6, 278 (2017)

   gga-PBE exchange-correlation functional:
      J.P. Perdew, K. Burke and M. Ernzerhof, Phys. Rev. Lett. 77, 3865 (1996)

   Pseudopotentials:
      KF Garrity, JW Bennett, KM Rabe and D Vanderbilt, Comput. Mater. Sci. 81, 446 (2014)

   Truncated Coulomb potentials:
      R. Sundararaman and T.A. Arias, Phys. Rev. B 87, 165122 (2013)

   Van der Waals correction pair-potentials:
      S. Grimme, J. Comput. Chem. 27, 1787 (2006)

   Charge-asymmetric nonlocally-determined local-electric (CANDLE) solvation model:
      R. Sundararaman and W.A. Goddard III, J. Chem. Phys. 142, 064107 (2015)

   Grand-canonical (fixed-potential) DFT:
      R. Sundararaman, W. A. Goddard III and T. A. Arias, J. Chem. Phys. 146, 114104 (2017)

This list may not be complete. Please suggest additional citations or
report any other bugs at https://github.com/shankar1729/jdftx/issues

Initialization completed successfully at t[s]:     24.38

Shifting auxilliary hamiltonian by -0.046004 to set nElectrons=268.000000
	Linear fluid (dielectric constant: 78.4, screening length: 5.74355 Bohr) occupying 0.755664 of unit cell:	Completed after 0 iterations at t[s]:     30.24

-------- Electronic minimization -----------
Will mix electronic density at each iteration.
	FillingsUpdate:  mu: -0.244750400  nElectrons: 268.000000
	Linear fluid (dielectric constant: 78.4, screening length: 5.74355 Bohr) occupying 0.755664 of unit cell:	Completed after 0 iterations at t[s]:     36.86
	FillingsUpdate:  mu: -0.244750400  nElectrons: 246.753771
	Linear fluid (dielectric constant: 78.4, screening length: 5.74355 Bohr) occupying 0.758335 of unit cell:	Completed after 19 iterations at t[s]:     68.62
SCF: Cycle:  0   G: -934.455841818700037   dG: +1.432e+01   |Residual|: 1.249e+00   |deigs|: 1.971e-08  t[s]:     69.82
	Linear fluid (dielectric constant: 78.4, screening length: 5.74355 Bohr) occupying 0.745733 of unit cell:	Completed after 17 iterations at t[s]:     71.93
	FillingsUpdate:  mu: -0.244750400  nElectrons: 279.999977
	Linear fluid (dielectric constant: 78.4, screening length: 5.74355 Bohr) occupying 0.813223 of unit cell:	Completed after 22 iterations at t[s]:    119.09
SCF: Cycle:  1   G: -934.287747298787394   dG: +1.681e-01   |Residual|: 2.990e+00   |deigs|: 1.723e-01  t[s]:    120.47
	Linear fluid (dielectric constant: 78.4, screening length: 5.74355 Bohr) occupying 0.745594 of unit cell:	Completed after 18 iterations at t[s]:    122.59
	FillingsUpdate:  mu: -0.244750400  nElectrons: 279.431762
	Linear fluid (dielectric constant: 78.4, screening length: 5.74355 Bohr) occupying 0.812542 of unit cell:	Completed after 21 iterations at t[s]:    170.55
SCF: Cycle:  2   G: -941.199989961561414   dG: -6.912e+00   |Residual|: 1.566e+00   |deigs|: 1.099e-01  t[s]:    171.63
	Linear fluid (dielectric constant: 78.4, screening length: 5.74355 Bohr) occupying 0.747286 of unit cell:	Completed after 18 iterations at t[s]:    173.64
	FillingsUpdate:  mu: -0.244750400  nElectrons: 254.144432
	Linear fluid (dielectric constant: 78.4, screening length: 5.74355 Bohr) occupying 0.758170 of unit cell:	Completed after 20 iterations at t[s]:    221.37
SCF: Cycle:  3   G: -932.778837093406082   dG: +8.421e+00   |Residual|: 2.171e+00   |deigs|: 6.319e-02  t[s]:    222.64
	Linear fluid (dielectric constant: 78.4, screening length: 5.74355 Bohr) occupying 0.746143 of unit cell:	Completed after 17 iterations at t[s]:    224.64
	FillingsUpdate:  mu: -0.244750400  nElectrons: 266.644539
	Linear fluid (dielectric constant: 78.4, screening length: 5.74355 Bohr) occupying 0.758222 of unit cell:	Completed after 16 iterations at t[s]:    271.67
SCF: Cycle:  4   G: -948.329973765331943   dG: -1.555e+01   |Residual|: 4.527e-01   |deigs|: 3.175e-02  t[s]:    272.95
	Linear fluid (dielectric constant: 78.4, screening length: 5.74355 Bohr) occupying 0.744528 of unit cell:	Completed after 15 iterations at t[s]:    274.93
	FillingsUpdate:  mu: -0.244750400  nElectrons: 265.804371
	Linear fluid (dielectric constant: 78.4, screening length: 5.74355 Bohr) occupying 0.758289 of unit cell:	Completed after 16 iterations at t[s]:    324.38
SCF: Cycle:  5   G: -948.676256209933172   dG: -3.463e-01   |Residual|: 2.532e-01   |deigs|: 4.673e-03  t[s]:    325.89
	Linear fluid (dielectric constant: 78.4, screening length: 5.74355 Bohr) occupying 0.743510 of unit cell:	Completed after 14 iterations at t[s]:    327.64
	FillingsUpdate:  mu: -0.244750400  nElectrons: 265.272865
	Linear fluid (dielectric constant: 78.4, screening length: 5.74355 Bohr) occupying 0.758333 of unit cell:	Completed after 16 iterations at t[s]:    374.76
SCF: Cycle:  6   G: -948.755340529267642   dG: -7.908e-02   |Residual|: 1.606e-01   |deigs|: 2.880e-03  t[s]:    376.44
	Linear fluid (dielectric constant: 78.4, screening length: 5.74355 Bohr) occupying 0.735949 of unit cell:	Completed after 12 iterations at t[s]:    378.29
	FillingsUpdate:  mu: -0.244750400  nElectrons: 264.926624
	Linear fluid (dielectric constant: 78.4, screening length: 5.74355 Bohr) occupying 0.758523 of unit cell:	Completed after 17 iterations at t[s]:    424.59
SCF: Cycle:  7   G: -948.633401378686472   dG: +1.219e-01   |Residual|: 2.408e-01   |deigs|: 5.341e-03  t[s]:    426.01
	Linear fluid (dielectric constant: 78.4, screening length: 5.74355 Bohr) occupying 0.734139 of unit cell:	Completed after 14 iterations at t[s]:    427.94
	FillingsUpdate:  mu: -0.244750400  nElectrons: 265.009490
	Linear fluid (dielectric constant: 78.4, screening length: 5.74355 Bohr) occupying 0.758598 of unit cell:	Completed after 17 iterations at t[s]:    476.54
SCF: Cycle:  8   G: -948.588712772349936   dG: +4.469e-02   |Residual|: 2.496e-01   |deigs|: 1.363e-03  t[s]:    477.95
	Linear fluid (dielectric constant: 78.4, screening length: 5.74355 Bohr) occupying 0.733577 of unit cell:	Completed after 14 iterations at t[s]:    479.65
	FillingsUpdate:  mu: -0.244750400  nElectrons: 266.896837
	Linear fluid (dielectric constant: 78.4, screening length: 5.74355 Bohr) occupying 0.758666 of unit cell:	Completed after 14 iterations at t[s]:    528.12
SCF: Cycle:  9   G: -948.763659412265952   dG: -1.749e-01   |Residual|: 1.586e-01   |deigs|: 6.275e-03  t[s]:    529.62
	Linear fluid (dielectric constant: 78.4, screening length: 5.74355 Bohr) occupying 0.733579 of unit cell:	Completed after 12 iterations at t[s]:    531.47
	FillingsUpdate:  mu: -0.244750400  nElectrons: 266.798015
	Linear fluid (dielectric constant: 78.4, screening length: 5.74355 Bohr) occupying 0.758713 of unit cell:	Completed after 14 iterations at t[s]:    578.76
SCF: Cycle: 10   G: -948.775601009096590   dG: -1.194e-02   |Residual|: 1.337e-01   |deigs|: 2.897e-04  t[s]:    580.20
	Linear fluid (dielectric constant: 78.4, screening length: 5.74355 Bohr) occupying 0.736864 of unit cell:	Completed after 12 iterations at t[s]:    581.97
	FillingsUpdate:  mu: -0.244750400  nElectrons: 265.624097
	Linear fluid (dielectric constant: 78.4, screening length: 5.74355 Bohr) occupying 0.759211 of unit cell:	Completed after 15 iterations at t[s]:    630.89
SCF: Cycle: 11   G: -948.788597554750368   dG: -1.300e-02   |Residual|: 2.029e-01   |deigs|: 2.615e-03  t[s]:    632.12
	Linear fluid (dielectric constant: 78.4, screening length: 5.74355 Bohr) occupying 0.735548 of unit cell:	Completed after 12 iterations at t[s]:    633.84
	FillingsUpdate:  mu: -0.244750400  nElectrons: 265.976535
	Linear fluid (dielectric constant: 78.4, screening length: 5.74355 Bohr) occupying 0.759299 of unit cell:	Completed after 14 iterations at t[s]:    682.90
SCF: Cycle: 12   G: -948.803345255707995   dG: -1.475e-02   |Residual|: 2.349e-02   |deigs|: 9.500e-04  t[s]:    684.30
	Linear fluid (dielectric constant: 78.4, screening length: 5.74355 Bohr) occupying 0.738638 of unit cell:	Completed after 13 iterations at t[s]:    686.19
	FillingsUpdate:  mu: -0.244750400  nElectrons: 265.742459
	Linear fluid (dielectric constant: 78.4, screening length: 5.74355 Bohr) occupying 0.759881 of unit cell:	Completed after 16 iterations at t[s]:    734.16
SCF: Cycle: 13   G: -948.746401914163471   dG: +5.694e-02   |Residual|: 1.684e-01   |deigs|: 2.531e-03  t[s]:    735.91
	Linear fluid (dielectric constant: 78.4, screening length: 5.74355 Bohr) occupying 0.749418 of unit cell:	Completed after 16 iterations at t[s]:    738.20
	FillingsUpdate:  mu: -0.244750400  nElectrons: 266.630073
	Linear fluid (dielectric constant: 78.4, screening length: 5.74355 Bohr) occupying 0.760060 of unit cell:	Completed after 14 iterations at t[s]:    785.55
SCF: Cycle: 14   G: -948.806971722511776   dG: -6.057e-02   |Residual|: 2.859e-02   |deigs|: 3.009e-03  t[s]:    786.77
	Linear fluid (dielectric constant: 78.4, screening length: 5.74355 Bohr) occupying 0.748385 of unit cell:	Completed after 12 iterations at t[s]:    788.33
	FillingsUpdate:  mu: -0.244750400  nElectrons: 266.408772
	Linear fluid (dielectric constant: 78.4, screening length: 5.74355 Bohr) occupying 0.759932 of unit cell:	Completed after 10 iterations at t[s]:    835.80
SCF: Cycle: 15   G: -948.810713860628880   dG: -3.742e-03   |Residual|: 5.126e-03   |deigs|: 5.671e-04  t[s]:    837.15
	Linear fluid (dielectric constant: 78.4, screening length: 5.74355 Bohr) occupying 0.756096 of unit cell:	Completed after 10 iterations at t[s]:    838.61
	FillingsUpdate:  mu: -0.244750400  nElectrons: 266.379647
	Linear fluid (dielectric constant: 78.4, screening length: 5.74355 Bohr) occupying 0.759736 of unit cell:	Completed after 7 iterations at t[s]:    886.01
SCF: Cycle: 16   G: -948.810715061902783   dG: -1.201e-06   |Residual|: 4.827e-03   |deigs|: 6.836e-04  t[s]:    887.52
	Linear fluid (dielectric constant: 78.4, screening length: 5.74355 Bohr) occupying 0.760086 of unit cell:	Completed after 10 iterations at t[s]:    889.13
	FillingsUpdate:  mu: -0.244750400  nElectrons: 266.525415
	Linear fluid (dielectric constant: 78.4, screening length: 5.74355 Bohr) occupying 0.759855 of unit cell:	Completed after 12 iterations at t[s]:    936.07
SCF: Cycle: 17   G: -948.809922022494447   dG: +7.930e-04   |Residual|: 1.281e-02   |deigs|: 9.976e-04  t[s]:    937.67
	Linear fluid (dielectric constant: 78.4, screening length: 5.74355 Bohr) occupying 0.760624 of unit cell:	Completed after 12 iterations at t[s]:    939.45
	FillingsUpdate:  mu: -0.244750400  nElectrons: 266.147643
	Linear fluid (dielectric constant: 78.4, screening length: 5.74355 Bohr) occupying 0.759786 of unit cell:	Completed after 13 iterations at t[s]:    987.94
SCF: Cycle: 18   G: -948.807619784288363   dG: +2.302e-03   |Residual|: 2.603e-02   |deigs|: 1.307e-03  t[s]:    989.21
	Linear fluid (dielectric constant: 78.4, screening length: 5.74355 Bohr) occupying 0.761367 of unit cell:	Completed after 13 iterations at t[s]:    990.89
	FillingsUpdate:  mu: -0.244750400  nElectrons: 266.292699
	Linear fluid (dielectric constant: 78.4, screening length: 5.74355 Bohr) occupying 0.759874 of unit cell:	Completed after 12 iterations at t[s]:   1039.57
SCF: Cycle: 19   G: -948.810297869467149   dG: -2.678e-03   |Residual|: 1.002e-02   |deigs|: 3.895e-04  t[s]:   1040.87
	Linear fluid (dielectric constant: 78.4, screening length: 5.74355 Bohr) occupying 0.760684 of unit cell:	Completed after 12 iterations at t[s]:   1042.42
	FillingsUpdate:  mu: -0.244750400  nElectrons: 266.292980
	Linear fluid (dielectric constant: 78.4, screening length: 5.74355 Bohr) occupying 0.759823 of unit cell:	Completed after 12 iterations at t[s]:   1088.48
SCF: Cycle: 20   G: -948.810297606948893   dG: +2.625e-07   |Residual|: 8.842e-03   |deigs|: 4.694e-04  t[s]:   1089.55
	Linear fluid (dielectric constant: 78.4, screening length: 5.74355 Bohr) occupying 0.759997 of unit cell:	Completed after 11 iterations at t[s]:   1091.03
	FillingsUpdate:  mu: -0.244750400  nElectrons: 266.401906
	Linear fluid (dielectric constant: 78.4, screening length: 5.74355 Bohr) occupying 0.759790 of unit cell:	Completed after 8 iterations at t[s]:   1137.96
SCF: Cycle: 21   G: -948.810738366647684   dG: -4.408e-04   |Residual|: 2.932e-03   |deigs|: 7.118e-04  t[s]:   1139.28
	Linear fluid (dielectric constant: 78.4, screening length: 5.74355 Bohr) occupying 0.759710 of unit cell:	Completed after 8 iterations at t[s]:   1140.55
	FillingsUpdate:  mu: -0.244750400  nElectrons: 266.388486
	Linear fluid (dielectric constant: 78.4, screening length: 5.74355 Bohr) occupying 0.759769 of unit cell:	Completed after 8 iterations at t[s]:   1187.04
SCF: Cycle: 22   G: -948.810751256236586   dG: -1.289e-05   |Residual|: 1.352e-03   |deigs|: 4.280e-04  t[s]:   1188.18
	Linear fluid (dielectric constant: 78.4, screening length: 5.74355 Bohr) occupying 0.759718 of unit cell:	Completed after 7 iterations at t[s]:   1189.35
	FillingsUpdate:  mu: -0.244750400  nElectrons: 266.419299
	Linear fluid (dielectric constant: 78.4, screening length: 5.74355 Bohr) occupying 0.759773 of unit cell:	Completed after 8 iterations at t[s]:   1237.26
SCF: Cycle: 23   G: -948.810734994267364   dG: +1.626e-05   |Residual|: 1.957e-03   |deigs|: 2.121e-04  t[s]:   1238.49
	Linear fluid (dielectric constant: 78.4, screening length: 5.74355 Bohr) occupying 0.759692 of unit cell:	Completed after 8 iterations at t[s]:   1239.78
	FillingsUpdate:  mu: -0.244750400  nElectrons: 266.384492
	Linear fluid (dielectric constant: 78.4, screening length: 5.74355 Bohr) occupying 0.759765 of unit cell:	Completed after 9 iterations at t[s]:   1286.36
SCF: Cycle: 24   G: -948.810750905674922   dG: -1.591e-05   |Residual|: 8.178e-04   |deigs|: 1.699e-04  t[s]:   1287.70
	Linear fluid (dielectric constant: 78.4, screening length: 5.74355 Bohr) occupying 0.759752 of unit cell:	Completed after 8 iterations at t[s]:   1289.02
	FillingsUpdate:  mu: -0.244750400  nElectrons: 266.404005
	Linear fluid (dielectric constant: 78.4, screening length: 5.74355 Bohr) occupying 0.759771 of unit cell:	Completed after 7 iterations at t[s]:   1336.77
SCF: Cycle: 25   G: -948.810754685088909   dG: -3.779e-06   |Residual|: 3.291e-04   |deigs|: 8.556e-05  t[s]:   1338.01
	Linear fluid (dielectric constant: 78.4, screening length: 5.74355 Bohr) occupying 0.759759 of unit cell:	Completed after 7 iterations at t[s]:   1339.27
	FillingsUpdate:  mu: -0.244750400  nElectrons: 266.401345
	Linear fluid (dielectric constant: 78.4, screening length: 5.74355 Bohr) occupying 0.759770 of unit cell:	Completed after 2 iterations at t[s]:   1386.42
SCF: Cycle: 26   G: -948.810754938157402   dG: -2.531e-07   |Residual|: 5.469e-04   |deigs|: 8.237e-05  t[s]:   1388.15
	Linear fluid (dielectric constant: 78.4, screening length: 5.74355 Bohr) occupying 0.759756 of unit cell:	Completed after 3 iterations at t[s]:   1389.11
	FillingsUpdate:  mu: -0.244750400  nElectrons: 266.382523
	Linear fluid (dielectric constant: 78.4, screening length: 5.74355 Bohr) occupying 0.759768 of unit cell:	Completed after 8 iterations at t[s]:   1435.53
SCF: Cycle: 27   G: -948.810744717468197   dG: +1.022e-05   |Residual|: 1.542e-03   |deigs|: 8.766e-05  t[s]:   1436.96
	Linear fluid (dielectric constant: 78.4, screening length: 5.74355 Bohr) occupying 0.759763 of unit cell:	Completed after 8 iterations at t[s]:   1438.33
	FillingsUpdate:  mu: -0.244750400  nElectrons: 266.402530
	Linear fluid (dielectric constant: 78.4, screening length: 5.74355 Bohr) occupying 0.759770 of unit cell:	Completed after 7 iterations at t[s]:   1483.13
SCF: Cycle: 28   G: -948.810755208378964   dG: -1.049e-05   |Residual|: 2.523e-04   |deigs|: 8.475e-05  t[s]:   1484.80
	Linear fluid (dielectric constant: 78.4, screening length: 5.74355 Bohr) occupying 0.759759 of unit cell:	Completed after 6 iterations at t[s]:   1486.13
	FillingsUpdate:  mu: -0.244750400  nElectrons: 266.395309
	Linear fluid (dielectric constant: 78.4, screening length: 5.74355 Bohr) occupying 0.759769 of unit cell:	Completed after 2 iterations at t[s]:   1527.94
SCF: Cycle: 29   G: -948.810755990912298   dG: -7.825e-07   |Residual|: 7.698e-05   |deigs|: 3.071e-05  t[s]:   1529.15
	Linear fluid (dielectric constant: 78.4, screening length: 5.74355 Bohr) occupying 0.759763 of unit cell:	Completed after 0 iterations at t[s]:   1529.77
	FillingsUpdate:  mu: -0.244750400  nElectrons: 266.399451
	Linear fluid (dielectric constant: 78.4, screening length: 5.74355 Bohr) occupying 0.759771 of unit cell:	Completed after 3 iterations at t[s]:   1577.42
SCF: Cycle: 30   G: -948.810755623646855   dG: +3.673e-07   |Residual|: 3.804e-04   |deigs|: 3.082e-05  t[s]:   1578.49
	Linear fluid (dielectric constant: 78.4, screening length: 5.74355 Bohr) occupying 0.759764 of unit cell:	Completed after 2 iterations at t[s]:   1579.28
	FillingsUpdate:  mu: -0.244750400  nElectrons: 266.393029
	Linear fluid (dielectric constant: 78.4, screening length: 5.74355 Bohr) occupying 0.759769 of unit cell:	Completed after 3 iterations at t[s]:   1625.30
SCF: Cycle: 31   G: -948.810755525251807   dG: +9.840e-08   |Residual|: 3.263e-04   |deigs|: 5.182e-05  t[s]:   1626.53
	Linear fluid (dielectric constant: 78.4, screening length: 5.74355 Bohr) occupying 0.759767 of unit cell:	Completed after 3 iterations at t[s]:   1627.40
	FillingsUpdate:  mu: -0.244750400  nElectrons: 266.408236
	Linear fluid (dielectric constant: 78.4, screening length: 5.74355 Bohr) occupying 0.759772 of unit cell:	Completed after 7 iterations at t[s]:   1673.75
SCF: Cycle: 32   G: -948.810750341155313   dG: +5.184e-06   |Residual|: 9.311e-04   |deigs|: 4.493e-05  t[s]:   1674.99
	Linear fluid (dielectric constant: 78.4, screening length: 5.74355 Bohr) occupying 0.759767 of unit cell:	Completed after 8 iterations at t[s]:   1676.27
	FillingsUpdate:  mu: -0.244750400  nElectrons: 266.396101
	Linear fluid (dielectric constant: 78.4, screening length: 5.74355 Bohr) occupying 0.759770 of unit cell:	Completed after 0 iterations at t[s]:   1719.26
SCF: Cycle: 33   G: -948.810756058385323   dG: -5.717e-06   |Residual|: 1.613e-04   |deigs|: 3.857e-05  t[s]:   1721.11
	Linear fluid (dielectric constant: 78.4, screening length: 5.74355 Bohr) occupying 0.759766 of unit cell:	Completed after 0 iterations at t[s]:   1721.80
	FillingsUpdate:  mu: -0.244750400  nElectrons: 266.396115
	Linear fluid (dielectric constant: 78.4, screening length: 5.74355 Bohr) occupying 0.759770 of unit cell:	Completed after 0 iterations at t[s]:   1754.65
SCF: Cycle: 34   G: -948.810756056661262   dG: +1.724e-09   |Residual|: 1.615e-04   |deigs|: 2.799e-06  t[s]:   1756.04
	Linear fluid (dielectric constant: 78.4, screening length: 5.74355 Bohr) occupying 0.759763 of unit cell:	Completed after 0 iterations at t[s]:   1756.62
	FillingsUpdate:  mu: -0.244750400  nElectrons: 266.396161
	Linear fluid (dielectric constant: 78.4, screening length: 5.74355 Bohr) occupying 0.759770 of unit cell:	Completed after 0 iterations at t[s]:   1802.80
SCF: Cycle: 35   G: -948.810756056878063   dG: -2.168e-10   |Residual|: 1.627e-04   |deigs|: 1.711e-05  t[s]:   1804.29
	Linear fluid (dielectric constant: 78.4, screening length: 5.74355 Bohr) occupying 0.759769 of unit cell:	Completed after 0 iterations at t[s]:   1804.91
	FillingsUpdate:  mu: -0.244750400  nElectrons: 266.396045
	Linear fluid (dielectric constant: 78.4, screening length: 5.74355 Bohr) occupying 0.759770 of unit cell:	Completed after 0 iterations at t[s]:   1849.94
SCF: Cycle: 36   G: -948.810756057597700   dG: -7.196e-10   |Residual|: 1.636e-04   |deigs|: 4.327e-05  t[s]:   1851.16
SCF: Converged (|Delta E|<1.000000e-08 for 2 iters).


# Ionic positions in lattice coordinates:
ion Li   0.333220005000001   0.333550004000003   0.500000000000000 0
ion Li   0.833220005000001   0.333550004000003   0.500000000000000 0
ion Li   0.333220005000001   0.833550004000003   0.500000000000000 0
ion Li   0.833220005000001   0.833550004000003   0.500000000000000 0
ion Ni   0.167330013499999   0.165340013500000   0.500000000000000 0
ion Ni   0.667330013499999   0.165340013500000   0.500000000000000 0
ion Ni   0.167330013499999   0.665340013500000   0.500000000000000 0
ion Ni   0.667330013499999   0.665340013500000   0.500000000000000 0
ion P   0.499349985500000   0.499460041000002   0.559999982999997 0
ion P   0.001199989000000   0.499460041000002   0.439999991000000 0
ion P   0.999349985500000   0.499460041000002   0.559999982999997 0
ion P   0.501199989000000   0.499460041000002   0.439999991000000 0
ion P   0.499349985500000   0.999460041000003   0.559999982999997 0
ion P   0.001199989000000   0.999460041000003   0.439999991000000 0
ion P   0.999349985500000   0.999460041000003   0.559999982999997 0
ion P   0.501199989000000   0.999460041000003   0.439999991000000 0
ion S   0.013709990500001   0.323610045999999   0.587220002000002 0
ion S   0.321409998000000   0.162350018000001   0.585420030000002 0
ion S   0.016250002000000   0.162350018000001   0.414579996000001 0
ion S   0.162679966249998   0.323610045999999   0.412779997999998 0
ion S   0.323889988500000   0.015139998000002   0.412519979999999 0
ion S   0.160969991250001   0.015139998000002   0.587480020000001 0
ion S   0.513709990500001   0.323610045999999   0.587220002000002 0
ion S   0.821409998000000   0.162350018000001   0.585420030000002 0
ion S   0.516250002000000   0.162350018000001   0.414579996000001 0
ion S   0.662679966249998   0.323610045999999   0.412779997999998 0
ion S   0.823889988500000   0.015139998000002   0.412519979999999 0
ion S   0.660969991250001   0.015139998000002   0.587480020000001 0
ion S   0.013709990500001   0.823610045999999   0.587220002000002 0
ion S   0.321409998000000   0.662350018000001   0.585420030000002 0
ion S   0.016250002000000   0.662350018000001   0.414579996000001 0
ion S   0.162679966249998   0.823610045999999   0.412779997999998 0
ion S   0.323889988500000   0.515139998000002   0.412519979999999 0
ion S   0.160969991250001   0.515139998000002   0.587480020000001 0
ion S   0.513709990500001   0.823610045999999   0.587220002000002 0
ion S   0.821409998000000   0.662350018000001   0.585420030000002 0
ion S   0.516250002000000   0.662350018000001   0.414579996000001 0
ion S   0.662679966249998   0.823610045999999   0.412779997999998 0
ion S   0.823889988500000   0.515139998000002   0.412519979999999 0
ion S   0.660969991250001   0.515139998000002   0.587480020000001 0


# Forces in Lattice coordinates:
force Li   0.000089609879245   0.003223283130495  -0.000021919246162 0
force Li   0.000089609879245   0.003223283130495  -0.000021919246162 0
force Li   0.000089609879245   0.003223283130495  -0.000021919246162 0
force Li   0.000089609879245   0.003223283130495  -0.000021919246162 0
force Ni   0.003152736445511   0.016848365979956  -0.000350873365133 0
force Ni   0.003152736445511   0.016848365979956  -0.000350873365133 0
force Ni   0.003152736445511   0.016848365979956  -0.000350873365133 0
force Ni   0.003152736445511   0.016848365979956  -0.000350873365133 0
force P  -0.001391537079920   0.015734468244698  -0.105123130385326 0
force P   0.000507742667110   0.016907802235036   0.104960456749442 0
force P  -0.001391537079920   0.015734468244698  -0.105123130385270 0
force P   0.000507742667110   0.016907802235036   0.104960456749442 0
force P  -0.001391537079920   0.015734468244698  -0.105123130385298 0
force P   0.000507742667110   0.016907802235036   0.104960456749442 0
force P  -0.001391537079920   0.015734468244698  -0.105123130385298 0
force P   0.000507742667110   0.016907802235036   0.104960456749442 0
force S  -0.003501537145327  -0.092194953942655  -0.040898951649587 0
force S  -0.056814938250518   0.000139419113620  -0.007894664464034 0
force S   0.056657047177764   0.056832928748521   0.007627882263707 0
force S   0.003714914373342  -0.088827790886567   0.040462993052583 0
force S  -0.086238676515733  -0.006168042488517   0.041126236926530 0
force S   0.086924467237033   0.080412081129045  -0.040824526259751 0
force S  -0.003501537145327  -0.092194953942655  -0.040898951649587 0
force S  -0.056814938250518   0.000139419113613  -0.007894664463977 0
force S   0.056657047177764   0.056832928748521   0.007627882263707 0
force S   0.003714914373342  -0.088827790886567   0.040462993052584 0
force S  -0.086238676515733  -0.006168042488517   0.041126236926530 0
force S   0.086924467237033   0.080412081129045  -0.040824526259694 0
force S  -0.003501537145327  -0.092194953942655  -0.040898951649587 0
force S  -0.056814938250518   0.000139419113620  -0.007894664464034 0
force S   0.056657047177771   0.056832928748521   0.007627882263593 0
force S   0.003714914373342  -0.088827790886581   0.040462993052470 0
force S  -0.086238676515733  -0.006168042488524   0.041126236926530 0
force S   0.086924467237033   0.080412081129052  -0.040824526259694 0
force S  -0.003501537145327  -0.092194953942655  -0.040898951649587 0
force S  -0.056814938250518   0.000139419113620  -0.007894664463977 0
force S   0.056657047177764   0.056832928748522   0.007627882263593 0
force S   0.003714914373335  -0.088827790886574   0.040462993052641 0
force S  -0.086238676515733  -0.006168042488517   0.041126236926530 0
force S   0.086924467237034   0.080412081129052  -0.040824526259694 0

# Energy components:
   A_diel =       -0.0002540884606307
   Eewald =     4155.5160262512245026
       EH =     4981.2803482830495341
     Eloc =   -10360.0556124717077182
      Enl =      147.7522646691102750
      Exc =     -202.5895782218134684
 Exc_core =       52.9687291392226669
       KE =      211.1390269462066271
  MuShift =        0.0147428510660386
-------------------------------------
     Etot =    -1013.9743066421024196
       TS =        0.0369880488297322
-------------------------------------
        F =    -1014.0112946909321181
      muN =      -65.2005386333344319
-------------------------------------
        G =     -948.8107560575977004

IonicMinimize: Iter:   0  G: -948.810756057597700  |grad|_K:  0.000e+00  t[s]:   1858.75
IonicMinimize: Converged (|grad|_K<1.000000e-04).

#--- Lowdin population analysis ---
# oxidation-state Li -0.477 -0.477 -0.477 -0.477
# oxidation-state Ni -0.369 -0.369 -0.369 -0.369
# oxidation-state P +0.755 +0.754 +0.755 +0.754 +0.755 +0.754 +0.755 +0.754
# oxidation-state S +0.078 +0.095 +0.095 +0.078 +0.084 +0.084 +0.078 +0.095 +0.095 +0.078 +0.084 +0.084 +0.078 +0.095 +0.095 +0.078 +0.084 +0.084 +0.078 +0.095 +0.095 +0.078 +0.084 +0.084


Dumping 'NbTe2.fillings' ... done
Dumping 'NbTe2.wfns' ... done
Dumping 'NbTe2.fluidState' ... done
Dumping 'NbTe2.eigenvals' ... done
End date and time: Sun Jul  5 12:16:58 2020  (Duration: 0-0:31:04.56)
Done!
