
*************** JDFTx 1.5.0  ***************

Start date and time: Sun Sep 27 06:10:08 2020
Executable jdftx_gpu with command-line: -i Charged.in -o Charged.out
Running on hosts (process indices):  amax (0-6)
Divided in process groups (process indices):  0 (0)  1 (1)  2 (2)  3 (3)  4 (4)  5 (5)  6 (6)
gpuInit: Found compatible cuda device 0 'Tesla K80'
gpuInit: Found compatible cuda device 1 'Tesla K80'
gpuInit: Found compatible cuda device 2 'Tesla K80'
gpuInit: Found compatible cuda device 3 'Tesla K80'
gpuInit: Found compatible cuda device 4 'Tesla K80'
gpuInit: Found compatible cuda device 5 'Tesla K80'
gpuInit: Found compatible cuda device 6 'Tesla K80'
gpuInit: Selected device 0
Resource initialization completed at t[s]:     20.67
Run totals: 7 processes, 24 threads, 7 GPUs


Input parsed successfully to the following command list (including defaults):

basis kpoint-dependent
cache-projectors no
coords-type Lattice
core-overlap-check none
coulomb-interaction Slab 001
coulomb-truncation-embed 0 0 0.5
davidson-band-ratio 1.1
dump End State
dump-name NbTe2.$VAR
elec-cutoff 20 100
elec-eigen-algo Davidson
elec-ex-corr gga-PBE
elec-initial-magnetization 30.000000 no
elec-smearing Gauss 0.0073499
electronic-minimize  \
	dirUpdateScheme      FletcherReeves \
	linminMethod         DirUpdateRecommended \
	nIterations          500 \
	history              15 \
	knormThreshold       0 \
	energyDiffThreshold  1e-08 \
	nEnergyDiff          2 \
	alphaTstart          1 \
	alphaTmin            1e-10 \
	updateTestStepSize   yes \
	alphaTreduceFactor   0.1 \
	alphaTincreaseFactor 3 \
	nAlphaAdjustMax      3 \
	wolfeEnergy          0.0001 \
	wolfeGradient        0.9 \
	fdTest               no
exchange-regularization WignerSeitzTruncated
fluid LinearPCM 298.000000 1.013250
fluid-anion F- 1 MeanFieldLJ \
	epsBulk 1 \
	pMol 0 \
	epsInf 1 \
	Pvap 0 \
	sigmaBulk 0 \
	Rvdw 2.24877 \
	Res 0 \
	tauNuc 343133
fluid-cation Na+ 1 MeanFieldLJ \
	epsBulk 1 \
	pMol 0 \
	epsInf 1 \
	Pvap 0 \
	sigmaBulk 0 \
	Rvdw 2.19208 \
	Res 0 \
	tauNuc 343133
fluid-ex-corr lda-TF lda-PZ
fluid-gummel-loop 10 1.000000e-05
fluid-minimize  \
	dirUpdateScheme      PolakRibiere \
	linminMethod         DirUpdateRecommended \
	nIterations          400 \
	history              15 \
	knormThreshold       1e-11 \
	energyDiffThreshold  0 \
	nEnergyDiff          2 \
	alphaTstart          1 \
	alphaTmin            1e-10 \
	updateTestStepSize   yes \
	alphaTreduceFactor   0.1 \
	alphaTincreaseFactor 3 \
	nAlphaAdjustMax      6 \
	wolfeEnergy          0.0001 \
	wolfeGradient        0.9 \
	fdTest               no
fluid-solvent H2O 55.338 ScalarEOS \
	epsBulk 78.4 \
	pMol 0.92466 \
	epsInf 1.77 \
	Pvap 1.06736e-10 \
	sigmaBulk 4.62e-05 \
	Rvdw 2.61727 \
	Res 1.42 \
	tauNuc 343133 \
	poleEl 15 7 1
forces-output-coords Positions
initial-state NbTe2.$VAR
ion Cr   0.166432446975601   0.167550042833483   0.497025359769360 1
ion Cr   0.332422214954455   0.333262617467517   0.499970599616375 1
ion Cr   0.667760810993538   0.165579697524393   0.499902373674690 1
ion Cr   0.834685224535949   0.333392441412721   0.500450420359241 1
ion Cr   0.165530604836894   0.667939881537377   0.500417200561849 1
ion Cr   0.332722241819842   0.835888159348032   0.498780048362163 1
ion Cr   0.667442076496554   0.668591236385360   0.498762364670635 1
ion Cr   0.833686416064908   0.833922667963147   0.496982258248791 1
ion Ge   0.000988710682916  -0.000060310930378   0.433652812115302 1
ion Ge   0.001630495023056  -0.000389491834580   0.564704911337307 1
ion Ge   0.500115543937545   0.001570585205331   0.432814000754179 1
ion Ge   0.500073211717590   0.001452541623430   0.563946231741101 1
ion Ge  -0.000837122269930   0.500883149538089   0.433623762069324 1
ion Ge  -0.001453975475951   0.501206922756954   0.564678278341089 1
ion Ge   0.500103790763687   0.500659292969495   0.459970885339940 1
ion Ge   0.500153594866620   0.503326355481252   0.604421535322067 1
ion Te   0.311612209072394   0.003771235125631   0.592916120243321 1
ion Te   0.003319861342242   0.186209280565453   0.593668569387421 1
ion Te   0.184848278726625   0.312363177675841   0.593395171839230 1
ion Te   0.186802842323012   0.500734602087234   0.405236947577708 1
ion Te   0.500069916118731   0.319365725313040   0.412242659671799 1
ion Te   0.312990257680574   0.188503971568748   0.403196093759536 1
ion Te   0.815248394061323   0.997184258804778   0.593399975058514 1
ion Te   0.500151701873402   0.188027042993578   0.594497224567217 1
ion Te   0.694475637648889   0.305475788743503   0.592786213033814 1
ion Te   0.681549751220118   0.500206187421650   0.411850991790731 1
ion Te  -0.001391692221882   0.314322608037177   0.403505967096157 1
ion Te   0.813436395947502   0.187536926235874   0.405265728477407 1
ion Te   0.305760129328465   0.499926168512234   0.592824649530196 1
ion Te   0.996806165557460   0.689520613128080   0.593625345453364 1
ion Te   0.188862231653600   0.813202482631228   0.594699575884990 1
ion Te   0.187090325011668   0.000802707460449   0.402901396868975 1
ion Te   0.500013945840001   0.814424566123809   0.403296189557329 1
ion Te   0.318670883386364   0.681644028737631   0.411805523446402 1
ion Te   0.811363958878624   0.502011326702377   0.594675263722092 1
ion Te   0.500058803028651   0.697637569805062   0.591675467875030 1
ion Te   0.688557639058984   0.815392163908433   0.592967717078783 1
ion Te   0.687222817982833   0.001360694342702   0.403154998702959 1
ion Te   0.001555071042305   0.812863307001298   0.403514301791272 1
ion Te   0.813110828525392   0.687797129355407   0.402833163226523 1
ion O   0.500357714967147   0.515893423942163   0.703851178897102 1
ion H   0.502039096022293   0.451007502494967   0.727140222178707 1
ion-species GBRV/$ID_pbe.uspp
ion-width Ecut
ionic-minimize  \
	dirUpdateScheme      L-BFGS \
	linminMethod         DirUpdateRecommended \
	nIterations          500 \
	history              15 \
	knormThreshold       0.0001 \
	energyDiffThreshold  1e-06 \
	nEnergyDiff          2 \
	alphaTstart          1 \
	alphaTmin            1e-10 \
	updateTestStepSize   yes \
	alphaTreduceFactor   0.1 \
	alphaTincreaseFactor 3 \
	nAlphaAdjustMax      3 \
	wolfeEnergy          0.0001 \
	wolfeGradient        0.9 \
	fdTest               no
kpoint   0.000000000000   0.000000000000   0.000000000000  1.00000000000000
kpoint-folding 3 3 1 
latt-move-scale 1 1 1
latt-scale 1 1 1 
lattice Triclinic 25.8976 25.8976 34.8552 90 90 60
lattice-minimize  \
	dirUpdateScheme      L-BFGS \
	linminMethod         DirUpdateRecommended \
	nIterations          0 \
	history              15 \
	knormThreshold       0 \
	energyDiffThreshold  1e-06 \
	nEnergyDiff          2 \
	alphaTstart          1 \
	alphaTmin            1e-10 \
	updateTestStepSize   yes \
	alphaTreduceFactor   0.1 \
	alphaTincreaseFactor 3 \
	nAlphaAdjustMax      3 \
	wolfeEnergy          0.0001 \
	wolfeGradient        0.9 \
	fdTest               no
lcao-params -1 1e-06 0.0073499
pcm-variant CANDLE
spintype z-spin
subspace-rotation-factor 1 yes
symmetries automatic
symmetry-threshold 0.0001
target-mu -0.171252 no




---------- Setting up symmetries ----------

Found 24 point-group symmetries of the bravais lattice
Found 1 space-group symmetries with basis
Applied RMS atom displacement 0 bohrs to make symmetries exact.

---------- Initializing the Grid ----------
R = 
[    25.8976    12.9488          0  ]
[          0    22.4279          0  ]
[          0          0    34.8552  ]
unit cell volume = 20244.9
G =
[   0.242617  -0.140075          0  ]
[          0    0.28015          0  ]
[          0          0   0.180265  ]
Minimum fftbox size, Smin = [  120  120  160  ]
Chosen fftbox size, S = [  120  120  160  ]

---------- Initializing tighter grid for wavefunction operations ----------
R = 
[    25.8976    12.9488          0  ]
[          0    22.4279          0  ]
[          0          0    34.8552  ]
unit cell volume = 20244.9
G =
[   0.242617  -0.140075          0  ]
[          0    0.28015          0  ]
[          0          0   0.180265  ]
Minimum fftbox size, Smin = [  108  108  144  ]
Chosen fftbox size, S = [  108  108  144  ]

---------- Exchange Correlation functional ----------
Initalized PBE GGA exchange.
Initalized PBE GGA correlation.

---------- Setting up pseudopotentials ----------
Width of ionic core gaussian charges (only for fluid interactions / plotting) set to 0.397384

Reading pseudopotential file '/home/guoxy/vasp/jdftx-1.5.0/build/pseudopotentials/GBRV/cr_pbe.uspp':
  Title: Cr.  Created by USPP 7.3.6 on 15-6-15
  Reference state energy: -87.029289.  14 valence electrons in orbitals:
    |300>  occupation: 2  eigenvalue: -3.285614
    |310>  occupation: 6  eigenvalue: -2.226709
    |400>  occupation: 1.6  eigenvalue: -0.454946
    |320>  occupation: 3.4  eigenvalue: -0.614185
  lMax: 2  lLocal: 3  QijEcut: 6
  6 projectors sampled on a log grid with 595 points:
    l: 0  eig: -3.285615  rCut: 1.55
    l: 0  eig: -0.454949  rCut: 1.55
    l: 1  eig: -2.226708  rCut: 1.55
    l: 1  eig: 0.500000  rCut: 1.55
    l: 2  eig: -0.614184  rCut: 1.7
    l: 2  eig: 0.500000  rCut: 1.7
  Partial core density with radius 0.75
  Transforming core density to a uniform radial grid of dG=0.02 with 1630 points.
  Transforming local potential to a uniform radial grid of dG=0.02 with 1630 points.
  Transforming nonlocal projectors to a uniform radial grid of dG=0.02 with 432 points.
  Transforming density augmentations to a uniform radial grid of dG=0.02 with 1630 points.
  Transforming atomic orbitals to a uniform radial grid of dG=0.02 with 432 points.
  Core radius for overlap checks: 1.70 bohrs.

Reading pseudopotential file '/home/guoxy/vasp/jdftx-1.5.0/build/pseudopotentials/GBRV/ge_pbe.uspp':
  Title: Ge.  Created by USPP 7.3.6 on 31-3-15
  Reference state energy: -106.660278.  14 valence electrons in orbitals:
    |320>  occupation: 10  eigenvalue: -1.077168
    |400>  occupation: 2  eigenvalue: -0.431112
    |410>  occupation: 2  eigenvalue: -0.143157
  lMax: 2  lLocal: 3  QijEcut: 6
  6 projectors sampled on a log grid with 621 points:
    l: 0  eig: -0.431110  rCut: 1.9
    l: 0  eig: 1.000000  rCut: 1.9
    l: 1  eig: -0.143157  rCut: 1.9
    l: 1  eig: 1.000000  rCut: 1.9
    l: 2  eig: -1.077168  rCut: 1.7
    l: 2  eig: 0.000000  rCut: 1.7
  Partial core density with radius 0.8
  Transforming core density to a uniform radial grid of dG=0.02 with 1630 points.
  Transforming local potential to a uniform radial grid of dG=0.02 with 1630 points.
  Transforming nonlocal projectors to a uniform radial grid of dG=0.02 with 432 points.
  Transforming density augmentations to a uniform radial grid of dG=0.02 with 1630 points.
  Transforming atomic orbitals to a uniform radial grid of dG=0.02 with 432 points.
  Core radius for overlap checks: 2.00 bohrs.

Reading pseudopotential file '/home/guoxy/vasp/jdftx-1.5.0/build/pseudopotentials/GBRV/te_pbe.uspp':
  Title: Te.  Created by USPP 7.3.6 on 14-9-2013
  Reference state energy: -13.134220.  6 valence electrons in orbitals:
    |500>  occupation: 2  eigenvalue: -0.555231
    |510>  occupation: 4  eigenvalue: -0.218781
  lMax: 2  lLocal: 2  QijEcut: 5
  5 projectors sampled on a log grid with 723 points:
    l: 0  eig: -0.555229  rCut: 2.1
    l: 0  eig: 1.000000  rCut: 2.1
    l: 1  eig: -0.218780  rCut: 2.1
    l: 1  eig: 1.000000  rCut: 2.1
    l: 2  eig: 1.000000  rCut: 2.6
  Partial core density with radius 1.8
  Transforming core density to a uniform radial grid of dG=0.02 with 1630 points.
  Transforming local potential to a uniform radial grid of dG=0.02 with 1630 points.
  Transforming nonlocal projectors to a uniform radial grid of dG=0.02 with 432 points.
  Transforming density augmentations to a uniform radial grid of dG=0.02 with 1630 points.
  Transforming atomic orbitals to a uniform radial grid of dG=0.02 with 432 points.
  Core radius for overlap checks: 2.60 bohrs.

Reading pseudopotential file '/home/guoxy/vasp/jdftx-1.5.0/build/pseudopotentials/GBRV/o_pbe.uspp':
  Title: O.  Created by USPP 7.3.6 on 3-2-2014
  Reference state energy: -15.894388.  6 valence electrons in orbitals:
    |200>  occupation: 2  eigenvalue: -0.878823
    |210>  occupation: 4  eigenvalue: -0.332131
  lMax: 2  lLocal: 2  QijEcut: 6
  5 projectors sampled on a log grid with 511 points:
    l: 0  eig: -0.878823  rCut: 1.25
    l: 0  eig: 0.000000  rCut: 1.25
    l: 1  eig: -0.332132  rCut: 1.25
    l: 1  eig: 0.000000  rCut: 1.25
    l: 2  eig: 1.000000  rCut: 1.25
  Partial core density with radius 0.7
  Transforming core density to a uniform radial grid of dG=0.02 with 1630 points.
  Transforming local potential to a uniform radial grid of dG=0.02 with 1630 points.
  Transforming nonlocal projectors to a uniform radial grid of dG=0.02 with 432 points.
  Transforming density augmentations to a uniform radial grid of dG=0.02 with 1630 points.
  Transforming atomic orbitals to a uniform radial grid of dG=0.02 with 432 points.
  Core radius for overlap checks: 1.25 bohrs.

Reading pseudopotential file '/home/guoxy/vasp/jdftx-1.5.0/build/pseudopotentials/GBRV/h_pbe.uspp':
  Title: H.  Created by USPP 7.3.6 on 2-4-15
  Reference state energy: -0.458849.  1 valence electrons in orbitals:
    |100>  occupation: 1  eigenvalue: -0.238595
  lMax: 0  lLocal: 1  QijEcut: 6
  2 projectors sampled on a log grid with 395 points:
    l: 0  eig: -0.238595  rCut: 1.2
    l: 0  eig: 1.000000  rCut: 1.2
  Transforming local potential to a uniform radial grid of dG=0.02 with 1630 points.
  Transforming nonlocal projectors to a uniform radial grid of dG=0.02 with 432 points.
  Transforming density augmentations to a uniform radial grid of dG=0.02 with 1630 points.
  Transforming atomic orbitals to a uniform radial grid of dG=0.02 with 432 points.
  Core radius for overlap checks: 1.20 bohrs.

Initialized 5 species with 42 total atoms.

Folded 1 k-points by 3x3x1 to 9 k-points.

---------- Setting up k-points, bands, fillings ----------
Adding inversion symmetry to k-mesh for non-inversion-symmetric unit cell.
Reduced to 5 k-points under symmetry. 
Computing the number of bands and number of electrons
Calculating initial fillings.
nElectrons: 375.000000   nBands: 253   nStates: 10

----- Setting up reduced wavefunction bases (one per k-point) -----
average nbasis = 86467.889 , ideal nbasis = 86487.914

---------- Setting up coulomb interaction ----------
Fluid mode embedding: using embedded box, but periodic Coulomb kernel.
(Fluid response is responsible for (approximate) separation between periodic images.)
Setting up double-sized grid for truncated Coulomb potentials:
R = 
[    25.8976    12.9488          0  ]
[          0    22.4279          0  ]
[          0          0    69.7105  ]
unit cell volume = 40489.9
G =
[   0.242617  -0.140075          0  ]
[          0    0.28015          0  ]
[          0          0  0.0901326  ]
Chosen fftbox size, S = [  120  120  320  ]
Integer grid location selected as the embedding center:
   Grid: [  0  0  80  ]
   Lattice: [  0  0  0.5  ]
   Cartesian: [  0  0  17.4276  ]
Constructing Wigner-Seitz cell: 8 faces (6 quadrilaterals, 2 hexagons)
Range-separation parameter for embedded mesh potentials due to point charges: 0.588822 bohrs.

Initializing van der Waals corrections
	NOTE: vdW corrections apply only for interactions with fluid.
	Cr:  C6:  187.33 Eh-a0^6  R0: 2.952 a0
	Ge:  C6:  296.60 Eh-a0^6  R0: 3.264 a0
	Te:  C6:  550.54 Eh-a0^6  R0: 3.575 a0
	 O:  C6:   12.14 Eh-a0^6  R0: 2.536 a0
	 H:  C6:    2.43 Eh-a0^6  R0: 1.892 a0

---------- Setting up ewald sum ----------
Optimum gaussian width for ewald sums = 7.347687 bohr.
Real space sum over 847 unit cells with max indices [  5  5  3  ]
Reciprocal space sum over 7425 terms with max indices [  7  7  16  ]

---------- Allocating electronic variables ----------
Initializing wave functions:  linear combination of atomic orbitals
Cr pseudo-atom occupations:   s ( 2 0 )  p ( 6 )  d ( 6 )
Ge pseudo-atom occupations:   s ( 2 )  p ( 2 )  d ( 10 )
Te pseudo-atom occupations:   s ( 2 )  p ( 4 )
O pseudo-atom occupations:   s ( 2 )  p ( 4 )
H pseudo-atom occupations:   s ( 1 )
	FillingsUpdate:  mu: -0.171251800  nElectrons: 375.000000  magneticMoment: [ Abs: 4.73348  Tot: +4.72803 ]
LCAOMinimize: Iter:   0  G: -1442.9712466489313556  |grad|_K:  1.892e-02  alpha:  1.000e+00
	FillingsUpdate:  mu: -0.171251800  nElectrons: 375.000000  magneticMoment: [ Abs: 1.37954  Tot: +1.28825 ]
LCAOMinimize: Iter:   1  G: -1443.6405475435929020  |grad|_K:  3.185e-02  alpha:  2.524e-01  linmin:  8.923e-03  cgtest: -1.144e+00  t[s]:     87.76
	FillingsUpdate:  mu: -0.171251800  nElectrons: 375.000000  magneticMoment: [ Abs: 2.71283  Tot: +2.68401 ]
LCAOMinimize: Iter:   2  G: -1522.7922452500986310  |grad|_K:  1.886e-02  alpha:  3.762e-02  linmin:  5.249e-02  cgtest:  7.478e-01  t[s]:    108.57
LCAOMinimize: Encountered beta<0, resetting CG.
LCAOMinimize: 	Wrong curvature in test step, increasing alphaT to 1.128675e-01.
	FillingsUpdate:  mu: -0.171251800  nElectrons: 375.000000  magneticMoment: [ Abs: 2.08399  Tot: +1.99954 ]
LCAOMinimize: Iter:   3  G: -1532.1277145439189553  |grad|_K:  2.202e-02  alpha: -2.308e-01  linmin: -1.335e-01  cgtest:  6.726e-01  t[s]:    129.63
LCAOMinimize: 	Step increased G by 1.527308e+02, reducing alpha to 2.492291e-02.
	FillingsUpdate:  mu: -0.171251800  nElectrons: 375.000000  magneticMoment: [ Abs: 4.30477  Tot: +4.23555 ]
LCAOMinimize: Iter:   4  G: -1549.8134090264320548  |grad|_K:  1.951e-02  alpha:  2.492e-02  linmin: -1.539e-01  cgtest:  7.028e-01  t[s]:    164.88
LCAOMinimize: 	Wrong curvature in test step, increasing alphaT to 7.476874e-02.
	FillingsUpdate:  mu: -0.171251800  nElectrons: 375.000000  magneticMoment: [ Abs: 2.27363  Tot: +2.07080 ]
LCAOMinimize: Iter:   5  G: -1559.8080859314959525  |grad|_K:  2.366e-02  alpha: -6.325e-02  linmin: -2.171e-01  cgtest:  6.702e-01  t[s]:    185.81
LCAOMinimize: 	Step increased G by 3.277718e+02, reducing alpha to 3.224233e-02.
	FillingsUpdate:  mu: -0.171251800  nElectrons: 375.000000  magneticMoment: [ Abs: 2.06085  Tot: +1.73567 ]
LCAOMinimize: Iter:   6  G: -1591.7621112600393189  |grad|_K:  1.902e-02  alpha:  3.224e-02  linmin: -4.739e-02  cgtest:  9.630e-03  t[s]:    221.71
	FillingsUpdate:  mu: -0.171251800  nElectrons: 375.000000  magneticMoment: [ Abs: 2.17848  Tot: +1.83440 ]
LCAOMinimize: Iter:   7  G: -1592.7680163858287870  |grad|_K:  1.329e-02  alpha:  4.984e-03  linmin: -5.538e-03  cgtest:  7.946e-01  t[s]:    244.13
LCAOMinimize: Encountered beta<0, resetting CG.
LCAOMinimize: 	Predicted alpha/alphaT>3.000000, increasing alphaT to 1.495342e-02.
	FillingsUpdate:  mu: -0.171251800  nElectrons: 375.000000  magneticMoment: [ Abs: 2.01837  Tot: +1.69215 ]
LCAOMinimize: Iter:   8  G: -1593.9104542668887916  |grad|_K:  1.222e-02  alpha:  2.015e-02  linmin:  3.048e-03  cgtest:  1.299e-02  t[s]:    273.10
	FillingsUpdate:  mu: -0.171251800  nElectrons: 375.000000  magneticMoment: [ Abs: 1.61781  Tot: +1.37745 ]
LCAOMinimize: Iter:   9  G: -1596.3841794818952167  |grad|_K:  7.431e-03  alpha:  4.757e-02  linmin: -3.158e-02  cgtest: -2.648e-01  t[s]:    294.67
LCAOMinimize: 	Step increased G by 4.792573e+00, reducing alpha to 1.168759e-02.
	FillingsUpdate:  mu: -0.171251800  nElectrons: 375.000000  magneticMoment: [ Abs: 1.67166  Tot: +1.45690 ]
LCAOMinimize: Iter:  10  G: -1596.9954538361612322  |grad|_K:  8.312e-03  alpha:  1.169e-02  linmin: -1.977e-01  cgtest:  3.724e-01  t[s]:    331.12
LCAOMinimize: 	Wrong curvature in test step, increasing alphaT to 3.506277e-02.
	FillingsUpdate:  mu: -0.171251800  nElectrons: 375.000000  magneticMoment: [ Abs: 1.62262  Tot: +1.42651 ]
LCAOMinimize: Iter:  11  G: -1598.8745505175429571  |grad|_K:  5.986e-03  alpha: -2.067e-02  linmin: -4.191e-02  cgtest:  5.388e-01  t[s]:    351.97
LCAOMinimize: 	Step increased G by 6.778854e+00, reducing alpha to 1.324134e-02.
	FillingsUpdate:  mu: -0.171251800  nElectrons: 375.000000  magneticMoment: [ Abs: 1.61532  Tot: +1.41898 ]
LCAOMinimize: Iter:  12  G: -1599.0638956174336727  |grad|_K:  3.585e-03  alpha:  1.324e-02  linmin: -4.572e-02  cgtest:  1.647e-01  t[s]:    388.94
LCAOMinimize: 	Predicted alpha/alphaT>3.000000, increasing alphaT to 3.972401e-02.
	FillingsUpdate:  mu: -0.171251800  nElectrons: 375.000000  magneticMoment: [ Abs: 1.59580  Tot: +1.45115 ]
LCAOMinimize: Iter:  13  G: -1599.4972742032052793  |grad|_K:  6.155e-03  alpha:  8.878e-02  linmin: -6.122e-03  cgtest: -2.933e-01  t[s]:    416.54
	FillingsUpdate:  mu: -0.171251800  nElectrons: 375.000000  magneticMoment: [ Abs: 1.60672  Tot: +1.48091 ]
LCAOMinimize: Iter:  14  G: -1599.6959645768065457  |grad|_K:  2.571e-03  alpha:  9.591e-03  linmin: -6.281e-02  cgtest:  9.198e-01  t[s]:    438.09
LCAOMinimize: Encountered beta<0, resetting CG.
	FillingsUpdate:  mu: -0.171251800  nElectrons: 375.000000  magneticMoment: [ Abs: 1.61627  Tot: +1.49447 ]
LCAOMinimize: Iter:  15  G: -1599.7211681713733924  |grad|_K:  1.606e-03  alpha:  1.181e-02  linmin: -9.222e-04  cgtest: -8.034e-04  t[s]:    460.03
LCAOMinimize: 	Predicted alpha/alphaT>3.000000, increasing alphaT to 3.542004e-02.
LCAOMinimize: 	Predicted alpha/alphaT>3.000000, increasing alphaT to 1.062601e-01.
	FillingsUpdate:  mu: -0.171251800  nElectrons: 375.000000  magneticMoment: [ Abs: 1.99861  Tot: +1.94827 ]
LCAOMinimize: Iter:  16  G: -1599.7952706490857508  |grad|_K:  4.076e-03  alpha:  3.010e-01  linmin:  1.526e-01  cgtest: -2.157e-01  t[s]:    495.28
LCAOMinimize: 	Bad step direction: g.d > 0.
LCAOMinimize: 	Undoing step.
LCAOMinimize: 	Step failed: resetting search direction.
	FillingsUpdate:  mu: -0.171251800  nElectrons: 375.000000  magneticMoment: [ Abs: 1.99861  Tot: +1.94827 ]
LCAOMinimize: Iter:  17  G: -1599.7952706490857508  |grad|_K:  4.076e-03  alpha:  0.000e+00
LCAOMinimize: 	Step increased G by 5.453288e-02, reducing alpha to 3.380478e-03.
	FillingsUpdate:  mu: -0.171251800  nElectrons: 375.000000  magneticMoment: [ Abs: 2.01060  Tot: +1.96088 ]
LCAOMinimize: Iter:  18  G: -1599.8272925188459794  |grad|_K:  3.192e-03  alpha:  3.380e-03  linmin: -3.294e-01  cgtest:  9.933e-01  t[s]:    546.42
LCAOMinimize: Encountered beta<0, resetting CG.
LCAOMinimize: 	Predicted alpha/alphaT>3.000000, increasing alphaT to 1.014143e-02.
	FillingsUpdate:  mu: -0.171251800  nElectrons: 375.000000  magneticMoment: [ Abs: 2.07454  Tot: +2.02816 ]
LCAOMinimize: Iter:  19  G: -1599.8899284469669055  |grad|_K:  2.650e-03  alpha:  1.888e-02  linmin: -4.673e-03  cgtest:  1.141e-01  t[s]:    574.68
	FillingsUpdate:  mu: -0.171251800  nElectrons: 375.000000  magneticMoment: [ Abs: 2.26996  Tot: +2.23169 ]
LCAOMinimize: Iter:  20  G: -1599.9702390141178512  |grad|_K:  1.280e-03  alpha:  3.317e-02  linmin: -3.645e-02  cgtest: -2.363e-01  t[s]:    596.28
	FillingsUpdate:  mu: -0.171251800  nElectrons: 375.000000  magneticMoment: [ Abs: 2.40257  Tot: +2.36665 ]
LCAOMinimize: Iter:  21  G: -1599.9832703956601563  |grad|_K:  1.007e-03  alpha:  2.120e-02  linmin:  3.474e-03  cgtest: -3.827e-01  t[s]:    617.39
	FillingsUpdate:  mu: -0.171251800  nElectrons: 375.000000  magneticMoment: [ Abs: 2.74791  Tot: +2.71455 ]
LCAOMinimize: Iter:  22  G: -1599.9938528296113418  |grad|_K:  8.772e-04  alpha:  3.355e-02  linmin:  2.477e-03  cgtest:  3.329e-01  t[s]:    638.56
	FillingsUpdate:  mu: -0.171251800  nElectrons: 375.000000  magneticMoment: [ Abs: 2.88622  Tot: +2.85303 ]
LCAOMinimize: Iter:  23  G: -1599.9971690923168808  |grad|_K:  4.813e-04  alpha:  1.343e-02  linmin:  7.034e-03  cgtest: -2.843e-02  t[s]:    660.40
LCAOMinimize: 	Predicted alpha/alphaT>3.000000, increasing alphaT to 4.030184e-02.
LCAOMinimize: 	Predicted alpha/alphaT>3.000000, increasing alphaT to 1.209055e-01.
	FillingsUpdate:  mu: -0.171251800  nElectrons: 375.000000  magneticMoment: [ Abs: 3.83315  Tot: +3.79755 ]
LCAOMinimize: Iter:  24  G: -1600.0049037223284358  |grad|_K:  9.774e-04  alpha:  1.042e-01  linmin:  8.777e-03  cgtest: -3.780e-02  t[s]:    694.74
	FillingsUpdate:  mu: -0.171251800  nElectrons: 375.000000  magneticMoment: [ Abs: 4.56219  Tot: +4.52372 ]
LCAOMinimize: Iter:  25  G: -1600.0099286643544474  |grad|_K:  6.770e-04  alpha:  1.585e-02  linmin:  1.379e-02  cgtest:  1.675e-01  t[s]:    715.80
LCAOMinimize: 	Wrong curvature in test step, increasing alphaT to 4.753533e-02.
	FillingsUpdate:  mu: -0.171251800  nElectrons: 375.000000  magneticMoment: [ Abs: 4.98889  Tot: +4.94848 ]
LCAOMinimize: Iter:  26  G: -1600.0152804242820821  |grad|_K:  6.753e-04  alpha: -3.350e-02  linmin: -1.401e-01  cgtest:  9.297e-01  t[s]:    737.76
	FillingsUpdate:  mu: -0.171251800  nElectrons: 375.000000  magneticMoment: [ Abs: 6.00176  Tot: +5.95726 ]
LCAOMinimize: Iter:  27  G: -1600.0258395527503126  |grad|_K:  1.828e-03  alpha:  7.686e-02  linmin:  3.210e-02  cgtest: -2.057e-01  t[s]:    758.86
	FillingsUpdate:  mu: -0.171251800  nElectrons: 375.000000  magneticMoment: [ Abs: 7.00274  Tot: +6.95093 ]
LCAOMinimize: Iter:  28  G: -1600.0350255317262054  |grad|_K:  1.921e-03  alpha:  8.648e-03  linmin: -2.852e-03  cgtest:  9.754e-01  t[s]:    780.93
	FillingsUpdate:  mu: -0.171251800  nElectrons: 375.000000  magneticMoment: [ Abs: 7.30014  Tot: +7.24410 ]
LCAOMinimize: Iter:  29  G: -1600.0489443817557458  |grad|_K:  9.460e-04  alpha:  1.189e-02  linmin:  7.436e-02  cgtest: -1.742e-01  t[s]:    801.58
LCAOMinimize: 	Wrong curvature in test step, increasing alphaT to 3.565736e-02.
	FillingsUpdate:  mu: -0.171251800  nElectrons: 375.000000  magneticMoment: [ Abs: 7.59049  Tot: +7.52948 ]
LCAOMinimize: Iter:  30  G: -1600.0557025599091503  |grad|_K:  9.169e-04  alpha: -5.830e-02  linmin: -1.872e-01  cgtest:  9.883e-01  t[s]:    823.28
LCAOMinimize: Encountered beta<0, resetting CG.
LCAOMinimize: None of the convergence criteria satisfied after 30 iterations.
----- createFluidSolver() ----- (Fluid-side solver setup)
   Initializing fluid molecule 'H2O'
     Initializing site 'O'
       Electron density: proportional to exp(-r/0.36935)*erfc((r-0.51523)/0.36823) with norm 6.826
       Charge density: gaussian nuclear width 0.478731 with net site charge 0.826
       Polarizability: cuspless exponential with width 0.32 and norm 3.73
       Hard sphere radius: 2.57003 bohrs
       Positions in reference frame:
         [ +0.000000 +0.000000 +0.000000 ]
     Initializing site 'H'
       Electron density: proportional to exp(-r/0.34641)*erfc((r-0)/0.390882) with norm 0.587
       Charge density: gaussian nuclear width 0.377945 with net site charge -0.413
       Polarizability: cuspless exponential with width 0.39 and norm 3.3
       Positions in reference frame:
         [ +0.000000 -1.441945 +1.122523 ]
         [ +0.000000 +1.441945 +1.122523 ]
     Net charge: 0   dipole magnitude: 0.927204
     Initializing spherical shell mfKernel with radius 2.61727 Bohr
     deltaS corrections:
       site 'O': -7.54299
       site 'H': -6.83917
   Initializing fluid molecule 'Na+'
     Initializing site 'Na'
       Electron density: proportional to exp(-r/0.19682)*erfc((r-0.71491)/0.41314) with norm 8.1383
       Charge density: gaussian nuclear width 0.365347 with net site charge -1
       Hard sphere radius: 1.86327 bohrs
       Positions in reference frame:
         [ +0.000000 +0.000000 +0.000000 ]
     Net charge: -1   dipole magnitude: 0
     Initializing gaussian mfKernel with width: 1.55004 Bohr
     deltaS corrections:
       site 'Na': -22.3555
   Initializing fluid molecule 'F-'
     Initializing site 'F'
       Electron density: proportional to exp(-r/0.38886)*erfc((r-0)/0.438782) with norm 8
       Charge density: gaussian nuclear width 0.374796 with net site charge 1
       Hard sphere radius: 2.39995 bohrs
       Positions in reference frame:
         [ +0.000000 +0.000000 +0.000000 ]
     Net charge: 1   dipole magnitude: 0
     Initializing gaussian mfKernel with width: 1.59012 Bohr
     deltaS corrections:
       site 'F': -9.04335

Correction to mu due to finite nuclear width = -0.00918934
   Cavity determined by nc: 0.00142 and sigma: 0.707107
   Nonlocal vdW cavity from gaussian model electron density with norm = 8 and sigma = 0.993594 bohr
   Charge asymmetry in cavity with sensitivity pCavity = 36.5 e-bohr/Eh
   Electrostatic cavity expanded by eta = 1.46 bohrs
   Weighted density cavitation model constrained by Nbulk: 0.0049383 bohr^-3, Pvap: 3.14029 kPa, Rvdw: 2.61727 bohr and sigmaBulk: 4.62e-05 Eh/bohr^2 at T: 298 K.
   Weighted density dispersion model using vdW pair potentials with single solvent site with sqrtC6eff: 0.77 SI.


---- Citations for features of the code used in this run ----

   Software package:
      R. Sundararaman, K. Letchworth-Weaver, K.A. Schwarz, D. Gunceler, Y. Ozhabes and T.A. Arias, 'JDFTx: software for joint density-functional theory', SoftwareX 6, 278 (2017)

   gga-PBE exchange-correlation functional:
      J.P. Perdew, K. Burke and M. Ernzerhof, Phys. Rev. Lett. 77, 3865 (1996)

   Pseudopotentials:
      KF Garrity, JW Bennett, KM Rabe and D Vanderbilt, Comput. Mater. Sci. 81, 446 (2014)

   Truncated Coulomb potentials:
      R. Sundararaman and T.A. Arias, Phys. Rev. B 87, 165122 (2013)

   Van der Waals correction pair-potentials:
      S. Grimme, J. Comput. Chem. 27, 1787 (2006)

   Charge-asymmetric nonlocally-determined local-electric (CANDLE) solvation model:
      R. Sundararaman and W.A. Goddard III, J. Chem. Phys. 142, 064107 (2015)

   Total energy minimization with Auxiliary Hamiltonian:
      C. Freysoldt, S. Boeck, and J. Neugebauer, Phys. Rev. B 79, 241103(R) (2009)

   Grand-canonical (fixed-potential) DFT:
      R. Sundararaman, W. A. Goddard III and T. A. Arias, J. Chem. Phys. 146, 114104 (2017)

This list may not be complete. Please suggest additional citations or
report any other bugs at https://github.com/shankar1729/jdftx/issues

Initialization completed successfully at t[s]:    827.26

Fluid solver invoked on fresh (partially random / LCAO) wavefunctions
Running a vacuum solve first:

-------- Initial electronic minimization -----------
	FillingsUpdate:  mu: -0.155538016  nElectrons: 375.000000  magneticMoment: [ Abs: 7.59049  Tot: +7.52948 ]
ElecMinimize: Iter:   0  G: -1600.096915366360236  |grad|_K:  1.068e-04  alpha:  1.000e+00
	FillingsUpdate:  mu: -0.094724753  nElectrons: 375.000000  magneticMoment: [ Abs: 12.27411  Tot: +12.06108 ]
	SubspaceRotationAdjust: set factor to 0.511
ElecMinimize: Iter:   1  G: -1600.434168614127884  |grad|_K:  5.469e-04  alpha:  3.368e-01  linmin:  2.310e-03  t[s]:    873.41
ElecMinimize: 	Step increased G by 4.525432e-02, reducing alpha to 2.268924e-03.
	FillingsUpdate:  mu: -0.088685297  nElectrons: 375.000000  magneticMoment: [ Abs: 13.10107  Tot: +12.85766 ]
	SubspaceRotationAdjust: set factor to 0.267
ElecMinimize: Iter:   2  G: -1600.611546890152340  |grad|_K:  3.650e-04  alpha:  2.269e-03  linmin: -3.469e-03  t[s]:    919.92
ElecMinimize: 	Predicted alpha/alphaT>3.000000, increasing alphaT to 6.806772e-03.
	FillingsUpdate:  mu: -0.084096636  nElectrons: 375.000000  magneticMoment: [ Abs: 15.89085  Tot: +15.56604 ]
	SubspaceRotationAdjust: set factor to 0.262
ElecMinimize: Iter:   3  G: -1601.349072042464968  |grad|_K:  1.001e-04  alpha:  1.546e-02  linmin: -1.012e-03  t[s]:    957.86
ElecMinimize: 	Predicted alpha/alphaT>3.000000, increasing alphaT to 4.639438e-02.
	FillingsUpdate:  mu: -0.072335055  nElectrons: 375.000000  magneticMoment: [ Abs: 16.78661  Tot: +16.41779 ]
	SubspaceRotationAdjust: set factor to 0.215
ElecMinimize: Iter:   4  G: -1601.498047560792202  |grad|_K:  7.872e-05  alpha:  5.553e-02  linmin: -3.694e-04  t[s]:    994.40
ElecMinimize: 	Predicted alpha/alphaT>3.000000, increasing alphaT to 1.665997e-01.
	FillingsUpdate:  mu: -0.070449914  nElectrons: 375.000000  magneticMoment: [ Abs: 19.41046  Tot: +18.78362 ]
	SubspaceRotationAdjust: set factor to 0.128
	SubspaceRotationAdjust: resetting CG because factor has changed by 0.127818
ElecMinimize: 	State modified externally: resetting search direction.
ElecMinimize: Iter:   5  G: -1601.867017227534916  |grad|_K:  7.958e-05  alpha:  2.374e-01
	FillingsUpdate:  mu: -0.055793665  nElectrons: 375.000000  magneticMoment: [ Abs: 19.96536  Tot: +19.30630 ]
	SubspaceRotationAdjust: set factor to 0.16
ElecMinimize: Iter:   6  G: -1602.090595505260808  |grad|_K:  3.075e-05  alpha:  1.684e-01  linmin: -9.191e-04  t[s]:   1078.22
ElecMinimize: 	Predicted alpha/alphaT>3.000000, increasing alphaT to 5.052101e-01.
	FillingsUpdate:  mu: -0.112150193  nElectrons: 375.000000  magneticMoment: [ Abs: 21.28632  Tot: +20.37236 ]
	SubspaceRotationAdjust: set factor to 0.162
ElecMinimize: Iter:   7  G: -1602.259051513012082  |grad|_K:  2.934e-05  alpha:  7.825e-01  linmin: -5.186e-04  t[s]:   1116.55
	FillingsUpdate:  mu: -0.099694171  nElectrons: 375.000000  magneticMoment: [ Abs: 22.61173  Tot: +21.31080 ]
	SubspaceRotationAdjust: set factor to 0.158
ElecMinimize: Iter:   8  G: -1602.358438386461557  |grad|_K:  2.850e-05  alpha:  5.242e-01  linmin: -4.576e-05  t[s]:   1145.07
	FillingsUpdate:  mu: -0.097729139  nElectrons: 375.000000  magneticMoment: [ Abs: 23.92223  Tot: +22.08194 ]
	SubspaceRotationAdjust: set factor to 0.155
ElecMinimize: Iter:   9  G: -1602.436603494385963  |grad|_K:  1.673e-05  alpha:  4.448e-01  linmin: -2.586e-04  t[s]:   1173.55
	FillingsUpdate:  mu: -0.095235040  nElectrons: 375.000000  magneticMoment: [ Abs: 24.71531  Tot: +22.44922 ]
	SubspaceRotationAdjust: set factor to 0.198
ElecMinimize: Iter:  10  G: -1602.467149880029183  |grad|_K:  1.269e-05  alpha:  4.786e-01  linmin: -3.308e-05  t[s]:   1202.16
	FillingsUpdate:  mu: -0.084883458  nElectrons: 375.000000  magneticMoment: [ Abs: 25.64475  Tot: +22.79253 ]
	SubspaceRotationAdjust: set factor to 0.185
ElecMinimize: Iter:  11  G: -1602.488311768607218  |grad|_K:  1.035e-05  alpha:  5.889e-01  linmin: -2.524e-04  t[s]:   1229.69
	FillingsUpdate:  mu: -0.096905593  nElectrons: 375.000000  magneticMoment: [ Abs: 26.84517  Tot: +23.11964 ]
	SubspaceRotationAdjust: set factor to 0.196
ElecMinimize: Iter:  12  G: -1602.508155363488640  |grad|_K:  9.432e-06  alpha:  7.991e-01  linmin: -1.171e-04  t[s]:   1257.09
	FillingsUpdate:  mu: -0.100762761  nElectrons: 375.000000  magneticMoment: [ Abs: 27.54184  Tot: +23.26886 ]
	SubspaceRotationAdjust: set factor to 0.205
ElecMinimize: Iter:  13  G: -1602.516828003995215  |grad|_K:  6.161e-06  alpha:  4.334e-01  linmin:  2.122e-05  t[s]:   1285.70
	FillingsUpdate:  mu: -0.098783714  nElectrons: 375.000000  magneticMoment: [ Abs: 28.29734  Tot: +23.38652 ]
	SubspaceRotationAdjust: set factor to 0.218
ElecMinimize: Iter:  14  G: -1602.522849042659345  |grad|_K:  4.754e-06  alpha:  7.268e-01  linmin: -1.554e-05  t[s]:   1313.63
	FillingsUpdate:  mu: -0.100173264  nElectrons: 375.000000  magneticMoment: [ Abs: 28.82670  Tot: +23.44326 ]
	SubspaceRotationAdjust: set factor to 0.229
ElecMinimize: Iter:  15  G: -1602.525918475019807  |grad|_K:  4.112e-06  alpha:  6.182e-01  linmin: -5.623e-06  t[s]:   1341.96
	FillingsUpdate:  mu: -0.097934587  nElectrons: 375.000000  magneticMoment: [ Abs: 29.33579  Tot: +23.48666 ]
	SubspaceRotationAdjust: set factor to 0.253
ElecMinimize: Iter:  16  G: -1602.528009418391093  |grad|_K:  2.601e-06  alpha:  5.634e-01  linmin:  6.472e-06  t[s]:   1369.59
	FillingsUpdate:  mu: -0.098658203  nElectrons: 375.000000  magneticMoment: [ Abs: 29.67551  Tot: +23.50028 ]
	SubspaceRotationAdjust: set factor to 0.267
ElecMinimize: Iter:  17  G: -1602.529001819388668  |grad|_K:  2.280e-06  alpha:  6.696e-01  linmin: -3.232e-05  t[s]:   1398.29
	FillingsUpdate:  mu: -0.098129467  nElectrons: 375.000000  magneticMoment: [ Abs: 29.96647  Tot: +23.50755 ]
	SubspaceRotationAdjust: set factor to 0.276
ElecMinimize: Iter:  18  G: -1602.529621369238157  |grad|_K:  1.800e-06  alpha:  5.414e-01  linmin: -2.363e-06  t[s]:   1425.89
	FillingsUpdate:  mu: -0.097942890  nElectrons: 375.000000  magneticMoment: [ Abs: 30.23650  Tot: +23.50556 ]
	SubspaceRotationAdjust: set factor to 0.29
ElecMinimize: Iter:  19  G: -1602.530069294692794  |grad|_K:  1.350e-06  alpha:  6.310e-01  linmin:  9.325e-08  t[s]:   1454.27
	FillingsUpdate:  mu: -0.098462735  nElectrons: 375.000000  magneticMoment: [ Abs: 30.37923  Tot: +23.49971 ]
	SubspaceRotationAdjust: set factor to 0.301
ElecMinimize: Iter:  20  G: -1602.530272724418410  |grad|_K:  9.831e-07  alpha:  5.096e-01  linmin: -2.334e-06  t[s]:   1483.07
	FillingsUpdate:  mu: -0.098023605  nElectrons: 375.000000  magneticMoment: [ Abs: 30.48797  Tot: +23.49350 ]
	SubspaceRotationAdjust: set factor to 0.307
ElecMinimize: Iter:  21  G: -1602.530395469531868  |grad|_K:  7.034e-07  alpha:  5.793e-01  linmin:  2.523e-06  t[s]:   1510.27
	FillingsUpdate:  mu: -0.098350423  nElectrons: 375.000000  magneticMoment: [ Abs: 30.53783  Tot: +23.48617 ]
	SubspaceRotationAdjust: set factor to 0.298
ElecMinimize: Iter:  22  G: -1602.530452932994876  |grad|_K:  4.806e-07  alpha:  5.304e-01  linmin: -8.822e-07  t[s]:   1538.40
	FillingsUpdate:  mu: -0.098150531  nElectrons: 375.000000  magneticMoment: [ Abs: 30.56515  Tot: +23.48152 ]
	SubspaceRotationAdjust: set factor to 0.273
ElecMinimize: Iter:  23  G: -1602.530480252181633  |grad|_K:  3.502e-07  alpha:  5.397e-01  linmin:  6.331e-08  t[s]:   1566.97
	FillingsUpdate:  mu: -0.098211387  nElectrons: 375.000000  magneticMoment: [ Abs: 30.57452  Tot: +23.47791 ]
	SubspaceRotationAdjust: set factor to 0.242
ElecMinimize: Iter:  24  G: -1602.530492613154820  |grad|_K:  2.181e-07  alpha:  4.600e-01  linmin:  3.456e-07  t[s]:   1596.29
	FillingsUpdate:  mu: -0.098242338  nElectrons: 375.000000  magneticMoment: [ Abs: 30.57611  Tot: +23.47566 ]
	SubspaceRotationAdjust: set factor to 0.228
ElecMinimize: Iter:  25  G: -1602.530498404388709  |grad|_K:  1.625e-07  alpha:  5.555e-01  linmin:  4.084e-07  t[s]:   1622.88
	FillingsUpdate:  mu: -0.098195405  nElectrons: 375.000000  magneticMoment: [ Abs: 30.57499  Tot: +23.47422 ]
	SubspaceRotationAdjust: set factor to 0.235
ElecMinimize: Iter:  26  G: -1602.530501403056405  |grad|_K:  1.100e-07  alpha:  5.184e-01  linmin:  5.658e-08  t[s]:   1650.98
	FillingsUpdate:  mu: -0.098245669  nElectrons: 375.000000  magneticMoment: [ Abs: 30.57089  Tot: +23.47308 ]
	SubspaceRotationAdjust: set factor to 0.255
ElecMinimize: Iter:  27  G: -1602.530502990694004  |grad|_K:  7.851e-08  alpha:  5.985e-01  linmin: -4.357e-08  t[s]:   1680.38
	FillingsUpdate:  mu: -0.098220588  nElectrons: 375.000000  magneticMoment: [ Abs: 30.56700  Tot: +23.47259 ]
	SubspaceRotationAdjust: set factor to 0.282
ElecMinimize: Iter:  28  G: -1602.530503764811556  |grad|_K:  6.098e-08  alpha:  5.733e-01  linmin:  1.345e-07  t[s]:   1708.90
	FillingsUpdate:  mu: -0.098241960  nElectrons: 375.000000  magneticMoment: [ Abs: 30.56219  Tot: +23.47220 ]
	SubspaceRotationAdjust: set factor to 0.316
ElecMinimize: Iter:  29  G: -1602.530504229068583  |grad|_K:  4.817e-08  alpha:  5.698e-01  linmin: -2.772e-08  t[s]:   1736.61
	FillingsUpdate:  mu: -0.098242959  nElectrons: 375.000000  magneticMoment: [ Abs: 30.55720  Tot: +23.47205 ]
	SubspaceRotationAdjust: set factor to 0.331
ElecMinimize: Iter:  30  G: -1602.530504528777783  |grad|_K:  3.887e-08  alpha:  5.895e-01  linmin:  2.059e-07  t[s]:   1765.60
	FillingsUpdate:  mu: -0.098232020  nElectrons: 375.000000  magneticMoment: [ Abs: 30.55308  Tot: +23.47204 ]
	SubspaceRotationAdjust: set factor to 0.329
ElecMinimize: Iter:  31  G: -1602.530504696470643  |grad|_K:  2.954e-08  alpha:  5.065e-01  linmin:  8.071e-08  t[s]:   1794.15
	FillingsUpdate:  mu: -0.098244229  nElectrons: 375.000000  magneticMoment: [ Abs: 30.54906  Tot: +23.47209 ]
	SubspaceRotationAdjust: set factor to 0.334
ElecMinimize: Iter:  32  G: -1602.530504802331734  |grad|_K:  2.183e-08  alpha:  5.536e-01  linmin: -9.403e-08  t[s]:   1822.28
	FillingsUpdate:  mu: -0.098234198  nElectrons: 375.000000  magneticMoment: [ Abs: 30.54621  Tot: +23.47225 ]
	SubspaceRotationAdjust: set factor to 0.314
ElecMinimize: Iter:  33  G: -1602.530504861486634  |grad|_K:  1.713e-08  alpha:  5.664e-01  linmin:  6.776e-08  t[s]:   1850.00
	FillingsUpdate:  mu: -0.098239517  nElectrons: 375.000000  magneticMoment: [ Abs: 30.54410  Tot: +23.47235 ]
	SubspaceRotationAdjust: set factor to 0.308
ElecMinimize: Iter:  34  G: -1602.530504894082924  |grad|_K:  1.225e-08  alpha:  5.068e-01  linmin:  2.645e-08  t[s]:   1877.10
	FillingsUpdate:  mu: -0.098238780  nElectrons: 375.000000  magneticMoment: [ Abs: 30.54276  Tot: +23.47245 ]
	SubspaceRotationAdjust: set factor to 0.307
ElecMinimize: Iter:  35  G: -1602.530504911966545  |grad|_K:  9.147e-09  alpha:  5.442e-01  linmin:  2.682e-08  t[s]:   1905.42
	FillingsUpdate:  mu: -0.098236880  nElectrons: 375.000000  magneticMoment: [ Abs: 30.54200  Tot: +23.47252 ]
	SubspaceRotationAdjust: set factor to 0.289
ElecMinimize: Iter:  36  G: -1602.530504921396414  |grad|_K:  6.802e-09  alpha:  5.145e-01  linmin: -2.996e-08  t[s]:   1933.20
	FillingsUpdate:  mu: -0.098238586  nElectrons: 375.000000  magneticMoment: [ Abs: 30.54154  Tot: +23.47256 ]
	SubspaceRotationAdjust: set factor to 0.286
ElecMinimize: Iter:  37  G: -1602.530504926677850  |grad|_K:  4.687e-09  alpha:  5.227e-01  linmin:  7.672e-08  t[s]:   1961.74
ElecMinimize: Converged (|Delta G|<1.000000e-08 for 2 iters).
Setting wave functions to eigenvectors of Hamiltonian
Vacuum energy after initial minimize, F = -1602.530504926677850

Shifting auxilliary hamiltonian by -0.073013 to set nElectrons=375.000000
	Linear fluid (dielectric constant: 78.4, screening length: 5.74355 Bohr) occupying 0.734933 of unit cell:	Completed after 21 iterations at t[s]:   1971.99

-------- Electronic minimization -----------
	Linear fluid (dielectric constant: 78.4, screening length: 5.74355 Bohr) occupying 0.734933 of unit cell:	Completed after 0 iterations at t[s]:   1981.57
	FillingsUpdate:  mu: -0.171251800  nElectrons: 375.000000  magneticMoment: [ Abs: 30.54204  Tot: +23.47260 ]
ElecMinimize: Iter:   0  G: -1602.523724465291252  |grad|_K:  2.079e-06  alpha:  1.000e+00
	Linear fluid (dielectric constant: 78.4, screening length: 5.74355 Bohr) occupying 0.735375 of unit cell:	Completed after 15 iterations at t[s]:   2005.19
	Linear fluid (dielectric constant: 78.4, screening length: 5.74355 Bohr) occupying 0.735337 of unit cell:	Completed after 7 iterations at t[s]:   2017.64
	FillingsUpdate:  mu: -0.171251800  nElectrons: 375.066880  magneticMoment: [ Abs: 30.55219  Tot: +23.50001 ]
	SubspaceRotationAdjust: set factor to 0.245
ElecMinimize: Iter:   1  G: -1602.524590572027819  |grad|_K:  1.620e-06  alpha:  9.160e-01  linmin: -1.612e-04  t[s]:   2029.97
	Linear fluid (dielectric constant: 78.4, screening length: 5.74355 Bohr) occupying 0.735655 of unit cell:	Completed after 14 iterations at t[s]:   2041.54
	Linear fluid (dielectric constant: 78.4, screening length: 5.74355 Bohr) occupying 0.735502 of unit cell:	Completed after 13 iterations at t[s]:   2055.72
	FillingsUpdate:  mu: -0.171251800  nElectrons: 375.029720  magneticMoment: [ Abs: 30.54268  Tot: +23.48705 ]
	SubspaceRotationAdjust: set factor to 0.2
ElecMinimize: Iter:   2  G: -1602.524865010687790  |grad|_K:  1.140e-06  alpha:  4.735e-01  linmin: -1.532e-05  t[s]:   2067.68
	Linear fluid (dielectric constant: 78.4, screening length: 5.74355 Bohr) occupying 0.735631 of unit cell:	Completed after 6 iterations at t[s]:   2077.63
	Linear fluid (dielectric constant: 78.4, screening length: 5.74355 Bohr) occupying 0.735625 of unit cell:	Completed after 2 iterations at t[s]:   2088.76
	FillingsUpdate:  mu: -0.171251800  nElectrons: 375.019449  magneticMoment: [ Abs: 30.54760  Tot: +23.48513 ]
	SubspaceRotationAdjust: set factor to 0.235
ElecMinimize: Iter:   3  G: -1602.524993036900923  |grad|_K:  7.561e-07  alpha:  4.493e-01  linmin:  2.081e-06  t[s]:   2100.64
	Linear fluid (dielectric constant: 78.4, screening length: 5.74355 Bohr) occupying 0.735703 of unit cell:	Completed after 8 iterations at t[s]:   2110.71
	Linear fluid (dielectric constant: 78.4, screening length: 5.74355 Bohr) occupying 0.735745 of unit cell:	Completed after 6 iterations at t[s]:   2123.23
	FillingsUpdate:  mu: -0.171251800  nElectrons: 375.020452  magneticMoment: [ Abs: 30.55097  Tot: +23.48670 ]
	SubspaceRotationAdjust: set factor to 0.27
ElecMinimize: Iter:   4  G: -1602.525080379390374  |grad|_K:  4.417e-07  alpha:  6.969e-01  linmin: -3.872e-05  t[s]:   2136.10
	Linear fluid (dielectric constant: 78.4, screening length: 5.74355 Bohr) occupying 0.735795 of unit cell:	Completed after 4 iterations at t[s]:   2145.51
	Linear fluid (dielectric constant: 78.4, screening length: 5.74355 Bohr) occupying 0.735802 of unit cell:	Completed after 2 iterations at t[s]:   2157.25
	FillingsUpdate:  mu: -0.171251800  nElectrons: 375.012130  magneticMoment: [ Abs: 30.55194  Tot: +23.48523 ]
	SubspaceRotationAdjust: set factor to 0.322
ElecMinimize: Iter:   5  G: -1602.525114308196407  |grad|_K:  3.294e-07  alpha:  7.913e-01  linmin: -6.952e-05  t[s]:   2170.63
	Linear fluid (dielectric constant: 78.4, screening length: 5.74355 Bohr) occupying 0.735837 of unit cell:	Completed after 8 iterations at t[s]:   2180.98
	Linear fluid (dielectric constant: 78.4, screening length: 5.74355 Bohr) occupying 0.735824 of unit cell:	Completed after 3 iterations at t[s]:   2192.32
	FillingsUpdate:  mu: -0.171251800  nElectrons: 375.002586  magneticMoment: [ Abs: 30.55047  Tot: +23.48212 ]
	SubspaceRotationAdjust: set factor to 0.287
ElecMinimize: Iter:   6  G: -1602.525126361331786  |grad|_K:  2.716e-07  alpha:  5.001e-01  linmin:  1.415e-04  t[s]:   2204.19
	Linear fluid (dielectric constant: 78.4, screening length: 5.74355 Bohr) occupying 0.735851 of unit cell:	Completed after 6 iterations at t[s]:   2214.73
	Linear fluid (dielectric constant: 78.4, screening length: 5.74355 Bohr) occupying 0.735846 of unit cell:	Completed after 2 iterations at t[s]:   2225.90
	FillingsUpdate:  mu: -0.171251800  nElectrons: 375.002427  magneticMoment: [ Abs: 30.55239  Tot: +23.48242 ]
	SubspaceRotationAdjust: set factor to 0.241
ElecMinimize: Iter:   7  G: -1602.525132764937553  |grad|_K:  1.526e-07  alpha:  4.081e-01  linmin:  5.035e-06  t[s]:   2238.04
	Linear fluid (dielectric constant: 78.4, screening length: 5.74355 Bohr) occupying 0.735855 of unit cell:	Completed after 2 iterations at t[s]:   2247.00
	Linear fluid (dielectric constant: 78.4, screening length: 5.74355 Bohr) occupying 0.735859 of unit cell:	Completed after 1 iterations at t[s]:   2259.03
	FillingsUpdate:  mu: -0.171251800  nElectrons: 374.999133  magneticMoment: [ Abs: 30.55247  Tot: +23.48131 ]
	SubspaceRotationAdjust: set factor to 0.268
ElecMinimize: Iter:   8  G: -1602.525135826627775  |grad|_K:  9.979e-08  alpha:  5.953e-01  linmin: -4.447e-04  t[s]:   2271.19
	Linear fluid (dielectric constant: 78.4, screening length: 5.74355 Bohr) occupying 0.735867 of unit cell:	Completed after 3 iterations at t[s]:   2280.43
	Linear fluid (dielectric constant: 78.4, screening length: 5.74355 Bohr) occupying 0.735865 of unit cell:	Completed after 0 iterations at t[s]:   2291.69
	FillingsUpdate:  mu: -0.171251800  nElectrons: 374.997545  magneticMoment: [ Abs: 30.55262  Tot: +23.48079 ]
	SubspaceRotationAdjust: set factor to 0.284
ElecMinimize: Iter:   9  G: -1602.525136883574987  |grad|_K:  6.815e-08  alpha:  4.632e-01  linmin:  1.111e-04  t[s]:   2304.06
	Linear fluid (dielectric constant: 78.4, screening length: 5.74355 Bohr) occupying 0.735869 of unit cell:	Completed after 0 iterations at t[s]:   2312.54
	Linear fluid (dielectric constant: 78.4, screening length: 5.74355 Bohr) occupying 0.735871 of unit cell:	Completed after 1 iterations at t[s]:   2324.91
	FillingsUpdate:  mu: -0.171251800  nElectrons: 374.997356  magneticMoment: [ Abs: 30.55299  Tot: +23.48072 ]
	SubspaceRotationAdjust: set factor to 0.296
ElecMinimize: Iter:  10  G: -1602.525137327556649  |grad|_K:  6.000e-08  alpha:  6.573e-01  linmin:  8.704e-04  t[s]:   2337.11
	Linear fluid (dielectric constant: 78.4, screening length: 5.74355 Bohr) occupying 0.735877 of unit cell:	Completed after 2 iterations at t[s]:   2346.02
	Linear fluid (dielectric constant: 78.4, screening length: 5.74355 Bohr) occupying 0.735875 of unit cell:	Completed after 0 iterations at t[s]:   2357.65
	FillingsUpdate:  mu: -0.171251800  nElectrons: 374.997497  magneticMoment: [ Abs: 30.55307  Tot: +23.48066 ]
	SubspaceRotationAdjust: set factor to 0.266
ElecMinimize: Iter:  11  G: -1602.525137537319551  |grad|_K:  4.054e-08  alpha:  3.709e-01  linmin:  3.974e-04  t[s]:   2369.94
	Linear fluid (dielectric constant: 78.4, screening length: 5.74355 Bohr) occupying 0.735876 of unit cell:	Completed after 0 iterations at t[s]:   2378.39
	Linear fluid (dielectric constant: 78.4, screening length: 5.74355 Bohr) occupying 0.735877 of unit cell:	Completed after 0 iterations at t[s]:   2389.53
	FillingsUpdate:  mu: -0.171251800  nElectrons: 374.997317  magneticMoment: [ Abs: 30.55325  Tot: +23.48049 ]
	SubspaceRotationAdjust: set factor to 0.338
ElecMinimize: Iter:  12  G: -1602.525137712001651  |grad|_K:  3.441e-08  alpha:  5.445e-01  linmin:  4.324e-07  t[s]:   2402.23
	Linear fluid (dielectric constant: 78.4, screening length: 5.74355 Bohr) occupying 0.735879 of unit cell:	Completed after 1 iterations at t[s]:   2411.01
	Linear fluid (dielectric constant: 78.4, screening length: 5.74355 Bohr) occupying 0.735877 of unit cell:	Completed after 1 iterations at t[s]:   2422.61
ElecMinimize: 	Step increased G by 8.193524e-08, reducing alpha to 1.180802e-02.
	Linear fluid (dielectric constant: 78.4, screening length: 5.74355 Bohr) occupying 0.735877 of unit cell:	Completed after 0 iterations at t[s]:   2442.41
ElecMinimize: 	Step increased G by 3.653463e-08, reducing alpha to 1.180802e-03.
	Linear fluid (dielectric constant: 78.4, screening length: 5.74355 Bohr) occupying 0.735877 of unit cell:	Completed after 0 iterations at t[s]:   2461.62
ElecMinimize: 	Step increased G by 3.257765e-08, reducing alpha to 1.180802e-04.
ElecMinimize: 	Step failed to reduce G after 3 attempts. Quitting step.
ElecMinimize: 	Undoing step.
	Linear fluid (dielectric constant: 78.4, screening length: 5.74355 Bohr) occupying 0.735877 of unit cell:	Completed after 0 iterations at t[s]:   2481.00
ElecMinimize: 	Step failed: resetting search direction.
	FillingsUpdate:  mu: -0.171251800  nElectrons: 374.997316  magneticMoment: [ Abs: 30.55325  Tot: +23.48049 ]
	SubspaceRotationAdjust: set factor to 0.299
ElecMinimize: Iter:  13  G: -1602.525137679464478  |grad|_K:  6.222e-08  alpha:  1.181e-04
	Linear fluid (dielectric constant: 78.4, screening length: 5.74355 Bohr) occupying 0.735877 of unit cell:	Completed after 2 iterations at t[s]:   2502.99
	Linear fluid (dielectric constant: 78.4, screening length: 5.74355 Bohr) occupying 0.735877 of unit cell:	Completed after 1 iterations at t[s]:   2514.28
	FillingsUpdate:  mu: -0.171251800  nElectrons: 374.997257  magneticMoment: [ Abs: 30.55317  Tot: +23.48044 ]
	SubspaceRotationAdjust: set factor to 0.166
ElecMinimize: Iter:  14  G: -1602.525137680555645  |grad|_K:  3.481e-08  alpha:  1.529e-01  linmin:  2.346e-03  t[s]:   2526.04
	Linear fluid (dielectric constant: 78.4, screening length: 5.74355 Bohr) occupying 0.735877 of unit cell:	Completed after 0 iterations at t[s]:   2534.47
ElecMinimize: 	Predicted alpha/alphaT>3.000000, increasing alphaT to 4.586450e-01.
	Linear fluid (dielectric constant: 78.4, screening length: 5.74355 Bohr) occupying 0.735877 of unit cell:	Completed after 1 iterations at t[s]:   2545.79
	Linear fluid (dielectric constant: 78.4, screening length: 5.74355 Bohr) occupying 0.735877 of unit cell:	Completed after 0 iterations at t[s]:   2556.84
	FillingsUpdate:  mu: -0.171251800  nElectrons: 374.997300  magneticMoment: [ Abs: 30.55322  Tot: +23.48045 ]
	SubspaceRotationAdjust: set factor to 0.297
ElecMinimize: Iter:  15  G: -1602.525137713379308  |grad|_K:  1.885e-08  alpha:  2.878e-01  linmin: -5.834e-04  t[s]:   2568.66
	Linear fluid (dielectric constant: 78.4, screening length: 5.74355 Bohr) occupying 0.735877 of unit cell:	Completed after 0 iterations at t[s]:   2577.32
	Linear fluid (dielectric constant: 78.4, screening length: 5.74355 Bohr) occupying 0.735877 of unit cell:	Completed after 2 iterations at t[s]:   2589.33
ElecMinimize: 	Step increased G by 9.543237e-08, reducing alpha to 7.828235e-02.
	Linear fluid (dielectric constant: 78.4, screening length: 5.74355 Bohr) occupying 0.735877 of unit cell:	Completed after 0 iterations at t[s]:   2608.42
	FillingsUpdate:  mu: -0.171251800  nElectrons: 374.997303  magneticMoment: [ Abs: 30.55323  Tot: +23.48045 ]
	SubspaceRotationAdjust: set factor to 0.27
ElecMinimize: Iter:  16  G: -1602.525137780102341  |grad|_K:  4.127e-08  alpha:  7.828e-02  linmin:  7.948e-04  t[s]:   2621.60
	Linear fluid (dielectric constant: 78.4, screening length: 5.74355 Bohr) occupying 0.735877 of unit cell:	Completed after 0 iterations at t[s]:   2630.18
	Linear fluid (dielectric constant: 78.4, screening length: 5.74355 Bohr) occupying 0.735877 of unit cell:	Completed after 0 iterations at t[s]:   2641.10
	FillingsUpdate:  mu: -0.171251800  nElectrons: 374.997302  magneticMoment: [ Abs: 30.55323  Tot: +23.48045 ]
	SubspaceRotationAdjust: set factor to 0.307
ElecMinimize: Iter:  17  G: -1602.525137780159639  |grad|_K:  4.027e-08  alpha:  4.721e-03  linmin: -3.006e-09  t[s]:   2653.39
	Linear fluid (dielectric constant: 78.4, screening length: 5.74355 Bohr) occupying 0.735877 of unit cell:	Completed after 0 iterations at t[s]:   2661.97
ElecMinimize: 	Predicted alpha/alphaT>3.000000, increasing alphaT to 1.416213e-02.
	Linear fluid (dielectric constant: 78.4, screening length: 5.74355 Bohr) occupying 0.735877 of unit cell:	Completed after 0 iterations at t[s]:   2673.15
ElecMinimize: 	Predicted alpha/alphaT>3.000000, increasing alphaT to 4.248640e-02.
	Linear fluid (dielectric constant: 78.4, screening length: 5.74355 Bohr) occupying 0.735877 of unit cell:	Completed after 0 iterations at t[s]:   2684.23
	Linear fluid (dielectric constant: 78.4, screening length: 5.74355 Bohr) occupying 0.735877 of unit cell:	Completed after 0 iterations at t[s]:   2694.79
	FillingsUpdate:  mu: -0.171251800  nElectrons: 374.997252  magneticMoment: [ Abs: 30.55325  Tot: +23.48038 ]
	SubspaceRotationAdjust: set factor to 0.342
ElecMinimize: Iter:  18  G: -1602.525137819762449  |grad|_K:  4.210e-08  alpha:  1.114e-01  linmin: -4.691e-07  t[s]:   2706.73
	Linear fluid (dielectric constant: 78.4, screening length: 5.74355 Bohr) occupying 0.735877 of unit cell:	Completed after 2 iterations at t[s]:   2715.65
	Linear fluid (dielectric constant: 78.4, screening length: 5.74355 Bohr) occupying 0.735877 of unit cell:	Completed after 0 iterations at t[s]:   2726.03
ElecMinimize: 	Step increased G by 7.607809e-08, reducing alpha to 1.736462e-03.
	Linear fluid (dielectric constant: 78.4, screening length: 5.74355 Bohr) occupying 0.735877 of unit cell:	Completed after 0 iterations at t[s]:   2745.50
ElecMinimize: 	Step increased G by 6.202526e-08, reducing alpha to 1.736462e-04.
	Linear fluid (dielectric constant: 78.4, screening length: 5.74355 Bohr) occupying 0.735877 of unit cell:	Completed after 0 iterations at t[s]:   2765.58
ElecMinimize: 	Step increased G by 6.069808e-08, reducing alpha to 1.736462e-05.
ElecMinimize: 	Step failed to reduce G after 3 attempts. Quitting step.
ElecMinimize: 	Undoing step.
	Linear fluid (dielectric constant: 78.4, screening length: 5.74355 Bohr) occupying 0.735877 of unit cell:	Completed after 0 iterations at t[s]:   2786.31
ElecMinimize: 	Step failed: resetting search direction.
	FillingsUpdate:  mu: -0.171251800  nElectrons: 374.997252  magneticMoment: [ Abs: 30.55325  Tot: +23.48038 ]
	SubspaceRotationAdjust: set factor to 0.223
ElecMinimize: Iter:  19  G: -1602.525137759080053  |grad|_K:  3.227e-08  alpha:  1.736e-05
	Linear fluid (dielectric constant: 78.4, screening length: 5.74355 Bohr) occupying 0.735877 of unit cell:	Completed after 0 iterations at t[s]:   2807.38
ElecMinimize: 	Predicted alpha/alphaT>3.000000, increasing alphaT to 3.341633e-01.
	Linear fluid (dielectric constant: 78.4, screening length: 5.74355 Bohr) occupying 0.735877 of unit cell:	Completed after 2 iterations at t[s]:   2819.02
	Linear fluid (dielectric constant: 78.4, screening length: 5.74355 Bohr) occupying 0.735877 of unit cell:	Completed after 0 iterations at t[s]:   2830.17
ElecMinimize: 	Step increased G by 7.260041e-10, reducing alpha to 1.099230e-02.
	Linear fluid (dielectric constant: 78.4, screening length: 5.74355 Bohr) occupying 0.735877 of unit cell:	Completed after 0 iterations at t[s]:   2849.07
	FillingsUpdate:  mu: -0.171251800  nElectrons: 374.997259  magneticMoment: [ Abs: 30.55325  Tot: +23.48039 ]
	SubspaceRotationAdjust: set factor to 0.146
ElecMinimize: Iter:  20  G: -1602.525137779098714  |grad|_K:  2.830e-08  alpha:  1.099e-02  linmin:  9.581e-04  t[s]:   2861.35
	Linear fluid (dielectric constant: 78.4, screening length: 5.74355 Bohr) occupying 0.735877 of unit cell:	Completed after 0 iterations at t[s]:   2869.90
ElecMinimize: 	Predicted alpha/alphaT>3.000000, increasing alphaT to 3.297689e-02.
	Linear fluid (dielectric constant: 78.4, screening length: 5.74355 Bohr) occupying 0.735877 of unit cell:	Completed after 0 iterations at t[s]:   2880.75
ElecMinimize: 	Predicted alpha/alphaT>3.000000, increasing alphaT to 9.893066e-02.
	Linear fluid (dielectric constant: 78.4, screening length: 5.74355 Bohr) occupying 0.735877 of unit cell:	Completed after 0 iterations at t[s]:   2892.27
	Linear fluid (dielectric constant: 78.4, screening length: 5.74355 Bohr) occupying 0.735877 of unit cell:	Completed after 0 iterations at t[s]:   2902.95
	FillingsUpdate:  mu: -0.171251800  nElectrons: 374.997292  magneticMoment: [ Abs: 30.55327  Tot: +23.48040 ]
	SubspaceRotationAdjust: set factor to 0.191
ElecMinimize: Iter:  21  G: -1602.525137793055364  |grad|_K:  2.132e-08  alpha:  1.255e-01  linmin:  1.603e-06  t[s]:   2914.52
	Linear fluid (dielectric constant: 78.4, screening length: 5.74355 Bohr) occupying 0.735877 of unit cell:	Completed after 0 iterations at t[s]:   2923.31
	Linear fluid (dielectric constant: 78.4, screening length: 5.74355 Bohr) occupying 0.735877 of unit cell:	Completed after 0 iterations at t[s]:   2934.70
ElecMinimize: 	Step increased G by 1.669787e-08, reducing alpha to 4.650271e-03.
	Linear fluid (dielectric constant: 78.4, screening length: 5.74355 Bohr) occupying 0.735877 of unit cell:	Completed after 0 iterations at t[s]:   2953.96
ElecMinimize: 	Step increased G by 2.258230e-08, reducing alpha to 4.650271e-04.
	Linear fluid (dielectric constant: 78.4, screening length: 5.74355 Bohr) occupying 0.735877 of unit cell:	Completed after 0 iterations at t[s]:   2974.19
ElecMinimize: 	Step increased G by 2.322167e-08, reducing alpha to 4.650271e-05.
ElecMinimize: 	Step failed to reduce G after 3 attempts. Quitting step.
ElecMinimize: 	Undoing step.
	Linear fluid (dielectric constant: 78.4, screening length: 5.74355 Bohr) occupying 0.735877 of unit cell:	Completed after 0 iterations at t[s]:   2993.54
ElecMinimize: 	Step failed: resetting search direction.
	FillingsUpdate:  mu: -0.171251800  nElectrons: 374.997292  magneticMoment: [ Abs: 30.55327  Tot: +23.48040 ]
	SubspaceRotationAdjust: set factor to 0.216
ElecMinimize: Iter:  22  G: -1602.525137769818457  |grad|_K:  1.796e-08  alpha:  4.650e-05
	Linear fluid (dielectric constant: 78.4, screening length: 5.74355 Bohr) occupying 0.735877 of unit cell:	Completed after 0 iterations at t[s]:   3014.32
ElecMinimize: 	Predicted alpha/alphaT>3.000000, increasing alphaT to 3.764082e-01.
	Linear fluid (dielectric constant: 78.4, screening length: 5.74355 Bohr) occupying 0.735877 of unit cell:	Completed after 2 iterations at t[s]:   3025.59
	Linear fluid (dielectric constant: 78.4, screening length: 5.74355 Bohr) occupying 0.735877 of unit cell:	Completed after 0 iterations at t[s]:   3036.31
ElecMinimize: 	Step increased G by 1.812441e-08, reducing alpha to 7.988777e-03.
	Linear fluid (dielectric constant: 78.4, screening length: 5.74355 Bohr) occupying 0.735877 of unit cell:	Completed after 0 iterations at t[s]:   3055.86
ElecMinimize: 	Step increased G by 6.589289e-09, reducing alpha to 7.988777e-04.
	Linear fluid (dielectric constant: 78.4, screening length: 5.74355 Bohr) occupying 0.735877 of unit cell:	Completed after 0 iterations at t[s]:   3075.04
ElecMinimize: 	Step increased G by 5.482889e-09, reducing alpha to 7.988777e-05.
ElecMinimize: 	Step failed to reduce G after 3 attempts. Quitting step.
ElecMinimize: 	Undoing step.
	Linear fluid (dielectric constant: 78.4, screening length: 5.74355 Bohr) occupying 0.735877 of unit cell:	Completed after 0 iterations at t[s]:   3093.82
ElecMinimize: 	Step failed along negative gradient direction.
ElecMinimize: Probably at roundoff error limit. (Stopping)
Setting wave functions to eigenvectors of Hamiltonian
Single-point solvation energy estimate, DeltaG = +0.005367162319999

# Ionic positions in lattice coordinates:
ion Cr   0.166432446975601   0.167550042833483   0.497025359769360 1
ion Cr   0.332422214954455   0.333262617467517   0.499970599616375 1
ion Cr   0.667760810993538   0.165579697524393   0.499902373674690 1
ion Cr   0.834685224535949   0.333392441412721   0.500450420359241 1
ion Cr   0.165530604836894   0.667939881537377   0.500417200561849 1
ion Cr   0.332722241819842   0.835888159348032   0.498780048362163 1
ion Cr   0.667442076496554   0.668591236385360   0.498762364670635 1
ion Cr   0.833686416064908   0.833922667963147   0.496982258248791 1
ion Ge   0.000988710682916  -0.000060310930378   0.433652812115302 1
ion Ge   0.001630495023056  -0.000389491834580   0.564704911337307 1
ion Ge   0.500115543937545   0.001570585205331   0.432814000754179 1
ion Ge   0.500073211717590   0.001452541623430   0.563946231741101 1
ion Ge  -0.000837122269930   0.500883149538089   0.433623762069324 1
ion Ge  -0.001453975475951   0.501206922756954   0.564678278341089 1
ion Ge   0.500103790763687   0.500659292969495   0.459970885339940 1
ion Ge   0.500153594866620   0.503326355481252   0.604421535322067 1
ion Te   0.311612209072394   0.003771235125631   0.592916120243321 1
ion Te   0.003319861342242   0.186209280565453   0.593668569387421 1
ion Te   0.184848278726625   0.312363177675841   0.593395171839230 1
ion Te   0.186802842323012   0.500734602087234   0.405236947577708 1
ion Te   0.500069916118731   0.319365725313040   0.412242659671799 1
ion Te   0.312990257680574   0.188503971568748   0.403196093759536 1
ion Te   0.815248394061323   0.997184258804778   0.593399975058514 1
ion Te   0.500151701873402   0.188027042993578   0.594497224567217 1
ion Te   0.694475637648889   0.305475788743503   0.592786213033814 1
ion Te   0.681549751220118   0.500206187421650   0.411850991790731 1
ion Te  -0.001391692221882   0.314322608037177   0.403505967096157 1
ion Te   0.813436395947502   0.187536926235874   0.405265728477407 1
ion Te   0.305760129328465   0.499926168512234   0.592824649530196 1
ion Te   0.996806165557460   0.689520613128080   0.593625345453364 1
ion Te   0.188862231653600   0.813202482631228   0.594699575884990 1
ion Te   0.187090325011668   0.000802707460449   0.402901396868975 1
ion Te   0.500013945840001   0.814424566123809   0.403296189557329 1
ion Te   0.318670883386364   0.681644028737631   0.411805523446402 1
ion Te   0.811363958878624   0.502011326702377   0.594675263722092 1
ion Te   0.500058803028651   0.697637569805062   0.591675467875030 1
ion Te   0.688557639058984   0.815392163908433   0.592967717078783 1
ion Te   0.687222817982833   0.001360694342702   0.403154998702959 1
ion Te   0.001555071042305   0.812863307001298   0.403514301791272 1
ion Te   0.813110828525392   0.687797129355407   0.402833163226523 1
ion O   0.500357714967147   0.515893423942163   0.703851178897102 1
ion H   0.502039096022293   0.451007502494967   0.727140222178707 1


# Forces in Lattice coordinates:
force Cr   0.002934508216124   0.003846600193301  -0.005951335645315 1
force Cr  -0.010856260033619  -0.017128540577227  -0.003068848964686 1
force Cr  -0.006889850606183  -0.016647378039019  -0.000606636203655 1
force Cr   0.016367748082855   0.004882803628177  -0.030963459811417 1
force Cr  -0.012101546018793   0.002847253133304  -0.027790045383541 1
force Cr  -0.001428860926116   0.015892059077927   0.024889534446992 1
force Cr   0.017693991654144   0.015195681235581   0.027294889295132 1
force Cr   0.004157283579620   0.004969875761681  -0.005325536879120 1
force Ge   0.000886852143363   0.001097077014459   0.009169515186414 1
force Ge  -0.005589550884716   0.000322922021576  -0.009598788683562 1
force Ge  -0.000813520419647   0.000186838927192   0.015542785644442 1
force Ge   0.001919232903833   0.003256067107118  -0.018539305113350 1
force Ge   0.000110990165748  -0.001930323646051   0.009720660054640 1
force Ge   0.006538268014235   0.000511735074744  -0.010605065925446 1
force Ge   0.000001381127174   0.000709611352387   0.045081170831590 1
force Ge  -0.006441139097150  -0.013207360686268  -0.044834888481425 1
force Te  -0.015915246441993  -0.010191041826569   0.020705937499950 1
force Te   0.000907264860095   0.013075256164169   0.019672634544974 1
force Te   0.019135829135612   0.002383680239968   0.023043189182758 1
force Te   0.018964611239781   0.010984912082178  -0.023254736880745 1
force Te  -0.006029772648772  -0.012012429740191  -0.056766571764193 1
force Te  -0.008649995723314   0.007141074289187  -0.010349506232019 1
force Te  -0.015906091335500   0.000989729929221   0.021129831628263 1
force Te   0.001621318926485   0.005579885314119   0.009804910700969 1
force Te   0.010327252265658  -0.006324739337129   0.026722607853929 1
force Te   0.014740831654580   0.009195982224544  -0.058032119708257 1
force Te  -0.000634480098101  -0.012947908722684  -0.005717916908216 1
force Te  -0.010095980078783   0.007738713379814  -0.024928217036173 1
force Te  -0.017124905794220  -0.006998701660955   0.027357453553644 1
force Te   0.013235334587821   0.012498889540906   0.020026582404957 1
force Te  -0.004534707211596  -0.014192607774715   0.007649672610203 1
force Te   0.014767936628300   0.004367714878439  -0.015282227665565 1
force Te  -0.010351960514743  -0.023584377866300   0.000861561321704 1
force Te  -0.005974271584072   0.008178021867713  -0.056579619085980 1
force Te  -0.011844298441876  -0.014746631894992   0.008718372910835 1
force Te   0.014257753530064   0.027862232313422   0.022867999231592 1
force Te   0.004157311827783  -0.012906738962740   0.017905216331012 1
force Te   0.015656626299809   0.008058274720055  -0.011260172505986 1
force Te  -0.013018208889297  -0.014784595460679  -0.007570140277224 1
force Te  -0.012171061519529   0.005169727912615  -0.014446575557715 1
force O   0.087725534178274   0.180282175868413  -0.037462256616664 1
force H  -0.092803304758758  -0.190547791195636   0.161859931299871 1

# Energy components:
   A_diel =        0.0036330740536952
   Eewald =     5720.9625226058697081
       EH =     7170.6228875699598575
     Eloc =   -14685.0645043057611474
      Enl =      121.3643816899714807
      Exc =     -500.6286990271182731
 Exc_core =      224.7754669775404182
       KE =      281.2377625393131098
  MuShift =        0.0000248851722535
-------------------------------------
     Etot =    -1666.7265239909988850
       TS =        0.0175750154175038
-------------------------------------
        F =    -1666.7440990064164907
      muN =      -64.2189612420585405
-------------------------------------
        G =    -1602.5251377643578508

IonicMinimize: Iter:   0  G: -1602.525137764357851  |grad|_K:  1.124e-03  t[s]:   3116.67

#--- Lowdin population analysis ---
# oxidation-state Cr +0.878 +0.876 +0.876 +0.877 +0.877 +0.875 +0.875 +0.878
# magnetic-moments Cr +3.332 +3.317 +3.316 +3.321 +3.322 +3.320 +3.321 +3.332
# oxidation-state Ge +0.014 +0.012 +0.015 +0.011 +0.014 +0.012 -0.005 +0.358
# magnetic-moments Ge +0.062 +0.060 +0.061 +0.059 +0.062 +0.060 +0.084 +0.059
# oxidation-state Te -0.167 -0.168 -0.169 -0.171 -0.178 -0.180 -0.169 -0.174 -0.207 -0.181 -0.177 -0.171 -0.207 -0.168 -0.170 -0.178 -0.172 -0.181 -0.170 -0.180 -0.167 -0.180 -0.177 -0.178
# magnetic-moments Te -0.169 -0.170 -0.169 -0.176 -0.194 -0.170 -0.169 -0.179 -0.202 -0.194 -0.172 -0.176 -0.202 -0.170 -0.181 -0.170 -0.176 -0.194 -0.181 -0.201 -0.170 -0.169 -0.172 -0.170
# oxidation-state O -0.750
# magnetic-moments O +0.013
# oxidation-state H +0.431
# magnetic-moments H +0.000

Shifting auxilliary hamiltonian by 0.000007 to set nElectrons=374.997292
	Linear fluid (dielectric constant: 78.4, screening length: 5.74355 Bohr) occupying 0.735865 of unit cell:	Completed after 4 iterations at t[s]:   3126.68

-------- Electronic minimization -----------
	Linear fluid (dielectric constant: 78.4, screening length: 5.74355 Bohr) occupying 0.735865 of unit cell:	Completed after 0 iterations at t[s]:   3136.16
	FillingsUpdate:  mu: -0.171251800  nElectrons: 374.997292  magneticMoment: [ Abs: 30.55423  Tot: +23.48060 ]
ElecMinimize: Iter:   0  G: -1602.525197917399055  |grad|_K:  3.943e-07  alpha:  1.000e+00
	Linear fluid (dielectric constant: 78.4, screening length: 5.74355 Bohr) occupying 0.735857 of unit cell:	Completed after 6 iterations at t[s]:   3158.30
	Linear fluid (dielectric constant: 78.4, screening length: 5.74355 Bohr) occupying 0.735860 of unit cell:	Completed after 2 iterations at t[s]:   3170.05
	FillingsUpdate:  mu: -0.171251800  nElectrons: 374.995742  magneticMoment: [ Abs: 30.55346  Tot: +23.47977 ]
	SubspaceRotationAdjust: set factor to 0.201
ElecMinimize: Iter:   1  G: -1602.525217367054438  |grad|_K:  2.939e-07  alpha:  5.644e-01  linmin:  9.445e-05  t[s]:   3182.04
	Linear fluid (dielectric constant: 78.4, screening length: 5.74355 Bohr) occupying 0.735858 of unit cell:	Completed after 2 iterations at t[s]:   3191.03
	Linear fluid (dielectric constant: 78.4, screening length: 5.74355 Bohr) occupying 0.735859 of unit cell:	Completed after 3 iterations at t[s]:   3202.67
	FillingsUpdate:  mu: -0.171251800  nElectrons: 374.996280  magneticMoment: [ Abs: 30.55395  Tot: +23.48008 ]
	SubspaceRotationAdjust: set factor to 0.274
ElecMinimize: Iter:   2  G: -1602.525224419109463  |grad|_K:  1.479e-07  alpha:  3.771e-01  linmin:  3.528e-05  t[s]:   3214.54
	Linear fluid (dielectric constant: 78.4, screening length: 5.74355 Bohr) occupying 0.735859 of unit cell:	Completed after 2 iterations at t[s]:   3223.79
	Linear fluid (dielectric constant: 78.4, screening length: 5.74355 Bohr) occupying 0.735858 of unit cell:	Completed after 2 iterations at t[s]:   3235.90
	FillingsUpdate:  mu: -0.171251800  nElectrons: 374.997161  magneticMoment: [ Abs: 30.55458  Tot: +23.48062 ]
	SubspaceRotationAdjust: set factor to 0.358
ElecMinimize: Iter:   3  G: -1602.525228998717921  |grad|_K:  1.243e-07  alpha:  9.541e-01  linmin: -7.889e-05  t[s]:   3248.18
	Linear fluid (dielectric constant: 78.4, screening length: 5.74355 Bohr) occupying 0.735856 of unit cell:	Completed after 2 iterations at t[s]:   3256.96
	Linear fluid (dielectric constant: 78.4, screening length: 5.74355 Bohr) occupying 0.735857 of unit cell:	Completed after 0 iterations at t[s]:   3268.49
	FillingsUpdate:  mu: -0.171251800  nElectrons: 374.996899  magneticMoment: [ Abs: 30.55516  Tot: +23.48077 ]
	SubspaceRotationAdjust: set factor to 0.439
ElecMinimize: Iter:   4  G: -1602.525232013126924  |grad|_K:  1.056e-07  alpha:  8.832e-01  linmin:  5.540e-05  t[s]:   3281.02
	Linear fluid (dielectric constant: 78.4, screening length: 5.74355 Bohr) occupying 0.735855 of unit cell:	Completed after 2 iterations at t[s]:   3290.03
	Linear fluid (dielectric constant: 78.4, screening length: 5.74355 Bohr) occupying 0.735856 of unit cell:	Completed after 2 iterations at t[s]:   3301.41
	FillingsUpdate:  mu: -0.171251800  nElectrons: 374.996624  magneticMoment: [ Abs: 30.55543  Tot: +23.48078 ]
	SubspaceRotationAdjust: set factor to 0.405
ElecMinimize: Iter:   5  G: -1602.525232962069140  |grad|_K:  8.116e-08  alpha:  3.922e-01  linmin:  2.364e-04  t[s]:   3313.24
	Linear fluid (dielectric constant: 78.4, screening length: 5.74355 Bohr) occupying 0.735856 of unit cell:	Completed after 2 iterations at t[s]:   3322.19
	Linear fluid (dielectric constant: 78.4, screening length: 5.74355 Bohr) occupying 0.735856 of unit cell:	Completed after 0 iterations at t[s]:   3332.62
	FillingsUpdate:  mu: -0.171251800  nElectrons: 374.996922  magneticMoment: [ Abs: 30.55583  Tot: +23.48100 ]
	SubspaceRotationAdjust: set factor to 0.346
ElecMinimize: Iter:   6  G: -1602.525233465879182  |grad|_K:  5.293e-08  alpha:  3.696e-01  linmin: -3.374e-04  t[s]:   3344.76
	Linear fluid (dielectric constant: 78.4, screening length: 5.74355 Bohr) occupying 0.735856 of unit cell:	Completed after 0 iterations at t[s]:   3353.53
	Linear fluid (dielectric constant: 78.4, screening length: 5.74355 Bohr) occupying 0.735856 of unit cell:	Completed after 0 iterations at t[s]:   3364.60
	FillingsUpdate:  mu: -0.171251800  nElectrons: 374.997242  magneticMoment: [ Abs: 30.55610  Tot: +23.48120 ]
	SubspaceRotationAdjust: set factor to 0.417
ElecMinimize: Iter:   7  G: -1602.525233789996037  |grad|_K:  3.570e-08  alpha:  4.851e-01  linmin:  2.677e-08  t[s]:   3376.83
	Linear fluid (dielectric constant: 78.4, screening length: 5.74355 Bohr) occupying 0.735856 of unit cell:	Completed after 2 iterations at t[s]:   3387.02
	Linear fluid (dielectric constant: 78.4, screening length: 5.74355 Bohr) occupying 0.735856 of unit cell:	Completed after 0 iterations at t[s]:   3397.94
ElecMinimize: 	Step increased G by 3.406217e-08, reducing alpha to 1.696502e-02.
	Linear fluid (dielectric constant: 78.4, screening length: 5.74355 Bohr) occupying 0.735856 of unit cell:	Completed after 0 iterations at t[s]:   3417.39
ElecMinimize: 	Step increased G by 2.265892e-08, reducing alpha to 1.696502e-03.
	Linear fluid (dielectric constant: 78.4, screening length: 5.74355 Bohr) occupying 0.735856 of unit cell:	Completed after 0 iterations at t[s]:   3437.13
ElecMinimize: 	Step increased G by 2.277784e-08, reducing alpha to 1.696502e-04.
ElecMinimize: 	Step failed to reduce G after 3 attempts. Quitting step.
ElecMinimize: 	Undoing step.
	Linear fluid (dielectric constant: 78.4, screening length: 5.74355 Bohr) occupying 0.735856 of unit cell:	Completed after 0 iterations at t[s]:   3455.93
ElecMinimize: 	Step failed: resetting search direction.
	FillingsUpdate:  mu: -0.171251800  nElectrons: 374.997242  magneticMoment: [ Abs: 30.55610  Tot: +23.48120 ]
	SubspaceRotationAdjust: set factor to 0.374
ElecMinimize: Iter:   8  G: -1602.525233767232749  |grad|_K:  4.969e-08  alpha:  1.697e-04
	Linear fluid (dielectric constant: 78.4, screening length: 5.74355 Bohr) occupying 0.735856 of unit cell:	Completed after 2 iterations at t[s]:   3477.29
	Linear fluid (dielectric constant: 78.4, screening length: 5.74355 Bohr) occupying 0.735856 of unit cell:	Completed after 1 iterations at t[s]:   3488.45
ElecMinimize: 	Step increased G by 2.051365e-08, reducing alpha to 1.497895e-02.
	Linear fluid (dielectric constant: 78.4, screening length: 5.74355 Bohr) occupying 0.735856 of unit cell:	Completed after 0 iterations at t[s]:   3508.50
	FillingsUpdate:  mu: -0.171251800  nElectrons: 374.997228  magneticMoment: [ Abs: 30.55610  Tot: +23.48119 ]
	SubspaceRotationAdjust: set factor to 0.296
ElecMinimize: Iter:   9  G: -1602.525233772486217  |grad|_K:  5.542e-08  alpha:  1.498e-02  linmin:  2.533e-04  t[s]:   3520.17
	Linear fluid (dielectric constant: 78.4, screening length: 5.74355 Bohr) occupying 0.735856 of unit cell:	Completed after 0 iterations at t[s]:   3528.65
ElecMinimize: 	Predicted alpha/alphaT>3.000000, increasing alphaT to 4.493684e-02.
	Linear fluid (dielectric constant: 78.4, screening length: 5.74355 Bohr) occupying 0.735856 of unit cell:	Completed after 0 iterations at t[s]:   3539.35
ElecMinimize: 	Predicted alpha/alphaT>3.000000, increasing alphaT to 1.348105e-01.
	Linear fluid (dielectric constant: 78.4, screening length: 5.74355 Bohr) occupying 0.735856 of unit cell:	Completed after 0 iterations at t[s]:   3550.57
	Linear fluid (dielectric constant: 78.4, screening length: 5.74355 Bohr) occupying 0.735856 of unit cell:	Completed after 0 iterations at t[s]:   3561.43
	FillingsUpdate:  mu: -0.171251800  nElectrons: 374.996949  magneticMoment: [ Abs: 30.55610  Tot: +23.48109 ]
	SubspaceRotationAdjust: set factor to 0.304
ElecMinimize: Iter:  10  G: -1602.525233885793114  |grad|_K:  4.879e-08  alpha:  1.774e-01  linmin:  9.124e-08  t[s]:   3573.51
	Linear fluid (dielectric constant: 78.4, screening length: 5.74355 Bohr) occupying 0.735856 of unit cell:	Completed after 2 iterations at t[s]:   3583.09
	Linear fluid (dielectric constant: 78.4, screening length: 5.74355 Bohr) occupying 0.735856 of unit cell:	Completed after 0 iterations at t[s]:   3594.20
ElecMinimize: 	Step increased G by 4.267122e-08, reducing alpha to 4.646143e-03.
	Linear fluid (dielectric constant: 78.4, screening length: 5.74355 Bohr) occupying 0.735856 of unit cell:	Completed after 0 iterations at t[s]:   3614.28
ElecMinimize: 	Step increased G by 3.277273e-08, reducing alpha to 4.646143e-04.
	Linear fluid (dielectric constant: 78.4, screening length: 5.74355 Bohr) occupying 0.735856 of unit cell:	Completed after 0 iterations at t[s]:   3634.01
ElecMinimize: 	Step increased G by 3.027731e-08, reducing alpha to 4.646143e-05.
ElecMinimize: 	Step failed to reduce G after 3 attempts. Quitting step.
ElecMinimize: 	Undoing step.
	Linear fluid (dielectric constant: 78.4, screening length: 5.74355 Bohr) occupying 0.735856 of unit cell:	Completed after 0 iterations at t[s]:   3653.95
ElecMinimize: 	Step failed: resetting search direction.
	FillingsUpdate:  mu: -0.171251800  nElectrons: 374.996948  magneticMoment: [ Abs: 30.55610  Tot: +23.48109 ]
	SubspaceRotationAdjust: set factor to 0.193
ElecMinimize: Iter:  11  G: -1602.525233855544911  |grad|_K:  3.746e-08  alpha:  4.646e-05
	Linear fluid (dielectric constant: 78.4, screening length: 5.74355 Bohr) occupying 0.735856 of unit cell:	Completed after 0 iterations at t[s]:   3674.15
ElecMinimize: 	Predicted alpha/alphaT>3.000000, increasing alphaT to 5.321486e-01.
	Linear fluid (dielectric constant: 78.4, screening length: 5.74355 Bohr) occupying 0.735856 of unit cell:	Completed after 2 iterations at t[s]:   3685.84
	Linear fluid (dielectric constant: 78.4, screening length: 5.74355 Bohr) occupying 0.735856 of unit cell:	Completed after 0 iterations at t[s]:   3696.37
	FillingsUpdate:  mu: -0.171251800  nElectrons: 374.997018  magneticMoment: [ Abs: 30.55612  Tot: +23.48112 ]
	SubspaceRotationAdjust: set factor to 0.145
ElecMinimize: Iter:  12  G: -1602.525233913763486  |grad|_K:  6.043e-08  alpha:  1.414e-01  linmin:  3.636e-03  t[s]:   3708.43
ElecMinimize: 	Bad step direction: g.d > 0.
ElecMinimize: 	Undoing step.
	Linear fluid (dielectric constant: 78.4, screening length: 5.74355 Bohr) occupying 0.735856 of unit cell:	Completed after 0 iterations at t[s]:   3716.88
ElecMinimize: 	Step failed: resetting search direction.
	FillingsUpdate:  mu: -0.171251800  nElectrons: 374.997018  magneticMoment: [ Abs: 30.55612  Tot: +23.48112 ]
	SubspaceRotationAdjust: set factor to 0.199
ElecMinimize: Iter:  13  G: -1602.525233913766670  |grad|_K:  5.712e-08  alpha:  0.000e+00
	Linear fluid (dielectric constant: 78.4, screening length: 5.74355 Bohr) occupying 0.735856 of unit cell:	Completed after 2 iterations at t[s]:   3737.70
	Linear fluid (dielectric constant: 78.4, screening length: 5.74355 Bohr) occupying 0.735856 of unit cell:	Completed after 0 iterations at t[s]:   3748.50
ElecMinimize: 	Step increased G by 6.506957e-08, reducing alpha to 5.308395e-03.
[...]
ElecMinimize: Iter:   5  G: -1602.525701498173703  |grad|_K:  1.396e-07  alpha:  3.789e-01  linmin:  4.809e-04  t[s]:  11437.51
	Linear fluid (dielectric constant: 78.4, screening length: 5.74355 Bohr) occupying 0.735382 of unit cell:	Completed after 2 iterations at t[s]:  11446.62
	Linear fluid (dielectric constant: 78.4, screening length: 5.74355 Bohr) occupying 0.735382 of unit cell:	Completed after 2 iterations at t[s]:  11458.03
	FillingsUpdate:  mu: -0.171251800  nElectrons: 374.996313  magneticMoment: [ Abs: 30.61810  Tot: +23.50585 ]
	SubspaceRotationAdjust: set factor to 0.263
ElecMinimize: Iter:   6  G: -1602.525702131373009  |grad|_K:  7.558e-08  alpha:  2.095e-01  linmin: -7.737e-05  t[s]:  11469.75
	Linear fluid (dielectric constant: 78.4, screening length: 5.74355 Bohr) occupying 0.735382 of unit cell:	Completed after 0 iterations at t[s]:  11478.11
	Linear fluid (dielectric constant: 78.4, screening length: 5.74355 Bohr) occupying 0.735382 of unit cell:	Completed after 1 iterations at t[s]:  11490.56
	FillingsUpdate:  mu: -0.171251800  nElectrons: 374.996827  magneticMoment: [ Abs: 30.61859  Tot: +23.50610 ]
	SubspaceRotationAdjust: set factor to 0.292
ElecMinimize: Iter:   7  G: -1602.525702666196594  |grad|_K:  3.712e-08  alpha:  4.974e-01  linmin:  1.223e-03  t[s]:  11502.21
	Linear fluid (dielectric constant: 78.4, screening length: 5.74355 Bohr) occupying 0.735382 of unit cell:	Completed after 1 iterations at t[s]:  11510.95
	Linear fluid (dielectric constant: 78.4, screening length: 5.74355 Bohr) occupying 0.735382 of unit cell:	Completed after 0 iterations at t[s]:  11522.24
	FillingsUpdate:  mu: -0.171251800  nElectrons: 374.996878  magneticMoment: [ Abs: 30.61867  Tot: +23.50611 ]
	SubspaceRotationAdjust: set factor to 0.37
ElecMinimize: Iter:   8  G: -1602.525702724530902  |grad|_K:  2.139e-08  alpha:  3.098e-01  linmin: -4.535e-03  t[s]:  11534.44
	Linear fluid (dielectric constant: 78.4, screening length: 5.74355 Bohr) occupying 0.735382 of unit cell:	Completed after 0 iterations at t[s]:  11542.81
	Linear fluid (dielectric constant: 78.4, screening length: 5.74355 Bohr) occupying 0.735382 of unit cell:	Completed after 0 iterations at t[s]:  11554.16
	FillingsUpdate:  mu: -0.171251800  nElectrons: 374.996896  magneticMoment: [ Abs: 30.61875  Tot: +23.50610 ]
	SubspaceRotationAdjust: set factor to 0.503
ElecMinimize: Iter:   9  G: -1602.525702779855465  |grad|_K:  1.873e-08  alpha:  4.420e-01  linmin: -9.620e-04  t[s]:  11567.15
	Linear fluid (dielectric constant: 78.4, screening length: 5.74355 Bohr) occupying 0.735382 of unit cell:	Completed after 0 iterations at t[s]:  11575.80
	Linear fluid (dielectric constant: 78.4, screening length: 5.74355 Bohr) occupying 0.735382 of unit cell:	Completed after 0 iterations at t[s]:  11586.61
	FillingsUpdate:  mu: -0.171251800  nElectrons: 374.996901  magneticMoment: [ Abs: 30.61888  Tot: +23.50606 ]
	SubspaceRotationAdjust: set factor to 0.689
ElecMinimize: Iter:  10  G: -1602.525702824694690  |grad|_K:  1.674e-08  alpha:  5.079e-01  linmin: -2.121e-04  t[s]:  11598.88
	Linear fluid (dielectric constant: 78.4, screening length: 5.74355 Bohr) occupying 0.735382 of unit cell:	Completed after 0 iterations at t[s]:  11607.03
	Linear fluid (dielectric constant: 78.4, screening length: 5.74355 Bohr) occupying 0.735382 of unit cell:	Completed after 0 iterations at t[s]:  11618.71
	FillingsUpdate:  mu: -0.171251800  nElectrons: 374.996894  magneticMoment: [ Abs: 30.61901  Tot: +23.50601 ]
	SubspaceRotationAdjust: set factor to 0.727
ElecMinimize: Iter:  11  G: -1602.525702851764208  |grad|_K:  1.990e-08  alpha:  4.237e-01  linmin:  5.458e-04  t[s]:  11632.88
	Linear fluid (dielectric constant: 78.4, screening length: 5.74355 Bohr) occupying 0.735383 of unit cell:	Completed after 2 iterations at t[s]:  11641.75
	Linear fluid (dielectric constant: 78.4, screening length: 5.74355 Bohr) occupying 0.735382 of unit cell:	Completed after 0 iterations at t[s]:  11652.31
ElecMinimize: 	Step increased G by 6.589516e-08, reducing alpha to 6.064915e-03.
	Linear fluid (dielectric constant: 78.4, screening length: 5.74355 Bohr) occupying 0.735382 of unit cell:	Completed after 0 iterations at t[s]:  11673.18
ElecMinimize: 	Step increased G by 6.318805e-08, reducing alpha to 6.064915e-04.
	Linear fluid (dielectric constant: 78.4, screening length: 5.74355 Bohr) occupying 0.735382 of unit cell:	Completed after 0 iterations at t[s]:  11693.12
ElecMinimize: 	Step increased G by 6.302025e-08, reducing alpha to 6.064915e-05.
ElecMinimize: 	Step failed to reduce G after 3 attempts. Quitting step.
ElecMinimize: 	Undoing step.
	Linear fluid (dielectric constant: 78.4, screening length: 5.74355 Bohr) occupying 0.735382 of unit cell:	Completed after 0 iterations at t[s]:  11711.86
ElecMinimize: 	Step failed: resetting search direction.
	FillingsUpdate:  mu: -0.171251800  nElectrons: 374.996894  magneticMoment: [ Abs: 30.61901  Tot: +23.50601 ]
	SubspaceRotationAdjust: set factor to 0.809
ElecMinimize: Iter:  12  G: -1602.525702788747594  |grad|_K:  2.893e-08  alpha:  6.065e-05
	Linear fluid (dielectric constant: 78.4, screening length: 5.74355 Bohr) occupying 0.735382 of unit cell:	Completed after 0 iterations at t[s]:  11731.93
	Linear fluid (dielectric constant: 78.4, screening length: 5.74355 Bohr) occupying 0.735382 of unit cell:	Completed after 1 iterations at t[s]:  11743.17
ElecMinimize: 	Step increased G by 1.222004e-07, reducing alpha to 7.428109e-02.
	Linear fluid (dielectric constant: 78.4, screening length: 5.74355 Bohr) occupying 0.735382 of unit cell:	Completed after 1 iterations at t[s]:  11763.37
	FillingsUpdate:  mu: -0.171251800  nElectrons: 374.996892  magneticMoment: [ Abs: 30.61904  Tot: +23.50604 ]
	SubspaceRotationAdjust: set factor to 0.598
ElecMinimize: Iter:  13  G: -1602.525702832775551  |grad|_K:  3.475e-08  alpha:  7.428e-02  linmin: -1.092e-03  t[s]:  11776.22
	Linear fluid (dielectric constant: 78.4, screening length: 5.74355 Bohr) occupying 0.735382 of unit cell:	Completed after 0 iterations at t[s]:  11784.57
	Linear fluid (dielectric constant: 78.4, screening length: 5.74355 Bohr) occupying 0.735382 of unit cell:	Completed after 0 iterations at t[s]:  11795.51
	FillingsUpdate:  mu: -0.171251800  nElectrons: 374.996368  magneticMoment: [ Abs: 30.61917  Tot: +23.50603 ]
	SubspaceRotationAdjust: set factor to 0.628
ElecMinimize: Iter:  14  G: -1602.525702905445769  |grad|_K:  2.816e-08  alpha:  1.989e-01  linmin: -1.094e-03  t[s]:  11807.96
	Linear fluid (dielectric constant: 78.4, screening length: 5.74355 Bohr) occupying 0.735382 of unit cell:	Completed after 2 iterations at t[s]:  11816.98
	Linear fluid (dielectric constant: 78.4, screening length: 5.74355 Bohr) occupying 0.735382 of unit cell:	Completed after 0 iterations at t[s]:  11828.08
ElecMinimize: 	Step increased G by 5.584616e-08, reducing alpha to 3.354702e-03.
	Linear fluid (dielectric constant: 78.4, screening length: 5.74355 Bohr) occupying 0.735382 of unit cell:	Completed after 0 iterations at t[s]:  11848.04
ElecMinimize: 	Step increased G by 3.430364e-08, reducing alpha to 3.354702e-04.
	Linear fluid (dielectric constant: 78.4, screening length: 5.74355 Bohr) occupying 0.735382 of unit cell:	Completed after 0 iterations at t[s]:  11867.60
ElecMinimize: 	Step increased G by 3.219043e-08, reducing alpha to 3.354702e-05.
ElecMinimize: 	Step failed to reduce G after 3 attempts. Quitting step.
ElecMinimize: 	Undoing step.
	Linear fluid (dielectric constant: 78.4, screening length: 5.74355 Bohr) occupying 0.735382 of unit cell:	Completed after 0 iterations at t[s]:  11887.34
ElecMinimize: 	Step failed: resetting search direction.
	FillingsUpdate:  mu: -0.171251800  nElectrons: 374.996367  magneticMoment: [ Abs: 30.61917  Tot: +23.50603 ]
	SubspaceRotationAdjust: set factor to 0.417
ElecMinimize: Iter:  15  G: -1602.525702873272621  |grad|_K:  5.342e-08  alpha:  3.355e-05
	Linear fluid (dielectric constant: 78.4, screening length: 5.74355 Bohr) occupying 0.735382 of unit cell:	Completed after 2 iterations at t[s]:  11908.96
	Linear fluid (dielectric constant: 78.4, screening length: 5.74355 Bohr) occupying 0.735382 of unit cell:	Completed after 0 iterations at t[s]:  11919.80
	FillingsUpdate:  mu: -0.171251800  nElectrons: 374.996467  magneticMoment: [ Abs: 30.61919  Tot: +23.50605 ]
	SubspaceRotationAdjust: set factor to 0.208
ElecMinimize: Iter:  16  G: -1602.525702902215244  |grad|_K:  4.373e-08  alpha:  6.769e-02  linmin:  6.028e-03  t[s]:  11932.40
	Linear fluid (dielectric constant: 78.4, screening length: 5.74355 Bohr) occupying 0.735382 of unit cell:	Completed after 0 iterations at t[s]:  11940.66
ElecMinimize: 	Predicted alpha/alphaT>3.000000, increasing alphaT to 2.030633e-01.
	Linear fluid (dielectric constant: 78.4, screening length: 5.74355 Bohr) occupying 0.735382 of unit cell:	Completed after 0 iterations at t[s]:  11951.62
	Linear fluid (dielectric constant: 78.4, screening length: 5.74355 Bohr) occupying 0.735382 of unit cell:	Completed after 0 iterations at t[s]:  11962.14
	FillingsUpdate:  mu: -0.171251800  nElectrons: 374.996656  magneticMoment: [ Abs: 30.61925  Tot: +23.50611 ]
	SubspaceRotationAdjust: set factor to 0.205
ElecMinimize: Iter:  17  G: -1602.525702925208407  |grad|_K:  3.326e-08  alpha:  2.516e-01  linmin: -2.061e-04  t[s]:  11975.14
	Linear fluid (dielectric constant: 78.4, screening length: 5.74355 Bohr) occupying 0.735382 of unit cell:	Completed after 2 iterations at t[s]:  11983.95
	Linear fluid (dielectric constant: 78.4, screening length: 5.74355 Bohr) occupying 0.735382 of unit cell:	Completed after 0 iterations at t[s]:  11994.66
ElecMinimize: 	Step increased G by 5.074230e-08, reducing alpha to 5.791750e-03.
	Linear fluid (dielectric constant: 78.4, screening length: 5.74355 Bohr) occupying 0.735382 of unit cell:	Completed after 0 iterations at t[s]:  12014.35
ElecMinimize: 	Step increased G by 2.919433e-08, reducing alpha to 5.791750e-04.
	Linear fluid (dielectric constant: 78.4, screening length: 5.74355 Bohr) occupying 0.735382 of unit cell:	Completed after 0 iterations at t[s]:  12033.65
ElecMinimize: 	Step increased G by 2.712500e-08, reducing alpha to 5.791750e-05.
ElecMinimize: 	Step failed to reduce G after 3 attempts. Quitting step.
ElecMinimize: 	Undoing step.
	Linear fluid (dielectric constant: 78.4, screening length: 5.74355 Bohr) occupying 0.735382 of unit cell:	Completed after 0 iterations at t[s]:  12053.93
ElecMinimize: 	Step failed: resetting search direction.
	FillingsUpdate:  mu: -0.171251800  nElectrons: 374.996656  magneticMoment: [ Abs: 30.61925  Tot: +23.50611 ]
	SubspaceRotationAdjust: set factor to 0.149
ElecMinimize: Iter:  18  G: -1602.525702898087729  |grad|_K:  2.764e-08  alpha:  5.792e-05
	Linear fluid (dielectric constant: 78.4, screening length: 5.74355 Bohr) occupying 0.735382 of unit cell:	Completed after 1 iterations at t[s]:  12074.82
	Linear fluid (dielectric constant: 78.4, screening length: 5.74355 Bohr) occupying 0.735382 of unit cell:	Completed after 0 iterations at t[s]:  12085.52
ElecMinimize: 	Step increased G by 3.111700e-08, reducing alpha to 8.582403e-03.
	Linear fluid (dielectric constant: 78.4, screening length: 5.74355 Bohr) occupying 0.735382 of unit cell:	Completed after 0 iterations at t[s]:  12105.17
ElecMinimize: 	Step increased G by 3.229570e-08, reducing alpha to 8.582403e-04.
	Linear fluid (dielectric constant: 78.4, screening length: 5.74355 Bohr) occupying 0.735382 of unit cell:	Completed after 0 iterations at t[s]:  12125.00
ElecMinimize: 	Step increased G by 3.258560e-08, reducing alpha to 8.582403e-05.
ElecMinimize: 	Step failed to reduce G after 3 attempts. Quitting step.
ElecMinimize: 	Undoing step.
	Linear fluid (dielectric constant: 78.4, screening length: 5.74355 Bohr) occupying 0.735382 of unit cell:	Completed after 0 iterations at t[s]:  12143.91
ElecMinimize: 	Step failed along negative gradient direction.
ElecMinimize: Probably at roundoff error limit. (Stopping)
Setting wave functions to eigenvectors of Hamiltonian

# Ionic positions in lattice coordinates:
ion Cr   0.166728675819011   0.167598158501214   0.497215004207478 1
ion Cr   0.333094063190497   0.333052131678578   0.499324153655157 1
ion Cr   0.666999308572524   0.166088667709587   0.499288373283111 1
ion Cr   0.834850363744966   0.333774342468286   0.499325937743247 1
ion Cr   0.165401676401044   0.668428786477498   0.499401261885506 1
ion Cr   0.332088941513468   0.835881638432491   0.499434245453734 1
ion Cr   0.668134270789253   0.667846491001780   0.499420994391416 1
ion Cr   0.833535807696855   0.834203323245064   0.497154250367831 1
ion Ge   0.000205034972658   0.000756340175760   0.433012411871404 1
ion Ge   0.000451900218849   0.000479945127440   0.564119709381705 1
ion Ge   0.500067370093922   0.000980232052399   0.432489487758354 1
ion Ge   0.500100142427352   0.001061267733813   0.563602776656492 1
ion Ge  -0.000038038248066   0.500861701341241   0.433002504455858 1
ion Ge  -0.000291524337773   0.500824104140639   0.564112081369907 1
ion Ge   0.500115918613771   0.501081299649070   0.461183394403770 1
ion Ge   0.500198258478638   0.502838590587699   0.607219744602324 1
ion Te   0.311371181036137   0.003639731331983   0.593550274754575 1
ion Te   0.002590718288802   0.187022178812299   0.593480957391991 1
ion Te   0.186240733346497   0.312233645824928   0.593565711616333 1
ion Te   0.187774904558669   0.500768754860273   0.404054093977204 1
ion Te   0.500023825721500   0.319954086569295   0.410470473430984 1
ion Te   0.312823259517369   0.188442394882629   0.402896726227410 1
ion Te   0.813907934886408   0.998390450402260   0.593501701081759 1
ion Te   0.500057180171327   0.188098192213181   0.594126260048073 1
ion Te   0.694798292437752   0.305691957051924   0.592603243040092 1
ion Te   0.681442818733987   0.500941210276085   0.410449637358045 1
ion Te  -0.000319978866048   0.313755941526896   0.403024732910073 1
ion Te   0.812369815267912   0.188457278866251   0.404032700447001 1
ion Te   0.305533327322084   0.500372367001891   0.592735342329304 1
ion Te   0.997574532372344   0.689487127329152   0.593509310891300 1
ion Te   0.187528515698965   0.813264900950933   0.594391918121342 1
ion Te   0.187489102764883   0.000676471037402   0.403054878803879 1
ion Te   0.500099746251080   0.813022864032203   0.404208312283282 1
ion Te   0.318740742949771   0.682273041028298   0.410513716172738 1
ion Te   0.812647576658606   0.500661281345383   0.594384951672817 1
ion Te   0.500083906197839   0.697298957279242   0.592775006078641 1
ion Te   0.688869062168110   0.814913658497578   0.593501050639235 1
ion Te   0.687321741016270   0.001181648864701   0.402892400540327 1
ion Te   0.000618110198213   0.813299047864594   0.403032227226998 1
ion Te   0.812683634978007   0.688049828656816   0.403028069563368 1
ion O   0.500541688910385   0.514615266190689   0.707039745061239 1
ion H   0.501584907466150   0.449690974980524   0.730899925844685 1


# Forces in Lattice coordinates:
force Cr   0.000115167136107   0.000222657303324   0.003588888842958 1
force Cr  -0.000338369502236  -0.000617830865341   0.005183148217403 1
force Cr   0.000029077656654  -0.001085167365552   0.005046820081082 1
force Cr  -0.000120574261345  -0.000978941821136   0.009081708001791 1
force Cr  -0.000684909458247  -0.000550006845306   0.008377659997948 1
force Cr  -0.001804058851047  -0.000560407120639  -0.000178450436462 1
force Cr   0.001559600746333  -0.000223954685025  -0.000751787290381 1
force Cr  -0.000069533634998  -0.000038400600538   0.003550693959940 1
force Ge   0.000544341971188  -0.000676875183187  -0.005810980981195 1
force Ge   0.000062148415794   0.000223308642434   0.004318858200605 1
force Ge   0.000814650755947   0.000679040185632  -0.000952791278849 1
force Ge   0.000028944288529  -0.000178452190223   0.007983893092003 1
force Ge  -0.001296516470047  -0.000656788673755  -0.004946580592588 1
force Ge   0.000260506473390   0.000490110460572   0.004332430841885 1
force Ge  -0.000585895733561  -0.001276737378461   0.008725196499686 1
force Ge  -0.000047966374055  -0.000851823133277   0.007404913957160 1
force Te   0.000209329519219   0.000753302855969   0.000308684966663 1
force Te   0.000925011567136  -0.000922144001873   0.003729499558739 1
force Te  -0.000810738027883  -0.000505986673514   0.000439860137391 1
force Te   0.001477853847102   0.001513252087118   0.006526030301928 1
force Te   0.000758178713722   0.000500478888379   0.005323323344506 1
force Te   0.001315474913681   0.000438246331994   0.003140170573702 1
force Te   0.000543777927118  -0.000857394122468   0.000771019038518 1
force Te   0.000454121153464   0.000033902604225   0.002353419714320 1
force Te   0.000219309266586  -0.001618008455547   0.004411113403105 1
force Te  -0.002207763316557  -0.001907178803929   0.006188632654838 1
force Te  -0.000411816475331  -0.000006972246548   0.003157720835010 1
force Te   0.000622967638629   0.001439876537920   0.005950301725254 1
force Te  -0.002454365514066  -0.001711073382427   0.003586748162306 1
force Te  -0.000817607286710  -0.000290790733269   0.002857321411412 1
force Te   0.000749578755064   0.002247715145009   0.005062954032191 1
force Te  -0.001065748360163  -0.001792997188119   0.001614803052545 1
force Te   0.000103863749764   0.000834194465166  -0.001453807035471 1
force Te   0.000567962478542  -0.001865524555720   0.005584608561588 1
force Te   0.001963769896515   0.003084937196491   0.004564717293287 1
force Te  -0.000480964199324  -0.001024007456468   0.003770303680996 1
force Te   0.000476729336713   0.000778700556611   0.000771883305255 1
force Te  -0.000681995084487   0.000124368661173   0.002393100595548 1
force Te   0.000254920905311  -0.000421584587960   0.003624087134119 1
force Te   0.000091079897234  -0.001284657710743   0.001344556988724 1
force O  -0.004552185748173  -0.008777607641836   0.015252504720991 1
force H   0.001861908307147   0.005331995007310  -0.001898516824194 1

# Energy components:
   A_diel =        0.0034217896877912
   Eewald =     5711.8216881301350440
       EH =     7161.5574950200252715
     Eloc =   -14666.8455763438487338
      Enl =      121.4008762670077601
      Exc =     -500.5840978056717177
 Exc_core =      224.7754339448178769
       KE =      281.1440795153255294
  MuShift =        0.0000307280954397
-------------------------------------
     Etot =    -1666.7266487544252413
       TS =        0.0179064648963111
-------------------------------------
        F =    -1666.7445552193214553
      muN =      -64.2188523538418394
-------------------------------------
        G =    -1602.5257028654796159

IonicMinimize: Iter:  11  G: -1602.525702865479616  |grad|_K:  7.821e-05  alpha:  1.000e+00  linmin: -1.598e-01  t[s]:  12165.94
IonicMinimize: Converged (|grad|_K<1.000000e-04).

#--- Lowdin population analysis ---
# oxidation-state Cr +0.878 +0.878 +0.878 +0.878 +0.879 +0.878 +0.878 +0.878
# magnetic-moments Cr +3.335 +3.324 +3.323 +3.326 +3.326 +3.325 +3.325 +3.336
# oxidation-state Ge +0.014 +0.012 +0.013 +0.012 +0.014 +0.012 -0.012 +0.360
# magnetic-moments Ge +0.061 +0.061 +0.061 +0.060 +0.061 +0.061 +0.086 +0.060
# oxidation-state Te -0.168 -0.168 -0.169 -0.170 -0.188 -0.177 -0.169 -0.175 -0.206 -0.190 -0.176 -0.170 -0.206 -0.169 -0.172 -0.177 -0.170 -0.189 -0.172 -0.182 -0.168 -0.177 -0.176 -0.177
# magnetic-moments Te -0.170 -0.170 -0.170 -0.175 -0.194 -0.172 -0.170 -0.180 -0.201 -0.194 -0.174 -0.176 -0.201 -0.170 -0.181 -0.173 -0.176 -0.194 -0.181 -0.200 -0.170 -0.172 -0.174 -0.173
# oxidation-state O -0.750
# magnetic-moments O +0.015
# oxidation-state H +0.431
# magnetic-moments H +0.000


Dumping 'NbTe2.fillings' ... done
Dumping 'NbTe2.wfns' ... done
Dumping 'NbTe2.fluidState' ... done
Dumping 'NbTe2.ionpos' ... done
Dumping 'NbTe2.eigenvals' ... done
End date and time: Sun Sep 27 09:33:00 2020  (Duration: 0-3:22:51.76)
Done!
