
*************** JDFTx 1.5.0  ***************

Start date and time: Wed Jul 15 12:52:25 2020
Executable jdftx_gpu with command-line: -i Neutral.in -o Neutral.out
Running on hosts (process indices):  amax (0-5)
Divided in process groups (process indices):  0 (0)  1 (1)  2 (2)  3 (3)  4 (4)  5 (5)
gpuInit: Found compatible cuda device 0 'Tesla K80'
gpuInit: Found compatible cuda device 1 'Tesla K80'
gpuInit: Found compatible cuda device 2 'Tesla K80'
gpuInit: Found compatible cuda device 3 'Tesla K80'
gpuInit: Found compatible cuda device 4 'Tesla K80'
gpuInit: Found compatible cuda device 5 'Tesla K80'
gpuInit: Selected device 0
Resource initialization completed at t[s]:     19.13
Run totals: 6 processes, 24 threads, 6 GPUs


Input parsed successfully to the following command list (including defaults):

basis kpoint-dependent
cache-projectors no
coords-type Lattice
core-overlap-check none
coulomb-interaction Slab 001
coulomb-truncation-embed 0 0 0.5
davidson-band-ratio 1.1
dump End State
dump-name NbTe2.$VAR
elec-cutoff 20 100
elec-eigen-algo Davidson
elec-ex-corr gga-PBE
elec-smearing Gauss 0.0073499
electronic-minimize  \
	dirUpdateScheme      FletcherReeves \
	linminMethod         DirUpdateRecommended \
	nIterations          500 \
	history              15 \
	knormThreshold       0 \
	energyDiffThreshold  1e-08 \
	nEnergyDiff          2 \
	alphaTstart          1 \
	alphaTmin            1e-10 \
	updateTestStepSize   yes \
	alphaTreduceFactor   0.1 \
	alphaTincreaseFactor 3 \
	nAlphaAdjustMax      3 \
	wolfeEnergy          0.0001 \
	wolfeGradient        0.9 \
	fdTest               no
exchange-regularization WignerSeitzTruncated
fluid LinearPCM 298.000000 1.013250
fluid-anion F- 1 MeanFieldLJ \
	epsBulk 1 \
	pMol 0 \
	epsInf 1 \
	Pvap 0 \
	sigmaBulk 0 \
	Rvdw 2.24877 \
	Res 0 \
	tauNuc 343133
fluid-cation Na+ 1 MeanFieldLJ \
	epsBulk 1 \
	pMol 0 \
	epsInf 1 \
	Pvap 0 \
	sigmaBulk 0 \
	Rvdw 2.19208 \
	Res 0 \
	tauNuc 343133
fluid-ex-corr lda-TF lda-PZ
fluid-gummel-loop 10 1.000000e-05
fluid-minimize  \
	dirUpdateScheme      PolakRibiere \
	linminMethod         DirUpdateRecommended \
	nIterations          400 \
	history              15 \
	knormThreshold       1e-11 \
	energyDiffThreshold  0 \
	nEnergyDiff          2 \
	alphaTstart          1 \
	alphaTmin            1e-10 \
	updateTestStepSize   yes \
	alphaTreduceFactor   0.1 \
	alphaTincreaseFactor 3 \
	nAlphaAdjustMax      6 \
	wolfeEnergy          0.0001 \
	wolfeGradient        0.9 \
	fdTest               no
fluid-solvent H2O 55.338 ScalarEOS \
	epsBulk 78.4 \
	pMol 0.92466 \
	epsInf 1.77 \
	Pvap 1.06736e-10 \
	sigmaBulk 4.62e-05 \
	Rvdw 2.61727 \
	Res 1.42 \
	tauNuc 343133 \
	poleEl 15 7 1
forces-output-coords Positions
initial-state NbTe2.$VAR
ion Cu  -0.000000000000000   0.000000000000000   0.500000000000000 0
ion Cu   0.251819992142367   0.249545486292745   0.505688514737171 0
ion Cu   0.500000000000000   0.000000000000000   0.500000000000000 0
ion Cu   0.753154200828147   0.252632168042503   0.497743171790670 0
ion Cu  -0.000000000000000   0.500000000000000   0.500000000000000 0
ion Cu   0.246845799171852   0.747367859957500   0.502256828209330 0
ion Cu   0.748180007857632   0.750454541707258   0.494311485262828 0
ion H   0.310415596086259   0.019935040933876   0.437171381905974 0
ion H   0.061204914644675   0.229273339572142   0.567745324163113 0
ion H   0.437987784496977   0.283501536794869   0.438567103897615 0
ion H   0.194742135699140   0.485935558534678   0.560795074618296 0
ion H   0.808455992994022   0.019921461634178   0.431318312773657 0
ion H   0.569824526536500   0.225905568497780   0.552922142353938 0
ion H   0.945913684733986   0.274383971801010   0.435654338518498 0
ion H   0.689198424101123   0.481037365459913   0.570891418617337 0
ion H   0.310801575898878   0.518962634540087   0.429098614382666 0
ion H   0.054086319266014   0.725605965198992   0.564355680481503 0
ion H   0.430175507463496   0.774084410502218   0.447087876646064 0
ion H   0.191544024005984   0.980078628365822   0.568671720226346 0
ion H   0.805257881300865   0.514064441465322   0.439194958381707 0
ion H   0.562012249503019   0.716488400205133   0.561442915102386 0
ion H   0.938795089355325   0.770716639427857   0.432264694836889 0
ion H   0.689584403913741   0.980065049066124   0.562818651094030 0
ion Se   0.332486521061985   0.416210298029815   0.549180089385600 0
ion Se   0.082944398750492   0.344171449351539   0.444574677094310 0
ion Se   0.431181583206188   0.156606332974696   0.558984896211137 0
ion Se   0.177778901071619   0.094498258901298   0.445795448028010 0
ion Se   0.824054653033305   0.406225697608080   0.567366123734967 0
ion Se   0.571025239738047   0.355550192401840   0.458532896413366 0
ion Se   0.925011382625144   0.158775066442134   0.559461416207196 0
ion Se   0.676884850629113   0.095934846840847   0.438944665452416 0
ion Se   0.323115149370887   0.904065167159154   0.561055282547586 0
ion Se   0.074978605374859   0.841224947557866   0.440538531792807 0
ion Se   0.428964722261953   0.644449779598158   0.541467051586636 0
ion Se   0.175945363966693   0.593774302391921   0.432633824265036 0
ion Se   0.822221115928379   0.905501755098704   0.554204499971993 0
ion Se   0.568808378793814   0.843393681025305   0.441015051788866 0
ion Se   0.917045589249511   0.655828522648457   0.555425270905693 0
ion Se   0.667513478938015   0.583789701970185   0.450819858614403 0
ion O   0.119120786081334   0.260527464720393   0.491202685786708 0
ion O   0.384557313228134   0.239030792087654   0.517696397637451 0
ion O   0.364806724283503   0.484527420632213   0.490478093478467 0
ion O   0.234764913404962   0.139907528010485   0.516677816776470 0
ion O   0.135724592179318   0.013778716074122   0.491558993711275 0
ion O   0.473339816135941   0.108496939555333   0.484246137928227 0
ion O   0.265970839104420   0.356030542883660   0.488980993595827 0
ion O   0.024459946980635   0.390411703420142   0.513246617872356 0
ion O   0.273186042517858   0.049649313550639   0.399657705867349 0
ion O   0.022078646778485   0.201757792031415   0.605475906735028 0
ion O   0.235198920004812   0.459837071576027   0.597661005573258 0
ion O   0.477732131277447   0.313970152576987   0.404262286539355 0
ion O   0.624243806231859   0.259966549488426   0.477342403118176 0
ion O   0.886581508936882   0.241549742827727   0.513749297782266 0
ion O   0.867884994242269   0.486093003424834   0.520796207921361 0
ion O   0.739594777045985   0.143039519576510   0.506182018965220 0
ion O   0.635106690335435   0.018211258272787   0.488899765498585 0
ion O   0.980996912611955   0.111209678125463   0.490272627825694 0
ion O   0.768965760061213   0.361297228022951   0.494197644158391 0
ion O   0.521767892137786   0.372660359642918   0.537275790166117 0
ion O   0.770525037015210   0.047787505421556   0.393127063392496 0
ion O   0.536388449836251   0.197290104027265   0.593864953656600 0
ion O   0.728876363456257   0.451137051916089   0.610371193117793 0
ion O   0.986349103834904   0.300102150762029   0.397940743843591 0
ion O   0.113418508063117   0.758450257172272   0.486260670217734 0
ion O   0.375756159768138   0.740033478511577   0.522667564881825 0
ion O   0.364893309664564   0.981788786727213   0.511100183501421 0
ion O   0.231044243938783   0.638702716977048   0.505802304841609 0
ion O   0.132115022757729   0.513906941575165   0.479203741078645 0
ion O   0.478242111862210   0.627339640357082   0.462734177833884 0
ion O   0.260415260954014   0.856960535423492   0.493817930034780 0
ion O   0.019013117388044   0.888790341874532   0.509737340174307 0
ion O   0.271123636543743   0.548872955083911   0.389618762882208 0
ion O   0.013650875165097   0.699887814237968   0.602059231156410 0
ion O   0.229474945984792   0.952222443578439   0.606862892607504 0
ion O   0.463611550163749   0.802699859972736   0.406135021343401 0
ion O   0.615442652771863   0.760969207912346   0.482313570362550 0
ion O   0.880879230918664   0.739472563279609   0.508807282213293 0
ion O   0.864275424820680   0.986221328925878   0.508440955288732 0
ion O   0.734039198895579   0.643969402116338   0.511018955404172 0
ion O   0.635193275716497   0.515472524367786   0.509521855521540 0
ion O   0.975550083019364   0.609588296579858   0.486763350127644 0
ion O   0.765245090595035   0.860092526989516   0.483322132223530 0
ion O   0.526670187864056   0.891503080444661   0.515763830071774 0
ion O   0.764801062995189   0.540172935423973   0.402328950426742 0
ion O   0.522267868722552   0.686019812423010   0.595737688460646 0
ion O   0.726813957482142   0.950360635449356   0.600332250132651 0
ion O   0.977921332221517   0.798232171968585   0.394524068264974 0
ion-species GBRV/$ID_pbe.uspp
ion-width Ecut
ionic-minimize  \
	dirUpdateScheme      L-BFGS \
	linminMethod         DirUpdateRecommended \
	nIterations          0 \
	history              15 \
	knormThreshold       0.0001 \
	energyDiffThreshold  1e-06 \
	nEnergyDiff          2 \
	alphaTstart          1 \
	alphaTmin            1e-10 \
	updateTestStepSize   yes \
	alphaTreduceFactor   0.1 \
	alphaTincreaseFactor 3 \
	nAlphaAdjustMax      3 \
	wolfeEnergy          0.0001 \
	wolfeGradient        0.9 \
	fdTest               no
kpoint   0.000000000000   0.000000000000   0.000000000000  1.00000000000000
kpoint-folding 2 2 1 
latt-move-scale 1 1 1
latt-scale 1 1 1 
lattice Triclinic 26.5716 32.5947 35.0769 90 90 90
lattice-minimize  \
	dirUpdateScheme      L-BFGS \
	linminMethod         DirUpdateRecommended \
	nIterations          0 \
	history              15 \
	knormThreshold       0 \
	energyDiffThreshold  1e-06 \
	nEnergyDiff          2 \
	alphaTstart          1 \
	alphaTmin            1e-10 \
	updateTestStepSize   yes \
	alphaTreduceFactor   0.1 \
	alphaTincreaseFactor 3 \
	nAlphaAdjustMax      3 \
	wolfeEnergy          0.0001 \
	wolfeGradient        0.9 \
	fdTest               no
lcao-params -1 1e-06 0.0073499
pcm-variant CANDLE
spintype no-spin
subspace-rotation-factor 1 yes
symmetries automatic
symmetry-threshold 0.0001



---------- Setting up symmetries ----------

Found 8 point-group symmetries of the bravais lattice
Found 2 space-group symmetries with basis
Applied RMS atom displacement 0.000160458 bohrs to make symmetries exact.

---------- Initializing the Grid ----------
R = 
[    26.5716          0          0  ]
[          0    32.5947          0  ]
[          0          0    35.0769  ]
unit cell volume = 30379.9
G =
[   0.236462          0          0  ]
[          0   0.192767          0  ]
[          0          0   0.179126  ]
Minimum fftbox size, Smin = [  120  148  160  ]
Chosen fftbox size, S = [  120  150  160  ]

---------- Initializing tighter grid for wavefunction operations ----------
R = 
[    26.5716          0          0  ]
[          0    32.5947          0  ]
[          0          0    35.0769  ]
unit cell volume = 30379.9
G =
[   0.236462          0          0  ]
[          0   0.192767          0  ]
[          0          0   0.179126  ]
Minimum fftbox size, Smin = [  108  132  144  ]
Chosen fftbox size, S = [  108  140  144  ]

---------- Exchange Correlation functional ----------
Initalized PBE GGA exchange.
Initalized PBE GGA correlation.

---------- Setting up pseudopotentials ----------
Width of ionic core gaussian charges (only for fluid interactions / plotting) set to 0.397384

Reading pseudopotential file '/home/guoxy/vasp/jdftx-1.5.0/build/pseudopotentials/GBRV/cu_pbe.uspp':
  Title: Cu.  Created by USPP 7.3.6 on 3-2-2014
  Reference state energy: -201.059491.  19 valence electrons in orbitals:
    |300>  occupation: 2  eigenvalue: -5.020764
    |310>  occupation: 6  eigenvalue: -3.445588
    |320>  occupation: 8  eigenvalue: -0.925168
    |400>  occupation: 2  eigenvalue: -0.567638
    |410>  occupation: 0  eigenvalue: -0.326154
  lMax: 2  lLocal: 3  QijEcut: 6
  6 projectors sampled on a log grid with 613 points:
    l: 0  eig: -5.020767  rCut: 1.4
    l: 0  eig: -0.567640  rCut: 1.4
    l: 1  eig: -3.445589  rCut: 1.55
    l: 1  eig: -0.326157  rCut: 1.55
    l: 2  eig: -0.925170  rCut: 1.5
    l: 2  eig: 1.500000  rCut: 1.5
  Partial core density with radius 0.8
  Transforming core density to a uniform radial grid of dG=0.02 with 1246 points.
  Transforming local potential to a uniform radial grid of dG=0.02 with 1246 points.
  Transforming nonlocal projectors to a uniform radial grid of dG=0.02 with 432 points.
  Transforming density augmentations to a uniform radial grid of dG=0.02 with 1246 points.
  Transforming atomic orbitals to a uniform radial grid of dG=0.02 with 432 points.
  Core radius for overlap checks: 1.55 bohrs.

Reading pseudopotential file '/home/guoxy/vasp/jdftx-1.5.0/build/pseudopotentials/GBRV/h_pbe.uspp':
  Title: H.  Created by USPP 7.3.6 on 2-4-15
  Reference state energy: -0.458849.  1 valence electrons in orbitals:
    |100>  occupation: 1  eigenvalue: -0.238595
  lMax: 0  lLocal: 1  QijEcut: 6
  2 projectors sampled on a log grid with 395 points:
    l: 0  eig: -0.238595  rCut: 1.2
    l: 0  eig: 1.000000  rCut: 1.2
  Transforming local potential to a uniform radial grid of dG=0.02 with 1246 points.
  Transforming nonlocal projectors to a uniform radial grid of dG=0.02 with 432 points.
  Transforming density augmentations to a uniform radial grid of dG=0.02 with 1246 points.
  Transforming atomic orbitals to a uniform radial grid of dG=0.02 with 432 points.
  Core radius for overlap checks: 1.20 bohrs.

Reading pseudopotential file '/home/guoxy/vasp/jdftx-1.5.0/build/pseudopotentials/GBRV/se_pbe.uspp':
  Title: Se.  Created by USPP 7.3.6 on 14-9-2013
  Reference state energy: -21.672887.  6 valence electrons in orbitals:
    |400>  occupation: 2  eigenvalue: -0.635284
    |410>  occupation: 4  eigenvalue: -0.239295
  lMax: 2  lLocal: 3  QijEcut: 5
  6 projectors sampled on a log grid with 625 points:
    l: 0  eig: -0.635278  rCut: 1.5
    l: 0  eig: 0.500000  rCut: 1.5
    l: 1  eig: -0.239295  rCut: 1.5
    l: 1  eig: 0.500000  rCut: 1.5
    l: 2  eig: 0.000000  rCut: 1.8
    l: 2  eig: 1.000000  rCut: 1.8
  Partial core density with radius 1.2
  Transforming core density to a uniform radial grid of dG=0.02 with 1246 points.
  Transforming local potential to a uniform radial grid of dG=0.02 with 1246 points.
  Transforming nonlocal projectors to a uniform radial grid of dG=0.02 with 432 points.
  Transforming density augmentations to a uniform radial grid of dG=0.02 with 1246 points.
  Transforming atomic orbitals to a uniform radial grid of dG=0.02 with 432 points.
  Core radius for overlap checks: 1.80 bohrs.

Reading pseudopotential file '/home/guoxy/vasp/jdftx-1.5.0/build/pseudopotentials/GBRV/o_pbe.uspp':
  Title: O.  Created by USPP 7.3.6 on 3-2-2014
  Reference state energy: -15.894388.  6 valence electrons in orbitals:
    |200>  occupation: 2  eigenvalue: -0.878823
    |210>  occupation: 4  eigenvalue: -0.332131
  lMax: 2  lLocal: 2  QijEcut: 6
  5 projectors sampled on a log grid with 511 points:
    l: 0  eig: -0.878823  rCut: 1.25
    l: 0  eig: 0.000000  rCut: 1.25
    l: 1  eig: -0.332132  rCut: 1.25
    l: 1  eig: 0.000000  rCut: 1.25
    l: 2  eig: 1.000000  rCut: 1.25
  Partial core density with radius 0.7
  Transforming core density to a uniform radial grid of dG=0.02 with 1246 points.
  Transforming local potential to a uniform radial grid of dG=0.02 with 1246 points.
  Transforming nonlocal projectors to a uniform radial grid of dG=0.02 with 432 points.
  Transforming density augmentations to a uniform radial grid of dG=0.02 with 1246 points.
  Transforming atomic orbitals to a uniform radial grid of dG=0.02 with 432 points.
  Core radius for overlap checks: 1.25 bohrs.

Initialized 4 species with 87 total atoms.

Folded 1 k-points by 2x2x1 to 4 k-points.

---------- Setting up k-points, bands, fillings ----------
No reducable k-points. 
Computing the number of bands and number of electrons
Calculating initial fillings.
nElectrons: 533.000000   nBands: 363   nStates: 4

----- Setting up reduced wavefunction bases (one per k-point) -----
average nbasis = 129812.750 , ideal nbasis = 129785.459

---------- Setting up coulomb interaction ----------
Fluid mode embedding: using embedded box, but periodic Coulomb kernel.
(Fluid response is responsible for (approximate) separation between periodic images.)
Setting up double-sized grid for truncated Coulomb potentials:
R = 
[    26.5716          0          0  ]
[          0    32.5947          0  ]
[          0          0    70.1538  ]
unit cell volume = 60759.9
G =
[   0.236462          0          0  ]
[          0   0.192767          0  ]
[          0          0   0.089563  ]
Chosen fftbox size, S = [  120  150  320  ]
Integer grid location selected as the embedding center:
   Grid: [  0  0  80  ]
   Lattice: [  0  0  0.5  ]
   Cartesian: [  0  0  17.5385  ]
Constructing Wigner-Seitz cell: 6 faces (6 quadrilaterals, 0 hexagons)
Range-separation parameter for embedded mesh potentials due to point charges: 0.593647 bohrs.

Initializing van der Waals corrections
	NOTE: vdW corrections apply only for interactions with fluid.
	Cu:  C6:  187.33 Eh-a0^6  R0: 2.952 a0
	 H:  C6:    2.43 Eh-a0^6  R0: 1.892 a0
	Se:  C6:  219.24 Eh-a0^6  R0: 3.347 a0
	 O:  C6:   12.14 Eh-a0^6  R0: 2.536 a0

---------- Setting up ewald sum ----------
Optimum gaussian width for ewald sums = 7.450679 bohr.
Real space sum over 567 unit cells with max indices [  4  4  3  ]
Reciprocal space sum over 8415 terms with max indices [  7  8  16  ]

---------- Allocating electronic variables ----------
Initializing wave functions:  linear combination of atomic orbitals
Cu pseudo-atom occupations:   s ( 2 1 )  p ( 6 0 )  d ( 10 )
H pseudo-atom occupations:   s ( 1 )
Se pseudo-atom occupations:   s ( 2 )  p ( 4 )
O pseudo-atom occupations:   s ( 2 )  p ( 4 )
	FillingsUpdate:  mu: +0.100384721  nElectrons: 533.000000
LCAOMinimize: Iter:   0  F: -2071.2987613130317186  |grad|_K:  2.898e-02  alpha:  1.000e+00
	FillingsUpdate:  mu: +1.853462477  nElectrons: 533.000000
LCAOMinimize: Iter:   1  F: -2151.0375066765495831  |grad|_K:  5.734e-02  alpha:  3.378e-01  linmin:  4.306e-02  cgtest: -1.135e+00  t[s]:     60.55
LCAOMinimize: 	Bad step direction: g.d > 0.
LCAOMinimize: 	Undoing step.
LCAOMinimize: 	Step failed: resetting search direction.
	FillingsUpdate:  mu: +1.853462477  nElectrons: 533.000000
LCAOMinimize: Iter:   2  F: -2151.0375066765495831  |grad|_K:  5.734e-02  alpha:  0.000e+00
	FillingsUpdate:  mu: +1.601602236  nElectrons: 533.000000
LCAOMinimize: Iter:   3  F: -2211.2657879860603316  |grad|_K:  7.694e-02  alpha:  1.282e-01  linmin:  8.627e-02  cgtest: -2.795e-01  t[s]:     85.87
LCAOMinimize: 	Bad step direction: g.d > 0.
LCAOMinimize: 	Undoing step.
LCAOMinimize: 	Step failed: resetting search direction.
	FillingsUpdate:  mu: +1.601602236  nElectrons: 533.000000
LCAOMinimize: Iter:   4  F: -2211.2657879860603316  |grad|_K:  7.694e-02  alpha:  0.000e+00
	FillingsUpdate:  mu: +0.254036050  nElectrons: 533.000000
LCAOMinimize: Iter:   5  F: -2309.7589520359747439  |grad|_K:  3.499e-02  alpha:  6.405e-02  linmin:  7.663e-02  cgtest: -3.511e-01  t[s]:    109.76
	FillingsUpdate:  mu: +0.169945408  nElectrons: 533.000000
LCAOMinimize: Iter:   6  F: -2322.5151642100668141  |grad|_K:  2.579e-02  alpha:  6.789e-02  linmin:  4.178e-03  cgtest:  5.337e-01  t[s]:    124.69
	FillingsUpdate:  mu: +0.070267558  nElectrons: 533.000000
LCAOMinimize: Iter:   7  F: -2328.2099340732543169  |grad|_K:  9.507e-03  alpha:  4.683e-02  linmin: -6.118e-02  cgtest:  1.488e+00  t[s]:    139.38
LCAOMinimize: Encountered beta<0, resetting CG.
LCAOMinimize: 	Predicted alpha/alphaT>3.000000, increasing alphaT to 1.404972e-01.
	FillingsUpdate:  mu: +0.075405368  nElectrons: 533.000000
LCAOMinimize: Iter:   8  F: -2331.9538804209187219  |grad|_K:  8.675e-03  alpha:  1.572e-01  linmin: -6.230e-04  cgtest: -1.672e-02  t[s]:    157.36
	FillingsUpdate:  mu: +0.034071350  nElectrons: 533.000000
LCAOMinimize: Iter:   9  F: -2335.6971255059497707  |grad|_K:  1.013e-02  alpha:  7.161e-02  linmin: -6.823e-02  cgtest:  3.804e-01  t[s]:    172.35
	FillingsUpdate:  mu: -0.037676915  nElectrons: 533.000000
LCAOMinimize: Iter:  10  F: -2339.6331320470180799  |grad|_K:  3.652e-03  alpha:  4.295e-02  linmin: -4.963e-02  cgtest:  7.371e-01  t[s]:    186.93
LCAOMinimize: Encountered beta<0, resetting CG.
	FillingsUpdate:  mu: -0.051368595  nElectrons: 533.000000
LCAOMinimize: Iter:  11  F: -2339.8083398231487990  |grad|_K:  2.511e-03  alpha:  5.095e-02  linmin:  2.477e-02  cgtest: -9.144e-02  t[s]:    201.34
LCAOMinimize: 	Predicted alpha/alphaT>3.000000, increasing alphaT to 1.528631e-01.
	FillingsUpdate:  mu: -0.129019367  nElectrons: 533.000000
LCAOMinimize: Iter:  12  F: -2340.0567681166671719  |grad|_K:  1.329e-03  alpha:  1.762e-01  linmin:  3.708e-02  cgtest: -1.286e-01  t[s]:    224.27
	FillingsUpdate:  mu: -0.138752459  nElectrons: 533.000000
LCAOMinimize: Iter:  13  F: -2340.0677727806319126  |grad|_K:  9.244e-04  alpha:  3.561e-02  linmin:  2.375e-02  cgtest:  3.090e-01  t[s]:    239.38
LCAOMinimize: 	Predicted alpha/alphaT>3.000000, increasing alphaT to 1.068340e-01.
	FillingsUpdate:  mu: -0.098676027  nElectrons: 533.000000
LCAOMinimize: Iter:  14  F: -2340.1040056172150798  |grad|_K:  8.607e-04  alpha:  1.665e-01  linmin: -6.920e-04  cgtest: -1.009e-01  t[s]:    258.42
	FillingsUpdate:  mu: -0.105725196  nElectrons: 533.000000
LCAOMinimize: Iter:  15  F: -2340.1116058778134175  |grad|_K:  2.583e-04  alpha:  4.090e-02  linmin:  2.161e-02  cgtest: -1.696e-01  t[s]:    274.44
	FillingsUpdate:  mu: -0.106369988  nElectrons: 533.000000
LCAOMinimize: Iter:  16  F: -2340.1132399694888591  |grad|_K:  3.373e-04  alpha:  1.010e-01  linmin: -4.786e-04  cgtest:  1.034e-01  t[s]:    289.38
	FillingsUpdate:  mu: -0.108658317  nElectrons: 533.000000
LCAOMinimize: Iter:  17  F: -2340.1158075363432545  |grad|_K:  1.932e-04  alpha:  8.455e-02  linmin:  6.194e-04  cgtest: -2.024e-01  t[s]:    304.28
	FillingsUpdate:  mu: -0.110512369  nElectrons: 533.000000
LCAOMinimize: Iter:  18  F: -2340.1164025228822538  |grad|_K:  1.500e-04  alpha:  6.037e-02  linmin:  6.911e-05  cgtest:  1.720e-02  t[s]:    320.09
	FillingsUpdate:  mu: -0.112865160  nElectrons: 533.000000
LCAOMinimize: Iter:  19  F: -2340.1170226126787384  |grad|_K:  1.456e-04  alpha:  1.045e-01  linmin:  9.052e-04  cgtest:  5.419e-03  t[s]:    334.79
	FillingsUpdate:  mu: -0.112837499  nElectrons: 533.000000
LCAOMinimize: Iter:  20  F: -2340.1173164463903049  |grad|_K:  7.940e-05  alpha:  5.259e-02  linmin: -3.573e-04  cgtest:  3.899e-02  t[s]:    349.00
	FillingsUpdate:  mu: -0.112095240  nElectrons: 533.000000
LCAOMinimize: Iter:  21  F: -2340.1174280021004961  |grad|_K:  6.312e-05  alpha:  6.664e-02  linmin:  7.412e-05  cgtest: -9.153e-03  t[s]:    363.52
	FillingsUpdate:  mu: -0.111008720  nElectrons: 533.000000
LCAOMinimize: Iter:  22  F: -2340.1175039234612996  |grad|_K:  3.712e-05  alpha:  7.195e-02  linmin: -3.238e-05  cgtest:  6.609e-03  t[s]:    378.07
	FillingsUpdate:  mu: -0.110510154  nElectrons: 533.000000
LCAOMinimize: Iter:  23  F: -2340.1175211581721669  |grad|_K:  2.420e-05  alpha:  4.721e-02  linmin:  1.285e-06  cgtest: -1.113e-03  t[s]:    392.70
	FillingsUpdate:  mu: -0.110050306  nElectrons: 533.000000
LCAOMinimize: Iter:  24  F: -2340.1175403182137416  |grad|_K:  2.317e-05  alpha:  1.235e-01  linmin:  2.833e-05  cgtest: -2.947e-04  t[s]:    407.56
	FillingsUpdate:  mu: -0.110029759  nElectrons: 533.000000
LCAOMinimize: Iter:  25  F: -2340.1175483404031183  |grad|_K:  1.420e-05  alpha:  5.641e-02  linmin: -3.735e-05  cgtest:  1.138e-03  t[s]:    422.33
	FillingsUpdate:  mu: -0.110132963  nElectrons: 533.000000
LCAOMinimize: Iter:  26  F: -2340.1175521160143944  |grad|_K:  1.337e-05  alpha:  7.066e-02  linmin:  4.369e-06  cgtest: -5.695e-04  t[s]:    437.32
	FillingsUpdate:  mu: -0.110393981  nElectrons: 533.000000
LCAOMinimize: Iter:  27  F: -2340.1175557589685923  |grad|_K:  6.889e-06  alpha:  7.687e-02  linmin:  5.137e-05  cgtest:  4.083e-04  t[s]:    453.09
	FillingsUpdate:  mu: -0.110474032  nElectrons: 533.000000
LCAOMinimize: Iter:  28  F: -2340.1175567963337016  |grad|_K:  7.151e-06  alpha:  8.251e-02  linmin:  1.191e-05  cgtest:  1.830e-04  t[s]:    468.42
	FillingsUpdate:  mu: -0.110483046  nElectrons: 533.000000
LCAOMinimize: Iter:  29  F: -2340.1175578858096742  |grad|_K:  5.745e-06  alpha:  8.040e-02  linmin:  6.372e-06  cgtest: -1.612e-04  t[s]:    483.40
	FillingsUpdate:  mu: -0.110462265  nElectrons: 533.000000
LCAOMinimize: Iter:  30  F: -2340.1175583312192430  |grad|_K:  2.966e-06  alpha:  5.093e-02  linmin:  6.710e-07  cgtest:  8.269e-05  t[s]:    498.96
LCAOMinimize: None of the convergence criteria satisfied after 30 iterations.
----- createFluidSolver() ----- (Fluid-side solver setup)
   Initializing fluid molecule 'H2O'
     Initializing site 'O'
       Electron density: proportional to exp(-r/0.36935)*erfc((r-0.51523)/0.36823) with norm 6.826
       Charge density: gaussian nuclear width 0.478731 with net site charge 0.826
       Polarizability: cuspless exponential with width 0.32 and norm 3.73
       Hard sphere radius: 2.57003 bohrs
       Positions in reference frame:
         [ +0.000000 +0.000000 +0.000000 ]
     Initializing site 'H'
       Electron density: proportional to exp(-r/0.34641)*erfc((r-0)/0.390882) with norm 0.587
       Charge density: gaussian nuclear width 0.377945 with net site charge -0.413
       Polarizability: cuspless exponential with width 0.39 and norm 3.3
       Positions in reference frame:
         [ +0.000000 -1.441945 +1.122523 ]
         [ +0.000000 +1.441945 +1.122523 ]
     Net charge: 0   dipole magnitude: 0.927204
     Initializing spherical shell mfKernel with radius 2.61727 Bohr
     deltaS corrections:
       site 'O': -7.54299
       site 'H': -6.83917
   Initializing fluid molecule 'Na+'
     Initializing site 'Na'
       Electron density: proportional to exp(-r/0.19682)*erfc((r-0.71491)/0.41314) with norm 8.1383
       Charge density: gaussian nuclear width 0.365347 with net site charge -1
       Hard sphere radius: 1.86327 bohrs
       Positions in reference frame:
         [ +0.000000 +0.000000 +0.000000 ]
     Net charge: -1   dipole magnitude: 0
     Initializing gaussian mfKernel with width: 1.55004 Bohr
     deltaS corrections:
       site 'Na': -22.3555
   Initializing fluid molecule 'F-'
     Initializing site 'F'
       Electron density: proportional to exp(-r/0.38886)*erfc((r-0)/0.438782) with norm 8
       Charge density: gaussian nuclear width 0.374796 with net site charge 1
       Hard sphere radius: 2.39995 bohrs
       Positions in reference frame:
         [ +0.000000 +0.000000 +0.000000 ]
     Net charge: 1   dipole magnitude: 0
     Initializing gaussian mfKernel with width: 1.59012 Bohr
     deltaS corrections:
       site 'F': -9.04335

Correction to mu due to finite nuclear width = -0.00870382
   Cavity determined by nc: 0.00142 and sigma: 0.707107
   Nonlocal vdW cavity from gaussian model electron density with norm = 8 and sigma = 0.993594 bohr
   Charge asymmetry in cavity with sensitivity pCavity = 36.5 e-bohr/Eh
   Electrostatic cavity expanded by eta = 1.46 bohrs
   Weighted density cavitation model constrained by Nbulk: 0.0049383 bohr^-3, Pvap: 3.14029 kPa, Rvdw: 2.61727 bohr and sigmaBulk: 4.62e-05 Eh/bohr^2 at T: 298 K.
   Weighted density dispersion model using vdW pair potentials with single solvent site with sqrtC6eff: 0.77 SI.


---- Citations for features of the code used in this run ----

   Software package:
      R. Sundararaman, K. Letchworth-Weaver, K.A. Schwarz, D. Gunceler, Y. Ozhabes and T.A. Arias, 'JDFTx: software for joint density-functional theory', SoftwareX 6, 278 (2017)

   gga-PBE exchange-correlation functional:
      J.P. Perdew, K. Burke and M. Ernzerhof, Phys. Rev. Lett. 77, 3865 (1996)

   Pseudopotentials:
      KF Garrity, JW Bennett, KM Rabe and D Vanderbilt, Comput. Mater. Sci. 81, 446 (2014)

   Truncated Coulomb potentials:
      R. Sundararaman and T.A. Arias, Phys. Rev. B 87, 165122 (2013)

   Van der Waals correction pair-potentials:
      S. Grimme, J. Comput. Chem. 27, 1787 (2006)

   Charge-asymmetric nonlocally-determined local-electric (CANDLE) solvation model:
      R. Sundararaman and W.A. Goddard III, J. Chem. Phys. 142, 064107 (2015)

   Total energy minimization with Auxiliary Hamiltonian:
      C. Freysoldt, S. Boeck, and J. Neugebauer, Phys. Rev. B 79, 241103(R) (2009)

This list may not be complete. Please suggest additional citations or
report any other bugs at https://github.com/shankar1729/jdftx/issues

Initialization completed successfully at t[s]:    504.75

Fluid solver invoked on fresh (partially random / LCAO) wavefunctions
Running a vacuum solve first:

-------- Initial electronic minimization -----------
	FillingsUpdate:  mu: -0.110462265  nElectrons: 533.000000
ElecMinimize: Iter:   0  F: -2340.117558331238342  |grad|_K:  2.535e-04  alpha:  1.000e+00
	FillingsUpdate:  mu: -0.202736031  nElectrons: 533.000000
	SubspaceRotationAdjust: set factor to 1
ElecMinimize: Iter:   1  F: -2342.242345746502451  |grad|_K:  2.665e-04  alpha:  1.813e-01  linmin:  5.937e-05  t[s]:    548.39
	FillingsUpdate:  mu: -0.046279428  nElectrons: 533.000000
	SubspaceRotationAdjust: set factor to 0.658
ElecMinimize: Iter:   2  F: -2344.940031663560603  |grad|_K:  1.647e-04  alpha:  2.113e-01  linmin:  8.025e-05  t[s]:    577.39
	FillingsUpdate:  mu: -0.043801771  nElectrons: 533.000000
	SubspaceRotationAdjust: set factor to 0.471
ElecMinimize: Iter:   3  F: -2345.244424584491298  |grad|_K:  1.534e-04  alpha:  8.398e-02  linmin:  2.826e-04  t[s]:    606.66
	FillingsUpdate:  mu: -0.110627024  nElectrons: 533.000000
	SubspaceRotationAdjust: set factor to 0.729
ElecMinimize: Iter:   4  F: -2345.823221019443736  |grad|_K:  9.095e-05  alpha:  1.683e-01  linmin: -1.851e-05  t[s]:    635.65
	FillingsUpdate:  mu: -0.123241784  nElectrons: 533.000000
	SubspaceRotationAdjust: set factor to 0.609
ElecMinimize: Iter:   5  F: -2346.027699696768195  |grad|_K:  8.161e-05  alpha:  1.273e-01  linmin:  1.595e-05  t[s]:    664.75
	FillingsUpdate:  mu: -0.159636054  nElectrons: 533.000000
	SubspaceRotationAdjust: set factor to 0.473
ElecMinimize: Iter:   6  F: -2346.149559228942053  |grad|_K:  5.311e-05  alpha:  9.814e-02  linmin:  1.502e-06  t[s]:    693.52
	FillingsUpdate:  mu: -0.145926525  nElectrons: 533.000000
	SubspaceRotationAdjust: set factor to 0.409
ElecMinimize: Iter:   7  F: -2346.236874263653135  |grad|_K:  4.393e-05  alpha:  1.653e-01  linmin:  2.974e-05  t[s]:    722.73
	FillingsUpdate:  mu: -0.160190095  nElectrons: 533.000000
	SubspaceRotationAdjust: set factor to 0.452
ElecMinimize: Iter:   8  F: -2346.296095470661839  |grad|_K:  2.901e-05  alpha:  1.654e-01  linmin:  1.257e-05  t[s]:    752.39
	FillingsUpdate:  mu: -0.165137438  nElectrons: 533.000000
	SubspaceRotationAdjust: set factor to 0.396
ElecMinimize: Iter:   9  F: -2346.313377300495631  |grad|_K:  2.250e-05  alpha:  1.092e-01  linmin:  9.636e-07  t[s]:    781.44
	FillingsUpdate:  mu: -0.162432977  nElectrons: 533.000000
	SubspaceRotationAdjust: set factor to 0.333
ElecMinimize: Iter:  10  F: -2346.329859555258736  |grad|_K:  1.532e-05  alpha:  1.720e-01  linmin: -4.302e-05  t[s]:    810.30
	FillingsUpdate:  mu: -0.168662983  nElectrons: 533.000000
	SubspaceRotationAdjust: set factor to 0.315
ElecMinimize: Iter:  11  F: -2346.340102677707364  |grad|_K:  1.473e-05  alpha:  2.295e-01  linmin: -9.047e-06  t[s]:    839.96
	FillingsUpdate:  mu: -0.168719408  nElectrons: 533.000000
	SubspaceRotationAdjust: set factor to 0.308
ElecMinimize: Iter:  12  F: -2346.345039556311349  |grad|_K:  8.373e-06  alpha:  1.201e-01  linmin: -7.257e-07  t[s]:    868.69
	FillingsUpdate:  mu: -0.165400044  nElectrons: 533.000000
	SubspaceRotationAdjust: set factor to 0.336
ElecMinimize: Iter:  13  F: -2346.348740786865619  |grad|_K:  8.091e-06  alpha:  2.797e-01  linmin:  1.084e-06  t[s]:    907.12
	FillingsUpdate:  mu: -0.168941042  nElectrons: 533.000000
	SubspaceRotationAdjust: set factor to 0.336
ElecMinimize: Iter:  14  F: -2346.350370097769428  |grad|_K:  4.886e-06  alpha:  1.318e-01  linmin: -1.886e-06  t[s]:    931.88
	FillingsUpdate:  mu: -0.168759204  nElectrons: 533.000000
	SubspaceRotationAdjust: set factor to 0.313
ElecMinimize: Iter:  15  F: -2346.351410763879358  |grad|_K:  4.957e-06  alpha:  2.308e-01  linmin: -3.651e-07  t[s]:    959.70
	FillingsUpdate:  mu: -0.167556254  nElectrons: 533.000000
	SubspaceRotationAdjust: set factor to 0.319
ElecMinimize: Iter:  16  F: -2346.352064523242916  |grad|_K:  3.495e-06  alpha:  1.409e-01  linmin: -1.300e-07  t[s]:    989.36
	FillingsUpdate:  mu: -0.168469503  nElectrons: 533.000000
	SubspaceRotationAdjust: set factor to 0.359
ElecMinimize: Iter:  17  F: -2346.352601315069023  |grad|_K:  2.397e-06  alpha:  2.330e-01  linmin:  1.932e-06  t[s]:   1018.17
	FillingsUpdate:  mu: -0.168583639  nElectrons: 533.000000
	SubspaceRotationAdjust: set factor to 0.375
ElecMinimize: Iter:  18  F: -2346.352775696608205  |grad|_K:  2.297e-06  alpha:  1.610e-01  linmin:  1.332e-08  t[s]:   1047.22
	FillingsUpdate:  mu: -0.168450948  nElectrons: 533.000000
	SubspaceRotationAdjust: set factor to 0.31
ElecMinimize: Iter:  19  F: -2346.352992684170204  |grad|_K:  2.138e-06  alpha:  2.179e-01  linmin:  2.631e-07  t[s]:   1076.50
	FillingsUpdate:  mu: -0.168615268  nElectrons: 533.000000
	SubspaceRotationAdjust: set factor to 0.349
ElecMinimize: Iter:  20  F: -2346.353109388116536  |grad|_K:  1.427e-06  alpha:  1.353e-01  linmin: -5.148e-08  t[s]:   1105.59
	FillingsUpdate:  mu: -0.168673884  nElectrons: 533.000000
	SubspaceRotationAdjust: set factor to 0.357
ElecMinimize: Iter:  21  F: -2346.353183104123673  |grad|_K:  1.103e-06  alpha:  1.919e-01  linmin:  2.221e-07  t[s]:   1135.26
	FillingsUpdate:  mu: -0.168355394  nElectrons: 533.000000
	SubspaceRotationAdjust: set factor to 0.353
ElecMinimize: Iter:  22  F: -2346.353233751251537  |grad|_K:  1.156e-06  alpha:  2.206e-01  linmin:  8.859e-08  t[s]:   1164.08
	FillingsUpdate:  mu: -0.168484531  nElectrons: 533.000000
	SubspaceRotationAdjust: set factor to 0.319
ElecMinimize: Iter:  23  F: -2346.353282596211557  |grad|_K:  9.717e-07  alpha:  1.938e-01  linmin:  9.656e-08  t[s]:   1193.51
	FillingsUpdate:  mu: -0.168681533  nElectrons: 533.000000
	SubspaceRotationAdjust: set factor to 0.299
ElecMinimize: Iter:  24  F: -2346.353308860482684  |grad|_K:  7.352e-07  alpha:  1.474e-01  linmin:  2.857e-08  t[s]:   1223.56
	FillingsUpdate:  mu: -0.168391403  nElectrons: 533.000000
	SubspaceRotationAdjust: set factor to 0.306
ElecMinimize: Iter:  25  F: -2346.353334822866145  |grad|_K:  6.785e-07  alpha:  2.546e-01  linmin:  7.878e-08  t[s]:   1252.34
	FillingsUpdate:  mu: -0.168721814  nElectrons: 533.000000
	SubspaceRotationAdjust: set factor to 0.304
ElecMinimize: Iter:  26  F: -2346.353351179632227  |grad|_K:  6.441e-07  alpha:  1.883e-01  linmin:  1.127e-08  t[s]:   1281.81
	FillingsUpdate:  mu: -0.168640837  nElectrons: 533.000000
	SubspaceRotationAdjust: set factor to 0.285
ElecMinimize: Iter:  27  F: -2346.353370161451949  |grad|_K:  5.956e-07  alpha:  2.425e-01  linmin:  3.108e-08  t[s]:   1311.14
	FillingsUpdate:  mu: -0.168399834  nElectrons: 533.000000
	SubspaceRotationAdjust: set factor to 0.295
ElecMinimize: Iter:  28  F: -2346.353381858145440  |grad|_K:  5.472e-07  alpha:  1.747e-01  linmin:  4.413e-09  t[s]:   1340.65
	FillingsUpdate:  mu: -0.168601699  nElectrons: 533.000000
	SubspaceRotationAdjust: set factor to 0.296
ElecMinimize: Iter:  29  F: -2346.353395908265156  |grad|_K:  4.483e-07  alpha:  2.487e-01  linmin:  7.422e-08  t[s]:   1370.10
	FillingsUpdate:  mu: -0.168443326  nElectrons: 533.000000
	SubspaceRotationAdjust: set factor to 0.301
ElecMinimize: Iter:  30  F: -2346.353404033965944  |grad|_K:  4.954e-07  alpha:  2.143e-01  linmin:  4.639e-09  t[s]:   1400.23
	FillingsUpdate:  mu: -0.168427965  nElectrons: 533.000000
	SubspaceRotationAdjust: set factor to 0.299
ElecMinimize: Iter:  31  F: -2346.353413932888998  |grad|_K:  4.177e-07  alpha:  2.137e-01  linmin:  1.018e-08  t[s]:   1429.21
	FillingsUpdate:  mu: -0.168564595  nElectrons: 533.000000
	SubspaceRotationAdjust: set factor to 0.299
ElecMinimize: Iter:  32  F: -2346.353420185067989  |grad|_K:  3.599e-07  alpha:  1.899e-01  linmin:  1.266e-08  t[s]:   1457.94
	FillingsUpdate:  mu: -0.168458029  nElectrons: 533.000000
	SubspaceRotationAdjust: set factor to 0.325
ElecMinimize: Iter:  33  F: -2346.353425098194293  |grad|_K:  2.944e-07  alpha:  2.010e-01  linmin:  8.571e-09  t[s]:   1487.36
	FillingsUpdate:  mu: -0.168503788  nElectrons: 533.000000
	SubspaceRotationAdjust: set factor to 0.33
ElecMinimize: Iter:  34  F: -2346.353428571590939  |grad|_K:  2.948e-07  alpha:  2.123e-01  linmin:  2.292e-08  t[s]:   1516.56
	FillingsUpdate:  mu: -0.168552157  nElectrons: 533.000000
	SubspaceRotationAdjust: set factor to 0.314
ElecMinimize: Iter:  35  F: -2346.353431344665751  |grad|_K:  2.065e-07  alpha:  1.691e-01  linmin:  1.491e-08  t[s]:   1546.28
	FillingsUpdate:  mu: -0.168483145  nElectrons: 533.000000
	SubspaceRotationAdjust: set factor to 0.311
ElecMinimize: Iter:  36  F: -2346.353432814938060  |grad|_K:  1.911e-07  alpha:  1.827e-01  linmin:  5.028e-09  t[s]:   1575.17
	FillingsUpdate:  mu: -0.168476116  nElectrons: 533.000000
	SubspaceRotationAdjust: set factor to 0.33
ElecMinimize: Iter:  37  F: -2346.353434064666999  |grad|_K:  1.314e-07  alpha:  1.813e-01  linmin:  1.233e-08  t[s]:   1605.23
	FillingsUpdate:  mu: -0.168508446  nElectrons: 533.000000
	SubspaceRotationAdjust: set factor to 0.345
ElecMinimize: Iter:  38  F: -2346.353434695507076  |grad|_K:  1.246e-07  alpha:  1.936e-01  linmin:  1.255e-09  t[s]:   1634.22
	FillingsUpdate:  mu: -0.168484917  nElectrons: 533.000000
	SubspaceRotationAdjust: set factor to 0.327
ElecMinimize: Iter:  39  F: -2346.353435233296295  |grad|_K:  8.991e-08  alpha:  1.834e-01  linmin:  3.791e-09  t[s]:   1663.12
	FillingsUpdate:  mu: -0.168484596  nElectrons: 533.000000
	SubspaceRotationAdjust: set factor to 0.321
ElecMinimize: Iter:  40  F: -2346.353435487875686  |grad|_K:  8.080e-08  alpha:  1.668e-01  linmin: -1.934e-08  t[s]:   1692.70
	FillingsUpdate:  mu: -0.168513883  nElectrons: 533.000000
	SubspaceRotationAdjust: set factor to 0.325
ElecMinimize: Iter:  41  F: -2346.353435704776075  |grad|_K:  5.719e-08  alpha:  1.760e-01  linmin:  4.624e-09  t[s]:   1721.72
	FillingsUpdate:  mu: -0.168487733  nElectrons: 533.000000
	SubspaceRotationAdjust: set factor to 0.345
ElecMinimize: Iter:  42  F: -2346.353435857402019  |grad|_K:  5.730e-08  alpha:  2.473e-01  linmin:  5.111e-09  t[s]:   1751.36
	FillingsUpdate:  mu: -0.168502465  nElectrons: 533.000000
	SubspaceRotationAdjust: set factor to 0.327
ElecMinimize: Iter:  43  F: -2346.353435956175872  |grad|_K:  3.843e-08  alpha:  1.593e-01  linmin:  1.486e-09  t[s]:   1780.32
	FillingsUpdate:  mu: -0.168513114  nElectrons: 533.000000
	SubspaceRotationAdjust: set factor to 0.305
ElecMinimize: Iter:  44  F: -2346.353436009533198  |grad|_K:  4.135e-08  alpha:  1.915e-01  linmin:  3.979e-09  t[s]:   1809.67
	FillingsUpdate:  mu: -0.168496454  nElectrons: 533.000000
	SubspaceRotationAdjust: set factor to 0.313
ElecMinimize: Iter:  45  F: -2346.353436073920420  |grad|_K:  3.171e-08  alpha:  1.994e-01  linmin: -1.692e-08  t[s]:   1839.23
	FillingsUpdate:  mu: -0.168506853  nElectrons: 533.000000
	SubspaceRotationAdjust: set factor to 0.321
ElecMinimize: Iter:  46  F: -2346.353436113319731  |grad|_K:  2.984e-08  alpha:  2.073e-01  linmin: -6.442e-09  t[s]:   1868.35
	FillingsUpdate:  mu: -0.168504846  nElectrons: 533.000000
	SubspaceRotationAdjust: set factor to 0.296
ElecMinimize: Iter:  47  F: -2346.353436141575003  |grad|_K:  2.440e-08  alpha:  1.681e-01  linmin: -2.163e-08  t[s]:   1897.38
	FillingsUpdate:  mu: -0.168495261  nElectrons: 533.000000
	SubspaceRotationAdjust: set factor to 0.283
ElecMinimize: Iter:  48  F: -2346.353436167780274  |grad|_K:  2.511e-08  alpha:  2.328e-01  linmin: -8.118e-09  t[s]:   1927.27
	FillingsUpdate:  mu: -0.168505956  nElectrons: 533.000000
	SubspaceRotationAdjust: set factor to 0.295
ElecMinimize: Iter:  49  F: -2346.353436188692285  |grad|_K:  1.871e-08  alpha:  1.753e-01  linmin:  2.622e-09  t[s]:   1956.24
	FillingsUpdate:  mu: -0.168504257  nElectrons: 533.000000
	SubspaceRotationAdjust: set factor to 0.303
ElecMinimize: Iter:  50  F: -2346.353436204797163  |grad|_K:  2.060e-08  alpha:  2.437e-01  linmin: -6.469e-08  t[s]:   1985.42
	FillingsUpdate:  mu: -0.168502123  nElectrons: 533.000000
	SubspaceRotationAdjust: set factor to 0.295
ElecMinimize: Iter:  51  F: -2346.353436218916158  |grad|_K:  1.512e-08  alpha:  1.756e-01  linmin:  1.391e-08  t[s]:   2015.66
	FillingsUpdate:  mu: -0.168506978  nElectrons: 533.000000
	SubspaceRotationAdjust: set factor to 0.292
ElecMinimize: Iter:  52  F: -2346.353436227435850  |grad|_K:  1.462e-08  alpha:  1.971e-01  linmin:  3.021e-08  t[s]:   2044.92
	FillingsUpdate:  mu: -0.168504895  nElectrons: 533.000000
	SubspaceRotationAdjust: set factor to 0.308
ElecMinimize: Iter:  53  F: -2346.353436235434856  |grad|_K:  1.207e-08  alpha:  1.985e-01  linmin: -7.490e-08  t[s]:   2075.03
ElecMinimize: Converged (|Delta F|<1.000000e-08 for 2 iters).
Setting wave functions to eigenvectors of Hamiltonian
Vacuum energy after initial minimize, F = -2346.353436235434856

	Linear fluid (dielectric constant: 78.4, screening length: 5.74355 Bohr) occupying 0.799261 of unit cell:	Completed after 24 iterations at t[s]:   2084.03

-------- Electronic minimization -----------
	Linear fluid (dielectric constant: 78.4, screening length: 5.74355 Bohr) occupying 0.799261 of unit cell:	Completed after 0 iterations at t[s]:   2090.13
	FillingsUpdate:  mu: -0.200106204  nElectrons: 533.000000
ElecMinimize: Iter:   0  F: -2346.377187158171182  |grad|_K:  6.734e-06  alpha:  1.000e+00
	Linear fluid (dielectric constant: 78.4, screening length: 5.74355 Bohr) occupying 0.799943 of unit cell:	Completed after 16 iterations at t[s]:   2116.75
	Linear fluid (dielectric constant: 78.4, screening length: 5.74355 Bohr) occupying 0.799626 of unit cell:	Completed after 13 iterations at t[s]:   2128.27
	FillingsUpdate:  mu: -0.204183611  nElectrons: 533.000000
	SubspaceRotationAdjust: set factor to 0.275
ElecMinimize: Iter:   1  F: -2346.381771360827315  |grad|_K:  1.084e-05  alpha:  5.520e-01  linmin:  1.173e-05  t[s]:   2139.98
	Linear fluid (dielectric constant: 78.4, screening length: 5.74355 Bohr) occupying 0.800700 of unit cell:	Completed after 16 iterations at t[s]:   2153.85
	Linear fluid (dielectric constant: 78.4, screening length: 5.74355 Bohr) occupying 0.799840 of unit cell:	Completed after 15 iterations at t[s]:   2166.00
	FillingsUpdate:  mu: -0.204697071  nElectrons: 533.000000
	SubspaceRotationAdjust: set factor to 0.398
ElecMinimize: Iter:   2  F: -2346.384217917532169  |grad|_K:  6.291e-06  alpha:  1.126e-01  linmin:  9.945e-06  t[s]:   2177.77
	Linear fluid (dielectric constant: 78.4, screening length: 5.74355 Bohr) occupying 0.799927 of unit cell:	Completed after 10 iterations at t[s]:   2190.12
	Linear fluid (dielectric constant: 78.4, screening length: 5.74355 Bohr) occupying 0.800048 of unit cell:	Completed after 10 iterations at t[s]:   2201.44
	FillingsUpdate:  mu: -0.204126202  nElectrons: 533.000000
	SubspaceRotationAdjust: set factor to 0.449
ElecMinimize: Iter:   3  F: -2346.386212304627861  |grad|_K:  3.992e-06  alpha:  2.694e-01  linmin: -8.620e-07  t[s]:   2212.92
	Linear fluid (dielectric constant: 78.4, screening length: 5.74355 Bohr) occupying 0.800164 of unit cell:	Completed after 10 iterations at t[s]:   2225.51
	Linear fluid (dielectric constant: 78.4, screening length: 5.74355 Bohr) occupying 0.800153 of unit cell:	Completed after 2 iterations at t[s]:   2236.45
	FillingsUpdate:  mu: -0.204551369  nElectrons: 533.000000
	SubspaceRotationAdjust: set factor to 0.432
ElecMinimize: Iter:   4  F: -2346.386940164948101  |grad|_K:  5.538e-06  alpha:  2.419e-01  linmin:  1.733e-07  t[s]:   2248.24
	Linear fluid (dielectric constant: 78.4, screening length: 5.74355 Bohr) occupying 0.800406 of unit cell:	Completed after 14 iterations at t[s]:   2261.22
	Linear fluid (dielectric constant: 78.4, screening length: 5.74355 Bohr) occupying 0.800300 of unit cell:	Completed after 10 iterations at t[s]:   2272.58
	FillingsUpdate:  mu: -0.202865985  nElectrons: 533.000000
	SubspaceRotationAdjust: set factor to 0.295
ElecMinimize: Iter:   5  F: -2346.387744581942115  |grad|_K:  2.836e-06  alpha:  1.396e-01  linmin:  7.155e-07  t[s]:   2284.44
	Linear fluid (dielectric constant: 78.4, screening length: 5.74355 Bohr) occupying 0.800338 of unit cell:	Completed after 8 iterations at t[s]:   2296.67
	Linear fluid (dielectric constant: 78.4, screening length: 5.74355 Bohr) occupying 0.800343 of unit cell:	Completed after 2 iterations at t[s]:   2307.01
	FillingsUpdate:  mu: -0.201074920  nElectrons: 533.000000
	SubspaceRotationAdjust: set factor to 0.308
ElecMinimize: Iter:   6  F: -2346.387984031945962  |grad|_K:  2.410e-06  alpha:  1.579e-01  linmin: -1.360e-06  t[s]:   2319.10
	Linear fluid (dielectric constant: 78.4, screening length: 5.74355 Bohr) occupying 0.800377 of unit cell:	Completed after 5 iterations at t[s]:   2330.76
	Linear fluid (dielectric constant: 78.4, screening length: 5.74355 Bohr) occupying 0.800391 of unit cell:	Completed after 3 iterations at t[s]:   2341.04
	FillingsUpdate:  mu: -0.202088439  nElectrons: 533.000000
	SubspaceRotationAdjust: set factor to 0.336
ElecMinimize: Iter:   7  F: -2346.388229913151008  |grad|_K:  1.648e-06  alpha:  2.238e-01  linmin:  3.383e-07  t[s]:   2352.77
	Linear fluid (dielectric constant: 78.4, screening length: 5.74355 Bohr) occupying 0.800414 of unit cell:	Completed after 4 iterations at t[s]:   2364.06
	Linear fluid (dielectric constant: 78.4, screening length: 5.74355 Bohr) occupying 0.800414 of unit cell:	Completed after 0 iterations at t[s]:   2374.11
	FillingsUpdate:  mu: -0.201821908  nElectrons: 533.000000
	SubspaceRotationAdjust: set factor to 0.368
ElecMinimize: Iter:   8  F: -2346.388343085282941  |grad|_K:  1.498e-06  alpha:  2.209e-01  linmin:  1.133e-07  t[s]:   2386.36
	Linear fluid (dielectric constant: 78.4, screening length: 5.74355 Bohr) occupying 0.800433 of unit cell:	Completed after 8 iterations at t[s]:   2398.65
	Linear fluid (dielectric constant: 78.4, screening length: 5.74355 Bohr) occupying 0.800426 of unit cell:	Completed after 4 iterations at t[s]:   2408.90
	FillingsUpdate:  mu: -0.201812640  nElectrons: 533.000000
	SubspaceRotationAdjust: set factor to 0.291
ElecMinimize: Iter:   9  F: -2346.388400384098532  |grad|_K:  9.233e-07  alpha:  1.362e-01  linmin:  2.989e-07  t[s]:   2420.74
	Linear fluid (dielectric constant: 78.4, screening length: 5.74355 Bohr) occupying 0.800428 of unit cell:	Completed after 3 iterations at t[s]:   2432.16
	Linear fluid (dielectric constant: 78.4, screening length: 5.74355 Bohr) occupying 0.800428 of unit cell:	Completed after 2 iterations at t[s]:   2442.47
	FillingsUpdate:  mu: -0.202094219  nElectrons: 533.000000
	SubspaceRotationAdjust: set factor to 0.278
ElecMinimize: Iter:  10  F: -2346.388428681647383  |grad|_K:  8.735e-07  alpha:  1.761e-01  linmin: -1.002e-06  t[s]:   2454.74
	Linear fluid (dielectric constant: 78.4, screening length: 5.74355 Bohr) occupying 0.800429 of unit cell:	Completed after 2 iterations at t[s]:   2465.94
	Linear fluid (dielectric constant: 78.4, screening length: 5.74355 Bohr) occupying 0.800429 of unit cell:	Completed after 0 iterations at t[s]:   2475.66
	FillingsUpdate:  mu: -0.202031392  nElectrons: 533.000000
	SubspaceRotationAdjust: set factor to 0.312
ElecMinimize: Iter:  11  F: -2346.388455664575304  |grad|_K:  4.553e-07  alpha:  1.870e-01  linmin: -1.423e-05  t[s]:   2487.41
	Linear fluid (dielectric constant: 78.4, screening length: 5.74355 Bohr) occupying 0.800428 of unit cell:	Completed after 2 iterations at t[s]:   2498.90
	Linear fluid (dielectric constant: 78.4, screening length: 5.74355 Bohr) occupying 0.800428 of unit cell:	Completed after 0 iterations at t[s]:   2508.52
	FillingsUpdate:  mu: -0.201956693  nElectrons: 533.000000
	SubspaceRotationAdjust: set factor to 0.316
ElecMinimize: Iter:  12  F: -2346.388463998554016  |grad|_K:  4.386e-07  alpha:  2.091e-01  linmin: -1.931e-05  t[s]:   2520.78
	Linear fluid (dielectric constant: 78.4, screening length: 5.74355 Bohr) occupying 0.800426 of unit cell:	Completed after 2 iterations at t[s]:   2531.87
	Linear fluid (dielectric constant: 78.4, screening length: 5.74355 Bohr) occupying 0.800426 of unit cell:	Completed after 0 iterations at t[s]:   2541.29
	FillingsUpdate:  mu: -0.202022984  nElectrons: 533.000000
	SubspaceRotationAdjust: set factor to 0.344
ElecMinimize: Iter:  13  F: -2346.388471169255354  |grad|_K:  3.186e-07  alpha:  1.914e-01  linmin:  1.563e-05  t[s]:   2552.95
	Linear fluid (dielectric constant: 78.4, screening length: 5.74355 Bohr) occupying 0.800424 of unit cell:	Completed after 2 iterations at t[s]:   2564.07
	Linear fluid (dielectric constant: 78.4, screening length: 5.74355 Bohr) occupying 0.800425 of unit cell:	Completed after 0 iterations at t[s]:   2573.67
	FillingsUpdate:  mu: -0.201973906  nElectrons: 533.000000
	SubspaceRotationAdjust: set factor to 0.333
ElecMinimize: Iter:  14  F: -2346.388474447650424  |grad|_K:  2.722e-07  alpha:  1.753e-01  linmin:  5.421e-06  t[s]:   2585.29
	Linear fluid (dielectric constant: 78.4, screening length: 5.74355 Bohr) occupying 0.800422 of unit cell:	Completed after 3 iterations at t[s]:   2596.52
	Linear fluid (dielectric constant: 78.4, screening length: 5.74355 Bohr) occupying 0.800423 of unit cell:	Completed after 0 iterations at t[s]:   2606.51
	FillingsUpdate:  mu: -0.201964110  nElectrons: 533.000000
	SubspaceRotationAdjust: set factor to 0.275
ElecMinimize: Iter:  15  F: -2346.388476220879511  |grad|_K:  2.419e-07  alpha:  1.191e-01  linmin:  9.675e-05  t[s]:   2618.35
	Linear fluid (dielectric constant: 78.4, screening length: 5.74355 Bohr) occupying 0.800422 of unit cell:	Completed after 2 iterations at t[s]:   2629.69
	Linear fluid (dielectric constant: 78.4, screening length: 5.74355 Bohr) occupying 0.800422 of unit cell:	Completed after 0 iterations at t[s]:   2639.13
	FillingsUpdate:  mu: -0.201988416  nElectrons: 533.000000
	SubspaceRotationAdjust: set factor to 0.238
ElecMinimize: Iter:  16  F: -2346.388476869953593  |grad|_K:  1.506e-07  alpha:  8.733e-02  linmin: -5.366e-05  t[s]:   2651.49
	Linear fluid (dielectric constant: 78.4, screening length: 5.74355 Bohr) occupying 0.800422 of unit cell:	Completed after 0 iterations at t[s]:   2662.36
ElecMinimize: 	Predicted alpha/alphaT>3.000000, increasing alphaT to 2.619811e-01.
	Linear fluid (dielectric constant: 78.4, screening length: 5.74355 Bohr) occupying 0.800420 of unit cell:	Completed after 1 iterations at t[s]:   2672.08
	Linear fluid (dielectric constant: 78.4, screening length: 5.74355 Bohr) occupying 0.800421 of unit cell:	Completed after 0 iterations at t[s]:   2681.38
	FillingsUpdate:  mu: -0.201991255  nElectrons: 533.000000
	SubspaceRotationAdjust: set factor to 0.235
ElecMinimize: Iter:  17  F: -2346.388477879275342  |grad|_K:  1.342e-07  alpha:  2.194e-01  linmin: -1.311e-05  t[s]:   2693.18
	Linear fluid (dielectric constant: 78.4, screening length: 5.74355 Bohr) occupying 0.800419 of unit cell:	Completed after 1 iterations at t[s]:   2704.57
	Linear fluid (dielectric constant: 78.4, screening length: 5.74355 Bohr) occupying 0.800420 of unit cell:	Completed after 0 iterations at t[s]:   2714.50
	FillingsUpdate:  mu: -0.202001801  nElectrons: 533.000000
	SubspaceRotationAdjust: set factor to 0.269
ElecMinimize: Iter:  18  F: -2346.388478437645517  |grad|_K:  9.080e-08  alpha:  1.655e-01  linmin: -1.539e-05  t[s]:   2726.76
	Linear fluid (dielectric constant: 78.4, screening length: 5.74355 Bohr) occupying 0.800419 of unit cell:	Completed after 0 iterations at t[s]:   2737.52
	Linear fluid (dielectric constant: 78.4, screening length: 5.74355 Bohr) occupying 0.800419 of unit cell:	Completed after 2 iterations at t[s]:   2747.35
	FillingsUpdate:  mu: -0.202008804  nElectrons: 533.000000
	SubspaceRotationAdjust: set factor to 0.265
ElecMinimize: Iter:  19  F: -2346.388478552851211  |grad|_K:  1.371e-07  alpha:  2.340e-01  linmin:  7.557e-05  t[s]:   2759.19
	Linear fluid (dielectric constant: 78.4, screening length: 5.74355 Bohr) occupying 0.800418 of unit cell:	Completed after 2 iterations at t[s]:   2770.33
	Linear fluid (dielectric constant: 78.4, screening length: 5.74355 Bohr) occupying 0.800419 of unit cell:	Completed after 0 iterations at t[s]:   2779.76
	FillingsUpdate:  mu: -0.202025354  nElectrons: 533.000000
	SubspaceRotationAdjust: set factor to 0.245
ElecMinimize: Iter:  20  F: -2346.388478861451858  |grad|_K:  1.011e-07  alpha:  5.783e-02  linmin:  5.743e-05  t[s]:   2791.91
	Linear fluid (dielectric constant: 78.4, screening length: 5.74355 Bohr) occupying 0.800419 of unit cell:	Completed after 0 iterations at t[s]:   2802.58
	Linear fluid (dielectric constant: 78.4, screening length: 5.74355 Bohr) occupying 0.800419 of unit cell:	Completed after 0 iterations at t[s]:   2811.94
	FillingsUpdate:  mu: -0.202025587  nElectrons: 533.000000
	SubspaceRotationAdjust: set factor to 0.285
ElecMinimize: Iter:  21  F: -2346.388479037535944  |grad|_K:  8.930e-08  alpha:  1.364e-01  linmin:  9.811e-08  t[s]:   2823.88
	Linear fluid (dielectric constant: 78.4, screening length: 5.74355 Bohr) occupying 0.800419 of unit cell:	Completed after 2 iterations at t[s]:   2835.20
	Linear fluid (dielectric constant: 78.4, screening length: 5.74355 Bohr) occupying 0.800419 of unit cell:	Completed after 0 iterations at t[s]:   2844.64
ElecMinimize: 	Step increased F by 1.879007e-07, reducing alpha to 3.366965e-03.
	Linear fluid (dielectric constant: 78.4, screening length: 5.74355 Bohr) occupying 0.800419 of unit cell:	Completed after 0 iterations at t[s]:   2864.58
ElecMinimize: 	Step increased F by 1.474896e-07, reducing alpha to 3.366965e-04.
	Linear fluid (dielectric constant: 78.4, screening length: 5.74355 Bohr) occupying 0.800419 of unit cell:	Completed after 0 iterations at t[s]:   2884.56
ElecMinimize: 	Step increased F by 1.441799e-07, reducing alpha to 3.366965e-05.
ElecMinimize: 	Step failed to reduce F after 3 attempts. Quitting step.
ElecMinimize: 	Undoing step.
	Linear fluid (dielectric constant: 78.4, screening length: 5.74355 Bohr) occupying 0.800419 of unit cell:	Completed after 0 iterations at t[s]:   2904.36
ElecMinimize: 	Step failed: resetting search direction.
	FillingsUpdate:  mu: -0.201995130  nElectrons: 533.000000
	SubspaceRotationAdjust: set factor to 0.264
ElecMinimize: Iter:  22  F: -2346.388478893433785  |grad|_K:  1.758e-07  alpha:  3.367e-05
	Linear fluid (dielectric constant: 78.4, screening length: 5.74355 Bohr) occupying 0.800418 of unit cell:	Completed after 3 iterations at t[s]:   2927.65
	Linear fluid (dielectric constant: 78.4, screening length: 5.74355 Bohr) occupying 0.800418 of unit cell:	Completed after 1 iterations at t[s]:   2937.72
	FillingsUpdate:  mu: -0.202015359  nElectrons: 533.000000
	SubspaceRotationAdjust: set factor to 0.174
ElecMinimize: Iter:  23  F: -2346.388478977440172  |grad|_K:  8.373e-08  alpha:  4.712e-02  linmin:  4.567e-04  t[s]:   2950.05
	Linear fluid (dielectric constant: 78.4, screening length: 5.74355 Bohr) occupying 0.800418 of unit cell:	Completed after 0 iterations at t[s]:   2960.97
ElecMinimize: 	Predicted alpha/alphaT>3.000000, increasing alphaT to 1.413659e-01.
	Linear fluid (dielectric constant: 78.4, screening length: 5.74355 Bohr) occupying 0.800419 of unit cell:	Completed after 0 iterations at t[s]:   2970.10
	Linear fluid (dielectric constant: 78.4, screening length: 5.74355 Bohr) occupying 0.800419 of unit cell:	Completed after 1 iterations at t[s]:   2979.94
	FillingsUpdate:  mu: -0.202010857  nElectrons: 533.000000
	SubspaceRotationAdjust: set factor to 0.187
ElecMinimize: Iter:  24  F: -2346.388479046161137  |grad|_K:  6.699e-08  alpha:  2.178e-01  linmin:  1.045e-04  t[s]:   2991.60
	Linear fluid (dielectric constant: 78.4, screening length: 5.74355 Bohr) occupying 0.800419 of unit cell:	Completed after 0 iterations at t[s]:   3002.36
	Linear fluid (dielectric constant: 78.4, screening length: 5.74355 Bohr) occupying 0.800419 of unit cell:	Completed after 0 iterations at t[s]:   3011.90
	FillingsUpdate:  mu: -0.202011245  nElectrons: 533.000000
	SubspaceRotationAdjust: set factor to 0.198
ElecMinimize: Iter:  25  F: -2346.388479128881045  |grad|_K:  4.142e-08  alpha:  1.289e-01  linmin:  2.672e-08  t[s]:   3023.95
	Linear fluid (dielectric constant: 78.4, screening length: 5.74355 Bohr) occupying 0.800419 of unit cell:	Completed after 0 iterations at t[s]:   3034.62
	Linear fluid (dielectric constant: 78.4, screening length: 5.74355 Bohr) occupying 0.800419 of unit cell:	Completed after 0 iterations at t[s]:   3044.16
	FillingsUpdate:  mu: -0.202011910  nElectrons: 533.000000
	SubspaceRotationAdjust: set factor to 0.233
ElecMinimize: Iter:  26  F: -2346.388479191841270  |grad|_K:  2.444e-08  alpha:  1.945e-01  linmin:  2.682e-07  t[s]:   3055.63
	Linear fluid (dielectric constant: 78.4, screening length: 5.74355 Bohr) occupying 0.800419 of unit cell:	Completed after 0 iterations at t[s]:   3066.51
	Linear fluid (dielectric constant: 78.4, screening length: 5.74355 Bohr) occupying 0.800419 of unit cell:	Completed after 0 iterations at t[s]:   3075.98
	FillingsUpdate:  mu: -0.202012429  nElectrons: 533.000000
	SubspaceRotationAdjust: set factor to 0.267
ElecMinimize: Iter:  27  F: -2346.388479220759564  |grad|_K:  2.641e-08  alpha:  2.560e-01  linmin: -3.737e-07  t[s]:   3087.63
	Linear fluid (dielectric constant: 78.4, screening length: 5.74355 Bohr) occupying 0.800419 of unit cell:	Completed after 2 iterations at t[s]:   3098.69
	Linear fluid (dielectric constant: 78.4, screening length: 5.74355 Bohr) occupying 0.800419 of unit cell:	Completed after 0 iterations at t[s]:   3108.12
ElecMinimize: 	Step increased F by 1.346739e-07, reducing alpha to 2.805107e-03.
	Linear fluid (dielectric constant: 78.4, screening length: 5.74355 Bohr) occupying 0.800419 of unit cell:	Completed after 0 iterations at t[s]:   3127.70
ElecMinimize: 	Step increased F by 1.262765e-07, reducing alpha to 2.805107e-04.
	Linear fluid (dielectric constant: 78.4, screening length: 5.74355 Bohr) occupying 0.800419 of unit cell:	Completed after 0 iterations at t[s]:   3147.08
ElecMinimize: 	Step increased F by 1.254220e-07, reducing alpha to 2.805107e-05.
ElecMinimize: 	Step failed to reduce F after 3 attempts. Quitting step.
ElecMinimize: 	Undoing step.
	Linear fluid (dielectric constant: 78.4, screening length: 5.74355 Bohr) occupying 0.800419 of unit cell:	Completed after 0 iterations at t[s]:   3166.65
ElecMinimize: 	Step failed: resetting search direction.
	FillingsUpdate:  mu: -0.201983791  nElectrons: 533.000000
	SubspaceRotationAdjust: set factor to 0.253
ElecMinimize: Iter:  28  F: -2346.388479095309322  |grad|_K:  8.961e-08  alpha:  2.805e-05
	Linear fluid (dielectric constant: 78.4, screening length: 5.74355 Bohr) occupying 0.800419 of unit cell:	Completed after 3 iterations at t[s]:   3189.63
	Linear fluid (dielectric constant: 78.4, screening length: 5.74355 Bohr) occupying 0.800419 of unit cell:	Completed after 1 iterations at t[s]:   3199.64
	FillingsUpdate:  mu: -0.202008357  nElectrons: 533.000000
	SubspaceRotationAdjust: set factor to 0.2
ElecMinimize: Iter:  29  F: -2346.388479192696650  |grad|_K:  5.123e-08  alpha:  6.990e-02  linmin:  2.451e-04  t[s]:   3211.30
	Linear fluid (dielectric constant: 78.4, screening length: 5.74355 Bohr) occupying 0.800419 of unit cell:	Completed after 0 iterations at t[s]:   3221.94
ElecMinimize: 	Predicted alpha/alphaT>3.000000, increasing alphaT to 2.096876e-01.
	Linear fluid (dielectric constant: 78.4, screening length: 5.74355 Bohr) occupying 0.800419 of unit cell:	Completed after 0 iterations at t[s]:   3231.93
	Linear fluid (dielectric constant: 78.4, screening length: 5.74355 Bohr) occupying 0.800419 of unit cell:	Completed after 0 iterations at t[s]:   3241.23
	FillingsUpdate:  mu: -0.202006541  nElectrons: 533.000000
	SubspaceRotationAdjust: set factor to 0.272
ElecMinimize: Iter:  30  F: -2346.388479218245720  |grad|_K:  2.795e-08  alpha:  1.379e-01  linmin: -9.460e-05  t[s]:   3252.64
	Linear fluid (dielectric constant: 78.4, screening length: 5.74355 Bohr) occupying 0.800419 of unit cell:	Completed after 0 iterations at t[s]:   3263.30
	Linear fluid (dielectric constant: 78.4, screening length: 5.74355 Bohr) occupying 0.800419 of unit cell:	Completed after 0 iterations at t[s]:   3272.54
	FillingsUpdate:  mu: -0.202006865  nElectrons: 533.000000
	SubspaceRotationAdjust: set factor to 0.329
ElecMinimize: Iter:  31  F: -2346.388479255348102  |grad|_K:  2.445e-08  alpha:  2.062e-01  linmin:  1.876e-07  t[s]:   3284.19
	Linear fluid (dielectric constant: 78.4, screening length: 5.74355 Bohr) occupying 0.800419 of unit cell:	Completed after 2 iterations at t[s]:   3295.25
	Linear fluid (dielectric constant: 78.4, screening length: 5.74355 Bohr) occupying 0.800419 of unit cell:	Completed after 0 iterations at t[s]:   3304.88
ElecMinimize: 	Step increased F by 1.974345e-07, reducing alpha to 8.795836e-04.
	Linear fluid (dielectric constant: 78.4, screening length: 5.74355 Bohr) occupying 0.800419 of unit cell:	Completed after 0 iterations at t[s]:   3324.52
ElecMinimize: 	Step increased F by 1.858962e-07, reducing alpha to 8.795836e-05.
	Linear fluid (dielectric constant: 78.4, screening length: 5.74355 Bohr) occupying 0.800419 of unit cell:	Completed after 0 iterations at t[s]:   3344.17
ElecMinimize: 	Step increased F by 1.847689e-07, reducing alpha to 8.795836e-06.
ElecMinimize: 	Step failed to reduce F after 3 attempts. Quitting step.
ElecMinimize: 	Undoing step.
	Linear fluid (dielectric constant: 78.4, screening length: 5.74355 Bohr) occupying 0.800419 of unit cell:	Completed after 0 iterations at t[s]:   3363.71
ElecMinimize: 	Step failed: resetting search direction.
	FillingsUpdate:  mu: -0.201987752  nElectrons: 533.000000
	SubspaceRotationAdjust: set factor to 0.317
ElecMinimize: Iter:  32  F: -2346.388479070613357  |grad|_K:  1.770e-07  alpha:  8.796e-06
	Linear fluid (dielectric constant: 78.4, screening length: 5.74355 Bohr) occupying 0.800419 of unit cell:	Completed after 2 iterations at t[s]:   3386.97
	Linear fluid (dielectric constant: 78.4, screening length: 5.74355 Bohr) occupying 0.800419 of unit cell:	Completed after 2 iterations at t[s]:   3397.05
	FillingsUpdate:  mu: -0.202006448  nElectrons: 533.000000
	SubspaceRotationAdjust: set factor to 0.151
ElecMinimize: Iter:  33  F: -2346.388479243278653  |grad|_K:  5.473e-08  alpha:  5.027e-02  linmin:  8.621e-04  t[s]:   3408.41
	Linear fluid (dielectric constant: 78.4, screening length: 5.74355 Bohr) occupying 0.800419 of unit cell:	Completed after 0 iterations at t[s]:   3419.25
ElecMinimize: 	Predicted alpha/alphaT>3.000000, increasing alphaT to 1.507996e-01.
	Linear fluid (dielectric constant: 78.4, screening length: 5.74355 Bohr) occupying 0.800419 of unit cell:	Completed after 1 iterations at t[s]:   3428.88
	Linear fluid (dielectric constant: 78.4, screening length: 5.74355 Bohr) occupying 0.800419 of unit cell:	Completed after 0 iterations at t[s]:   3438.63
ElecMinimize: 	Step increased F by 4.640106e-08, reducing alpha to 5.891706e-03.
	Linear fluid (dielectric constant: 78.4, screening length: 5.74355 Bohr) occupying 0.800419 of unit cell:	Completed after 0 iterations at t[s]:   3458.42
ElecMinimize: 	Step increased F by 5.811626e-08, reducing alpha to 5.891706e-04.
	Linear fluid (dielectric constant: 78.4, screening length: 5.74355 Bohr) occupying 0.800419 of unit cell:	Completed after 0 iterations at t[s]:   3477.94
ElecMinimize: 	Step increased F by 5.944275e-08, reducing alpha to 5.891706e-05.
ElecMinimize: 	Step failed to reduce F after 3 attempts. Quitting step.
ElecMinimize: 	Undoing step.
	Linear fluid (dielectric constant: 78.4, screening length: 5.74355 Bohr) occupying 0.800419 of unit cell:	Completed after 0 iterations at t[s]:   3497.51
ElecMinimize: 	Step failed: resetting search direction.
	FillingsUpdate:  mu: -0.202005266  nElectrons: 533.000000
	SubspaceRotationAdjust: set factor to 0.157
ElecMinimize: Iter:  34  F: -2346.388479183784966  |grad|_K:  1.583e-08  alpha:  5.892e-05
	Linear fluid (dielectric constant: 78.4, screening length: 5.74355 Bohr) occupying 0.800419 of unit cell:	Completed after 0 iterations at t[s]:   3519.87
ElecMinimize: 	Predicted alpha/alphaT>3.000000, increasing alphaT to 1.507996e-01.
	Linear fluid (dielectric constant: 78.4, screening length: 5.74355 Bohr) occupying 0.800419 of unit cell:	Completed after 0 iterations at t[s]:   3529.50
	Linear fluid (dielectric constant: 78.4, screening length: 5.74355 Bohr) occupying 0.800419 of unit cell:	Completed after 0 iterations at t[s]:   3539.16
	FillingsUpdate:  mu: -0.202005707  nElectrons: 533.000000
	SubspaceRotationAdjust: set factor to 0.191
ElecMinimize: Iter:  35  F: -2346.388479204222676  |grad|_K:  2.512e-08  alpha:  4.373e-01  linmin:  1.197e-06  t[s]:   3551.16
	Linear fluid (dielectric constant: 78.4, screening length: 5.74355 Bohr) occupying 0.800419 of unit cell:	Completed after 2 iterations at t[s]:   3562.18
	Linear fluid (dielectric constant: 78.4, screening length: 5.74355 Bohr) occupying 0.800419 of unit cell:	Completed after 1 iterations at t[s]:   3572.04
	FillingsUpdate:  mu: -0.201989228  nElectrons: 533.000000
	SubspaceRotationAdjust: set factor to 0.183
ElecMinimize: Iter:  36  F: -2346.388479233353792  |grad|_K:  1.120e-07  alpha:  3.552e-02  linmin:  7.135e-05  t[s]:   3583.91
ElecMinimize: 	Bad step direction: g.d > 0.
ElecMinimize: 	Undoing step.
	Linear fluid (dielectric constant: 78.4, screening length: 5.74355 Bohr) occupying 0.800419 of unit cell:	Completed after 0 iterations at t[s]:   3594.45
ElecMinimize: 	Step failed: resetting search direction.
	FillingsUpdate:  mu: -0.201989228  nElectrons: 533.000000
	SubspaceRotationAdjust: set factor to 0.24
ElecMinimize: Iter:  37  F: -2346.388479233361522  |grad|_K:  1.113e-07  alpha:  0.000e+00
	Linear fluid (dielectric constant: 78.4, screening length: 5.74355 Bohr) occupying 0.800419 of unit cell:	Completed after 0 iterations at t[s]:   3617.06
ElecMinimize: 	Predicted alpha/alphaT>3.000000, increasing alphaT to 1.065604e-01.
	Linear fluid (dielectric constant: 78.4, screening length: 5.74355 Bohr) occupying 0.800419 of unit cell:	Completed after 2 iterations at t[s]:   3627.07
	Linear fluid (dielectric constant: 78.4, screening length: 5.74355 Bohr) occupying 0.800419 of unit cell:	Completed after 0 iterations at t[s]:   3636.72
	FillingsUpdate:  mu: -0.202013655  nElectrons: 533.000000
	SubspaceRotationAdjust: set factor to 0.182
ElecMinimize: Iter:  38  F: -2346.388479301480402  |grad|_K:  8.790e-08  alpha:  3.812e-02  linmin:  8.322e-04  t[s]:   3648.23
	Linear fluid (dielectric constant: 78.4, screening length: 5.74355 Bohr) occupying 0.800419 of unit cell:	Completed after 0 iterations at t[s]:   3658.82
ElecMinimize: 	Predicted alpha/alphaT>3.000000, increasing alphaT to 1.143750e-01.
	Linear fluid (dielectric constant: 78.4, screening length: 5.74355 Bohr) occupying 0.800419 of unit cell:	Completed after 0 iterations at t[s]:   3668.59
ElecMinimize: 	Predicted alpha/alphaT>3.000000, increasing alphaT to 3.431249e-01.
	Linear fluid (dielectric constant: 78.4, screening length: 5.74355 Bohr) occupying 0.800419 of unit cell:	Completed after 1 iterations at t[s]:   3678.46
	Linear fluid (dielectric constant: 78.4, screening length: 5.74355 Bohr) occupying 0.800419 of unit cell:	Completed after 0 iterations at t[s]:   3687.73
ElecMinimize: 	Step increased F by 4.012418e-08, reducing alpha to 8.829826e-03.
	Linear fluid (dielectric constant: 78.4, screening length: 5.74355 Bohr) occupying 0.800419 of unit cell:	Completed after 0 iterations at t[s]:   3707.47
ElecMinimize: 	Step increased F by 4.366530e-08, reducing alpha to 8.829826e-04.
	Linear fluid (dielectric constant: 78.4, screening length: 5.74355 Bohr) occupying 0.800419 of unit cell:	Completed after 0 iterations at t[s]:   3727.05
ElecMinimize: 	Step increased F by 4.064532e-08, reducing alpha to 8.829826e-05.
ElecMinimize: 	Step failed to reduce F after 3 attempts. Quitting step.
ElecMinimize: 	Undoing step.
	Linear fluid (dielectric constant: 78.4, screening length: 5.74355 Bohr) occupying 0.800419 of unit cell:	Completed after 0 iterations at t[s]:   3746.51
ElecMinimize: 	Step failed: resetting search direction.
	FillingsUpdate:  mu: -0.202011537  nElectrons: 533.000000
	SubspaceRotationAdjust: set factor to 0.114
ElecMinimize: Iter:  39  F: -2346.388479260884196  |grad|_K:  4.845e-08  alpha:  8.830e-05
	Linear fluid (dielectric constant: 78.4, screening length: 5.74355 Bohr) occupying 0.800419 of unit cell:	Completed after 0 iterations at t[s]:   3768.84
ElecMinimize: 	Predicted alpha/alphaT>3.000000, increasing alphaT to 1.143750e-01.
	Linear fluid (dielectric constant: 78.4, screening length: 5.74355 Bohr) occupying 0.800419 of unit cell:	Completed after 1 iterations at t[s]:   3778.73
	Linear fluid (dielectric constant: 78.4, screening length: 5.74355 Bohr) occupying 0.800419 of unit cell:	Completed after 0 iterations at t[s]:   3788.31
ElecMinimize: 	Step increased F by 4.767253e-08, reducing alpha to 2.550129e-03.
	Linear fluid (dielectric constant: 78.4, screening length: 5.74355 Bohr) occupying 0.800419 of unit cell:	Completed after 0 iterations at t[s]:   3807.61
ElecMinimize: 	Step increased F by 3.074956e-08, reducing alpha to 2.550129e-04.
	Linear fluid (dielectric constant: 78.4, screening length: 5.74355 Bohr) occupying 0.800419 of unit cell:	Completed after 0 iterations at t[s]:   3827.22
ElecMinimize: 	Step increased F by 2.911202e-08, reducing alpha to 2.550129e-05.
ElecMinimize: 	Step failed to reduce F after 3 attempts. Quitting step.
ElecMinimize: 	Undoing step.
	Linear fluid (dielectric constant: 78.4, screening length: 5.74355 Bohr) occupying 0.800419 of unit cell:	Completed after 0 iterations at t[s]:   3846.66
ElecMinimize: 	Step failed along negative gradient direction.
ElecMinimize: Probably at roundoff error limit. (Stopping)
Setting wave functions to eigenvectors of Hamiltonian
Single-point solvation energy estimate, DeltaF = -0.035042996338689

# Ionic positions in lattice coordinates:
ion Cu   0.000000461149425  -0.000000460758621   0.500000446574714 0
ion Cu   0.251820453291793   0.249545011534122   0.505688961311885 0
ion Cu   0.500000461149425  -0.000000460758621   0.500000446574714 0
ion Cu   0.753154661977572   0.252631693283881   0.497743618365383 0
ion Cu   0.000000461149425   0.499999539241379   0.500000446574714 0
ion Cu   0.246846260321278   0.747367385198878   0.502257274784044 0
ion Cu   0.748180469007057   0.750454066948636   0.494311931837542 0
ion H   0.310416057235684   0.019934535175255   0.437176811980685 0
ion H   0.061205373794100   0.229277889313522   0.567740761237826 0
ion H   0.437988228646404   0.283506107536247   0.438562540972328 0
ion H   0.194742588348562   0.485935097776057   0.560800504693008 0
ion H   0.808456445643444   0.019920955875557   0.431323742848369 0
ion H   0.569824970685927   0.225910118239160   0.552917579428650 0
ion H   0.945914143883411   0.274388542542389   0.435649775593211 0
ion H   0.689198885250548   0.481036904701292   0.570896848692049 0
ion H   0.310802037048302   0.518962173781466   0.429104044457378 0
ion H   0.054086778415439   0.725610535940370   0.564351117556216 0
ion H   0.430175951612923   0.774088960243598   0.447083313720777 0
ion H   0.191544476655406   0.980078122607201   0.568677150301058 0
ion H   0.805258333950288   0.514063980706701   0.439200388456419 0
ion H   0.562012693652446   0.716492970946511   0.561438352177099 0
ion H   0.938795548504750   0.770721189169236   0.432260131911602 0
ion H   0.689584865063166   0.980064543307504   0.562824081168741 0
ion Se   0.332486982211410   0.416209837271194   0.549180561960312 0
ion Se   0.082949865899916   0.344171002592920   0.444575149669022 0
ion Se   0.431187063355612   0.156605865216075   0.558985368785849 0
ion Se   0.177779353721045   0.094497791142676   0.445795920602722 0
ion Se   0.824055105682731   0.406225236849459   0.567366596309679 0
ion Se   0.571030719887472   0.355549745643220   0.458533368988079 0
ion Se   0.925016849774568   0.158774598683513   0.559461888781908 0
ion Se   0.676885311778538   0.095934379082225   0.438945138027129 0
ion Se   0.323115610520312   0.904064699400533   0.561055755122298 0
ion Se   0.074984072524282   0.841224479799245   0.440539004367519 0
ion Se   0.428970202411378   0.644449332839538   0.541467524161348 0
ion Se   0.175945816616119   0.593773841633300   0.432634296839748 0
ion Se   0.822221568577805   0.905501287340082   0.554204972546705 0
ion Se   0.568813858943238   0.843393213266684   0.441015524363578 0
ion Se   0.917051056398934   0.655828075889838   0.555425743480405 0
ion Se   0.667513940087440   0.583789241211564   0.450820331189115 0
ion O   0.119121238730760   0.260526989961771   0.491198148361421 0
ion O   0.384557791377560   0.239030331329033   0.517691860212164 0
ion O   0.364807185432928   0.484526987373593   0.490478565553177 0
ion O   0.234760372554389   0.139907039751864   0.516678288851184 0
ion O   0.135725044828744   0.013778232815501   0.491559465785985 0
ion O   0.473335275285367   0.108496468796715   0.484241600502940 0
ion O   0.265966281253845   0.356030109625040   0.488981465670541 0
ion O   0.024455393130060   0.390411242661521   0.513242080447070 0
ion O   0.273186503667283   0.049643878292021   0.399663174442063 0
ion O   0.022079118427909   0.201762349272794   0.605476365809740 0
ion O   0.235199389654236   0.459831607317406   0.597666474147971 0
ion O   0.477732592426872   0.313974709318368   0.404262745614068 0
ion O   0.624244284381286   0.259966074729803   0.477337865692889 0
ion O   0.886581961586308   0.241549282069107   0.513744760356979 0
ion O   0.867885446891695   0.486092570166214   0.520796679996072 0
ion O   0.739590219195411   0.143039031317888   0.506182491039934 0
ion O   0.635107151484861   0.018210775014166   0.488900237573296 0
ion O   0.980992358761380   0.111209207366845   0.490268090400407 0
ion O   0.768961219210640   0.361296794764331   0.494198116233104 0
ion O   0.521763351287213   0.372659898884297   0.537271252740830 0
ion O   0.770525506664634   0.047782070162937   0.393132531967210 0
ion O   0.536388910985676   0.197294661268644   0.593865412731313 0
ion O   0.728876824605682   0.451131587657468   0.610376661692506 0
ion O   0.986349575484329   0.300106707503410   0.397941202918304 0
ion O   0.113418960712543   0.758449796413652   0.486256132792448 0
ion O   0.375756637917565   0.740033003752955   0.522663027456538 0
ion O   0.364893770813989   0.981788303468592   0.511100655576131 0
ion O   0.231039703088211   0.638702283718427   0.505802776916323 0
ion O   0.132115475407155   0.513906508316544   0.479204213153355 0
ion O   0.478237571011637   0.627339179598461   0.462729640408597 0
ion O   0.260410703103439   0.856960047164870   0.493818402109493 0
ion O   0.019008563537470   0.888789871115914   0.509732802749020 0
ion O   0.271124097693168   0.548867490825290   0.389624231456921 0
ion O   0.013651346814521   0.699892370979349   0.602059690231123 0
ion O   0.229475415634216   0.952217008319821   0.606868361182217 0
ion O   0.463612011313174   0.802704417214115   0.406135480418114 0
ion O   0.615443130921290   0.760968747153725   0.482309032937263 0
ion O   0.880879683568090   0.739472088520987   0.508802744788006 0
ion O   0.864275877470106   0.986220845667257   0.508441427363442 0
ion O   0.734034641045005   0.643968968857718   0.511019427478886 0
ion O   0.635193736865922   0.515472091109165   0.509522327596250 0
ion O   0.975545529168790   0.609587835821237   0.486758812702357 0
ion O   0.765240549744462   0.860092038730895   0.483322604298243 0
ion O   0.526665647013483   0.891502609686043   0.515759292646487 0
ion O   0.764801532644614   0.540167471165352   0.402334419001456 0
ion O   0.522268329871978   0.686024369164391   0.595738147535359 0
ion O   0.726814418631567   0.950355200190737   0.600337718707364 0
ion O   0.977921803870941   0.798236729209964   0.394524527339687 0


# Forces in Lattice coordinates:
force Cu   0.000000000000000   0.000000000000000   0.000000000000000 0
force Cu  -0.002260278279589  -0.059672260589295   0.010464109117745 0
force Cu   0.000000000000000   0.000000000000000   0.000000000000000 0
force Cu   0.047769076122979  -0.030092691773304   0.012889797412456 0
force Cu   0.000000000000000   0.000000000000000   0.000000000000000 0
force Cu  -0.047769076122979   0.030092691773304  -0.012889797412456 0
force Cu   0.002260278279589   0.059672260589295  -0.010464109117745 0
force H   0.034585850861157  -0.051643054281216   0.090273044517091 0
force H   0.038201302124681   0.039418637699519  -0.095118570060710 0
force H  -0.074868947357772  -0.104797910057480   0.152801319109622 0
force H  -0.077645330110139   0.074100272179757  -0.160560430480869 0
force H   0.044448286646226  -0.049450476381601   0.104834169515923 0
force H   0.030848397273118   0.022081835971492  -0.103582683941695 0
force H  -0.052535969646136  -0.063309124420607   0.127185502141744 0
force H   0.038681246195905   0.005630988493511  -0.070394158443998 0
force H  -0.038681246195905  -0.005630988493511   0.070394158443998 0
force H   0.052535969646136   0.063309124420607  -0.127185502141744 0
force H  -0.030848397273118  -0.022081835971492   0.103582683941695 0
force H  -0.044448286646226   0.049450476381601  -0.104834169515923 0
force H   0.077645330110139  -0.074100272179757   0.160560430480869 0
force H   0.074868947357772   0.104797910057480  -0.152801319109622 0
force H  -0.038201302124681  -0.039418637699519   0.095118570060710 0
force H  -0.034585850861157   0.051643054281216  -0.090273044517091 0
force Se  -0.015846624199090  -0.129851056053082  -0.272353748725245 0
force Se   0.041658673723658  -0.060757412030084   0.024277476606930 0
force Se  -0.128927990578625  -0.042805928391786  -0.011604801736992 0
force Se  -0.084196230902249   0.036137770881329   0.018366264448328 0
force Se   0.125597038988596  -0.106019156762077  -0.161274659065146 0
force Se   0.162620526483307  -0.169981281817414   0.230218474438843 0
force Se  -0.080255015566217  -0.036609912892631   0.008002657531225 0
force Se  -0.027143335009023   0.047472078126805   0.034928320559597 0
force Se   0.027143335009023  -0.047472078126805  -0.034928320559597 0
force Se   0.080255015566217   0.036609912892631  -0.008002657531225 0
force Se  -0.162620526483307   0.169981281817414  -0.230218474438843 0
force Se  -0.125597038988596   0.106019156762077   0.161274659065146 0
force Se   0.084196230902249  -0.036137770881329  -0.018366264448328 0
force Se   0.128927990578625   0.042805928391786   0.011604801736992 0
force Se  -0.041658673723658   0.060757412030084  -0.024277476606930 0
force Se   0.015846624199090   0.129851056053082   0.272353748725245 0
force O  -0.071858818481847   0.103334434249998  -0.024896578449951 0
force O   0.097078490056800  -0.065386291778893  -0.011477364192658 0
force O  -0.023555786285801  -0.039370572175820   0.086577087983166 0
force O  -0.000693606606493  -0.053717219197359  -0.056090276027781 0
force O   0.007893528738802   0.024576405315720   0.015791936415425 0
force O   0.016128685579612   0.039001681509382   0.042217215350782 0
force O   0.090837992105194   0.162768893631985   0.133441328012545 0
force O  -0.001349039006042   0.002825664054144  -0.014005247288367 0
force O  -0.011511643822288   0.033115103515116  -0.058211380024716 0
force O  -0.017025696510126  -0.024723325831781   0.072655945959397 0
force O   0.029828440381939  -0.006078835953332   0.161895688541705 0
force O   0.007543532962111   0.089579877190362  -0.159937008533689 0
force O  -0.134881500892018   0.179375614705867  -0.026059045647601 0
force O   0.054673340774946  -0.051033798151053  -0.006019492538844 0
force O  -0.044936905821104  -0.013115243510839   0.005106706173951 0
force O  -0.034585892198262  -0.094898469589092  -0.075079092213151 0
force O   0.005558539539350   0.010189180494852   0.009579529876552 0
force O   0.015083275373097   0.001301666543080   0.026543766443801 0
force O   0.014231847566531   0.134505914627367   0.123800207151159 0
force O   0.021605445341560  -0.016019810167776  -0.112069156552767 0
force O  -0.038943898441590   0.038399352183033  -0.079103779175384 0
force O   0.009686567567960   0.016884101835165   0.065549380141974 0
force O  -0.088856133378612   0.061360555078088   0.040308387808174 0
force O   0.038367231432537   0.064681241110240  -0.096648289377804 0
force O  -0.054673340774946   0.051033798151053   0.006019492538844 0
force O   0.134881500892018  -0.179375614705867   0.026059045647601 0
force O  -0.005558539539350  -0.010189180494852  -0.009579529876552 0
force O  -0.014231847566531  -0.134505914627367  -0.123800207151159 0
force O   0.044936905821104   0.013115243510839  -0.005106706173951 0
force O  -0.021605445341560   0.016019810167776   0.112069156552767 0
force O   0.034585892198262   0.094898469589092   0.075079092213151 0
force O  -0.015083275373097  -0.001301666543080  -0.026543766443801 0
force O   0.088856133378612  -0.061360555078088  -0.040308387808174 0
force O  -0.038367231432537  -0.064681241110240   0.096648289377804 0
force O   0.038943898441590  -0.038399352183033   0.079103779175384 0
force O  -0.009686567567960  -0.016884101835165  -0.065549380141974 0
force O  -0.097078490056800   0.065386291778893   0.011477364192658 0
force O   0.071858818481847  -0.103334434249998   0.024896578449951 0
force O  -0.007893528738802  -0.024576405315720  -0.015791936415425 0
force O  -0.090837992105194  -0.162768893631985  -0.133441328012545 0
force O   0.023555786285801   0.039370572175820  -0.086577087983166 0
force O   0.001349039006042  -0.002825664054144   0.014005247288367 0
force O   0.000693606606493   0.053717219197359   0.056090276027781 0
force O  -0.016128685579612  -0.039001681509382  -0.042217215350782 0
force O  -0.029828440381939   0.006078835953332  -0.161895688541705 0
force O  -0.007543532962111  -0.089579877190362   0.159937008533689 0
force O   0.011511643822288  -0.033115103515116   0.058211380024716 0
force O   0.017025696510126   0.024723325831781  -0.072655945959397 0

# Energy components:
   A_diel =       -0.0506006892800804
   Eewald =     8839.0924642200207018
       EH =    10895.3734855341481307
     Eloc =   -22687.7017784158997529
      Enl =      406.5317966472966305
      Exc =     -552.9110628285671964
 Exc_core =      199.1041154754771583
       KE =      554.2175983173221994
-------------------------------------
     Etot =    -2346.3439817394810234
       TS =        0.0444974922925343
-------------------------------------
        F =    -2346.3884792317735446

IonicMinimize: Iter:   0  F: -2346.388479231773545  |grad|_K:  0.000e+00  t[s]:   3870.26
IonicMinimize: Converged (|grad|_K<1.000000e-04).

#--- Lowdin population analysis ---
# oxidation-state Cu +0.364 +0.355 +0.352 +0.350 +0.357 +0.350 +0.355
# oxidation-state H +0.380 +0.380 +0.381 +0.380 +0.381 +0.369 +0.382 +0.368 +0.368 +0.382 +0.369 +0.381 +0.380 +0.381 +0.380 +0.380
# oxidation-state Se +1.618 +1.650 +1.642 +1.648 +1.641 +1.594 +1.646 +1.652 +1.652 +1.646 +1.594 +1.641 +1.648 +1.642 +1.650 +1.618
# oxidation-state O -0.570 -0.566 -0.714 -0.589 -0.587 -0.596 -0.587 -0.590 -0.659 -0.661 -0.700 -0.690 -0.573 -0.580 -0.586 -0.582 -0.588 -0.600 -0.575 -0.746 -0.660 -0.660 -0.670 -0.666 -0.580 -0.573 -0.588 -0.575 -0.586 -0.746 -0.582 -0.600 -0.670 -0.666 -0.660 -0.660 -0.566 -0.570 -0.587 -0.587 -0.714 -0.590 -0.589 -0.596 -0.700 -0.690 -0.659 -0.661


Dumping 'NbTe2.fillings' ... done
Dumping 'NbTe2.wfns' ... done
Dumping 'NbTe2.fluidState' ... done
Dumping 'NbTe2.eigenvals' ... done
End date and time: Wed Jul 15 13:57:01 2020  (Duration: 0-1:04:36.62)
Done!
