
*************** JDFTx 1.5.0  ***************

Start date and time: Mon Jul  6 13:00:47 2020
Executable jdftx_gpu with command-line: -i Charged.in -o Charged.out
Running on hosts (process indices):  amax (0)
Divided in process groups (process indices):  0 (0)
gpuInit: Found compatible cuda device 0 'Tesla K80'
gpuInit: Selected device 0
Resource initialization completed at t[s]:      8.33
Run totals: 1 processes, 24 threads, 1 GPUs


Input parsed successfully to the following command list (including defaults):

basis kpoint-dependent
cache-projectors no
coords-type Lattice
core-overlap-check none
coulomb-interaction Slab 001
coulomb-truncation-embed 0 0 0.5
davidson-band-ratio 1.1
dump End State
dump-name NbTe2.$VAR
elec-cutoff 20 100
elec-eigen-algo Davidson
elec-ex-corr gga-PBE
elec-smearing Gauss 0.0073499
electronic-minimize  \
	dirUpdateScheme      FletcherReeves \
	linminMethod         DirUpdateRecommended \
	nIterations          100 \
	history              15 \
	knormThreshold       0 \
	energyDiffThreshold  1e-08 \
	nEnergyDiff          2 \
	alphaTstart          1 \
	alphaTmin            1e-10 \
	updateTestStepSize   yes \
	alphaTreduceFactor   0.1 \
	alphaTincreaseFactor 3 \
	nAlphaAdjustMax      3 \
	wolfeEnergy          0.0001 \
	wolfeGradient        0.9 \
	fdTest               no
electronic-scf  \
	nIterations	500 \
	energyDiffThreshold	1e-08 \
	residualThreshold	1e-07 \
	mixFraction	0.5 \
	qMetric	0.8 \
	history	10 \
	nEigSteps	2 \
	eigDiffThreshold	1e-08 \
	mixedVariable	Density \
	qKerker	0.8 \
	qKappa	-1 \
	verbose	no \
	mixFractionMag	1.5
exchange-regularization WignerSeitzTruncated
fluid LinearPCM 298.000000 1.013250
fluid-anion F- 1 MeanFieldLJ \
	epsBulk 1 \
	pMol 0 \
	epsInf 1 \
	Pvap 0 \
	sigmaBulk 0 \
	Rvdw 2.24877 \
	Res 0 \
	tauNuc 343133
fluid-cation Na+ 1 MeanFieldLJ \
	epsBulk 1 \
	pMol 0 \
	epsInf 1 \
	Pvap 0 \
	sigmaBulk 0 \
	Rvdw 2.19208 \
	Res 0 \
	tauNuc 343133
fluid-ex-corr lda-TF lda-PZ
fluid-gummel-loop 10 1.000000e-05
fluid-minimize  \
	dirUpdateScheme      PolakRibiere \
	linminMethod         DirUpdateRecommended \
	nIterations          400 \
	history              15 \
	knormThreshold       1e-11 \
	energyDiffThreshold  0 \
	nEnergyDiff          2 \
	alphaTstart          1 \
	alphaTmin            1e-10 \
	updateTestStepSize   yes \
	alphaTreduceFactor   0.1 \
	alphaTincreaseFactor 3 \
	nAlphaAdjustMax      6 \
	wolfeEnergy          0.0001 \
	wolfeGradient        0.9 \
	fdTest               no
fluid-solvent H2O 55.338 ScalarEOS \
	epsBulk 78.4 \
	pMol 0.92466 \
	epsInf 1.77 \
	Pvap 1.06736e-10 \
	sigmaBulk 4.62e-05 \
	Rvdw 2.61727 \
	Res 1.42 \
	tauNuc 343133 \
	poleEl 15 7 1
forces-output-coords Positions
initial-state NbTe2.$VAR
ion Fe   0.443593097077793   0.268152485695685   0.496257617428186 0
ion Fe   0.943593097077793   0.268152485695685   0.496257617428186 0
ion Fe   0.389824010007845   0.571333191039078   0.496408581885079 0
ion Fe   0.889824010007845   0.571333191039078   0.496408581885079 0
ion Fe   0.345096594904008   0.875703133669953   0.504207358388182 0
ion Fe   0.845096594904008   0.875703133669953   0.504207358388182 0
ion Fe   0.291379679768419   0.178827257460754   0.504163534924290 0
ion Fe   0.791379679768419   0.178827257460754   0.504163534924290 0
ion Fe   0.041382611295849   0.678819965894555   0.496459378337488 0
ion Fe   0.541382611295849   0.678819965894555   0.496459378337488 0
ion Fe   0.095096555859223   0.375700529830229   0.496381534050826 0
ion Fe   0.595096555859223   0.375700529830229   0.496381534050826 0
ion Fe   0.139856959268165   0.071312212572021   0.504284244150711 0
ion Fe   0.639856959268165   0.071312212572021   0.504284244150711 0
ion Fe   0.193545927880919   0.768115789023632   0.504302403832356 0
ion Fe   0.693545927880919   0.768115789023632   0.504302403832356 0
ion S   0.492434441037722   0.473423431538421   0.567189044399937 0
ion S   0.992434441037722   0.473423431538421   0.567189044399937 0
ion S   0.392198712902455   0.081532018633743   0.572051686650139 0
ion S   0.892198712902455   0.081532018633743   0.572051686650139 0
ion S   0.342788801650252   0.365652612121885   0.428422866310662 0
ion S   0.842788801650252   0.365652612121885   0.428422866310662 0
ion S   0.296441107843432   0.674072035999459   0.572137107556185 0
ion S   0.796441107843432   0.674072035999459   0.572137107556185 0
ion S   0.242433550652833   0.973412474323702   0.433449244808254 0
ion S   0.742433550652833   0.973412474323702   0.433449244808254 0
ion S   0.046498786129616   0.173914427324847   0.428506213739666 0
ion S   0.546498786129616   0.173914427324847   0.428506213739666 0
ion S   0.092830913086918   0.865614028336155   0.572215896712265 0
ion S   0.592830913086918   0.865614028336155   0.572215896712265 0
ion S   0.142104190923536   0.581564672972591   0.428483660570437 0
ion S   0.642104190923536   0.581564672972591   0.428483660570437 0
ion S   0.188553013437482   0.273065060399839   0.572068202951332 0
ion S   0.688553013437482   0.273065060399839   0.572068202951332 0
ion S   0.438525087621706   0.772942673163446   0.428540136251348 0
ion S   0.938525087621706   0.772942673163446   0.428540136251348 0
ion-species GBRV/$ID_pbe.uspp
ion-width Ecut
ionic-minimize  \
	dirUpdateScheme      L-BFGS \
	linminMethod         DirUpdateRecommended \
	nIterations          0 \
	history              15 \
	knormThreshold       0.0001 \
	energyDiffThreshold  1e-06 \
	nEnergyDiff          2 \
	alphaTstart          1 \
	alphaTmin            1e-10 \
	updateTestStepSize   yes \
	alphaTreduceFactor   0.1 \
	alphaTincreaseFactor 3 \
	nAlphaAdjustMax      3 \
	wolfeEnergy          0.0001 \
	wolfeGradient        0.9 \
	fdTest               no
kpoint   0.000000000000   0.000000000000   0.000000000000  1.00000000000000
kpoint-folding 2 4 1 
latt-move-scale 1 1 1
latt-scale 1 1 1 
lattice Triclinic 29.7807 14.8832 33.1356 90 90 90
lattice-minimize  \
	dirUpdateScheme      L-BFGS \
	linminMethod         DirUpdateRecommended \
	nIterations          0 \
	history              15 \
	knormThreshold       0 \
	energyDiffThreshold  1e-06 \
	nEnergyDiff          2 \
	alphaTstart          1 \
	alphaTmin            1e-10 \
	updateTestStepSize   yes \
	alphaTreduceFactor   0.1 \
	alphaTincreaseFactor 3 \
	nAlphaAdjustMax      3 \
	wolfeEnergy          0.0001 \
	wolfeGradient        0.9 \
	fdTest               no
lcao-params -1 1e-06 0.0073499
pcm-variant CANDLE
spintype no-spin
subspace-rotation-factor 1 yes
symmetries automatic
symmetry-threshold 0.0001
target-mu -0.171252 no




---------- Setting up symmetries ----------

Found 8 point-group symmetries of the bravais lattice
Found 2 space-group symmetries with basis
Applied RMS atom displacement 2.0247e-15 bohrs to make symmetries exact.

---------- Initializing the Grid ----------
R = 
[    29.7807          0          0  ]
[          0    14.8832          0  ]
[          0          0    33.1356  ]
unit cell volume = 14686.7
G =
[   0.210982          0          0  ]
[          0   0.422167          0  ]
[          0          0    0.18962  ]
Minimum fftbox size, Smin = [  136  68  152  ]
Chosen fftbox size, S = [  140  70  160  ]

---------- Initializing tighter grid for wavefunction operations ----------
R = 
[    29.7807          0          0  ]
[          0    14.8832          0  ]
[          0          0    33.1356  ]
unit cell volume = 14686.7
G =
[   0.210982          0          0  ]
[          0   0.422167          0  ]
[          0          0    0.18962  ]
Minimum fftbox size, Smin = [  120  60  136  ]
Chosen fftbox size, S = [  120  60  140  ]

---------- Exchange Correlation functional ----------
Initalized PBE GGA exchange.
Initalized PBE GGA correlation.

---------- Setting up pseudopotentials ----------
Width of ionic core gaussian charges (only for fluid interactions / plotting) set to 0.397384

Reading pseudopotential file '/home/guoxy/vasp/jdftx-1.5.0/build/pseudopotentials/GBRV/fe_pbe.uspp':
  Title: Fe.  Created by USPP 7.3.6 on 15-6-15
  Reference state energy: -124.316937.  16 valence electrons in orbitals:
    |300>  occupation: 2  eigenvalue: -4.008817
    |310>  occupation: 6  eigenvalue: -2.753096
    |320>  occupation: 5  eigenvalue: -0.791264
    |400>  occupation: 2  eigenvalue: -0.516384
    |410>  occupation: 0  eigenvalue: -0.312222
  lMax: 2  lLocal: 3  QijEcut: 6
  6 projectors sampled on a log grid with 607 points:
    l: 0  eig: -4.008819  rCut: 1.55
    l: 0  eig: -0.516386  rCut: 1.55
    l: 1  eig: -2.753096  rCut: 1.55
    l: 1  eig: -0.312226  rCut: 1.55
    l: 2  eig: -0.791264  rCut: 1.65
    l: 2  eig: -0.450000  rCut: 1.65
  Partial core density with radius 0.65
  Transforming core density to a uniform radial grid of dG=0.02 with 1296 points.
  Transforming local potential to a uniform radial grid of dG=0.02 with 1296 points.
  Transforming nonlocal projectors to a uniform radial grid of dG=0.02 with 432 points.
  Transforming density augmentations to a uniform radial grid of dG=0.02 with 1296 points.
  Transforming atomic orbitals to a uniform radial grid of dG=0.02 with 432 points.
  Core radius for overlap checks: 1.65 bohrs.

Reading pseudopotential file '/home/guoxy/vasp/jdftx-1.5.0/build/pseudopotentials/GBRV/s_pbe.uspp':
  Title: S.  Created by USPP 7.3.6 on 1-4-15
  Reference state energy: -11.898476.  6 valence electrons in orbitals:
    |300>  occupation: 2  eigenvalue: -0.634167
    |310>  occupation: 4  eigenvalue: -0.257568
  lMax: 2  lLocal: 3  QijEcut: 6
  6 projectors sampled on a log grid with 635 points:
    l: 0  eig: -0.634161  rCut: 1.5
    l: 0  eig: 1.500000  rCut: 1.5
    l: 1  eig: -0.257567  rCut: 1.5
    l: 1  eig: 1.500000  rCut: 1.5
    l: 2  eig: -1.000000  rCut: 1.5
    l: 2  eig: 1.500000  rCut: 1.5
  Partial core density with radius 1.15
  Transforming core density to a uniform radial grid of dG=0.02 with 1296 points.
  Transforming local potential to a uniform radial grid of dG=0.02 with 1296 points.
  Transforming nonlocal projectors to a uniform radial grid of dG=0.02 with 432 points.
  Transforming density augmentations to a uniform radial grid of dG=0.02 with 1296 points.
  Transforming atomic orbitals to a uniform radial grid of dG=0.02 with 432 points.
  Core radius for overlap checks: 1.50 bohrs.

Initialized 2 species with 36 total atoms.

Folded 1 k-points by 2x4x1 to 8 k-points.

---------- Setting up k-points, bands, fillings ----------
Adding inversion symmetry to k-mesh for non-inversion-symmetric unit cell.
Reduced to 6 k-points under symmetry. 
Computing the number of bands and number of electrons
Reading initial fillings from file NbTe2.fillings.
nElectrons: 376.000000   nBands: 288   nStates: 6

----- Setting up reduced wavefunction bases (one per k-point) -----
average nbasis = 62744.875 , ideal nbasis = 62742.904

---------- Setting up coulomb interaction ----------
Fluid mode embedding: using embedded box, but periodic Coulomb kernel.
(Fluid response is responsible for (approximate) separation between periodic images.)
Setting up double-sized grid for truncated Coulomb potentials:
R = 
[    29.7807          0          0  ]
[          0    14.8832          0  ]
[          0          0    66.2712  ]
unit cell volume = 29373.5
G =
[   0.210982          0          0  ]
[          0   0.422167          0  ]
[          0          0  0.0948102  ]
Chosen fftbox size, S = [  140  70  320  ]
Integer grid location selected as the embedding center:
   Grid: [  0  0  80  ]
   Lattice: [  0  0  0.5  ]
   Cartesian: [  0  0  16.5678  ]
Constructing Wigner-Seitz cell: 6 faces (6 quadrilaterals, 0 hexagons)
Range-separation parameter for embedded mesh potentials due to point charges: 0.581854 bohrs.

Initializing van der Waals corrections
	NOTE: vdW corrections apply only for interactions with fluid.
	Fe:  C6:  187.33 Eh-a0^6  R0: 2.952 a0
	 S:  C6:   96.61 Eh-a0^6  R0: 3.180 a0

---------- Setting up ewald sum ----------
Optimum gaussian width for ewald sums = 6.773995 bohr.
Real space sum over 585 unit cells with max indices [  4  6  2  ]
Reciprocal space sum over 6171 terms with max indices [  8  5  16  ]

---------- Allocating electronic variables ----------
Initializing wave functions:  reading from 'NbTe2.wfns'
----- createFluidSolver() ----- (Fluid-side solver setup)
   Initializing fluid molecule 'H2O'
     Initializing site 'O'
       Electron density: proportional to exp(-r/0.36935)*erfc((r-0.51523)/0.36823) with norm 6.826
       Charge density: gaussian nuclear width 0.478731 with net site charge 0.826
       Polarizability: cuspless exponential with width 0.32 and norm 3.73
       Hard sphere radius: 2.57003 bohrs
       Positions in reference frame:
         [ +0.000000 +0.000000 +0.000000 ]
     Initializing site 'H'
       Electron density: proportional to exp(-r/0.34641)*erfc((r-0)/0.390882) with norm 0.587
       Charge density: gaussian nuclear width 0.377945 with net site charge -0.413
       Polarizability: cuspless exponential with width 0.39 and norm 3.3
       Positions in reference frame:
         [ +0.000000 -1.441945 +1.122523 ]
         [ +0.000000 +1.441945 +1.122523 ]
     Net charge: 0   dipole magnitude: 0.927204
     Initializing spherical shell mfKernel with radius 2.61727 Bohr
     deltaS corrections:
       site 'O': -7.54299
       site 'H': -6.83917
   Initializing fluid molecule 'Na+'
     Initializing site 'Na'
       Electron density: proportional to exp(-r/0.19682)*erfc((r-0.71491)/0.41314) with norm 8.1383
       Charge density: gaussian nuclear width 0.365347 with net site charge -1
       Hard sphere radius: 1.86327 bohrs
       Positions in reference frame:
         [ +0.000000 +0.000000 +0.000000 ]
     Net charge: -1   dipole magnitude: 0
     Initializing gaussian mfKernel with width: 1.55004 Bohr
     deltaS corrections:
       site 'Na': -22.3555
   Initializing fluid molecule 'F-'
     Initializing site 'F'
       Electron density: proportional to exp(-r/0.38886)*erfc((r-0)/0.438782) with norm 8
       Charge density: gaussian nuclear width 0.374796 with net site charge 1
       Hard sphere radius: 2.39995 bohrs
       Positions in reference frame:
         [ +0.000000 +0.000000 +0.000000 ]
     Net charge: 1   dipole magnitude: 0
     Initializing gaussian mfKernel with width: 1.59012 Bohr
     deltaS corrections:
       site 'F': -9.04335

Correction to mu due to finite nuclear width = -0.0127008
   Cavity determined by nc: 0.00142 and sigma: 0.707107
   Nonlocal vdW cavity from gaussian model electron density with norm = 8 and sigma = 0.993594 bohr
   Charge asymmetry in cavity with sensitivity pCavity = 36.5 e-bohr/Eh
   Electrostatic cavity expanded by eta = 1.46 bohrs
   Weighted density cavitation model constrained by Nbulk: 0.0049383 bohr^-3, Pvap: 3.14029 kPa, Rvdw: 2.61727 bohr and sigmaBulk: 4.62e-05 Eh/bohr^2 at T: 298 K.
   Weighted density dispersion model using vdW pair potentials with single solvent site with sqrtC6eff: 0.77 SI.
Reading fluid state from 'NbTe2.fluidState'


---- Citations for features of the code used in this run ----

   Software package:
      R. Sundararaman, K. Letchworth-Weaver, K.A. Schwarz, D. Gunceler, Y. Ozhabes and T.A. Arias, 'JDFTx: software for joint density-functional theory', SoftwareX 6, 278 (2017)

   gga-PBE exchange-correlation functional:
      J.P. Perdew, K. Burke and M. Ernzerhof, Phys. Rev. Lett. 77, 3865 (1996)

   Pseudopotentials:
      KF Garrity, JW Bennett, KM Rabe and D Vanderbilt, Comput. Mater. Sci. 81, 446 (2014)

   Truncated Coulomb potentials:
      R. Sundararaman and T.A. Arias, Phys. Rev. B 87, 165122 (2013)

   Van der Waals correction pair-potentials:
      S. Grimme, J. Comput. Chem. 27, 1787 (2006)

   Charge-asymmetric nonlocally-determined local-electric (CANDLE) solvation model:
      R. Sundararaman and W.A. Goddard III, J. Chem. Phys. 142, 064107 (2015)

   Grand-canonical (fixed-potential) DFT:
      R. Sundararaman, W. A. Goddard III and T. A. Arias, J. Chem. Phys. 146, 114104 (2017)

This list may not be complete. Please suggest additional citations or
report any other bugs at https://github.com/shankar1729/jdftx/issues

Initialization completed successfully at t[s]:     28.96

Shifting auxilliary hamiltonian by 0.000837 to set nElectrons=376.000000
	Linear fluid (dielectric constant: 78.4, screening length: 5.74355 Bohr) occupying 0.774463 of unit cell:	Completed after 0 iterations at t[s]:     36.27

-------- Electronic minimization -----------
Will mix electronic density at each iteration.
	FillingsUpdate:  mu: -0.171251800  nElectrons: 376.000000
	Linear fluid (dielectric constant: 78.4, screening length: 5.74355 Bohr) occupying 0.774463 of unit cell:	Completed after 0 iterations at t[s]:     44.96
	FillingsUpdate:  mu: -0.171251800  nElectrons: 376.527184
	Linear fluid (dielectric constant: 78.4, screening length: 5.74355 Bohr) occupying 0.775596 of unit cell:	Completed after 13 iterations at t[s]:    111.40
SCF: Cycle:  0   G: -2132.042938997040892   dG: +8.467e-03   |Residual|: 3.261e-02   |deigs|: 2.281e-06  t[s]:    113.17
	Linear fluid (dielectric constant: 78.4, screening length: 5.74355 Bohr) occupying 0.774658 of unit cell:	Completed after 13 iterations at t[s]:    114.75
	FillingsUpdate:  mu: -0.171251800  nElectrons: 373.751223
	Linear fluid (dielectric constant: 78.4, screening length: 5.74355 Bohr) occupying 0.774273 of unit cell:	Completed after 17 iterations at t[s]:    188.09
SCF: Cycle:  1   G: -2131.780419683455875   dG: +2.625e-01   |Residual|: 2.309e-01   |deigs|: 4.060e-03  t[s]:    189.65
	Linear fluid (dielectric constant: 78.4, screening length: 5.74355 Bohr) occupying 0.774631 of unit cell:	Completed after 15 iterations at t[s]:    191.29
	FillingsUpdate:  mu: -0.171251800  nElectrons: 376.142309
	Linear fluid (dielectric constant: 78.4, screening length: 5.74355 Bohr) occupying 0.774430 of unit cell:	Completed after 12 iterations at t[s]:    263.65
SCF: Cycle:  2   G: -2132.050954858948899   dG: -2.705e-01   |Residual|: 6.809e-03   |deigs|: 3.546e-03  t[s]:    265.24
	Linear fluid (dielectric constant: 78.4, screening length: 5.74355 Bohr) occupying 0.774698 of unit cell:	Completed after 11 iterations at t[s]:    266.57
	FillingsUpdate:  mu: -0.171251800  nElectrons: 376.078008
	Linear fluid (dielectric constant: 78.4, screening length: 5.74355 Bohr) occupying 0.774411 of unit cell:	Completed after 12 iterations at t[s]:    338.22
SCF: Cycle:  3   G: -2132.050839381900460   dG: +1.155e-04   |Residual|: 1.361e-02   |deigs|: 1.308e-04  t[s]:    339.66
	Linear fluid (dielectric constant: 78.4, screening length: 5.74355 Bohr) occupying 0.774706 of unit cell:	Completed after 13 iterations at t[s]:    341.15
	FillingsUpdate:  mu: -0.171251800  nElectrons: 376.074043
	Linear fluid (dielectric constant: 78.4, screening length: 5.74355 Bohr) occupying 0.774411 of unit cell:	Completed after 10 iterations at t[s]:    412.69
SCF: Cycle:  4   G: -2132.051295960759035   dG: -4.566e-04   |Residual|: 5.544e-03   |deigs|: 4.112e-05  t[s]:    414.41
	Linear fluid (dielectric constant: 78.4, screening length: 5.74355 Bohr) occupying 0.774733 of unit cell:	Completed after 11 iterations at t[s]:    415.81
	FillingsUpdate:  mu: -0.171251800  nElectrons: 376.087101
	Linear fluid (dielectric constant: 78.4, screening length: 5.74355 Bohr) occupying 0.774417 of unit cell:	Completed after 12 iterations at t[s]:    488.59
SCF: Cycle:  5   G: -2132.051078876426345   dG: +2.171e-04   |Residual|: 9.544e-03   |deigs|: 6.755e-05  t[s]:    490.40
	Linear fluid (dielectric constant: 78.4, screening length: 5.74355 Bohr) occupying 0.774743 of unit cell:	Completed after 12 iterations at t[s]:    491.83
	FillingsUpdate:  mu: -0.171251800  nElectrons: 376.091463
	Linear fluid (dielectric constant: 78.4, screening length: 5.74355 Bohr) occupying 0.774418 of unit cell:	Completed after 10 iterations at t[s]:    564.43
SCF: Cycle:  6   G: -2132.051271380413255   dG: -1.925e-04   |Residual|: 4.584e-03   |deigs|: 3.421e-05  t[s]:    566.19
	Linear fluid (dielectric constant: 78.4, screening length: 5.74355 Bohr) occupying 0.774783 of unit cell:	Completed after 10 iterations at t[s]:    567.48
	FillingsUpdate:  mu: -0.171251800  nElectrons: 376.072908
	Linear fluid (dielectric constant: 78.4, screening length: 5.74355 Bohr) occupying 0.774418 of unit cell:	Completed after 11 iterations at t[s]:    638.47
SCF: Cycle:  7   G: -2132.051286040194555   dG: -1.466e-05   |Residual|: 5.658e-03   |deigs|: 1.399e-04  t[s]:    640.24
	Linear fluid (dielectric constant: 78.4, screening length: 5.74355 Bohr) occupying 0.774796 of unit cell:	Completed after 10 iterations at t[s]:    641.54
	FillingsUpdate:  mu: -0.171251800  nElectrons: 376.063910
	Linear fluid (dielectric constant: 78.4, screening length: 5.74355 Bohr) occupying 0.774418 of unit cell:	Completed after 10 iterations at t[s]:    712.69
SCF: Cycle:  8   G: -2132.051371180742535   dG: -8.514e-05   |Residual|: 2.582e-03   |deigs|: 5.819e-05  t[s]:    714.52
	Linear fluid (dielectric constant: 78.4, screening length: 5.74355 Bohr) occupying 0.774795 of unit cell:	Completed after 10 iterations at t[s]:    715.93
	FillingsUpdate:  mu: -0.171251800  nElectrons: 376.059067
	Linear fluid (dielectric constant: 78.4, screening length: 5.74355 Bohr) occupying 0.774417 of unit cell:	Completed after 10 iterations at t[s]:    787.14
SCF: Cycle:  9   G: -2132.051372344289575   dG: -1.164e-06   |Residual|: 2.981e-03   |deigs|: 7.599e-05  t[s]:    788.87
	Linear fluid (dielectric constant: 78.4, screening length: 5.74355 Bohr) occupying 0.774792 of unit cell:	Completed after 10 iterations at t[s]:    790.29
	FillingsUpdate:  mu: -0.171251800  nElectrons: 376.048310
	Linear fluid (dielectric constant: 78.4, screening length: 5.74355 Bohr) occupying 0.774416 of unit cell:	Completed after 9 iterations at t[s]:    862.78
SCF: Cycle: 10   G: -2132.051401137068751   dG: -2.879e-05   |Residual|: 1.741e-03   |deigs|: 6.033e-05  t[s]:    864.47
	Linear fluid (dielectric constant: 78.4, screening length: 5.74355 Bohr) occupying 0.774776 of unit cell:	Completed after 10 iterations at t[s]:    865.85
	FillingsUpdate:  mu: -0.171251800  nElectrons: 376.049159
	Linear fluid (dielectric constant: 78.4, screening length: 5.74355 Bohr) occupying 0.774415 of unit cell:	Completed after 9 iterations at t[s]:    938.66
SCF: Cycle: 11   G: -2132.051396155007751   dG: +4.982e-06   |Residual|: 2.230e-03   |deigs|: 6.869e-05  t[s]:    940.41
	Linear fluid (dielectric constant: 78.4, screening length: 5.74355 Bohr) occupying 0.774765 of unit cell:	Completed after 9 iterations at t[s]:    941.65
	FillingsUpdate:  mu: -0.171251800  nElectrons: 376.048608
	Linear fluid (dielectric constant: 78.4, screening length: 5.74355 Bohr) occupying 0.774414 of unit cell:	Completed after 10 iterations at t[s]:   1012.92
SCF: Cycle: 12   G: -2132.051400151963207   dG: -3.997e-06   |Residual|: 1.844e-03   |deigs|: 2.468e-05  t[s]:   1014.86
	Linear fluid (dielectric constant: 78.4, screening length: 5.74355 Bohr) occupying 0.774743 of unit cell:	Completed after 9 iterations at t[s]:   1016.28
	FillingsUpdate:  mu: -0.171251800  nElectrons: 376.043704
	Linear fluid (dielectric constant: 78.4, screening length: 5.74355 Bohr) occupying 0.774413 of unit cell:	Completed after 9 iterations at t[s]:   1103.68
SCF: Cycle: 13   G: -2132.051408904373602   dG: -8.752e-06   |Residual|: 1.399e-03   |deigs|: 6.464e-05  t[s]:   1105.93
	Linear fluid (dielectric constant: 78.4, screening length: 5.74355 Bohr) occupying 0.774728 of unit cell:	Completed after 8 iterations at t[s]:   1107.38
	FillingsUpdate:  mu: -0.171251800  nElectrons: 376.031111
	Linear fluid (dielectric constant: 78.4, screening length: 5.74355 Bohr) occupying 0.774411 of unit cell:	Completed after 4 iterations at t[s]:   1184.07
SCF: Cycle: 14   G: -2132.051411861574707   dG: -2.957e-06   |Residual|: 1.590e-03   |deigs|: 9.655e-05  t[s]:   1186.27
	Linear fluid (dielectric constant: 78.4, screening length: 5.74355 Bohr) occupying 0.774703 of unit cell:	Completed after 4 iterations at t[s]:   1187.27
	FillingsUpdate:  mu: -0.171251800  nElectrons: 376.042771
	Linear fluid (dielectric constant: 78.4, screening length: 5.74355 Bohr) occupying 0.774409 of unit cell:	Completed after 8 iterations at t[s]:   1262.51
SCF: Cycle: 15   G: -2132.051412481736406   dG: -6.202e-07   |Residual|: 1.053e-03   |deigs|: 2.443e-05  t[s]:   1264.46
	Linear fluid (dielectric constant: 78.4, screening length: 5.74355 Bohr) occupying 0.774668 of unit cell:	Completed after 8 iterations at t[s]:   1265.69
	FillingsUpdate:  mu: -0.171251800  nElectrons: 376.034301
	Linear fluid (dielectric constant: 78.4, screening length: 5.74355 Bohr) occupying 0.774406 of unit cell:	Completed after 4 iterations at t[s]:   1341.65
SCF: Cycle: 16   G: -2132.051415658718270   dG: -3.177e-06   |Residual|: 9.761e-04   |deigs|: 4.660e-05  t[s]:   1343.88
	Linear fluid (dielectric constant: 78.4, screening length: 5.74355 Bohr) occupying 0.774665 of unit cell:	Completed after 4 iterations at t[s]:   1344.81
	FillingsUpdate:  mu: -0.171251800  nElectrons: 376.027045
	Linear fluid (dielectric constant: 78.4, screening length: 5.74355 Bohr) occupying 0.774405 of unit cell:	Completed after 6 iterations at t[s]:   1419.72
SCF: Cycle: 17   G: -2132.051415312260360   dG: +3.465e-07   |Residual|: 1.115e-03   |deigs|: 1.778e-05  t[s]:   1421.56
	Linear fluid (dielectric constant: 78.4, screening length: 5.74355 Bohr) occupying 0.774645 of unit cell:	Completed after 3 iterations at t[s]:   1422.35
	FillingsUpdate:  mu: -0.171251800  nElectrons: 376.090717
	Linear fluid (dielectric constant: 78.4, screening length: 5.74355 Bohr) occupying 0.774412 of unit cell:	Completed after 10 iterations at t[s]:   1498.02
SCF: Cycle: 18   G: -2132.051283949674144   dG: +1.314e-04   |Residual|: 4.122e-03   |deigs|: 1.000e-04  t[s]:   1500.09
	Linear fluid (dielectric constant: 78.4, screening length: 5.74355 Bohr) occupying 0.774639 of unit cell:	Completed after 10 iterations at t[s]:   1501.48
	FillingsUpdate:  mu: -0.171251800  nElectrons: 376.043958
	Linear fluid (dielectric constant: 78.4, screening length: 5.74355 Bohr) occupying 0.774405 of unit cell:	Completed after 8 iterations at t[s]:   1561.84
SCF: Cycle: 19   G: -2132.051410543703241   dG: -1.266e-04   |Residual|: 1.194e-03   |deigs|: 6.807e-05  t[s]:   1563.64
	Linear fluid (dielectric constant: 78.4, screening length: 5.74355 Bohr) occupying 0.774615 of unit cell:	Completed after 8 iterations at t[s]:   1564.88
	FillingsUpdate:  mu: -0.171251800  nElectrons: 376.035374
	Linear fluid (dielectric constant: 78.4, screening length: 5.74355 Bohr) occupying 0.774402 of unit cell:	Completed after 4 iterations at t[s]:   1628.88
SCF: Cycle: 20   G: -2132.051415893819012   dG: -5.350e-06   |Residual|: 8.932e-04   |deigs|: 1.960e-05  t[s]:   1630.50
	Linear fluid (dielectric constant: 78.4, screening length: 5.74355 Bohr) occupying 0.774565 of unit cell:	Completed after 4 iterations at t[s]:   1631.30
	FillingsUpdate:  mu: -0.171251800  nElectrons: 376.021085
	Linear fluid (dielectric constant: 78.4, screening length: 5.74355 Bohr) occupying 0.774397 of unit cell:	Completed after 8 iterations at t[s]:   1706.40
SCF: Cycle: 21   G: -2132.051412767048078   dG: +3.127e-06   |Residual|: 1.044e-03   |deigs|: 4.956e-05  t[s]:   1708.39
	Linear fluid (dielectric constant: 78.4, screening length: 5.74355 Bohr) occupying 0.774584 of unit cell:	Completed after 8 iterations at t[s]:   1709.63
	FillingsUpdate:  mu: -0.171251800  nElectrons: 376.060907
	Linear fluid (dielectric constant: 78.4, screening length: 5.74355 Bohr) occupying 0.774402 of unit cell:	Completed after 9 iterations at t[s]:   1785.32
SCF: Cycle: 22   G: -2132.051383735793024   dG: +2.903e-05   |Residual|: 2.217e-03   |deigs|: 8.688e-05  t[s]:   1787.08
	Linear fluid (dielectric constant: 78.4, screening length: 5.74355 Bohr) occupying 0.774527 of unit cell:	Completed after 10 iterations at t[s]:   1788.45
	FillingsUpdate:  mu: -0.171251800  nElectrons: 376.041047
	Linear fluid (dielectric constant: 78.4, screening length: 5.74355 Bohr) occupying 0.774396 of unit cell:	Completed after 8 iterations at t[s]:   1861.34
SCF: Cycle: 23   G: -2132.051414915177702   dG: -3.118e-05   |Residual|: 8.315e-04   |deigs|: 4.092e-05  t[s]:   1863.73
	Linear fluid (dielectric constant: 78.4, screening length: 5.74355 Bohr) occupying 0.774529 of unit cell:	Completed after 8 iterations at t[s]:   1865.19
	FillingsUpdate:  mu: -0.171251800  nElectrons: 376.039539
	Linear fluid (dielectric constant: 78.4, screening length: 5.74355 Bohr) occupying 0.774396 of unit cell:	Completed after 8 iterations at t[s]:   1917.43
SCF: Cycle: 24   G: -2132.051414977249351   dG: -6.207e-08   |Residual|: 9.253e-04   |deigs|: 8.171e-06  t[s]:   1919.09
	Linear fluid (dielectric constant: 78.4, screening length: 5.74355 Bohr) occupying 0.774483 of unit cell:	Completed after 8 iterations at t[s]:   1920.25
	FillingsUpdate:  mu: -0.171251800  nElectrons: 376.031272
	Linear fluid (dielectric constant: 78.4, screening length: 5.74355 Bohr) occupying 0.774392 of unit cell:	Completed after 3 iterations at t[s]:   1993.91
SCF: Cycle: 25   G: -2132.051416107987734   dG: -1.131e-06   |Residual|: 1.029e-03   |deigs|: 2.847e-05  t[s]:   1995.74
	Linear fluid (dielectric constant: 78.4, screening length: 5.74355 Bohr) occupying 0.774539 of unit cell:	Completed after 3 iterations at t[s]:   1996.51
	FillingsUpdate:  mu: -0.171251800  nElectrons: 376.045708
	Linear fluid (dielectric constant: 78.4, screening length: 5.74355 Bohr) occupying 0.774397 of unit cell:	Completed after 8 iterations at t[s]:   2072.87
SCF: Cycle: 26   G: -2132.051408836116934   dG: +7.272e-06   |Residual|: 1.348e-03   |deigs|: 3.269e-05  t[s]:   2074.71
	Linear fluid (dielectric constant: 78.4, screening length: 5.74355 Bohr) occupying 0.774468 of unit cell:	Completed after 8 iterations at t[s]:   2075.96
	FillingsUpdate:  mu: -0.171251800  nElectrons: 376.039826
	Linear fluid (dielectric constant: 78.4, screening length: 5.74355 Bohr) occupying 0.774391 of unit cell:	Completed after 8 iterations at t[s]:   2147.15
SCF: Cycle: 27   G: -2132.051414280489098   dG: -5.444e-06   |Residual|: 1.038e-03   |deigs|: 5.581e-05  t[s]:   2148.90
	Linear fluid (dielectric constant: 78.4, screening length: 5.74355 Bohr) occupying 0.774476 of unit cell:	Completed after 7 iterations at t[s]:   2150.05
	FillingsUpdate:  mu: -0.171251800  nElectrons: 376.035116
	Linear fluid (dielectric constant: 78.4, screening length: 5.74355 Bohr) occupying 0.774391 of unit cell:	Completed after 4 iterations at t[s]:   2212.61
SCF: Cycle: 28   G: -2132.051415605780221   dG: -1.325e-06   |Residual|: 1.035e-03   |deigs|: 7.974e-06  t[s]:   2214.28
	Linear fluid (dielectric constant: 78.4, screening length: 5.74355 Bohr) occupying 0.774402 of unit cell:	Completed after 3 iterations at t[s]:   2215.07
	FillingsUpdate:  mu: -0.171251800  nElectrons: 376.019233
	Linear fluid (dielectric constant: 78.4, screening length: 5.74355 Bohr) occupying 0.774384 of unit cell:	Completed after 8 iterations at t[s]:   2287.82
SCF: Cycle: 29   G: -2132.051409426057489   dG: +6.180e-06   |Residual|: 1.331e-03   |deigs|: 5.846e-05  t[s]:   2289.51
	Linear fluid (dielectric constant: 78.4, screening length: 5.74355 Bohr) occupying 0.774404 of unit cell:	Completed after 8 iterations at t[s]:   2290.68
	FillingsUpdate:  mu: -0.171251800  nElectrons: 376.057843
	Linear fluid (dielectric constant: 78.4, screening length: 5.74355 Bohr) occupying 0.774387 of unit cell:	Completed after 10 iterations at t[s]:   2354.89
SCF: Cycle: 30   G: -2132.051389815702805   dG: +1.961e-05   |Residual|: 2.123e-03   |deigs|: 5.788e-05  t[s]:   2356.67
	Linear fluid (dielectric constant: 78.4, screening length: 5.74355 Bohr) occupying 0.774444 of unit cell:	Completed after 9 iterations at t[s]:   2357.97
	FillingsUpdate:  mu: -0.171251800  nElectrons: 376.039620
	Linear fluid (dielectric constant: 78.4, screening length: 5.74355 Bohr) occupying 0.774389 of unit cell:	Completed after 8 iterations at t[s]:   2431.27
SCF: Cycle: 31   G: -2132.051414298077816   dG: -2.448e-05   |Residual|: 9.972e-04   |deigs|: 4.739e-05  t[s]:   2433.09
	Linear fluid (dielectric constant: 78.4, screening length: 5.74355 Bohr) occupying 0.774407 of unit cell:	Completed after 8 iterations at t[s]:   2434.16
	FillingsUpdate:  mu: -0.171251800  nElectrons: 376.032244
	Linear fluid (dielectric constant: 78.4, screening length: 5.74355 Bohr) occupying 0.774385 of unit cell:	Completed after 3 iterations at t[s]:   2504.85
SCF: Cycle: 32   G: -2132.051416657042409   dG: -2.359e-06   |Residual|: 1.015e-03   |deigs|: 5.221e-05  t[s]:   2506.77
	Linear fluid (dielectric constant: 78.4, screening length: 5.74355 Bohr) occupying 0.774384 of unit cell:	Completed after 3 iterations at t[s]:   2507.57
	FillingsUpdate:  mu: -0.171251800  nElectrons: 376.038899
	Linear fluid (dielectric constant: 78.4, screening length: 5.74355 Bohr) occupying 0.774384 of unit cell:	Completed after 6 iterations at t[s]:   2581.23
SCF: Cycle: 33   G: -2132.051416451859041   dG: +2.052e-07   |Residual|: 8.277e-04   |deigs|: 4.934e-05  t[s]:   2583.22
	Linear fluid (dielectric constant: 78.4, screening length: 5.74355 Bohr) occupying 0.774407 of unit cell:	Completed after 7 iterations at t[s]:   2584.41
	FillingsUpdate:  mu: -0.171251800  nElectrons: 376.038147
	Linear fluid (dielectric constant: 78.4, screening length: 5.74355 Bohr) occupying 0.774386 of unit cell:	Completed after 7 iterations at t[s]:   2658.55
SCF: Cycle: 34   G: -2132.051416792812233   dG: -3.410e-07   |Residual|: 7.273e-04   |deigs|: 3.280e-05  t[s]:   2660.35
	Linear fluid (dielectric constant: 78.4, screening length: 5.74355 Bohr) occupying 0.774340 of unit cell:	Completed after 7 iterations at t[s]:   2661.42
	FillingsUpdate:  mu: -0.171251800  nElectrons: 376.033093
	Linear fluid (dielectric constant: 78.4, screening length: 5.74355 Bohr) occupying 0.774380 of unit cell:	Completed after 3 iterations at t[s]:   2733.52
SCF: Cycle: 35   G: -2132.051419046398223   dG: -2.254e-06   |Residual|: 4.191e-04   |deigs|: 9.664e-05  t[s]:   2735.16
	Linear fluid (dielectric constant: 78.4, screening length: 5.74355 Bohr) occupying 0.774324 of unit cell:	Completed after 3 iterations at t[s]:   2735.91
	FillingsUpdate:  mu: -0.171251800  nElectrons: 376.032742
	Linear fluid (dielectric constant: 78.4, screening length: 5.74355 Bohr) occupying 0.774379 of unit cell:	Completed after 2 iterations at t[s]:   2805.96
SCF: Cycle: 36   G: -2132.051418733521132   dG: +3.129e-07   |Residual|: 5.166e-04   |deigs|: 3.007e-05  t[s]:   2807.66
	Linear fluid (dielectric constant: 78.4, screening length: 5.74355 Bohr) occupying 0.774326 of unit cell:	Completed after 3 iterations at t[s]:   2808.43
	FillingsUpdate:  mu: -0.171251800  nElectrons: 376.036093
	Linear fluid (dielectric constant: 78.4, screening length: 5.74355 Bohr) occupying 0.774379 of unit cell:	Completed after 2 iterations at t[s]:   2880.74
SCF: Cycle: 37   G: -2132.051418496256701   dG: +2.373e-07   |Residual|: 5.264e-04   |deigs|: 3.242e-05  t[s]:   2882.42
	Linear fluid (dielectric constant: 78.4, screening length: 5.74355 Bohr) occupying 0.774337 of unit cell:	Completed after 3 iterations at t[s]:   2883.18
	FillingsUpdate:  mu: -0.171251800  nElectrons: 376.020072
	Linear fluid (dielectric constant: 78.4, screening length: 5.74355 Bohr) occupying 0.774379 of unit cell:	Completed after 7 iterations at t[s]:   2953.75
SCF: Cycle: 38   G: -2132.051413235433301   dG: +5.261e-06   |Residual|: 9.694e-04   |deigs|: 2.781e-05  t[s]:   2955.36
	Linear fluid (dielectric constant: 78.4, screening length: 5.74355 Bohr) occupying 0.774301 of unit cell:	Completed after 8 iterations at t[s]:   2956.46
	FillingsUpdate:  mu: -0.171251800  nElectrons: 376.043502
	Linear fluid (dielectric constant: 78.4, screening length: 5.74355 Bohr) occupying 0.774378 of unit cell:	Completed after 8 iterations at t[s]:   3025.05
SCF: Cycle: 39   G: -2132.051414376972389   dG: -1.142e-06   |Residual|: 8.327e-04   |deigs|: 1.112e-04  t[s]:   3026.85
	Linear fluid (dielectric constant: 78.4, screening length: 5.74355 Bohr) occupying 0.774299 of unit cell:	Completed after 8 iterations at t[s]:   3028.10
	FillingsUpdate:  mu: -0.171251800  nElectrons: 376.032554
	Linear fluid (dielectric constant: 78.4, screening length: 5.74355 Bohr) occupying 0.774377 of unit cell:	Completed after 3 iterations at t[s]:   3099.27
SCF: Cycle: 40   G: -2132.051417723188024   dG: -3.346e-06   |Residual|: 6.808e-04   |deigs|: 2.437e-05  t[s]:   3100.59
	Linear fluid (dielectric constant: 78.4, screening length: 5.74355 Bohr) occupying 0.774300 of unit cell:	Completed after 3 iterations at t[s]:   3101.35
	FillingsUpdate:  mu: -0.171251800  nElectrons: 376.030484
	Linear fluid (dielectric constant: 78.4, screening length: 5.74355 Bohr) occupying 0.774377 of unit cell:	Completed after 2 iterations at t[s]:   3170.44
SCF: Cycle: 41   G: -2132.051419383424673   dG: -1.660e-06   |Residual|: 2.584e-04   |deigs|: 1.755e-05  t[s]:   3172.39
	Linear fluid (dielectric constant: 78.4, screening length: 5.74355 Bohr) occupying 0.774319 of unit cell:	Completed after 2 iterations at t[s]:   3173.13
	FillingsUpdate:  mu: -0.171251800  nElectrons: 376.044804
	Linear fluid (dielectric constant: 78.4, screening length: 5.74355 Bohr) occupying 0.774379 of unit cell:	Completed after 8 iterations at t[s]:   3243.59
SCF: Cycle: 42   G: -2132.051411441496839   dG: +7.942e-06   |Residual|: 1.150e-03   |deigs|: 3.026e-05  t[s]:   3245.15
	Linear fluid (dielectric constant: 78.4, screening length: 5.74355 Bohr) occupying 0.774311 of unit cell:	Completed after 8 iterations at t[s]:   3246.28
	FillingsUpdate:  mu: -0.171251800  nElectrons: 376.027932
	Linear fluid (dielectric constant: 78.4, screening length: 5.74355 Bohr) occupying 0.774377 of unit cell:	Completed after 4 iterations at t[s]:   3313.50
SCF: Cycle: 43   G: -2132.051418123959138   dG: -6.682e-06   |Residual|: 5.787e-04   |deigs|: 3.667e-05  t[s]:   3315.06
	Linear fluid (dielectric constant: 78.4, screening length: 5.74355 Bohr) occupying 0.774307 of unit cell:	Completed after 2 iterations at t[s]:   3315.77
	FillingsUpdate:  mu: -0.171251800  nElectrons: 376.051800
	Linear fluid (dielectric constant: 78.4, screening length: 5.74355 Bohr) occupying 0.774379 of unit cell:	Completed after 8 iterations at t[s]:   3384.16
SCF: Cycle: 44   G: -2132.051404599375019   dG: +1.352e-05   |Residual|: 1.357e-03   |deigs|: 5.047e-05  t[s]:   3385.94
	Linear fluid (dielectric constant: 78.4, screening length: 5.74355 Bohr) occupying 0.774306 of unit cell:	Completed after 8 iterations at t[s]:   3387.11
	FillingsUpdate:  mu: -0.171251800  nElectrons: 376.024277
	Linear fluid (dielectric constant: 78.4, screening length: 5.74355 Bohr) occupying 0.774376 of unit cell:	Completed after 8 iterations at t[s]:   3440.72
SCF: Cycle: 45   G: -2132.051415520380033   dG: -1.092e-05   |Residual|: 8.899e-04   |deigs|: 4.101e-05  t[s]:   3442.38
	Linear fluid (dielectric constant: 78.4, screening length: 5.74355 Bohr) occupying 0.774307 of unit cell:	Completed after 7 iterations at t[s]:   3443.47
	FillingsUpdate:  mu: -0.171251800  nElectrons: 376.043641
	Linear fluid (dielectric constant: 78.4, screening length: 5.74355 Bohr) occupying 0.774378 of unit cell:	Completed after 9 iterations at t[s]:   3504.47
SCF: Cycle: 46   G: -2132.051412664732652   dG: +2.856e-06   |Residual|: 1.037e-03   |deigs|: 4.392e-05  t[s]:   3506.19
	Linear fluid (dielectric constant: 78.4, screening length: 5.74355 Bohr) occupying 0.774325 of unit cell:	Completed after 8 iterations at t[s]:   3507.32
	FillingsUpdate:  mu: -0.171251800  nElectrons: 376.023304
	Linear fluid (dielectric constant: 78.4, screening length: 5.74355 Bohr) occupying 0.774378 of unit cell:	Completed after 8 iterations at t[s]:   3576.34
SCF: Cycle: 47   G: -2132.051415219966202   dG: -2.555e-06   |Residual|: 8.470e-04   |deigs|: 1.187e-04  t[s]:   3578.03
	Linear fluid (dielectric constant: 78.4, screening length: 5.74355 Bohr) occupying 0.774327 of unit cell:	Completed after 6 iterations at t[s]:   3579.00
	FillingsUpdate:  mu: -0.171251800  nElectrons: 376.053921
	Linear fluid (dielectric constant: 78.4, screening length: 5.74355 Bohr) occupying 0.774380 of unit cell:	Completed after 8 iterations at t[s]:   3648.88
SCF: Cycle: 48   G: -2132.051399953326381   dG: +1.527e-05   |Residual|: 1.615e-03   |deigs|: 4.450e-05  t[s]:   3650.34
	Linear fluid (dielectric constant: 78.4, screening length: 5.74355 Bohr) occupying 0.774314 of unit cell:	Completed after 10 iterations at t[s]:   3651.58
	FillingsUpdate:  mu: -0.171251800  nElectrons: 376.030656
	Linear fluid (dielectric constant: 78.4, screening length: 5.74355 Bohr) occupying 0.774378 of unit cell:	Completed after 2 iterations at t[s]:   3704.31
SCF: Cycle: 49   G: -2132.051417873162791   dG: -1.792e-05   |Residual|: 6.642e-04   |deigs|: 3.579e-05  t[s]:   3706.10
	Linear fluid (dielectric constant: 78.4, screening length: 5.74355 Bohr) occupying 0.774319 of unit cell:	Completed after 3 iterations at t[s]:   3706.84
	FillingsUpdate:  mu: -0.171251800  nElectrons: 376.039130
	Linear fluid (dielectric constant: 78.4, screening length: 5.74355 Bohr) occupying 0.774378 of unit cell:	Completed after 7 iterations at t[s]:   3752.83
SCF: Cycle: 50   G: -2132.051417459815639   dG: +4.133e-07   |Residual|: 5.523e-04   |deigs|: 1.706e-05  t[s]:   3754.36
	Linear fluid (dielectric constant: 78.4, screening length: 5.74355 Bohr) occupying 0.774319 of unit cell:	Completed after 7 iterations at t[s]:   3755.45
	FillingsUpdate:  mu: -0.171251800  nElectrons: 376.023121
	Linear fluid (dielectric constant: 78.4, screening length: 5.74355 Bohr) occupying 0.774377 of unit cell:	Completed after 8 iterations at t[s]:   3825.89
SCF: Cycle: 51   G: -2132.051416425344541   dG: +1.034e-06   |Residual|: 6.480e-04   |deigs|: 5.120e-05  t[s]:   3827.37
	Linear fluid (dielectric constant: 78.4, screening length: 5.74355 Bohr) occupying 0.774316 of unit cell:	Completed after 6 iterations at t[s]:   3828.30
	FillingsUpdate:  mu: -0.171251800  nElectrons: 376.035931
	Linear fluid (dielectric constant: 78.4, screening length: 5.74355 Bohr) occupying 0.774378 of unit cell:	Completed after 4 iterations at t[s]:   3900.12
SCF: Cycle: 52   G: -2132.051418327974716   dG: -1.903e-06   |Residual|: 5.698e-04   |deigs|: 6.470e-05  t[s]:   3902.13
	Linear fluid (dielectric constant: 78.4, screening length: 5.74355 Bohr) occupying 0.774312 of unit cell:	Completed after 2 iterations at t[s]:   3902.87
	FillingsUpdate:  mu: -0.171251800  nElectrons: 376.012603
	Linear fluid (dielectric constant: 78.4, screening length: 5.74355 Bohr) occupying 0.774376 of unit cell:	Completed after 8 iterations at t[s]:   3974.15
SCF: Cycle: 53   G: -2132.051403360484528   dG: +1.497e-05   |Residual|: 1.495e-03   |deigs|: 5.095e-05  t[s]:   3975.71
	Linear fluid (dielectric constant: 78.4, screening length: 5.74355 Bohr) occupying 0.774318 of unit cell:	Completed after 9 iterations at t[s]:   3976.89
	FillingsUpdate:  mu: -0.171251800  nElectrons: 376.025019
	Linear fluid (dielectric constant: 78.4, screening length: 5.74355 Bohr) occupying 0.774377 of unit cell:	Completed after 8 iterations at t[s]:   4033.66
SCF: Cycle: 54   G: -2132.051415049038951   dG: -1.169e-05   |Residual|: 9.514e-04   |deigs|: 2.466e-05  t[s]:   4035.31
	Linear fluid (dielectric constant: 78.4, screening length: 5.74355 Bohr) occupying 0.774323 of unit cell:	Completed after 7 iterations at t[s]:   4036.36
	FillingsUpdate:  mu: -0.171251800  nElectrons: 376.041482
	Linear fluid (dielectric constant: 78.4, screening length: 5.74355 Bohr) occupying 0.774379 of unit cell:	Completed after 8 iterations at t[s]:   4090.53
SCF: Cycle: 55   G: -2132.051413565218809   dG: +1.484e-06   |Residual|: 1.043e-03   |deigs|: 3.536e-05  t[s]:   4092.44
	Linear fluid (dielectric constant: 78.4, screening length: 5.74355 Bohr) occupying 0.774322 of unit cell:	Completed after 8 iterations at t[s]:   4093.65
	FillingsUpdate:  mu: -0.171251800  nElectrons: 376.005911
	Linear fluid (dielectric constant: 78.4, screening length: 5.74355 Bohr) occupying 0.774376 of unit cell:	Completed after 9 iterations at t[s]:   4161.04
SCF: Cycle: 56   G: -2132.051390729901414   dG: +2.284e-05   |Residual|: 1.969e-03   |deigs|: 5.116e-05  t[s]:   4162.78
	Linear fluid (dielectric constant: 78.4, screening length: 5.74355 Bohr) occupying 0.774328 of unit cell:	Completed after 10 iterations at t[s]:   4164.29
	FillingsUpdate:  mu: -0.171251800  nElectrons: 376.024169
	Linear fluid (dielectric constant: 78.4, screening length: 5.74355 Bohr) occupying 0.774378 of unit cell:	Completed after 8 iterations at t[s]:   4211.32
SCF: Cycle: 57   G: -2132.051414966917946   dG: -2.424e-05   |Residual|: 9.200e-04   |deigs|: 2.690e-05  t[s]:   4213.12
	Linear fluid (dielectric constant: 78.4, screening length: 5.74355 Bohr) occupying 0.774332 of unit cell:	Completed after 8 iterations at t[s]:   4214.31
	FillingsUpdate:  mu: -0.171251800  nElectrons: 376.034151
	Linear fluid (dielectric constant: 78.4, screening length: 5.74355 Bohr) occupying 0.774379 of unit cell:	Completed after 3 iterations at t[s]:   4266.79
SCF: Cycle: 58   G: -2132.051417134731309   dG: -2.168e-06   |Residual|: 8.209e-04   |deigs|: 2.977e-05  t[s]:   4268.46
	Linear fluid (dielectric constant: 78.4, screening length: 5.74355 Bohr) occupying 0.774329 of unit cell:	Completed after 3 iterations at t[s]:   4269.27
	FillingsUpdate:  mu: -0.171251800  nElectrons: 376.018470
	Linear fluid (dielectric constant: 78.4, screening length: 5.74355 Bohr) occupying 0.774378 of unit cell:	Completed after 7 iterations at t[s]:   4339.58
SCF: Cycle: 59   G: -2132.051412533837720   dG: +4.601e-06   |Residual|: 9.481e-04   |deigs|: 3.257e-05  t[s]:   4341.14
	Linear fluid (dielectric constant: 78.4, screening length: 5.74355 Bohr) occupying 0.774328 of unit cell:	Completed after 8 iterations at t[s]:   4342.23
	FillingsUpdate:  mu: -0.171251800  nElectrons: 376.029737
	Linear fluid (dielectric constant: 78.4, screening length: 5.74355 Bohr) occupying 0.774378 of unit cell:	Completed after 3 iterations at t[s]:   4389.48
SCF: Cycle: 60   G: -2132.051419015037027   dG: -6.481e-06   |Residual|: 3.881e-04   |deigs|: 1.899e-05  t[s]:   4391.38
	Linear fluid (dielectric constant: 78.4, screening length: 5.74355 Bohr) occupying 0.774329 of unit cell:	Completed after 3 iterations at t[s]:   4392.15
	FillingsUpdate:  mu: -0.171251800  nElectrons: 376.042544
	Linear fluid (dielectric constant: 78.4, screening length: 5.74355 Bohr) occupying 0.774379 of unit cell:	Completed after 7 iterations at t[s]:   4439.35
SCF: Cycle: 61   G: -2132.051414444344118   dG: +4.571e-06   |Residual|: 9.139e-04   |deigs|: 2.073e-05  t[s]:   4440.98
	Linear fluid (dielectric constant: 78.4, screening length: 5.74355 Bohr) occupying 0.774336 of unit cell:	Completed after 8 iterations at t[s]:   4442.13
	FillingsUpdate:  mu: -0.171251800  nElectrons: 376.016783
	Linear fluid (dielectric constant: 78.4, screening length: 5.74355 Bohr) occupying 0.774378 of unit cell:	Completed after 9 iterations at t[s]:   4488.72
SCF: Cycle: 62   G: -2132.051410422705885   dG: +4.022e-06   |Residual|: 1.086e-03   |deigs|: 3.858e-05  t[s]:   4490.37
	Linear fluid (dielectric constant: 78.4, screening length: 5.74355 Bohr) occupying 0.774340 of unit cell:	Completed after 8 iterations at t[s]:   4491.57
	FillingsUpdate:  mu: -0.171251800  nElectrons: 376.029300
	Linear fluid (dielectric constant: 78.4, screening length: 5.74355 Bohr) occupying 0.774379 of unit cell:	Completed after 4 iterations at t[s]:   4538.49
SCF: Cycle: 63   G: -2132.051417776326161   dG: -7.354e-06   |Residual|: 6.510e-04   |deigs|: 1.951e-05  t[s]:   4540.50
	Linear fluid (dielectric constant: 78.4, screening length: 5.74355 Bohr) occupying 0.774342 of unit cell:	Completed after 3 iterations at t[s]:   4541.33
	FillingsUpdate:  mu: -0.171251800  nElectrons: 376.042280
	Linear fluid (dielectric constant: 78.4, screening length: 5.74355 Bohr) occupying 0.774380 of unit cell:	Completed after 8 iterations at t[s]:   4589.23
SCF: Cycle: 64   G: -2132.051415166030893   dG: +2.610e-06   |Residual|: 7.540e-04   |deigs|: 1.849e-05  t[s]:   4590.98
	Linear fluid (dielectric constant: 78.4, screening length: 5.74355 Bohr) occupying 0.774343 of unit cell:	Completed after 8 iterations at t[s]:   4592.18
	FillingsUpdate:  mu: -0.171251800  nElectrons: 376.019426
	Linear fluid (dielectric constant: 78.4, screening length: 5.74355 Bohr) occupying 0.774379 of unit cell:	Completed after 8 iterations at t[s]:   4639.44
SCF: Cycle: 65   G: -2132.051413647281606   dG: +1.519e-06   |Residual|: 8.638e-04   |deigs|: 3.316e-05  t[s]:   4641.09
	Linear fluid (dielectric constant: 78.4, screening length: 5.74355 Bohr) occupying 0.774344 of unit cell:	Completed after 8 iterations at t[s]:   4642.24
	FillingsUpdate:  mu: -0.171251800  nElectrons: 376.026095
	Linear fluid (dielectric constant: 78.4, screening length: 5.74355 Bohr) occupying 0.774379 of unit cell:	Completed after 8 iterations at t[s]:   4688.64
SCF: Cycle: 66   G: -2132.051417370599211   dG: -3.723e-06   |Residual|: 6.312e-04   |deigs|: 1.045e-05  t[s]:   4690.51
	Linear fluid (dielectric constant: 78.4, screening length: 5.74355 Bohr) occupying 0.774345 of unit cell:	Completed after 7 iterations at t[s]:   4691.63
	FillingsUpdate:  mu: -0.171251800  nElectrons: 376.033655
	Linear fluid (dielectric constant: 78.4, screening length: 5.74355 Bohr) occupying 0.774380 of unit cell:	Completed after 3 iterations at t[s]:   4738.31
SCF: Cycle: 67   G: -2132.051418769920019   dG: -1.399e-06   |Residual|: 4.668e-04   |deigs|: 1.095e-05  t[s]:   4739.92
	Linear fluid (dielectric constant: 78.4, screening length: 5.74355 Bohr) occupying 0.774340 of unit cell:	Completed after 3 iterations at t[s]:   4740.69
	FillingsUpdate:  mu: -0.171251800  nElectrons: 376.023536
	Linear fluid (dielectric constant: 78.4, screening length: 5.74355 Bohr) occupying 0.774379 of unit cell:	Completed after 6 iterations at t[s]:   4799.58
SCF: Cycle: 68   G: -2132.051416731912923   dG: +2.038e-06   |Residual|: 6.185e-04   |deigs|: 1.552e-05  t[s]:   4801.68
	Linear fluid (dielectric constant: 78.4, screening length: 5.74355 Bohr) occupying 0.774344 of unit cell:	Completed after 6 iterations at t[s]:   4802.72
	FillingsUpdate:  mu: -0.171251800  nElectrons: 376.030458
	Linear fluid (dielectric constant: 78.4, screening length: 5.74355 Bohr) occupying 0.774379 of unit cell:	Completed after 3 iterations at t[s]:   4854.02
SCF: Cycle: 69   G: -2132.051418995989479   dG: -2.264e-06   |Residual|: 4.124e-04   |deigs|: 1.314e-05  t[s]:   4855.70
	Linear fluid (dielectric constant: 78.4, screening length: 5.74355 Bohr) occupying 0.774348 of unit cell:	Completed after 2 iterations at t[s]:   4856.45
	FillingsUpdate:  mu: -0.171251800  nElectrons: 376.041009
	Linear fluid (dielectric constant: 78.4, screening length: 5.74355 Bohr) occupying 0.774380 of unit cell:	Completed after 8 iterations at t[s]:   4903.21
SCF: Cycle: 70   G: -2132.051415238274330   dG: +3.758e-06   |Residual|: 8.618e-04   |deigs|: 1.599e-05  t[s]:   4905.10
	Linear fluid (dielectric constant: 78.4, screening length: 5.74355 Bohr) occupying 0.774348 of unit cell:	Completed after 7 iterations at t[s]:   4906.16
	FillingsUpdate:  mu: -0.171251800  nElectrons: 376.012999
	Linear fluid (dielectric constant: 78.4, screening length: 5.74355 Bohr) occupying 0.774379 of unit cell:	Completed after 9 iterations at t[s]:   4954.23
SCF: Cycle: 71   G: -2132.051405713704298   dG: +9.525e-06   |Residual|: 1.320e-03   |deigs|: 4.047e-05  t[s]:   4955.99
	Linear fluid (dielectric constant: 78.4, screening length: 5.74355 Bohr) occupying 0.774349 of unit cell:	Completed after 8 iterations at t[s]:   4957.14
	FillingsUpdate:  mu: -0.171251800  nElectrons: 376.026226
	Linear fluid (dielectric constant: 78.4, screening length: 5.74355 Bohr) occupying 0.774379 of unit cell:	Completed after 8 iterations at t[s]:   5003.02
SCF: Cycle: 72   G: -2132.051416247091765   dG: -1.053e-05   |Residual|: 8.137e-04   |deigs|: 2.101e-05  t[s]:   5004.83
	Linear fluid (dielectric constant: 78.4, screening length: 5.74355 Bohr) occupying 0.774349 of unit cell:	Completed after 6 iterations at t[s]:   5005.87
	FillingsUpdate:  mu: -0.171251800  nElectrons: 376.039180
	Linear fluid (dielectric constant: 78.4, screening length: 5.74355 Bohr) occupying 0.774380 of unit cell:	Completed after 7 iterations at t[s]:   5050.99
SCF: Cycle: 73   G: -2132.051416330850770   dG: -8.376e-08   |Residual|: 7.522e-04   |deigs|: 1.850e-05  t[s]:   5053.08
	Linear fluid (dielectric constant: 78.4, screening length: 5.74355 Bohr) occupying 0.774349 of unit cell:	Completed after 7 iterations at t[s]:   5054.21
	FillingsUpdate:  mu: -0.171251800  nElectrons: 376.006877
	Linear fluid (dielectric constant: 78.4, screening length: 5.74355 Bohr) occupying 0.774378 of unit cell:	Completed after 10 iterations at t[s]:   5126.59
SCF: Cycle: 74   G: -2132.051395463554854   dG: +2.087e-05   |Residual|: 1.714e-03   |deigs|: 4.706e-05  t[s]:   5128.03
	Linear fluid (dielectric constant: 78.4, screening length: 5.74355 Bohr) occupying 0.774348 of unit cell:	Completed after 8 iterations at t[s]:   5129.18
	FillingsUpdate:  mu: -0.171251800  nElectrons: 376.026374
	Linear fluid (dielectric constant: 78.4, screening length: 5.74355 Bohr) occupying 0.774379 of unit cell:	Completed after 8 iterations at t[s]:   5175.53
SCF: Cycle: 75   G: -2132.051415901400560   dG: -2.044e-05   |Residual|: 8.668e-04   |deigs|: 2.955e-05  t[s]:   5176.98
	Linear fluid (dielectric constant: 78.4, screening length: 5.74355 Bohr) occupying 0.774348 of unit cell:	Completed after 7 iterations at t[s]:   5178.00
	FillingsUpdate:  mu: -0.171251800  nElectrons: 376.035600
	Linear fluid (dielectric constant: 78.4, screening length: 5.74355 Bohr) occupying 0.774380 of unit cell:	Completed after 4 iterations at t[s]:   5224.76
SCF: Cycle: 76   G: -2132.051418266737528   dG: -2.365e-06   |Residual|: 5.146e-04   |deigs|: 1.321e-05  t[s]:   5226.26
	Linear fluid (dielectric constant: 78.4, screening length: 5.74355 Bohr) occupying 0.774348 of unit cell:	Completed after 2 iterations at t[s]:   5226.90
	FillingsUpdate:  mu: -0.171251800  nElectrons: 376.009169
	Linear fluid (dielectric constant: 78.4, screening length: 5.74355 Bohr) occupying 0.774378 of unit cell:	Completed after 9 iterations at t[s]:   5273.72
SCF: Cycle: 77   G: -2132.051399673347078   dG: +1.859e-05   |Residual|: 1.542e-03   |deigs|: 3.851e-05  t[s]:   5275.33
	Linear fluid (dielectric constant: 78.4, screening length: 5.74355 Bohr) occupying 0.774349 of unit cell:	Completed after 8 iterations at t[s]:   5276.58
	FillingsUpdate:  mu: -0.171251800  nElectrons: 376.024977
	Linear fluid (dielectric constant: 78.4, screening length: 5.74355 Bohr) occupying 0.774379 of unit cell:	Completed after 8 iterations at t[s]:   5324.02
SCF: Cycle: 78   G: -2132.051416471816083   dG: -1.680e-05   |Residual|: 7.373e-04   |deigs|: 2.441e-05  t[s]:   5325.73
	Linear fluid (dielectric constant: 78.4, screening length: 5.74355 Bohr) occupying 0.774353 of unit cell:	Completed after 7 iterations at t[s]:   5326.75
	FillingsUpdate:  mu: -0.171251800  nElectrons: 376.029057
	Linear fluid (dielectric constant: 78.4, screening length: 5.74355 Bohr) occupying 0.774380 of unit cell:	Completed after 3 iterations at t[s]:   5371.02
SCF: Cycle: 79   G: -2132.051418712816940   dG: -2.241e-06   |Residual|: 4.532e-04   |deigs|: 8.685e-06  t[s]:   5372.71
	Linear fluid (dielectric constant: 78.4, screening length: 5.74355 Bohr) occupying 0.774354 of unit cell:	Completed after 4 iterations at t[s]:   5373.61
	FillingsUpdate:  mu: -0.171251800  nElectrons: 376.036442
	Linear fluid (dielectric constant: 78.4, screening length: 5.74355 Bohr) occupying 0.774381 of unit cell:	Completed after 6 iterations at t[s]:   5420.69
SCF: Cycle: 80   G: -2132.051418765053313   dG: -5.224e-08   |Residual|: 3.059e-04   |deigs|: 1.113e-05  t[s]:   5422.23
	Linear fluid (dielectric constant: 78.4, screening length: 5.74355 Bohr) occupying 0.774356 of unit cell:	Completed after 2 iterations at t[s]:   5422.84
	FillingsUpdate:  mu: -0.171251800  nElectrons: 375.986087
	Linear fluid (dielectric constant: 78.4, screening length: 5.74355 Bohr) occupying 0.774377 of unit cell:	Completed after 10 iterations at t[s]:   5495.76
SCF: Cycle: 81   G: -2132.051345107524867   dG: +7.366e-05   |Residual|: 2.825e-03   |deigs|: 7.430e-05  t[s]:   5497.18
	Linear fluid (dielectric constant: 78.4, screening length: 5.74355 Bohr) occupying 0.774358 of unit cell:	Completed after 10 iterations at t[s]:   5498.37
	FillingsUpdate:  mu: -0.171251800  nElectrons: 376.020272
	Linear fluid (dielectric constant: 78.4, screening length: 5.74355 Bohr) occupying 0.774379 of unit cell:	Completed after 8 iterations at t[s]:   5543.93
SCF: Cycle: 82   G: -2132.051413994148788   dG: -6.889e-05   |Residual|: 8.323e-04   |deigs|: 5.170e-05  t[s]:   5545.60
	Linear fluid (dielectric constant: 78.4, screening length: 5.74355 Bohr) occupying 0.774359 of unit cell:	Completed after 8 iterations at t[s]:   5546.73
	FillingsUpdate:  mu: -0.171251800  nElectrons: 376.023394
	Linear fluid (dielectric constant: 78.4, screening length: 5.74355 Bohr) occupying 0.774380 of unit cell:	Completed after 8 iterations at t[s]:   5593.73
SCF: Cycle: 83   G: -2132.051415972926861   dG: -1.979e-06   |Residual|: 7.467e-04   |deigs|: 5.710e-06  t[s]:   5595.59
	Linear fluid (dielectric constant: 78.4, screening length: 5.74355 Bohr) occupying 0.774359 of unit cell:	Completed after 8 iterations at t[s]:   5596.77
	FillingsUpdate:  mu: -0.171251800  nElectrons: 376.024808
	Linear fluid (dielectric constant: 78.4, screening length: 5.74355 Bohr) occupying 0.774380 of unit cell:	Completed after 7 iterations at t[s]:   5643.72
SCF: Cycle: 84   G: -2132.051416850676105   dG: -8.777e-07   |Residual|: 6.715e-04   |deigs|: 2.266e-06  t[s]:   5645.40
	Linear fluid (dielectric constant: 78.4, screening length: 5.74355 Bohr) occupying 0.774359 of unit cell:	Completed after 7 iterations at t[s]:   5646.54
	FillingsUpdate:  mu: -0.171251800  nElectrons: 376.029559
	Linear fluid (dielectric constant: 78.4, screening length: 5.74355 Bohr) occupying 0.774380 of unit cell:	Completed after 4 iterations at t[s]:   5692.55
SCF: Cycle: 85   G: -2132.051418139215912   dG: -1.289e-06   |Residual|: 6.015e-04   |deigs|: 7.223e-06  t[s]:   5694.48
	Linear fluid (dielectric constant: 78.4, screening length: 5.74355 Bohr) occupying 0.774359 of unit cell:	Completed after 2 iterations at t[s]:   5695.22
	FillingsUpdate:  mu: -0.171251800  nElectrons: 376.037896
	Linear fluid (dielectric constant: 78.4, screening length: 5.74355 Bohr) occupying 0.774381 of unit cell:	Completed after 6 iterations at t[s]:   5742.41
SCF: Cycle: 86   G: -2132.051417986123852   dG: +1.531e-07   |Residual|: 4.565e-04   |deigs|: 1.199e-05  t[s]:   5744.51
	Linear fluid (dielectric constant: 78.4, screening length: 5.74355 Bohr) occupying 0.774360 of unit cell:	Completed after 2 iterations at t[s]:   5745.27
	FillingsUpdate:  mu: -0.171251800  nElectrons: 375.973141
	Linear fluid (dielectric constant: 78.4, screening length: 5.74355 Bohr) occupying 0.774377 of unit cell:	Completed after 10 iterations at t[s]:   5814.82
SCF: Cycle: 87   G: -2132.051297558365150   dG: +1.204e-04   |Residual|: 3.601e-03   |deigs|: 9.565e-05  t[s]:   5816.84
	Linear fluid (dielectric constant: 78.4, screening length: 5.74355 Bohr) occupying 0.774360 of unit cell:	Completed after 10 iterations at t[s]:   5818.15
	FillingsUpdate:  mu: -0.171251800  nElectrons: 376.019385
	Linear fluid (dielectric constant: 78.4, screening length: 5.74355 Bohr) occupying 0.774380 of unit cell:	Completed after 8 iterations at t[s]:   5865.18
SCF: Cycle: 88   G: -2132.051413508418136   dG: -1.160e-04   |Residual|: 8.372e-04   |deigs|: 6.923e-05  t[s]:   5866.78
	Linear fluid (dielectric constant: 78.4, screening length: 5.74355 Bohr) occupying 0.774361 of unit cell:	Completed after 8 iterations at t[s]:   5867.91
	FillingsUpdate:  mu: -0.171251800  nElectrons: 376.020924
	Linear fluid (dielectric constant: 78.4, screening length: 5.74355 Bohr) occupying 0.774380 of unit cell:	Completed after 8 iterations at t[s]:   5912.28
SCF: Cycle: 89   G: -2132.051414434092749   dG: -9.257e-07   |Residual|: 8.278e-04   |deigs|: 3.698e-06  t[s]:   5913.86
	Linear fluid (dielectric constant: 78.4, screening length: 5.74355 Bohr) occupying 0.774362 of unit cell:	Completed after 8 iterations at t[s]:   5915.05
	FillingsUpdate:  mu: -0.171251800  nElectrons: 376.021685
	Linear fluid (dielectric constant: 78.4, screening length: 5.74355 Bohr) occupying 0.774380 of unit cell:	Completed after 8 iterations at t[s]:   5962.06
SCF: Cycle: 90   G: -2132.051414879046661   dG: -4.450e-07   |Residual|: 8.075e-04   |deigs|: 3.621e-06  t[s]:   5963.86
	Linear fluid (dielectric constant: 78.4, screening length: 5.74355 Bohr) occupying 0.774363 of unit cell:	Completed after 8 iterations at t[s]:   5964.95
	FillingsUpdate:  mu: -0.171251800  nElectrons: 376.020664
	Linear fluid (dielectric constant: 78.4, screening length: 5.74355 Bohr) occupying 0.774380 of unit cell:	Completed after 8 iterations at t[s]:   6029.59
SCF: Cycle: 91   G: -2132.051414347561604   dG: +5.315e-07   |Residual|: 8.088e-04   |deigs|: 4.353e-06  t[s]:   6031.22
	Linear fluid (dielectric constant: 78.4, screening length: 5.74355 Bohr) occupying 0.774364 of unit cell:	Completed after 8 iterations at t[s]:   6032.31
	FillingsUpdate:  mu: -0.171251800  nElectrons: 376.021100
	Linear fluid (dielectric constant: 78.4, screening length: 5.74355 Bohr) occupying 0.774380 of unit cell:	Completed after 8 iterations at t[s]:   6086.42
SCF: Cycle: 92   G: -2132.051414410942925   dG: -6.338e-08   |Residual|: 8.344e-04   |deigs|: 2.318e-06  t[s]:   6087.92
	Linear fluid (dielectric constant: 78.4, screening length: 5.74355 Bohr) occupying 0.774364 of unit cell:	Completed after 8 iterations at t[s]:   6089.00
	FillingsUpdate:  mu: -0.171251800  nElectrons: 376.021106
	Linear fluid (dielectric constant: 78.4, screening length: 5.74355 Bohr) occupying 0.774380 of unit cell:	Completed after 8 iterations at t[s]:   6156.90
SCF: Cycle: 93   G: -2132.051414466003280   dG: -5.506e-08   |Residual|: 8.269e-04   |deigs|: 2.232e-06  t[s]:   6158.36
	Linear fluid (dielectric constant: 78.4, screening length: 5.74355 Bohr) occupying 0.774365 of unit cell:	Completed after 8 iterations at t[s]:   6159.42
	FillingsUpdate:  mu: -0.171251800  nElectrons: 376.022289
	Linear fluid (dielectric constant: 78.4, screening length: 5.74355 Bohr) occupying 0.774380 of unit cell:	Completed after 8 iterations at t[s]:   6215.28
SCF: Cycle: 94   G: -2132.051415040034954   dG: -5.740e-07   |Residual|: 8.135e-04   |deigs|: 2.077e-06  t[s]:   6216.68
	Linear fluid (dielectric constant: 78.4, screening length: 5.74355 Bohr) occupying 0.774366 of unit cell:	Completed after 8 iterations at t[s]:   6217.82
	FillingsUpdate:  mu: -0.171251800  nElectrons: 376.021476
	Linear fluid (dielectric constant: 78.4, screening length: 5.74355 Bohr) occupying 0.774380 of unit cell:	Completed after 8 iterations at t[s]:   6270.43
SCF: Cycle: 95   G: -2132.051414799504073   dG: +2.405e-07   |Residual|: 7.967e-04   |deigs|: 4.327e-06  t[s]:   6272.06
	Linear fluid (dielectric constant: 78.4, screening length: 5.74355 Bohr) occupying 0.774363 of unit cell:	Completed after 8 iterations at t[s]:   6273.27
	FillingsUpdate:  mu: -0.171251800  nElectrons: 376.024072
	Linear fluid (dielectric constant: 78.4, screening length: 5.74355 Bohr) occupying 0.774380 of unit cell:	Completed after 8 iterations at t[s]:   6344.06
SCF: Cycle: 96   G: -2132.051415960826034   dG: -1.161e-06   |Residual|: 7.653e-04   |deigs|: 1.001e-05  t[s]:   6345.60
	Linear fluid (dielectric constant: 78.4, screening length: 5.74355 Bohr) occupying 0.774370 of unit cell:	Completed after 6 iterations at t[s]:   6346.61
	FillingsUpdate:  mu: -0.171251800  nElectrons: 376.033340
	Linear fluid (dielectric constant: 78.4, screening length: 5.74355 Bohr) occupying 0.774382 of unit cell:	Completed after 3 iterations at t[s]:   6417.77
SCF: Cycle: 97   G: -2132.051415802767224   dG: +1.581e-07   |Residual|: 1.052e-03   |deigs|: 2.779e-05  t[s]:   6419.35
	Linear fluid (dielectric constant: 78.4, screening length: 5.74355 Bohr) occupying 0.774349 of unit cell:	Completed after 3 iterations at t[s]:   6420.14
	FillingsUpdate:  mu: -0.171251800  nElectrons: 376.028171
	Linear fluid (dielectric constant: 78.4, screening length: 5.74355 Bohr) occupying 0.774379 of unit cell:	Completed after 4 iterations at t[s]:   6492.05
SCF: Cycle: 98   G: -2132.051406325174412   dG: +9.478e-06   |Residual|: 1.931e-03   |deigs|: 6.652e-05  t[s]:   6493.92
	Linear fluid (dielectric constant: 78.4, screening length: 5.74355 Bohr) occupying 0.774353 of unit cell:	Completed after 4 iterations at t[s]:   6494.83
	FillingsUpdate:  mu: -0.171251800  nElectrons: 376.041701
	Linear fluid (dielectric constant: 78.4, screening length: 5.74355 Bohr) occupying 0.774381 of unit cell:	Completed after 7 iterations at t[s]:   6540.43
SCF: Cycle: 99   G: -2132.051413132207017   dG: -6.807e-06   |Residual|: 1.210e-03   |deigs|: 2.186e-05  t[s]:   6542.14
	Linear fluid (dielectric constant: 78.4, screening length: 5.74355 Bohr) occupying 0.774364 of unit cell:	Completed after 8 iterations at t[s]:   6543.31
	FillingsUpdate:  mu: -0.171251800  nElectrons: 376.013893
	Linear fluid (dielectric constant: 78.4, screening length: 5.74355 Bohr) occupying 0.774380 of unit cell:	Completed after 8 iterations at t[s]:   6612.77
SCF: Cycle: 100   G: -2132.051406073874205   dG: +7.058e-06   |Residual|: 1.368e-03   |deigs|: 5.445e-05  t[s]:   6614.50
	Linear fluid (dielectric constant: 78.4, screening length: 5.74355 Bohr) occupying 0.774365 of unit cell:	Completed after 10 iterations at t[s]:   6615.80
	FillingsUpdate:  mu: -0.171251800  nElectrons: 376.020839
	Linear fluid (dielectric constant: 78.4, screening length: 5.74355 Bohr) occupying 0.774380 of unit cell:	Completed after 8 iterations at t[s]:   6663.12
SCF: Cycle: 101   G: -2132.051410881617358   dG: -4.808e-06   |Residual|: 1.296e-03   |deigs|: 1.222e-05  t[s]:   6664.97
	Linear fluid (dielectric constant: 78.4, screening length: 5.74355 Bohr) occupying 0.774363 of unit cell:	Completed after 8 iterations at t[s]:   6666.08
	FillingsUpdate:  mu: -0.171251800  nElectrons: 376.032725
	Linear fluid (dielectric constant: 78.4, screening length: 5.74355 Bohr) occupying 0.774381 of unit cell:	Completed after 3 iterations at t[s]:   6711.93
SCF: Cycle: 102   G: -2132.051413457613762   dG: -2.576e-06   |Residual|: 1.262e-03   |deigs|: 1.823e-05  t[s]:   6713.66
	Linear fluid (dielectric constant: 78.4, screening length: 5.74355 Bohr) occupying 0.774365 of unit cell:	Completed after 3 iterations at t[s]:   6714.53
	FillingsUpdate:  mu: -0.171251800  nElectrons: 376.021953
	Linear fluid (dielectric constant: 78.4, screening length: 5.74355 Bohr) occupying 0.774380 of unit cell:	Completed after 7 iterations at t[s]:   6760.55
SCF: Cycle: 103   G: -2132.051415068197912   dG: -1.611e-06   |Residual|: 8.665e-04   |deigs|: 1.650e-05  t[s]:   6762.21
	Linear fluid (dielectric constant: 78.4, screening length: 5.74355 Bohr) occupying 0.774367 of unit cell:	Completed after 8 iterations at t[s]:   6763.46
	FillingsUpdate:  mu: -0.171251800  nElectrons: 376.021495
	Linear fluid (dielectric constant: 78.4, screening length: 5.74355 Bohr) occupying 0.774380 of unit cell:	Completed after 8 iterations at t[s]:   6818.96
SCF: Cycle: 104   G: -2132.051413031653738   dG: +2.037e-06   |Residual|: 1.144e-03   |deigs|: 7.453e-06  t[s]:   6820.90
	Linear fluid (dielectric constant: 78.4, screening length: 5.74355 Bohr) occupying 0.774366 of unit cell:	Completed after 8 iterations at t[s]:   6822.18
	FillingsUpdate:  mu: -0.171251800  nElectrons: 376.027181
	Linear fluid (dielectric constant: 78.4, screening length: 5.74355 Bohr) occupying 0.774381 of unit cell:	Completed after 4 iterations at t[s]:   6868.95
SCF: Cycle: 105   G: -2132.051416681041701   dG: -3.649e-06   |Residual|: 8.025e-04   |deigs|: 9.478e-06  t[s]:   6870.91
	Linear fluid (dielectric constant: 78.4, screening length: 5.74355 Bohr) occupying 0.774367 of unit cell:	Completed after 4 iterations at t[s]:   6871.95
	FillingsUpdate:  mu: -0.171251800  nElectrons: 376.043727
	Linear fluid (dielectric constant: 78.4, screening length: 5.74355 Bohr) occupying 0.774382 of unit cell:	Completed after 7 iterations at t[s]:   6917.76
SCF: Cycle: 106   G: -2132.051413952233361   dG: +2.729e-06   |Residual|: 8.551e-04   |deigs|: 2.422e-05  t[s]:   6919.54
	Linear fluid (dielectric constant: 78.4, screening length: 5.74355 Bohr) occupying 0.774366 of unit cell:	Completed after 8 iterations at t[s]:   6920.68
	FillingsUpdate:  mu: -0.171251800  nElectrons: 376.013661
	Linear fluid (dielectric constant: 78.4, screening length: 5.74355 Bohr) occupying 0.774380 of unit cell:	Completed after 8 iterations at t[s]:   6967.23
SCF: Cycle: 107   G: -2132.051406628997938   dG: +7.323e-06   |Residual|: 1.308e-03   |deigs|: 4.382e-05  t[s]:   6969.00
	Linear fluid (dielectric constant: 78.4, screening length: 5.74355 Bohr) occupying 0.774374 of unit cell:	Completed after 9 iterations at t[s]:   6970.21
	FillingsUpdate:  mu: -0.171251800  nElectrons: 376.016413
	Linear fluid (dielectric constant: 78.4, screening length: 5.74355 Bohr) occupying 0.774381 of unit cell:	Completed after 9 iterations at t[s]:   7040.87
SCF: Cycle: 108   G: -2132.051403797816420   dG: +2.831e-06   |Residual|: 1.837e-03   |deigs|: 4.464e-05  t[s]:   7042.38
	Linear fluid (dielectric constant: 78.4, screening length: 5.74355 Bohr) occupying 0.774372 of unit cell:	Completed after 8 iterations at t[s]:   7043.54
	FillingsUpdate:  mu: -0.171251800  nElectrons: 376.023493
	Linear fluid (dielectric constant: 78.4, screening length: 5.74355 Bohr) occupying 0.774381 of unit cell:	Completed after 8 iterations at t[s]:   7110.94
SCF: Cycle: 109   G: -2132.051414611582459   dG: -1.081e-05   |Residual|: 9.618e-04   |deigs|: 1.747e-05  t[s]:   7112.44
	Linear fluid (dielectric constant: 78.4, screening length: 5.74355 Bohr) occupying 0.774370 of unit cell:	Completed after 8 iterations at t[s]:   7113.59
	FillingsUpdate:  mu: -0.171251800  nElectrons: 376.026446
	Linear fluid (dielectric constant: 78.4, screening length: 5.74355 Bohr) occupying 0.774381 of unit cell:	Completed after 6 iterations at t[s]:   7160.50
SCF: Cycle: 110   G: -2132.051417775613572   dG: -3.164e-06   |Residual|: 5.536e-04   |deigs|: 1.158e-05  t[s]:   7162.11
	Linear fluid (dielectric constant: 78.4, screening length: 5.74355 Bohr) occupying 0.774370 of unit cell:	Completed after 6 iterations at t[s]:   7163.10
	FillingsUpdate:  mu: -0.171251800  nElectrons: 376.029790
	Linear fluid (dielectric constant: 78.4, screening length: 5.74355 Bohr) occupying 0.774381 of unit cell:	Completed after 2 iterations at t[s]:   7210.35
SCF: Cycle: 111   G: -2132.051418680524876   dG: -9.049e-07   |Residual|: 4.742e-04   |deigs|: 5.332e-06  t[s]:   7212.09
	Linear fluid (dielectric constant: 78.4, screening length: 5.74355 Bohr) occupying 0.774370 of unit cell:	Completed after 3 iterations at t[s]:   7212.87
	FillingsUpdate:  mu: -0.171251800  nElectrons: 376.034219
	Linear fluid (dielectric constant: 78.4, screening length: 5.74355 Bohr) occupying 0.774382 of unit cell:	Completed after 3 iterations at t[s]:   7257.95
SCF: Cycle: 112   G: -2132.051418915815248   dG: -2.353e-07   |Residual|: 3.940e-04   |deigs|: 6.524e-06  t[s]:   7259.59
	Linear fluid (dielectric constant: 78.4, screening length: 5.74355 Bohr) occupying 0.774370 of unit cell:	Completed after 2 iterations at t[s]:   7260.22
	FillingsUpdate:  mu: -0.171251800  nElectrons: 376.012926
	Linear fluid (dielectric constant: 78.4, screening length: 5.74355 Bohr) occupying 0.774380 of unit cell:	Completed after 8 iterations at t[s]:   7323.19
SCF: Cycle: 113   G: -2132.051405273301043   dG: +1.364e-05   |Residual|: 1.348e-03   |deigs|: 3.081e-05  t[s]:   7324.69
	Linear fluid (dielectric constant: 78.4, screening length: 5.74355 Bohr) occupying 0.774371 of unit cell:	Completed after 8 iterations at t[s]:   7325.87
	FillingsUpdate:  mu: -0.171251800  nElectrons: 376.019244
	Linear fluid (dielectric constant: 78.4, screening length: 5.74355 Bohr) occupying 0.774380 of unit cell:	Completed after 8 iterations at t[s]:   7372.58
SCF: Cycle: 114   G: -2132.051412424854789   dG: -7.152e-06   |Residual|: 9.795e-04   |deigs|: 1.106e-05  t[s]:   7374.08
	Linear fluid (dielectric constant: 78.4, screening length: 5.74355 Bohr) occupying 0.774371 of unit cell:	Completed after 8 iterations at t[s]:   7375.24
	FillingsUpdate:  mu: -0.171251800  nElectrons: 376.020022
	Linear fluid (dielectric constant: 78.4, screening length: 5.74355 Bohr) occupying 0.774381 of unit cell:	Completed after 8 iterations at t[s]:   7418.04
SCF: Cycle: 115   G: -2132.051413375904758   dG: -9.510e-07   |Residual|: 9.027e-04   |deigs|: 1.319e-06  t[s]:   7419.71
	Linear fluid (dielectric constant: 78.4, screening length: 5.74355 Bohr) occupying 0.774371 of unit cell:	Completed after 8 iterations at t[s]:   7420.87
	FillingsUpdate:  mu: -0.171251800  nElectrons: 376.019908
	Linear fluid (dielectric constant: 78.4, screening length: 5.74355 Bohr) occupying 0.774381 of unit cell:	Completed after 8 iterations at t[s]:   7467.47
SCF: Cycle: 116   G: -2132.051413340660474   dG: +3.524e-08   |Residual|: 9.088e-04   |deigs|: 3.846e-07  t[s]:   7469.23
	Linear fluid (dielectric constant: 78.4, screening length: 5.74355 Bohr) occupying 0.774371 of unit cell:	Completed after 8 iterations at t[s]:   7470.35
	FillingsUpdate:  mu: -0.171251800  nElectrons: 376.021186
	Linear fluid (dielectric constant: 78.4, screening length: 5.74355 Bohr) occupying 0.774381 of unit cell:	Completed after 8 iterations at t[s]:   7530.38
SCF: Cycle: 117   G: -2132.051413332855645   dG: +7.805e-09   |Residual|: 1.012e-03   |deigs|: 2.277e-06  t[s]:   7532.27
	Linear fluid (dielectric constant: 78.4, screening length: 5.74355 Bohr) occupying 0.774372 of unit cell:	Completed after 8 iterations at t[s]:   7533.52
	FillingsUpdate:  mu: -0.171251800  nElectrons: 376.023732
	Linear fluid (dielectric constant: 78.4, screening length: 5.74355 Bohr) occupying 0.774381 of unit cell:	Completed after 8 iterations at t[s]:   7605.51
SCF: Cycle: 118   G: -2132.051415607101717   dG: -2.274e-06   |Residual|: 8.037e-04   |deigs|: 3.873e-06  t[s]:   7607.29
	Linear fluid (dielectric constant: 78.4, screening length: 5.74355 Bohr) occupying 0.774372 of unit cell:	Completed after 8 iterations at t[s]:   7608.44
	FillingsUpdate:  mu: -0.171251800  nElectrons: 376.025138
	Linear fluid (dielectric constant: 78.4, screening length: 5.74355 Bohr) occupying 0.774381 of unit cell:	Completed after 7 iterations at t[s]:   7655.39
SCF: Cycle: 119   G: -2132.051416704182884   dG: -1.097e-06   |Residual|: 6.948e-04   |deigs|: 2.092e-06  t[s]:   7657.33
	Linear fluid (dielectric constant: 78.4, screening length: 5.74355 Bohr) occupying 0.774372 of unit cell:	Completed after 7 iterations at t[s]:   7658.44
	FillingsUpdate:  mu: -0.171251800  nElectrons: 376.029771
	Linear fluid (dielectric constant: 78.4, screening length: 5.74355 Bohr) occupying 0.774381 of unit cell:	Completed after 4 iterations at t[s]:   7704.42
SCF: Cycle: 120   G: -2132.051417847868379   dG: -1.144e-06   |Residual|: 6.483e-04   |deigs|: 7.018e-06  t[s]:   7706.30
	Linear fluid (dielectric constant: 78.4, screening length: 5.74355 Bohr) occupying 0.774371 of unit cell:	Completed after 2 iterations at t[s]:   7707.08
	FillingsUpdate:  mu: -0.171251800  nElectrons: 376.035212
	Linear fluid (dielectric constant: 78.4, screening length: 5.74355 Bohr) occupying 0.774382 of unit cell:	Completed after 2 iterations at t[s]:   7754.86
SCF: Cycle: 121   G: -2132.051418994326923   dG: -1.146e-06   |Residual|: 3.468e-04   |deigs|: 7.966e-06  t[s]:   7756.37
	Linear fluid (dielectric constant: 78.4, screening length: 5.74355 Bohr) occupying 0.774373 of unit cell:	Completed after 2 iterations at t[s]:   7757.03
	FillingsUpdate:  mu: -0.171251800  nElectrons: 376.010695
	Linear fluid (dielectric constant: 78.4, screening length: 5.74355 Bohr) occupying 0.774380 of unit cell:	Completed after 9 iterations at t[s]:   7815.07
SCF: Cycle: 122   G: -2132.051398553993749   dG: +2.044e-05   |Residual|: 1.798e-03   |deigs|: 3.578e-05  t[s]:   7816.77
	Linear fluid (dielectric constant: 78.4, screening length: 5.74355 Bohr) occupying 0.774373 of unit cell:	Completed after 9 iterations at t[s]:   7817.95
	FillingsUpdate:  mu: -0.171251800  nElectrons: 376.021226
	Linear fluid (dielectric constant: 78.4, screening length: 5.74355 Bohr) occupying 0.774381 of unit cell:	Completed after 8 iterations at t[s]:   7864.56
SCF: Cycle: 123   G: -2132.051413541660622   dG: -1.499e-05   |Residual|: 9.478e-04   |deigs|: 1.636e-05  t[s]:   7866.27
	Linear fluid (dielectric constant: 78.4, screening length: 5.74355 Bohr) occupying 0.774373 of unit cell:	Completed after 8 iterations at t[s]:   7867.41
	FillingsUpdate:  mu: -0.171251800  nElectrons: 376.025497
	Linear fluid (dielectric constant: 78.4, screening length: 5.74355 Bohr) occupying 0.774381 of unit cell:	Completed after 8 iterations at t[s]:   7912.63
SCF: Cycle: 124   G: -2132.051415871279460   dG: -2.330e-06   |Residual|: 8.351e-04   |deigs|: 6.664e-06  t[s]:   7914.24
	Linear fluid (dielectric constant: 78.4, screening length: 5.74355 Bohr) occupying 0.774373 of unit cell:	Completed after 7 iterations at t[s]:   7915.26
	FillingsUpdate:  mu: -0.171251800  nElectrons: 376.030880
	Linear fluid (dielectric constant: 78.4, screening length: 5.74355 Bohr) occupying 0.774382 of unit cell:	Completed after 3 iterations at t[s]:   7961.26
SCF: Cycle: 125   G: -2132.051418382037355   dG: -2.511e-06   |Residual|: 5.283e-04   |deigs|: 7.720e-06  t[s]:   7962.83
	Linear fluid (dielectric constant: 78.4, screening length: 5.74355 Bohr) occupying 0.774374 of unit cell:	Completed after 3 iterations at t[s]:   7963.56
	FillingsUpdate:  mu: -0.171251800  nElectrons: 376.028429
	Linear fluid (dielectric constant: 78.4, screening length: 5.74355 Bohr) occupying 0.774381 of unit cell:	Completed after 2 iterations at t[s]:   8009.36
SCF: Cycle: 126   G: -2132.051419084353711   dG: -7.023e-07   |Residual|: 3.279e-04   |deigs|: 4.471e-06  t[s]:   8011.13
	Linear fluid (dielectric constant: 78.4, screening length: 5.74355 Bohr) occupying 0.774374 of unit cell:	Completed after 3 iterations at t[s]:   8011.95
	FillingsUpdate:  mu: -0.171251800  nElectrons: 376.041571
	Linear fluid (dielectric constant: 78.4, screening length: 5.74355 Bohr) occupying 0.774382 of unit cell:	Completed after 7 iterations at t[s]:   8059.37
SCF: Cycle: 127   G: -2132.051415753598576   dG: +3.331e-06   |Residual|: 7.136e-04   |deigs|: 1.907e-05  t[s]:   8061.34
	Linear fluid (dielectric constant: 78.4, screening length: 5.74355 Bohr) occupying 0.774374 of unit cell:	Completed after 8 iterations at t[s]:   8062.73
	FillingsUpdate:  mu: -0.171251800  nElectrons: 376.011713
	Linear fluid (dielectric constant: 78.4, screening length: 5.74355 Bohr) occupying 0.774381 of unit cell:	Completed after 8 iterations at t[s]:   8109.87
SCF: Cycle: 128   G: -2132.051404470451871   dG: +1.128e-05   |Residual|: 1.356e-03   |deigs|: 4.297e-05  t[s]:   8111.60
[...]
	Linear fluid (dielectric constant: 78.4, screening length: 5.74355 Bohr) occupying 0.774383 of unit cell:	Completed after 13 iterations at t[s]:    130.77
	FillingsUpdate:  mu: -0.171251800  nElectrons: 376.032647
	SubspaceRotationAdjust: set factor to 0.514
ElecMinimize: Iter:   1  G: -2132.051419512573375  |grad|_K:  1.326e-07  alpha:  2.170e-02  linmin:  1.240e-03  t[s]:    146.42
	Linear fluid (dielectric constant: 78.4, screening length: 5.74355 Bohr) occupying 0.774383 of unit cell:	Completed after 1 iterations at t[s]:    160.15
	Linear fluid (dielectric constant: 78.4, screening length: 5.74355 Bohr) occupying 0.774383 of unit cell:	Completed after 0 iterations at t[s]:    173.07
ElecMinimize: 	Step increased G by 2.045908e-09, reducing alpha to 1.376705e-03.
	Linear fluid (dielectric constant: 78.4, screening length: 5.74355 Bohr) occupying 0.774383 of unit cell:	Completed after 0 iterations at t[s]:    199.77
ElecMinimize: 	Step increased G by 3.272544e-08, reducing alpha to 1.376705e-04.
	Linear fluid (dielectric constant: 78.4, screening length: 5.74355 Bohr) occupying 0.774383 of unit cell:	Completed after 0 iterations at t[s]:    227.03
ElecMinimize: 	Step increased G by 3.579453e-08, reducing alpha to 1.376705e-05.
ElecMinimize: 	Step failed to reduce G after 3 attempts. Quitting step.
ElecMinimize: 	Undoing step.
	Linear fluid (dielectric constant: 78.4, screening length: 5.74355 Bohr) occupying 0.774383 of unit cell:	Completed after 0 iterations at t[s]:    254.25
ElecMinimize: 	Step failed: resetting search direction.
	FillingsUpdate:  mu: -0.171251800  nElectrons: 376.032647
	SubspaceRotationAdjust: set factor to 0.435
ElecMinimize: Iter:   2  G: -2132.051419476725187  |grad|_K:  7.219e-08  alpha:  1.377e-05
	Linear fluid (dielectric constant: 78.4, screening length: 5.74355 Bohr) occupying 0.774383 of unit cell:	Completed after 0 iterations at t[s]:    285.42
ElecMinimize: 	Predicted alpha/alphaT>3.000000, increasing alphaT to 6.509611e-02.
	Linear fluid (dielectric constant: 78.4, screening length: 5.74355 Bohr) occupying 0.774383 of unit cell:	Completed after 0 iterations at t[s]:    298.20
ElecMinimize: 	Predicted alpha/alphaT>3.000000, increasing alphaT to 1.952883e-01.
	Linear fluid (dielectric constant: 78.4, screening length: 5.74355 Bohr) occupying 0.774382 of unit cell:	Completed after 2 iterations at t[s]:    311.19
	Linear fluid (dielectric constant: 78.4, screening length: 5.74355 Bohr) occupying 0.774382 of unit cell:	Completed after 0 iterations at t[s]:    324.60
	FillingsUpdate:  mu: -0.171251800  nElectrons: 376.032725
	SubspaceRotationAdjust: set factor to 0.253
ElecMinimize: Iter:   3  G: -2132.051419566608729  |grad|_K:  7.651e-08  alpha:  1.339e-01  linmin:  6.622e-03  t[s]:    341.32
	Linear fluid (dielectric constant: 78.4, screening length: 5.74355 Bohr) occupying 0.774382 of unit cell:	Completed after 2 iterations at t[s]:    355.37
	Linear fluid (dielectric constant: 78.4, screening length: 5.74355 Bohr) occupying 0.774382 of unit cell:	Completed after 0 iterations at t[s]:    368.47
	FillingsUpdate:  mu: -0.171251800  nElectrons: 376.031707
	SubspaceRotationAdjust: set factor to 0.239
ElecMinimize: Iter:   4  G: -2132.051419593376522  |grad|_K:  2.678e-08  alpha:  9.257e-02  linmin: -7.255e-04  t[s]:    384.32
	Linear fluid (dielectric constant: 78.4, screening length: 5.74355 Bohr) occupying 0.774382 of unit cell:	Completed after 0 iterations at t[s]:    398.29
ElecMinimize: 	Predicted alpha/alphaT>3.000000, increasing alphaT to 2.776951e-01.
	Linear fluid (dielectric constant: 78.4, screening length: 5.74355 Bohr) occupying 0.774382 of unit cell:	Completed after 0 iterations at t[s]:    410.78
ElecMinimize: 	Predicted alpha/alphaT>3.000000, increasing alphaT to 8.330853e-01.
	Linear fluid (dielectric constant: 78.4, screening length: 5.74355 Bohr) occupying 0.774382 of unit cell:	Completed after 2 iterations at t[s]:    423.71
	Linear fluid (dielectric constant: 78.4, screening length: 5.74355 Bohr) occupying 0.774382 of unit cell:	Completed after 0 iterations at t[s]:    436.82
	FillingsUpdate:  mu: -0.171251800  nElectrons: 376.031710
	SubspaceRotationAdjust: set factor to 0.192
ElecMinimize: Iter:   5  G: -2132.051419634849481  |grad|_K:  6.038e-08  alpha:  3.849e-01  linmin:  1.779e-03  t[s]:    452.86
	Linear fluid (dielectric constant: 78.4, screening length: 5.74355 Bohr) occupying 0.774382 of unit cell:	Completed after 1 iterations at t[s]:    466.97
	Linear fluid (dielectric constant: 78.4, screening length: 5.74355 Bohr) occupying 0.774382 of unit cell:	Completed after 1 iterations at t[s]:    480.00
	FillingsUpdate:  mu: -0.171251800  nElectrons: 376.031833
	SubspaceRotationAdjust: set factor to 0.241
ElecMinimize: Iter:   6  G: -2132.051419656023882  |grad|_K:  4.031e-08  alpha:  8.195e-02  linmin:  7.714e-04  t[s]:    495.79
	Linear fluid (dielectric constant: 78.4, screening length: 5.74355 Bohr) occupying 0.774382 of unit cell:	Completed after 0 iterations at t[s]:    509.54
ElecMinimize: 	Predicted alpha/alphaT>3.000000, increasing alphaT to 2.458590e-01.
	Linear fluid (dielectric constant: 78.4, screening length: 5.74355 Bohr) occupying 0.774382 of unit cell:	Completed after 0 iterations at t[s]:    521.72
	Linear fluid (dielectric constant: 78.4, screening length: 5.74355 Bohr) occupying 0.774382 of unit cell:	Completed after 2 iterations at t[s]:    535.37
ElecMinimize: 	Step increased G by 2.443039e-08, reducing alpha to 6.544548e-02.
	Linear fluid (dielectric constant: 78.4, screening length: 5.74355 Bohr) occupying 0.774382 of unit cell:	Completed after 1 iterations at t[s]:    569.60
	FillingsUpdate:  mu: -0.171251800  nElectrons: 376.031773
	SubspaceRotationAdjust: set factor to 0.204
ElecMinimize: Iter:   7  G: -2132.051419667680875  |grad|_K:  2.393e-08  alpha:  6.545e-02  linmin: -2.150e-03  t[s]:    586.67
	Linear fluid (dielectric constant: 78.4, screening length: 5.74355 Bohr) occupying 0.774382 of unit cell:	Completed after 0 iterations at t[s]:    600.84
ElecMinimize: 	Predicted alpha/alphaT>3.000000, increasing alphaT to 1.963364e-01.
	Linear fluid (dielectric constant: 78.4, screening length: 5.74355 Bohr) occupying 0.774382 of unit cell:	Completed after 0 iterations at t[s]:    614.09
ElecMinimize: 	Predicted alpha/alphaT>3.000000, increasing alphaT to 5.890093e-01.
	Linear fluid (dielectric constant: 78.4, screening length: 5.74355 Bohr) occupying 0.774382 of unit cell:	Completed after 2 iterations at t[s]:    627.66
	Linear fluid (dielectric constant: 78.4, screening length: 5.74355 Bohr) occupying 0.774382 of unit cell:	Completed after 0 iterations at t[s]:    641.33
	FillingsUpdate:  mu: -0.171251800  nElectrons: 376.031334
	SubspaceRotationAdjust: set factor to 0.135
	SubspaceRotationAdjust: resetting CG because factor has changed by 0.134796
	Linear fluid (dielectric constant: 78.4, screening length: 5.74355 Bohr) occupying 0.774382 of unit cell:	Completed after 0 iterations at t[s]:    665.61
ElecMinimize: 	State modified externally: resetting search direction.
ElecMinimize: Iter:   8  G: -2132.051419673391592  |grad|_K:  5.063e-08  alpha:  1.946e-01
	Linear fluid (dielectric constant: 78.4, screening length: 5.74355 Bohr) occupying 0.774382 of unit cell:	Completed after 2 iterations at t[s]:    696.88
	Linear fluid (dielectric constant: 78.4, screening length: 5.74355 Bohr) occupying 0.774382 of unit cell:	Completed after 0 iterations at t[s]:    710.29
	FillingsUpdate:  mu: -0.171251800  nElectrons: 376.031709
	SubspaceRotationAdjust: set factor to 0.138
ElecMinimize: Iter:   9  G: -2132.051419693498701  |grad|_K:  3.234e-08  alpha:  8.387e-02  linmin:  2.186e-02  t[s]:    726.62
	Linear fluid (dielectric constant: 78.4, screening length: 5.74355 Bohr) occupying 0.774382 of unit cell:	Completed after 0 iterations at t[s]:    741.11
ElecMinimize: 	Predicted alpha/alphaT>3.000000, increasing alphaT to 2.516241e-01.
	Linear fluid (dielectric constant: 78.4, screening length: 5.74355 Bohr) occupying 0.774382 of unit cell:	Completed after 0 iterations at t[s]:    754.27
ElecMinimize: 	Predicted alpha/alphaT>3.000000, increasing alphaT to 7.548723e-01.
	Linear fluid (dielectric constant: 78.4, screening length: 5.74355 Bohr) occupying 0.774382 of unit cell:	Completed after 2 iterations at t[s]:    778.51
	Linear fluid (dielectric constant: 78.4, screening length: 5.74355 Bohr) occupying 0.774382 of unit cell:	Completed after 0 iterations at t[s]:    802.38
	FillingsUpdate:  mu: -0.171251800  nElectrons: 376.031673
	SubspaceRotationAdjust: set factor to 0.107
ElecMinimize: Iter:  10  G: -2132.051419698244445  |grad|_K:  4.930e-08  alpha:  1.968e-01  linmin:  9.665e-03  t[s]:    818.75
	Linear fluid (dielectric constant: 78.4, screening length: 5.74355 Bohr) occupying 0.774382 of unit cell:	Completed after 2 iterations at t[s]:    832.52
	Linear fluid (dielectric constant: 78.4, screening length: 5.74355 Bohr) occupying 0.774382 of unit cell:	Completed after 0 iterations at t[s]:    845.96
ElecMinimize: 	Step increased G by 1.246281e-08, reducing alpha to 8.048157e-03.
	Linear fluid (dielectric constant: 78.4, screening length: 5.74355 Bohr) occupying 0.774382 of unit cell:	Completed after 0 iterations at t[s]:    872.81
ElecMinimize: 	Step increased G by 1.419221e-08, reducing alpha to 8.048157e-04.
	Linear fluid (dielectric constant: 78.4, screening length: 5.74355 Bohr) occupying 0.774382 of unit cell:	Completed after 0 iterations at t[s]:    899.77
ElecMinimize: 	Step increased G by 1.441958e-08, reducing alpha to 8.048157e-05.
ElecMinimize: 	Step failed to reduce G after 3 attempts. Quitting step.
ElecMinimize: 	Undoing step.
	Linear fluid (dielectric constant: 78.4, screening length: 5.74355 Bohr) occupying 0.774382 of unit cell:	Completed after 0 iterations at t[s]:    927.89
ElecMinimize: 	Step failed: resetting search direction.
	FillingsUpdate:  mu: -0.171251800  nElectrons: 376.031674
	SubspaceRotationAdjust: set factor to 0.0513
ElecMinimize: Iter:  11  G: -2132.051419683820768  |grad|_K:  8.390e-09  alpha:  8.048e-05
	Linear fluid (dielectric constant: 78.4, screening length: 5.74355 Bohr) occupying 0.774382 of unit cell:	Completed after 0 iterations at t[s]:    957.93
ElecMinimize: 	Predicted alpha/alphaT>3.000000, increasing alphaT to 5.904530e-01.
	Linear fluid (dielectric constant: 78.4, screening length: 5.74355 Bohr) occupying 0.774382 of unit cell:	Completed after 0 iterations at t[s]:    970.49
	Linear fluid (dielectric constant: 78.4, screening length: 5.74355 Bohr) occupying 0.774382 of unit cell:	Completed after 0 iterations at t[s]:    983.58
	FillingsUpdate:  mu: -0.171251800  nElectrons: 376.031408
	SubspaceRotationAdjust: set factor to 0.0762
ElecMinimize: Iter:  12  G: -2132.051419689722934  |grad|_K:  8.698e-09  alpha:  7.719e-01  linmin: -1.076e-05  t[s]:    999.97
	Linear fluid (dielectric constant: 78.4, screening length: 5.74355 Bohr) occupying 0.774382 of unit cell:	Completed after 0 iterations at t[s]:   1014.11
	Linear fluid (dielectric constant: 78.4, screening length: 5.74355 Bohr) occupying 0.774382 of unit cell:	Completed after 0 iterations at t[s]:   1027.11
ElecMinimize: 	Step increased G by 8.011739e-09, reducing alpha to 2.045928e-02.
	Linear fluid (dielectric constant: 78.4, screening length: 5.74355 Bohr) occupying 0.774382 of unit cell:	Completed after 0 iterations at t[s]:   1054.87
ElecMinimize: 	Step increased G by 8.856205e-09, reducing alpha to 2.045928e-03.
	Linear fluid (dielectric constant: 78.4, screening length: 5.74355 Bohr) occupying 0.774382 of unit cell:	Completed after 0 iterations at t[s]:   1082.45
ElecMinimize: 	Step increased G by 8.979896e-09, reducing alpha to 2.045928e-04.
ElecMinimize: 	Step failed to reduce G after 3 attempts. Quitting step.
ElecMinimize: 	Undoing step.
	Linear fluid (dielectric constant: 78.4, screening length: 5.74355 Bohr) occupying 0.774382 of unit cell:	Completed after 0 iterations at t[s]:   1110.90
ElecMinimize: 	Step failed: resetting search direction.
	FillingsUpdate:  mu: -0.171251800  nElectrons: 376.031407
	SubspaceRotationAdjust: set factor to 0.0799
ElecMinimize: Iter:  13  G: -2132.051419680751678  |grad|_K:  8.958e-09  alpha:  2.046e-04
	Linear fluid (dielectric constant: 78.4, screening length: 5.74355 Bohr) occupying 0.774382 of unit cell:	Completed after 0 iterations at t[s]:   1141.28
	Linear fluid (dielectric constant: 78.4, screening length: 5.74355 Bohr) occupying 0.774382 of unit cell:	Completed after 0 iterations at t[s]:   1154.80
	FillingsUpdate:  mu: -0.171251800  nElectrons: 376.031507
	SubspaceRotationAdjust: set factor to 0.0937
ElecMinimize: Iter:  14  G: -2132.051419683397853  |grad|_K:  7.605e-09  alpha:  3.036e-01  linmin: -4.571e-06  t[s]:   1170.94
	Linear fluid (dielectric constant: 78.4, screening length: 5.74355 Bohr) occupying 0.774382 of unit cell:	Completed after 0 iterations at t[s]:   1185.17
	Linear fluid (dielectric constant: 78.4, screening length: 5.74355 Bohr) occupying 0.774382 of unit cell:	Completed after 0 iterations at t[s]:   1198.46
	FillingsUpdate:  mu: -0.171251800  nElectrons: 376.031875
	SubspaceRotationAdjust: set factor to 0.12
ElecMinimize: Iter:  15  G: -2132.051419687357793  |grad|_K:  9.578e-09  alpha:  6.368e-01  linmin:  6.116e-05  t[s]:   1214.40
ElecMinimize: Converged (|Delta G|<1.000000e-08 for 2 iters).
Setting wave functions to eigenvectors of Hamiltonian

# Ionic positions in lattice coordinates:
ion Fe   0.443593097077793   0.268152485695685   0.496257617428186 0
ion Fe   0.943593097077793   0.268152485695685   0.496257617428186 0
ion Fe   0.389824010007845   0.571333191039078   0.496408581885079 0
ion Fe   0.889824010007845   0.571333191039078   0.496408581885079 0
ion Fe   0.345096594904008   0.875703133669953   0.504207358388182 0
ion Fe   0.845096594904008   0.875703133669953   0.504207358388182 0
ion Fe   0.291379679768419   0.178827257460754   0.504163534924290 0
ion Fe   0.791379679768419   0.178827257460754   0.504163534924290 0
ion Fe   0.041382611295849   0.678819965894555   0.496459378337488 0
ion Fe   0.541382611295850   0.678819965894555   0.496459378337488 0
ion Fe   0.095096555859223   0.375700529830229   0.496381534050826 0
ion Fe   0.595096555859223   0.375700529830229   0.496381534050826 0
ion Fe   0.139856959268164   0.071312212572021   0.504284244150711 0
ion Fe   0.639856959268165   0.071312212572021   0.504284244150711 0
ion Fe   0.193545927880919   0.768115789023632   0.504302403832356 0
ion Fe   0.693545927880919   0.768115789023632   0.504302403832356 0
ion S   0.492434441037722   0.473423431538421   0.567189044399937 0
ion S   0.992434441037722   0.473423431538421   0.567189044399937 0
ion S   0.392198712902455   0.081532018633743   0.572051686650139 0
ion S   0.892198712902455   0.081532018633743   0.572051686650139 0
ion S   0.342788801650252   0.365652612121885   0.428422866310662 0
ion S   0.842788801650252   0.365652612121885   0.428422866310662 0
ion S   0.296441107843432   0.674072035999459   0.572137107556185 0
ion S   0.796441107843432   0.674072035999459   0.572137107556185 0
ion S   0.242433550652833   0.973412474323702   0.433449244808254 0
ion S   0.742433550652833   0.973412474323702   0.433449244808254 0
ion S   0.046498786129616   0.173914427324847   0.428506213739666 0
ion S   0.546498786129616   0.173914427324847   0.428506213739666 0
ion S   0.092830913086918   0.865614028336155   0.572215896712265 0
ion S   0.592830913086918   0.865614028336155   0.572215896712265 0
ion S   0.142104190923536   0.581564672972591   0.428483660570437 0
ion S   0.642104190923537   0.581564672972591   0.428483660570437 0
ion S   0.188553013437482   0.273065060399839   0.572068202951332 0
ion S   0.688553013437482   0.273065060399839   0.572068202951332 0
ion S   0.438525087621706   0.772942673163446   0.428540136251348 0
ion S   0.938525087621706   0.772942673163446   0.428540136251348 0


# Forces in Lattice coordinates:
force Fe  -0.022268312660278   0.016590666853598  -0.030575135562334 0
force Fe  -0.022268312660278   0.016590666853598  -0.030575135562334 0
force Fe   0.005886398728512   0.000099290097087  -0.027951348753289 0
force Fe   0.005886398728512   0.000099290097087  -0.027951348753289 0
force Fe  -0.025182561679347  -0.010743295710978   0.063065491666434 0
force Fe  -0.025182561679347  -0.010743295710978   0.063065491666434 0
force Fe   0.038348530279734   0.002804617156922   0.053957861051804 0
force Fe   0.038348530279734   0.002804617156922   0.053957861051804 0
force Fe   0.028939185291168   0.003119327633697  -0.025073421536327 0
force Fe   0.028939185291168   0.003119327633697  -0.025073421536327 0
force Fe  -0.025425870615484  -0.009942978440580  -0.029443210788463 0
force Fe  -0.025425870615484  -0.009942978440580  -0.029443210788463 0
force Fe   0.009090203054906   0.000806371333620   0.050068792544838 0
force Fe   0.009090203054906   0.000806371333620   0.050068792544838 0
force Fe  -0.014291758302886   0.015334913403421   0.056562590312094 0
force Fe  -0.014291758302886   0.015334913403421   0.056562590312094 0
force S   0.001410553442523  -0.000594949249355  -0.014224470118403 0
force S   0.001410553442523  -0.000594949249355  -0.014224470118403 0
force S  -0.011435544610185   0.002652441044248  -0.042222664638960 0
force S  -0.011435544610185   0.002652441044248  -0.042222664638960 0
force S   0.008684432721895  -0.004692198246751   0.042772473581637 0
force S   0.008684432721895  -0.004692198246751   0.042772473581637 0
force S   0.009058519064639   0.004485668445834  -0.040971291338342 0
force S   0.009058519064639   0.004485668445834  -0.040971291338342 0
force S   0.000341154915917   0.000234332478925   0.010887831193312 0
force S   0.000341154915917   0.000234332478925   0.010887831193312 0
force S   0.007694265174883   0.005584833094438   0.040495791749541 0
force S   0.007694265174883   0.005584833094438   0.040495791749541 0
force S   0.005609757455126  -0.005636182557621  -0.041203385570028 0
force S   0.005609757455126  -0.005636182557621  -0.041203385570028 0
force S  -0.008831818945622   0.002028897322007   0.043542162578803 0
force S  -0.008831818945622   0.002028897322007   0.043542162578803 0
force S  -0.007205361645786  -0.004307290470853  -0.039943114336862 0
force S  -0.007205361645786  -0.004307290470853  -0.039943114336862 0
force S  -0.006808486021258  -0.004082385437577   0.041501505502971 0
force S  -0.006808486021258  -0.004082385437577   0.041501505502971 0

# Energy components:
   A_diel =        0.0100207161550995
   Eewald =     8130.6269922254532503
       EH =    10026.9468711632925988
     Eloc =   -20809.3210930921231920
      Enl =      329.8044303568466944
      Exc =     -317.9738181936654655
 Exc_core =       47.9239769302382683
       KE =      395.6028655934838980
  MuShift =       -0.0004048387248381
-------------------------------------
     Etot =    -2196.3801591390438261
       TS =        0.0673959998844096
-------------------------------------
        F =    -2196.4475551389282373
      muN =      -64.3961354515702453
-------------------------------------
        G =    -2132.0514196873577930

IonicMinimize: Iter:   0  G: -2132.051419687357793  |grad|_K:  0.000e+00  t[s]:   1224.25
IonicMinimize: Converged (|grad|_K<1.000000e-04).

#--- Lowdin population analysis ---
# oxidation-state Fe -0.394 -0.394 -0.395 -0.395 -0.395 -0.395 -0.394 -0.394 -0.394 -0.394 -0.394 -0.394 -0.395 -0.395 -0.394 -0.394
# oxidation-state S +0.593 +0.593 +0.467 +0.467 +0.466 +0.466 +0.466 +0.466 +0.594 +0.594 +0.467 +0.467 +0.466 +0.466 +0.467 +0.467 +0.467 +0.467 +0.467 +0.467


Dumping 'NbTe2.fillings' ... done
Dumping 'NbTe2.wfns' ... done
Dumping 'NbTe2.fluidState' ... done
Dumping 'NbTe2.eigenvals' ... done
End date and time: Tue Jul  7 15:04:44 2020  (Duration: 0-0:20:40.73)
Done!
