
*************** JDFTx 1.5.0  ***************

Start date and time: Fri Feb 12 03:50:56 2021
Executable jdftx_gpu with command-line: -i Charged.in -o Charged.out
Running on hosts (process indices):  amax (0-6)
Divided in process groups (process indices):  0 (0)  1 (1)  2 (2)  3 (3)  4 (4)  5 (5)  6 (6)
gpuInit: Found compatible cuda device 0 'Tesla K80'
gpuInit: Found compatible cuda device 1 'Tesla K80'
gpuInit: Found compatible cuda device 2 'Tesla K80'
gpuInit: Found compatible cuda device 3 'Tesla K80'
gpuInit: Found compatible cuda device 4 'Tesla K80'
gpuInit: Found compatible cuda device 5 'Tesla K80'
gpuInit: Found compatible cuda device 6 'Tesla K80'
gpuInit: Selected device 0
Resource initialization completed at t[s]:      3.69
Run totals: 7 processes, 24 threads, 7 GPUs


Input parsed successfully to the following command list (including defaults):

basis kpoint-dependent
cache-projectors no
coords-type Lattice
core-overlap-check none
coulomb-interaction Slab 001
coulomb-truncation-embed 0.5 0.5 0.5
davidson-band-ratio 1.1
dump End State
dump-name NbTe2.$VAR
elec-cutoff 20
elec-eigen-algo Davidson
elec-ex-corr gga-PBE
elec-initial-charge 1.000000
elec-initial-magnetization 20.000000 no
elec-smearing Gauss 0.0073499
electronic-minimize  \
	dirUpdateScheme      FletcherReeves \
	linminMethod         DirUpdateRecommended \
	nIterations          200 \
	history              15 \
	knormThreshold       0 \
	energyDiffThreshold  1e-08 \
	nEnergyDiff          2 \
	alphaTstart          1 \
	alphaTmin            1e-10 \
	updateTestStepSize   yes \
	alphaTreduceFactor   0.1 \
	alphaTincreaseFactor 3 \
	nAlphaAdjustMax      3 \
	wolfeEnergy          0.0001 \
	wolfeGradient        0.9 \
	fdTest               no
exchange-regularization WignerSeitzTruncated
fluid LinearPCM 298.000000 1.013250
fluid-anion F- 1 MeanFieldLJ \
	epsBulk 1 \
	pMol 0 \
	epsInf 1 \
	Pvap 0 \
	sigmaBulk 0 \
	Rvdw 2.24877 \
	Res 0 \
	tauNuc 343133
fluid-cation Na+ 1 MeanFieldLJ \
	epsBulk 1 \
	pMol 0 \
	epsInf 1 \
	Pvap 0 \
	sigmaBulk 0 \
	Rvdw 2.19208 \
	Res 0 \
	tauNuc 343133
fluid-ex-corr lda-TF lda-PZ
fluid-gummel-loop 10 1.000000e-05
fluid-minimize  \
	dirUpdateScheme      PolakRibiere \
	linminMethod         DirUpdateRecommended \
	nIterations          400 \
	history              15 \
	knormThreshold       1e-11 \
	energyDiffThreshold  0 \
	nEnergyDiff          2 \
	alphaTstart          1 \
	alphaTmin            1e-10 \
	updateTestStepSize   yes \
	alphaTreduceFactor   0.1 \
	alphaTincreaseFactor 3 \
	nAlphaAdjustMax      6 \
	wolfeEnergy          0.0001 \
	wolfeGradient        0.9 \
	fdTest               no
fluid-solvent H2O 55.338 ScalarEOS \
	epsBulk 78.4 \
	pMol 0.92466 \
	epsInf 1.77 \
	Pvap 1.06736e-10 \
	sigmaBulk 4.62e-05 \
	Rvdw 2.61727 \
	Res 1.42 \
	tauNuc 343133 \
	poleEl 15 7 1
forces-output-coords Positions
initial-state NbTe2.$VAR
ion W   0.083334675099593   0.166665307358739   0.500000000000000 1
ion W   0.333334675099593   0.166665307358739   0.500000000000000 1
ion W   0.583334675099593   0.166665307358739   0.500000000000000 1
ion W   0.833334675099593   0.166665307358739   0.500000000000000 1
ion W   0.083334675099593   0.416665307358739   0.500000000000000 1
ion W   0.333334675099593   0.416665307358739   0.500000000000000 1
ion W   0.583334675099593   0.416665307358739   0.500000000000000 1
ion W   0.833334675099593   0.416665307358739   0.500000000000000 1
ion W   0.083334675099593   0.666665307358739   0.500000000000000 1
ion W   0.333334675099593   0.666665307358739   0.500000000000000 1
ion W   0.583334675099593   0.666665307358739   0.500000000000000 1
ion W   0.833334675099593   0.666665307358739   0.500000000000000 1
ion W   0.083334675099593   0.916665307358739   0.500000000000000 1
ion W   0.333334675099593   0.916665307358739   0.500000000000000 1
ion W   0.583334675099593   0.916665307358739   0.500000000000000 1
ion W   0.833334675099593   0.916665307358739   0.500000000000000 1
ion Se   0.166667655762704   0.083332326695629   0.406896668529060 1
ion Se   0.166667655762704   0.083332326695629   0.593103331470940 1
ion Se   0.416667655762704   0.083332326695629   0.406896668529060 1
ion Se   0.416667655762704   0.083332326695629   0.593103331470940 1
ion Se   0.666667655762704   0.083332326695629   0.406896668529060 1
ion Se   0.666667655762704   0.083332326695629   0.593103331470940 1
ion Se   0.916667655762704   0.083332326695629   0.406896668529060 1
ion Se   0.916667655762704   0.083332326695629   0.593103331470940 1
ion Se   0.166667655762704   0.333332326695629   0.406896668529060 1
ion Se   0.166667655762704   0.333332326695629   0.593103331470940 1
ion Se   0.416667655762704   0.333332326695629   0.406896668529060 1
ion Se   0.416667655762704   0.333332326695629   0.593103331470940 1
ion Se   0.666667655762704   0.333332326695629   0.406896668529060 1
ion Se   0.666667655762704   0.333332326695629   0.593103331470940 1
ion Se   0.916667655762704   0.333332326695629   0.406896668529060 1
ion Se   0.916667655762704   0.333332326695629   0.593103331470940 1
ion Se   0.166667655762704   0.583332326695629   0.406896668529060 1
ion Se   0.166667655762704   0.583332326695629   0.593103331470940 1
ion Se   0.416667655762704   0.583332326695629   0.406896668529060 1
ion Se   0.416667655762704   0.583332326695629   0.593103331470940 1
ion Se   0.666667655762704   0.583332326695629   0.406896668529060 1
ion Se   0.666667655762704   0.583332326695629   0.593103331470940 1
ion Se   0.916667655762704   0.583332326695629   0.406896668529060 1
ion Se   0.916667655762704   0.583332326695629   0.593103331470940 1
ion Se   0.166667655762704   0.833332326695629   0.406896668529060 1
ion Se   0.166667655762704   0.833332326695629   0.593103331470940 1
ion Se   0.416667655762704   0.833332326695629   0.406896668529060 1
ion Se   0.416667655762704   0.833332326695629   0.593103331470940 1
ion Se   0.666667655762704   0.833332326695629   0.406896668529060 1
ion Se   0.666667655762704   0.833332326695629   0.593103331470940 1
ion Se   0.916667655762704   0.833332326695629   0.406896668529060 1
ion Se   0.916667655762704   0.833332326695629   0.593103331470940 1
ion-species GBRV/$ID_pbe.uspp
ion-width Ecut
ionic-minimize  \
	dirUpdateScheme      L-BFGS \
	linminMethod         DirUpdateRecommended \
	nIterations          500 \
	history              15 \
	knormThreshold       0.0001 \
	energyDiffThreshold  1e-06 \
	nEnergyDiff          2 \
	alphaTstart          1 \
	alphaTmin            1e-10 \
	updateTestStepSize   yes \
	alphaTreduceFactor   0.1 \
	alphaTincreaseFactor 3 \
	nAlphaAdjustMax      3 \
	wolfeEnergy          0.0001 \
	wolfeGradient        0.9 \
	fdTest               no
kpoint   0.000000000000   0.000000000000   0.000000000000  1.00000000000000
kpoint-folding 4 4 1 
latt-move-scale 1 1 1
latt-scale 1.88973 1.88973 1.88973 
lattice Triclinic 13.1778 13.1778 18.1461 90 90 120
lattice-minimize  \
	dirUpdateScheme      L-BFGS \
	linminMethod         DirUpdateRecommended \
	nIterations          0 \
	history              15 \
	knormThreshold       0 \
	energyDiffThreshold  1e-06 \
	nEnergyDiff          2 \
	alphaTstart          1 \
	alphaTmin            1e-10 \
	updateTestStepSize   yes \
	alphaTreduceFactor   0.1 \
	alphaTincreaseFactor 3 \
	nAlphaAdjustMax      3 \
	wolfeEnergy          0.0001 \
	wolfeGradient        0.9 \
	fdTest               no
lcao-params -1 1e-06 0.0073499
pcm-variant CANDLE
spintype z-spin
subspace-rotation-factor 1 yes
symmetries automatic
symmetry-threshold 0.0001



---------- Setting up symmetries ----------

Found 24 point-group symmetries of the bravais lattice
Found 192 space-group symmetries with basis
Applied RMS atom displacement 7.17076e-06 bohrs to make symmetries exact.

---------- Initializing the Grid ----------
R = 
[    24.9024   -12.4512          0  ]
[          0    21.5661          0  ]
[          0          0    34.2912  ]
unit cell volume = 18416
G =
[   0.252312   0.145672         -0  ]
[          0   0.291345          0  ]
[          0         -0    0.18323  ]
Minimum fftbox size, Smin = [  104  104  140  ]
Chosen fftbox size, S = [  108  108  140  ]

---------- Exchange Correlation functional ----------
Initalized PBE GGA exchange.
Initalized PBE GGA correlation.

---------- Setting up pseudopotentials ----------
Width of ionic core gaussian charges (only for fluid interactions / plotting) set to 0.397384

Reading pseudopotential file '/home/guoxy/vasp/jdftx-1.5.0/build/pseudopotentials/GBRV/w_pbe.uspp':
  Title: W.  Created by USPP 7.3.6 on 3-2-2014
  Reference state energy: -79.133630.  14 valence electrons in orbitals:
    |500>  occupation: 2  eigenvalue: -2.938934
    |510>  occupation: 6  eigenvalue: -1.620730
    |520>  occupation: 3.9  eigenvalue: -0.194511
    |600>  occupation: 2  eigenvalue: -0.234858
    |610>  occupation: 0  eigenvalue: -0.069444
  lMax: 3  lLocal: 3  QijEcut: 5
  8 projectors sampled on a log grid with 667 points:
    l: 0  eig: -2.938934  rCut: 1.45
    l: 0  eig: -0.234859  rCut: 1.45
    l: 0  eig: 0.500000  rCut: 1.45
    l: 1  eig: -1.620730  rCut: 1.5
    l: 1  eig: -0.069446  rCut: 1.5
    l: 2  eig: -0.194511  rCut: 1.7
    l: 2  eig: 0.150000  rCut: 1.7
    l: 3  eig: 0.500000  rCut: 2.3
  Partial core density with radius 1.2
  Transforming core density to a uniform radial grid of dG=0.02 with 1511 points.
  Transforming local potential to a uniform radial grid of dG=0.02 with 1511 points.
  Transforming nonlocal projectors to a uniform radial grid of dG=0.02 with 432 points.
  Transforming density augmentations to a uniform radial grid of dG=0.02 with 1511 points.
  Transforming atomic orbitals to a uniform radial grid of dG=0.02 with 432 points.
  Core radius for overlap checks: 2.30 bohrs.

Reading pseudopotential file '/home/guoxy/vasp/jdftx-1.5.0/build/pseudopotentials/GBRV/se_pbe.uspp':
  Title: Se.  Created by USPP 7.3.6 on 14-9-2013
  Reference state energy: -21.672887.  6 valence electrons in orbitals:
    |400>  occupation: 2  eigenvalue: -0.635284
    |410>  occupation: 4  eigenvalue: -0.239295
  lMax: 2  lLocal: 3  QijEcut: 5
  6 projectors sampled on a log grid with 625 points:
    l: 0  eig: -0.635278  rCut: 1.5
    l: 0  eig: 0.500000  rCut: 1.5
    l: 1  eig: -0.239295  rCut: 1.5
    l: 1  eig: 0.500000  rCut: 1.5
    l: 2  eig: 0.000000  rCut: 1.8
    l: 2  eig: 1.000000  rCut: 1.8
  Partial core density with radius 1.2
  Transforming core density to a uniform radial grid of dG=0.02 with 1511 points.
  Transforming local potential to a uniform radial grid of dG=0.02 with 1511 points.
  Transforming nonlocal projectors to a uniform radial grid of dG=0.02 with 432 points.
  Transforming density augmentations to a uniform radial grid of dG=0.02 with 1511 points.
  Transforming atomic orbitals to a uniform radial grid of dG=0.02 with 432 points.
  Core radius for overlap checks: 1.80 bohrs.

Initialized 2 species with 48 total atoms.

Folded 1 k-points by 4x4x1 to 16 k-points.

---------- Setting up k-points, bands, fillings ----------
Adding inversion symmetry to k-mesh for non-inversion-symmetric unit cell.
Reduced to 4 k-points under symmetry. 
Computing the number of bands and number of electrons
Calculating initial fillings.
nElectrons: 417.000000   nBands: 336   nStates: 8

----- Setting up reduced wavefunction bases (one per k-point) -----
average nbasis = 78679.312 , ideal nbasis = 78674.730

---------- Setting up coulomb interaction ----------
Fluid mode embedding: using embedded box, but periodic Coulomb kernel.
(Fluid response is responsible for (approximate) separation between periodic images.)
Setting up double-sized grid for truncated Coulomb potentials:
R = 
[    24.9024   -12.4512          0  ]
[          0    21.5661          0  ]
[          0          0    68.5823  ]
unit cell volume = 36832.1
G =
[   0.252312   0.145672         -0  ]
[          0   0.291345          0  ]
[          0         -0  0.0916152  ]
Chosen fftbox size, S = [  108  108  280  ]
Integer grid location selected as the embedding center:
   Grid: [  54  54  70  ]
   Lattice: [  0.5  0.5  0.5  ]
   Cartesian: [  6.22561  10.7831  17.1456  ]
Constructing Wigner-Seitz cell: 8 faces (6 quadrilaterals, 2 hexagons)
Range-separation parameter for embedded mesh potentials due to point charges: 0.624363 bohrs.

Initializing van der Waals corrections
	NOTE: vdW corrections apply only for interactions with fluid.
	 W:  C6:  815.23 Eh-a0^6  R0: 3.326 a0 (WARNING: beyond Grimme's data set)
	Se:  C6:  219.24 Eh-a0^6  R0: 3.347 a0

---------- Setting up ewald sum ----------
Optimum gaussian width for ewald sums = 6.962715 bohr.
Real space sum over 605 unit cells with max indices [  5  5  2  ]
Reciprocal space sum over 7425 terms with max indices [  7  7  16  ]

---------- Allocating electronic variables ----------
Initializing wave functions:  linear combination of atomic orbitals
W pseudo-atom occupations:   s ( 2 2 )  p ( 6 0 )  d ( 4 )
Se pseudo-atom occupations:   s ( 2 )  p ( 4 )
	FillingsUpdate:  mu: +0.353795459  nElectrons: 417.000000  magneticMoment: [ Abs: 4.33749  Tot: +1.00461 ]
LCAOMinimize: Iter:   0  F: -1402.0252253101298265  |grad|_K:  7.176e-03  alpha:  1.000e+00
	FillingsUpdate:  mu: -0.215137561  nElectrons: 417.000000  magneticMoment: [ Abs: 2.18171  Tot: +0.92597 ]
LCAOMinimize: Iter:   1  F: -1402.5667475099335206  |grad|_K:  5.542e-03  alpha:  3.225e-01  linmin:  3.606e-01  cgtest: -1.212e+00  t[s]:    139.63
LCAOMinimize: 	Bad step direction: g.d > 0.
LCAOMinimize: 	Undoing step.
LCAOMinimize: 	Step failed: resetting search direction.
	FillingsUpdate:  mu: -0.215137561  nElectrons: 417.000000  magneticMoment: [ Abs: 2.18171  Tot: +0.92597 ]
LCAOMinimize: Iter:   2  F: -1402.5667475099335206  |grad|_K:  5.542e-03  alpha:  0.000e+00
	FillingsUpdate:  mu: -0.002875948  nElectrons: 417.000000  magneticMoment: [ Abs: 2.62972  Tot: +0.92167 ]
LCAOMinimize: Iter:   3  F: -1405.4122205133087391  |grad|_K:  4.762e-04  alpha:  1.676e-01  linmin: -4.455e-01  cgtest:  8.706e-01  t[s]:    210.39
LCAOMinimize: Encountered beta<0, resetting CG.
	FillingsUpdate:  mu: +0.024514362  nElectrons: 417.000000  magneticMoment: [ Abs: 2.43293  Tot: +0.86881 ]
LCAOMinimize: Iter:   4  F: -1405.4297934640514995  |grad|_K:  7.793e-05  alpha:  1.707e-01  linmin:  1.830e-02  cgtest: -7.878e-02  t[s]:    252.78
LCAOMinimize: 	Predicted alpha/alphaT>3.000000, increasing alphaT to 5.119733e-01.
LCAOMinimize: 	Predicted alpha/alphaT>3.000000, increasing alphaT to 1.535920e+00.
	FillingsUpdate:  mu: +0.024102060  nElectrons: 417.000000  magneticMoment: [ Abs: 0.35985  Tot: -0.09482 ]
LCAOMinimize: Iter:   5  F: -1405.4336273507262831  |grad|_K:  3.992e-05  alpha:  1.264e+00  linmin:  7.132e-02  cgtest: -1.793e-02  t[s]:    321.91
	FillingsUpdate:  mu: +0.022061067  nElectrons: 417.000000  magneticMoment: [ Abs: 0.25894  Tot: -0.13626 ]
LCAOMinimize: Iter:   6  F: -1405.4337612217309470  |grad|_K:  2.587e-05  alpha:  2.308e-01  linmin:  3.936e-03  cgtest:  3.050e-01  t[s]:    364.44
	FillingsUpdate:  mu: +0.023581015  nElectrons: 417.000000  magneticMoment: [ Abs: 0.09470  Tot: -0.07974 ]
LCAOMinimize: Iter:   7  F: -1405.4339610091051327  |grad|_K:  1.099e-05  alpha:  6.606e-01  linmin:  1.815e-05  cgtest: -1.316e-01  t[s]:    406.54
	FillingsUpdate:  mu: +0.022937624  nElectrons: 417.000000  magneticMoment: [ Abs: 0.06159  Tot: -0.05619 ]
LCAOMinimize: Iter:   8  F: -1405.4339756035537903  |grad|_K:  6.317e-06  alpha:  2.659e-01  linmin:  7.153e-05  cgtest: -2.063e-03  t[s]:    448.94
	FillingsUpdate:  mu: +0.023150878  nElectrons: 417.000000  magneticMoment: [ Abs: 0.03250  Tot: -0.00530 ]
LCAOMinimize: Iter:   9  F: -1405.4339876227647892  |grad|_K:  2.012e-06  alpha:  6.636e-01  linmin:  9.852e-04  cgtest:  1.293e-03  t[s]:    490.96
	FillingsUpdate:  mu: +0.022997954  nElectrons: 417.000000  magneticMoment: [ Abs: 0.02362  Tot: -0.00054 ]
LCAOMinimize: Iter:  10  F: -1405.4339884295218326  |grad|_K:  1.703e-06  alpha:  4.390e-01  linmin:  2.531e-06  cgtest:  1.373e-03  t[s]:    533.53
	FillingsUpdate:  mu: +0.023069490  nElectrons: 417.000000  magneticMoment: [ Abs: 0.01362  Tot: +0.00186 ]
LCAOMinimize: Iter:  11  F: -1405.4339888708029775  |grad|_K:  5.440e-07  alpha:  3.351e-01  linmin:  3.259e-05  cgtest: -1.958e-03  t[s]:    575.98
LCAOMinimize: Converged (|Delta F|<1.000000e-06 for 2 iters).
----- createFluidSolver() ----- (Fluid-side solver setup)
   Initializing fluid molecule 'H2O'
     Initializing site 'O'
       Electron density: proportional to exp(-r/0.36935)*erfc((r-0.51523)/0.36823) with norm 6.826
       Charge density: gaussian nuclear width 0.478731 with net site charge 0.826
       Polarizability: cuspless exponential with width 0.32 and norm 3.73
       Hard sphere radius: 2.57003 bohrs
       Positions in reference frame:
         [ +0.000000 +0.000000 +0.000000 ]
     Initializing site 'H'
       Electron density: proportional to exp(-r/0.34641)*erfc((r-0)/0.390882) with norm 0.587
       Charge density: gaussian nuclear width 0.377945 with net site charge -0.413
       Polarizability: cuspless exponential with width 0.39 and norm 3.3
       Positions in reference frame:
         [ +0.000000 -1.441945 +1.122523 ]
         [ +0.000000 +1.441945 +1.122523 ]
     Net charge: 0   dipole magnitude: 0.927204
     Initializing spherical shell mfKernel with radius 2.61727 Bohr
     deltaS corrections:
       site 'O': -7.54299
       site 'H': -6.83917
   Initializing fluid molecule 'Na+'
     Initializing site 'Na'
       Electron density: proportional to exp(-r/0.19682)*erfc((r-0.71491)/0.41314) with norm 8.1383
       Charge density: gaussian nuclear width 0.365347 with net site charge -1
       Hard sphere radius: 1.86327 bohrs
       Positions in reference frame:
         [ +0.000000 +0.000000 +0.000000 ]
     Net charge: -1   dipole magnitude: 0
     Initializing gaussian mfKernel with width: 1.55004 Bohr
     deltaS corrections:
       site 'Na': -22.3555
   Initializing fluid molecule 'F-'
     Initializing site 'F'
       Electron density: proportional to exp(-r/0.38886)*erfc((r-0)/0.438782) with norm 8
       Charge density: gaussian nuclear width 0.374796 with net site charge 1
       Hard sphere radius: 2.39995 bohrs
       Positions in reference frame:
         [ +0.000000 +0.000000 +0.000000 ]
     Net charge: 1   dipole magnitude: 0
     Initializing gaussian mfKernel with width: 1.59012 Bohr
     deltaS corrections:
       site 'F': -9.04335

Correction to mu due to finite nuclear width = -0.0112064
   Cavity determined by nc: 0.00142 and sigma: 0.707107
   Nonlocal vdW cavity from gaussian model electron density with norm = 8 and sigma = 0.993594 bohr
   Charge asymmetry in cavity with sensitivity pCavity = 36.5 e-bohr/Eh
   Electrostatic cavity expanded by eta = 1.46 bohrs
   Weighted density cavitation model constrained by Nbulk: 0.0049383 bohr^-3, Pvap: 3.14029 kPa, Rvdw: 2.61727 bohr and sigmaBulk: 4.62e-05 Eh/bohr^2 at T: 298 K.
   Weighted density dispersion model using vdW pair potentials with single solvent site with sqrtC6eff: 0.77 SI.


---- Citations for features of the code used in this run ----

   Software package:
      R. Sundararaman, K. Letchworth-Weaver, K.A. Schwarz, D. Gunceler, Y. Ozhabes and T.A. Arias, 'JDFTx: software for joint density-functional theory', SoftwareX 6, 278 (2017)

   gga-PBE exchange-correlation functional:
      J.P. Perdew, K. Burke and M. Ernzerhof, Phys. Rev. Lett. 77, 3865 (1996)

   Pseudopotentials:
      KF Garrity, JW Bennett, KM Rabe and D Vanderbilt, Comput. Mater. Sci. 81, 446 (2014)

   Truncated Coulomb potentials:
      R. Sundararaman and T.A. Arias, Phys. Rev. B 87, 165122 (2013)

   Van der Waals correction pair-potentials:
      S. Grimme, J. Comput. Chem. 27, 1787 (2006)

   Charge-asymmetric nonlocally-determined local-electric (CANDLE) solvation model:
      R. Sundararaman and W.A. Goddard III, J. Chem. Phys. 142, 064107 (2015)

   Total energy minimization with Auxiliary Hamiltonian:
      C. Freysoldt, S. Boeck, and J. Neugebauer, Phys. Rev. B 79, 241103(R) (2009)

This list may not be complete. Please suggest additional citations or
report any other bugs at https://github.com/shankar1729/jdftx/issues

Initialization completed successfully at t[s]:    582.64

Fluid solver invoked on fresh (partially random / LCAO) wavefunctions
Running a vacuum solve first:

-------- Initial electronic minimization -----------
	FillingsUpdate:  mu: +0.023069490  nElectrons: 417.000000  magneticMoment: [ Abs: 0.01362  Tot: +0.00186 ]
ElecMinimize: Iter:   0  F: -1405.433988870814574  |grad|_K:  8.073e-05  alpha:  1.000e+00
	FillingsUpdate:  mu: +0.079172001  nElectrons: 417.000000  magneticMoment: [ Abs: 0.00717  Tot: +0.00018 ]
	SubspaceRotationAdjust: set factor to 1
ElecMinimize: Iter:   1  F: -1406.522514257482726  |grad|_K:  3.744e-05  alpha:  7.896e-01  linmin: -7.275e-06  t[s]:    674.81
	FillingsUpdate:  mu: +0.027248548  nElectrons: 417.000000  magneticMoment: [ Abs: 0.00395  Tot: -0.00013 ]
	SubspaceRotationAdjust: set factor to 0.682
ElecMinimize: Iter:   2  F: -1406.688836075770496  |grad|_K:  3.317e-05  alpha:  5.616e-01  linmin: -6.323e-06  t[s]:    731.11
	FillingsUpdate:  mu: +0.057734262  nElectrons: 417.000000  magneticMoment: [ Abs: 0.00204  Tot: -0.00033 ]
	SubspaceRotationAdjust: set factor to 0.443
ElecMinimize: Iter:   3  F: -1406.757926860196903  |grad|_K:  1.556e-05  alpha:  2.877e-01  linmin: -7.443e-05  t[s]:    787.44
	FillingsUpdate:  mu: +0.053667892  nElectrons: 417.000000  magneticMoment: [ Abs: 0.00092  Tot: -0.00035 ]
	SubspaceRotationAdjust: set factor to 0.54
ElecMinimize: Iter:   4  F: -1406.788985624004681  |grad|_K:  1.049e-05  alpha:  6.008e-01  linmin:  8.363e-05  t[s]:    843.64
	FillingsUpdate:  mu: +0.044905606  nElectrons: 417.000000  magneticMoment: [ Abs: 0.00082  Tot: -0.00033 ]
	SubspaceRotationAdjust: set factor to 0.533
ElecMinimize: Iter:   5  F: -1406.801273927002512  |grad|_K:  6.612e-06  alpha:  5.332e-01  linmin:  2.217e-05  t[s]:    900.21
	FillingsUpdate:  mu: +0.048336357  nElectrons: 417.000000  magneticMoment: [ Abs: 0.00092  Tot: -0.00029 ]
	SubspaceRotationAdjust: set factor to 0.594
ElecMinimize: Iter:   6  F: -1406.806558111492222  |grad|_K:  4.261e-06  alpha:  5.732e-01  linmin:  1.027e-05  t[s]:    956.71
	FillingsUpdate:  mu: +0.047395331  nElectrons: 417.000000  magneticMoment: [ Abs: 0.00074  Tot: -0.00023 ]
	SubspaceRotationAdjust: set factor to 0.701
ElecMinimize: Iter:   7  F: -1406.808984258431565  |grad|_K:  3.050e-06  alpha:  6.338e-01  linmin:  8.598e-06  t[s]:   1013.50
	FillingsUpdate:  mu: +0.045892608  nElectrons: 417.000000  magneticMoment: [ Abs: 0.00047  Tot: -0.00019 ]
	SubspaceRotationAdjust: set factor to 0.742
ElecMinimize: Iter:   8  F: -1406.809995945714491  |grad|_K:  1.928e-06  alpha:  5.148e-01  linmin:  3.584e-06  t[s]:   1069.61
	FillingsUpdate:  mu: +0.046870955  nElectrons: 417.000000  magneticMoment: [ Abs: 0.00029  Tot: -0.00013 ]
	SubspaceRotationAdjust: set factor to 0.697
ElecMinimize: Iter:   9  F: -1406.810431001320239  |grad|_K:  1.433e-06  alpha:  5.538e-01  linmin:  6.530e-06  t[s]:   1126.34
	FillingsUpdate:  mu: +0.045664644  nElectrons: 417.000000  magneticMoment: [ Abs: 0.00016  Tot: -0.00007 ]
	SubspaceRotationAdjust: set factor to 0.655
ElecMinimize: Iter:  10  F: -1406.810648717708318  |grad|_K:  1.003e-06  alpha:  5.021e-01  linmin:  5.893e-06  t[s]:   1183.24
	FillingsUpdate:  mu: +0.045860986  nElectrons: 417.000000  magneticMoment: [ Abs: 0.00007  Tot: -0.00001 ]
	SubspaceRotationAdjust: set factor to 0.729
ElecMinimize: Iter:  11  F: -1406.810777040194353  |grad|_K:  7.541e-07  alpha:  6.062e-01  linmin:  5.742e-06  t[s]:   1239.70
	FillingsUpdate:  mu: +0.045952069  nElectrons: 417.000000  magneticMoment: [ Abs: 0.00010  Tot: +0.00003 ]
	SubspaceRotationAdjust: set factor to 0.846
ElecMinimize: Iter:  12  F: -1406.810849724362242  |grad|_K:  5.984e-07  alpha:  6.067e-01  linmin:  3.456e-06  t[s]:   1296.14
	FillingsUpdate:  mu: +0.045548317  nElectrons: 417.000000  magneticMoment: [ Abs: 0.00011  Tot: +0.00005 ]
	SubspaceRotationAdjust: set factor to 0.828
ElecMinimize: Iter:  13  F: -1406.810894717836618  |grad|_K:  5.075e-07  alpha:  5.952e-01  linmin:  3.168e-06  t[s]:   1352.33
	FillingsUpdate:  mu: +0.045991125  nElectrons: 417.000000  magneticMoment: [ Abs: 0.00010  Tot: +0.00005 ]
	SubspaceRotationAdjust: set factor to 0.729
ElecMinimize: Iter:  14  F: -1406.810920409566506  |grad|_K:  3.828e-07  alpha:  4.721e-01  linmin:  5.955e-07  t[s]:   1408.84
	FillingsUpdate:  mu: +0.045839694  nElectrons: 417.000000  magneticMoment: [ Abs: 0.00007  Tot: +0.00003 ]
	SubspaceRotationAdjust: set factor to 0.762
ElecMinimize: Iter:  15  F: -1406.810937038377915  |grad|_K:  2.826e-07  alpha:  5.362e-01  linmin:  9.744e-07  t[s]:   1465.58
	FillingsUpdate:  mu: +0.045850266  nElectrons: 417.000000  magneticMoment: [ Abs: 0.00004  Tot: +0.00000 ]
	SubspaceRotationAdjust: set factor to 0.889
ElecMinimize: Iter:  16  F: -1406.810947732129080  |grad|_K:  2.304e-07  alpha:  6.329e-01  linmin:  4.318e-07  t[s]:   1521.78
	FillingsUpdate:  mu: +0.045966278  nElectrons: 417.000000  magneticMoment: [ Abs: 0.00003  Tot: -0.00001 ]
	SubspaceRotationAdjust: set factor to 0.949
ElecMinimize: Iter:  17  F: -1406.810954062386600  |grad|_K:  1.834e-07  alpha:  5.629e-01  linmin:  8.512e-08  t[s]:   1578.53
	FillingsUpdate:  mu: +0.045810712  nElectrons: 417.000000  magneticMoment: [ Abs: 0.00004  Tot: -0.00002 ]
	SubspaceRotationAdjust: set factor to 0.874
ElecMinimize: Iter:  18  F: -1406.810957486689176  |grad|_K:  1.486e-07  alpha:  4.806e-01  linmin:  5.544e-08  t[s]:   1634.91
	FillingsUpdate:  mu: +0.045898271  nElectrons: 417.000000  magneticMoment: [ Abs: 0.00003  Tot: -0.00001 ]
	SubspaceRotationAdjust: set factor to 0.783
ElecMinimize: Iter:  19  F: -1406.810959568048474  |grad|_K:  1.045e-07  alpha:  4.448e-01  linmin:  1.302e-07  t[s]:   1690.54
	FillingsUpdate:  mu: +0.045846912  nElectrons: 417.000000  magneticMoment: [ Abs: 0.00002  Tot: -0.00001 ]
	SubspaceRotationAdjust: set factor to 0.848
ElecMinimize: Iter:  20  F: -1406.810960836835648  |grad|_K:  7.927e-08  alpha:  5.483e-01  linmin:  2.810e-07  t[s]:   1747.21
	FillingsUpdate:  mu: +0.045840765  nElectrons: 417.000000  magneticMoment: [ Abs: 0.00001  Tot: +0.00000 ]
	SubspaceRotationAdjust: set factor to 0.995
ElecMinimize: Iter:  21  F: -1406.810961647266822  |grad|_K:  6.204e-08  alpha:  6.096e-01  linmin:  2.268e-07  t[s]:   1803.60
	FillingsUpdate:  mu: +0.045873188  nElectrons: 417.000000  magneticMoment: [ Abs: 0.00001  Tot: +0.00000 ]
	SubspaceRotationAdjust: set factor to 1.09
ElecMinimize: Iter:  22  F: -1406.810962092756427  |grad|_K:  4.900e-08  alpha:  5.470e-01  linmin:  6.083e-08  t[s]:   1859.68
	FillingsUpdate:  mu: +0.045839039  nElectrons: 417.000000  magneticMoment: [ Abs: 0.00001  Tot: +0.00000 ]
	SubspaceRotationAdjust: set factor to 0.966
ElecMinimize: Iter:  23  F: -1406.810962310414880  |grad|_K:  3.837e-08  alpha:  4.278e-01  linmin:  2.443e-08  t[s]:   1915.80
	FillingsUpdate:  mu: +0.045869229  nElectrons: 417.000000  magneticMoment: [ Abs: 0.00001  Tot: +0.00000 ]
	SubspaceRotationAdjust: set factor to 0.816
ElecMinimize: Iter:  24  F: -1406.810962426350898  |grad|_K:  2.593e-08  alpha:  3.716e-01  linmin:  2.319e-08  t[s]:   1972.22
	FillingsUpdate:  mu: +0.045858311  nElectrons: 417.000000  magneticMoment: [ Abs: 0.00000  Tot: +0.00000 ]
	SubspaceRotationAdjust: set factor to 0.878
ElecMinimize: Iter:  25  F: -1406.810962496116872  |grad|_K:  1.821e-08  alpha:  4.897e-01  linmin:  4.016e-08  t[s]:   2028.53
	FillingsUpdate:  mu: +0.045857933  nElectrons: 417.000000  magneticMoment: [ Abs: 0.00000  Tot: -0.00000 ]
	SubspaceRotationAdjust: set factor to 1.05
ElecMinimize: Iter:  26  F: -1406.810962535358840  |grad|_K:  1.352e-08  alpha:  5.588e-01  linmin:  2.047e-08  t[s]:   2085.40
	FillingsUpdate:  mu: +0.045864247  nElectrons: 417.000000  magneticMoment: [ Abs: 0.00000  Tot: -0.00000 ]
	SubspaceRotationAdjust: set factor to 1.14
ElecMinimize: Iter:  27  F: -1406.810962555867945  |grad|_K:  1.075e-08  alpha:  5.291e-01  linmin:  1.592e-08  t[s]:   2142.04
	FillingsUpdate:  mu: +0.045855518  nElectrons: 417.000000  magneticMoment: [ Abs: 0.00000  Tot: -0.00000 ]
	SubspaceRotationAdjust: set factor to 0.976
ElecMinimize: Iter:  28  F: -1406.810962565594309  |grad|_K:  8.621e-09  alpha:  3.974e-01  linmin:  2.383e-08  t[s]:   2197.95
	FillingsUpdate:  mu: +0.045861801  nElectrons: 417.000000  magneticMoment: [ Abs: 0.00000  Tot: -0.00000 ]
	SubspaceRotationAdjust: set factor to 0.828
ElecMinimize: Iter:  29  F: -1406.810962571516257  |grad|_K:  6.022e-09  alpha:  3.759e-01  linmin:  1.941e-08  t[s]:   2254.17
ElecMinimize: Converged (|Delta F|<1.000000e-08 for 2 iters).
Setting wave functions to eigenvectors of Hamiltonian
Vacuum energy after initial minimize, F = -1406.810962571516257

	Linear fluid (dielectric constant: 78.4, screening length: 5.74355 Bohr) occupying 0.743254 of unit cell:	Completed after 13 iterations at t[s]:   2268.59

-------- Electronic minimization -----------
	Linear fluid (dielectric constant: 78.4, screening length: 5.74355 Bohr) occupying 0.743254 of unit cell:	Completed after 0 iterations at t[s]:   2285.80
	FillingsUpdate:  mu: -0.113715647  nElectrons: 417.000000  magneticMoment: [ Abs: 0.00000  Tot: -0.00000 ]
ElecMinimize: Iter:   0  F: -1406.933516531418036  |grad|_K:  2.062e-06  alpha:  1.000e+00
	Linear fluid (dielectric constant: 78.4, screening length: 5.74355 Bohr) occupying 0.743992 of unit cell:	Completed after 9 iterations at t[s]:   2331.41
	Linear fluid (dielectric constant: 78.4, screening length: 5.74355 Bohr) occupying 0.743545 of unit cell:	Completed after 9 iterations at t[s]:   2355.10
	FillingsUpdate:  mu: -0.116692180  nElectrons: 417.000000  magneticMoment: [ Abs: 0.00005  Tot: +0.00000 ]
	SubspaceRotationAdjust: set factor to 0.529
ElecMinimize: Iter:   1  F: -1406.933838733967605  |grad|_K:  1.642e-06  alpha:  3.623e-01  linmin:  1.720e-06  t[s]:   2382.81
	Linear fluid (dielectric constant: 78.4, screening length: 5.74355 Bohr) occupying 0.743997 of unit cell:	Completed after 7 iterations at t[s]:   2400.62
	Linear fluid (dielectric constant: 78.4, screening length: 5.74355 Bohr) occupying 0.744232 of unit cell:	Completed after 6 iterations at t[s]:   2423.70
	FillingsUpdate:  mu: -0.115332683  nElectrons: 417.000000  magneticMoment: [ Abs: 0.00018  Tot: +0.00000 ]
	SubspaceRotationAdjust: set factor to 0.979
ElecMinimize: Iter:   2  F: -1406.934172823910330  |grad|_K:  4.236e-07  alpha:  5.684e-01  linmin: -1.574e-05  t[s]:   2451.17
	Linear fluid (dielectric constant: 78.4, screening length: 5.74355 Bohr) occupying 0.744329 of unit cell:	Completed after 5 iterations at t[s]:   2469.12
	Linear fluid (dielectric constant: 78.4, screening length: 5.74355 Bohr) occupying 0.744363 of unit cell:	Completed after 2 iterations at t[s]:   2491.67
	FillingsUpdate:  mu: -0.115048451  nElectrons: 417.000000  magneticMoment: [ Abs: 0.00018  Tot: +0.00000 ]
	SubspaceRotationAdjust: set factor to 0.989
ElecMinimize: Iter:   3  F: -1406.934204570144175  |grad|_K:  2.953e-07  alpha:  7.682e-01  linmin: -1.218e-06  t[s]:   2518.21
	Linear fluid (dielectric constant: 78.4, screening length: 5.74355 Bohr) occupying 0.744445 of unit cell:	Completed after 2 iterations at t[s]:   2535.32
	Linear fluid (dielectric constant: 78.4, screening length: 5.74355 Bohr) occupying 0.744438 of unit cell:	Completed after 0 iterations at t[s]:   2556.93
	FillingsUpdate:  mu: -0.115022299  nElectrons: 417.000000  magneticMoment: [ Abs: 0.00017  Tot: +0.00000 ]
	SubspaceRotationAdjust: set factor to 0.98
ElecMinimize: Iter:   4  F: -1406.934217539924020  |grad|_K:  1.989e-07  alpha:  6.966e-01  linmin:  6.954e-07  t[s]:   2582.99
	Linear fluid (dielectric constant: 78.4, screening length: 5.74355 Bohr) occupying 0.744459 of unit cell:	Completed after 2 iterations at t[s]:   2599.65
	Linear fluid (dielectric constant: 78.4, screening length: 5.74355 Bohr) occupying 0.744456 of unit cell:	Completed after 0 iterations at t[s]:   2620.85
	FillingsUpdate:  mu: -0.115019206  nElectrons: 417.000000  magneticMoment: [ Abs: 0.00014  Tot: +0.00000 ]
	SubspaceRotationAdjust: set factor to 1.08
ElecMinimize: Iter:   5  F: -1406.934222459963848  |grad|_K:  1.180e-07  alpha:  5.881e-01  linmin:  2.382e-06  t[s]:   2646.74
	Linear fluid (dielectric constant: 78.4, screening length: 5.74355 Bohr) occupying 0.744450 of unit cell:	Completed after 1 iterations at t[s]:   2663.82
	Linear fluid (dielectric constant: 78.4, screening length: 5.74355 Bohr) occupying 0.744451 of unit cell:	Completed after 0 iterations at t[s]:   2684.42
	FillingsUpdate:  mu: -0.115125954  nElectrons: 417.000000  magneticMoment: [ Abs: 0.00012  Tot: +0.00000 ]
	SubspaceRotationAdjust: set factor to 0.9
ElecMinimize: Iter:   6  F: -1406.934223915962775  |grad|_K:  1.044e-07  alpha:  4.961e-01  linmin:  3.873e-06  t[s]:   2710.18
	Linear fluid (dielectric constant: 78.4, screening length: 5.74355 Bohr) occupying 0.744447 of unit cell:	Completed after 2 iterations at t[s]:   2727.24
	Linear fluid (dielectric constant: 78.4, screening length: 5.74355 Bohr) occupying 0.744449 of unit cell:	Completed after 2 iterations at t[s]:   2748.28
	FillingsUpdate:  mu: -0.115023666  nElectrons: 417.000000  magneticMoment: [ Abs: 0.00010  Tot: +0.00000 ]
	SubspaceRotationAdjust: set factor to 0.529
ElecMinimize: Iter:   7  F: -1406.934224463336932  |grad|_K:  6.646e-08  alpha:  2.642e-01  linmin:  2.072e-06  t[s]:   2775.42
	Linear fluid (dielectric constant: 78.4, screening length: 5.74355 Bohr) occupying 0.744446 of unit cell:	Completed after 0 iterations at t[s]:   2791.81
	Linear fluid (dielectric constant: 78.4, screening length: 5.74355 Bohr) occupying 0.744443 of unit cell:	Completed after 0 iterations at t[s]:   2812.16
	FillingsUpdate:  mu: -0.115023058  nElectrons: 417.000000  magneticMoment: [ Abs: 0.00007  Tot: -0.00000 ]
	SubspaceRotationAdjust: set factor to 0.759
ElecMinimize: Iter:   8  F: -1406.934224970670130  |grad|_K:  5.113e-08  alpha:  5.505e-01  linmin:  1.230e-07  t[s]:   2838.31
	Linear fluid (dielectric constant: 78.4, screening length: 5.74355 Bohr) occupying 0.744438 of unit cell:	Completed after 2 iterations at t[s]:   2855.50
	Linear fluid (dielectric constant: 78.4, screening length: 5.74355 Bohr) occupying 0.744440 of unit cell:	Completed after 0 iterations at t[s]:   2876.50
	FillingsUpdate:  mu: -0.115105732  nElectrons: 417.000000  magneticMoment: [ Abs: 0.00006  Tot: -0.00000 ]
	SubspaceRotationAdjust: set factor to 0.596
ElecMinimize: Iter:   9  F: -1406.934225112915101  |grad|_K:  6.169e-08  alpha:  2.878e-01  linmin:  7.743e-05  t[s]:   2902.25
	Linear fluid (dielectric constant: 78.4, screening length: 5.74355 Bohr) occupying 0.744439 of unit cell:	Completed after 2 iterations at t[s]:   2919.68
	Linear fluid (dielectric constant: 78.4, screening length: 5.74355 Bohr) occupying 0.744440 of unit cell:	Completed after 0 iterations at t[s]:   2940.11
	FillingsUpdate:  mu: -0.115066396  nElectrons: 417.000000  magneticMoment: [ Abs: 0.00004  Tot: -0.00000 ]
	SubspaceRotationAdjust: set factor to 1.07
ElecMinimize: Iter:  10  F: -1406.934225190078450  |grad|_K:  3.000e-08  alpha:  1.739e-01  linmin: -5.478e-05  t[s]:   2966.07
	Linear fluid (dielectric constant: 78.4, screening length: 5.74355 Bohr) occupying 0.744440 of unit cell:	Completed after 0 iterations at t[s]:   2982.31
ElecMinimize: 	Predicted alpha/alphaT>3.000000, increasing alphaT to 5.216874e-01.
	Linear fluid (dielectric constant: 78.4, screening length: 5.74355 Bohr) occupying 0.744441 of unit cell:	Completed after 0 iterations at t[s]:   3002.15
	Linear fluid (dielectric constant: 78.4, screening length: 5.74355 Bohr) occupying 0.744441 of unit cell:	Completed after 2 iterations at t[s]:   3023.32
	FillingsUpdate:  mu: -0.115028323  nElectrons: 417.000000  magneticMoment: [ Abs: 0.00002  Tot: -0.00000 ]
	SubspaceRotationAdjust: set factor to 0.881
ElecMinimize: Iter:  11  F: -1406.934225244549452  |grad|_K:  3.838e-08  alpha:  6.852e-01  linmin:  7.816e-05  t[s]:   3049.88
	Linear fluid (dielectric constant: 78.4, screening length: 5.74355 Bohr) occupying 0.744445 of unit cell:	Completed after 0 iterations at t[s]:   3067.14
	Linear fluid (dielectric constant: 78.4, screening length: 5.74355 Bohr) occupying 0.744443 of unit cell:	Completed after 0 iterations at t[s]:   3087.47
	FillingsUpdate:  mu: -0.115029014  nElectrons: 417.000000  magneticMoment: [ Abs: 0.00001  Tot: -0.00000 ]
	SubspaceRotationAdjust: set factor to 1.12
ElecMinimize: Iter:  12  F: -1406.934225267488046  |grad|_K:  3.516e-08  alpha:  2.328e-01  linmin: -1.265e-07  t[s]:   3113.45
	Linear fluid (dielectric constant: 78.4, screening length: 5.74355 Bohr) occupying 0.744444 of unit cell:	Completed after 0 iterations at t[s]:   3129.73
	Linear fluid (dielectric constant: 78.4, screening length: 5.74355 Bohr) occupying 0.744445 of unit cell:	Completed after 2 iterations at t[s]:   3150.18
ElecMinimize: 	Step increased F by 7.514336e-08, reducing alpha to 4.035837e-02.
	Linear fluid (dielectric constant: 78.4, screening length: 5.74355 Bohr) occupying 0.744443 of unit cell:	Completed after 2 iterations at t[s]:   3191.26
	FillingsUpdate:  mu: -0.115037516  nElectrons: 417.000000  magneticMoment: [ Abs: 0.00001  Tot: -0.00000 ]
	SubspaceRotationAdjust: set factor to 1.5
ElecMinimize: Iter:  13  F: -1406.934225290942322  |grad|_K:  2.675e-08  alpha:  4.036e-02  linmin: -3.903e-05  t[s]:   3217.31
	Linear fluid (dielectric constant: 78.4, screening length: 5.74355 Bohr) occupying 0.744443 of unit cell:	Completed after 0 iterations at t[s]:   3233.60
ElecMinimize: 	Predicted alpha/alphaT>3.000000, increasing alphaT to 1.210751e-01.
	Linear fluid (dielectric constant: 78.4, screening length: 5.74355 Bohr) occupying 0.744443 of unit cell:	Completed after 0 iterations at t[s]:   3253.28
	Linear fluid (dielectric constant: 78.4, screening length: 5.74355 Bohr) occupying 0.744444 of unit cell:	Completed after 0 iterations at t[s]:   3273.56
	FillingsUpdate:  mu: -0.115039984  nElectrons: 417.000000  magneticMoment: [ Abs: 0.00001  Tot: -0.00000 ]
	SubspaceRotationAdjust: set factor to 1.6
ElecMinimize: Iter:  14  F: -1406.934225339171007  |grad|_K:  1.560e-08  alpha:  2.691e-01  linmin:  1.530e-05  t[s]:   3299.57
	Linear fluid (dielectric constant: 78.4, screening length: 5.74355 Bohr) occupying 0.744444 of unit cell:	Completed after 2 iterations at t[s]:   3316.92
	Linear fluid (dielectric constant: 78.4, screening length: 5.74355 Bohr) occupying 0.744444 of unit cell:	Completed after 0 iterations at t[s]:   3337.42
ElecMinimize: 	Step increased F by 4.136041e-08, reducing alpha to 2.499420e-03.
	Linear fluid (dielectric constant: 78.4, screening length: 5.74355 Bohr) occupying 0.744444 of unit cell:	Completed after 0 iterations at t[s]:   3376.71
ElecMinimize: 	Step increased F by 3.650712e-08, reducing alpha to 2.499420e-04.
	Linear fluid (dielectric constant: 78.4, screening length: 5.74355 Bohr) occupying 0.744444 of unit cell:	Completed after 0 iterations at t[s]:   3416.47
ElecMinimize: 	Step increased F by 3.604146e-08, reducing alpha to 2.499420e-05.
ElecMinimize: 	Step failed to reduce F after 3 attempts. Quitting step.
ElecMinimize: 	Undoing step.
	Linear fluid (dielectric constant: 78.4, screening length: 5.74355 Bohr) occupying 0.744444 of unit cell:	Completed after 0 iterations at t[s]:   3455.77
ElecMinimize: 	Step failed: resetting search direction.
	FillingsUpdate:  mu: -0.115086172  nElectrons: 417.000000  magneticMoment: [ Abs: 0.00001  Tot: -0.00000 ]
	SubspaceRotationAdjust: set factor to 0.896
ElecMinimize: Iter:  15  F: -1406.934225303140920  |grad|_K:  6.323e-08  alpha:  2.499e-05
	Linear fluid (dielectric constant: 78.4, screening length: 5.74355 Bohr) occupying 0.744446 of unit cell:	Completed after 2 iterations at t[s]:   3499.13
	Linear fluid (dielectric constant: 78.4, screening length: 5.74355 Bohr) occupying 0.744445 of unit cell:	Completed after 2 iterations at t[s]:   3520.07
	FillingsUpdate:  mu: -0.115023658  nElectrons: 417.000000  magneticMoment: [ Abs: 0.00001  Tot: -0.00000 ]
	SubspaceRotationAdjust: set factor to 0.349
ElecMinimize: Iter:  16  F: -1406.934225342998616  |grad|_K:  1.962e-08  alpha:  8.660e-02  linmin:  5.779e-04  t[s]:   3546.73
	Linear fluid (dielectric constant: 78.4, screening length: 5.74355 Bohr) occupying 0.744445 of unit cell:	Completed after 0 iterations at t[s]:   3563.00
ElecMinimize: 	Predicted alpha/alphaT>3.000000, increasing alphaT to 2.598091e-01.
	Linear fluid (dielectric constant: 78.4, screening length: 5.74355 Bohr) occupying 0.744444 of unit cell:	Completed after 0 iterations at t[s]:   3582.80
	Linear fluid (dielectric constant: 78.4, screening length: 5.74355 Bohr) occupying 0.744444 of unit cell:	Completed after 0 iterations at t[s]:   3603.61
	FillingsUpdate:  mu: -0.115027342  nElectrons: 417.000000  magneticMoment: [ Abs: 0.00001  Tot: -0.00000 ]
	SubspaceRotationAdjust: set factor to 0.468
ElecMinimize: Iter:  17  F: -1406.934225368157058  |grad|_K:  1.856e-08  alpha:  7.097e-01  linmin:  2.364e-05  t[s]:   3629.69
	Linear fluid (dielectric constant: 78.4, screening length: 5.74355 Bohr) occupying 0.744443 of unit cell:	Completed after 2 iterations at t[s]:   3647.37
	Linear fluid (dielectric constant: 78.4, screening length: 5.74355 Bohr) occupying 0.744444 of unit cell:	Completed after 0 iterations at t[s]:   3667.96
ElecMinimize: 	Step increased F by 7.805966e-09, reducing alpha to 1.257072e-02.
	Linear fluid (dielectric constant: 78.4, screening length: 5.74355 Bohr) occupying 0.744444 of unit cell:	Completed after 0 iterations at t[s]:   3706.93
	FillingsUpdate:  mu: -0.115105912  nElectrons: 417.000000  magneticMoment: [ Abs: 0.00001  Tot: -0.00000 ]
	SubspaceRotationAdjust: set factor to 0.338
ElecMinimize: Iter:  18  F: -1406.934225382466138  |grad|_K:  4.750e-08  alpha:  1.257e-02  linmin:  1.802e-04  t[s]:   3732.43
ElecMinimize: 	Bad step direction: g.d > 0.
ElecMinimize: 	Undoing step.
	Linear fluid (dielectric constant: 78.4, screening length: 5.74355 Bohr) occupying 0.744444 of unit cell:	Completed after 0 iterations at t[s]:   3749.22
ElecMinimize: 	Step failed: resetting search direction.
	FillingsUpdate:  mu: -0.115105912  nElectrons: 417.000000  magneticMoment: [ Abs: 0.00001  Tot: -0.00000 ]
	SubspaceRotationAdjust: set factor to 0.272
ElecMinimize: Iter:  19  F: -1406.934225382477052  |grad|_K:  4.265e-08  alpha:  0.000e+00
	Linear fluid (dielectric constant: 78.4, screening length: 5.74355 Bohr) occupying 0.744444 of unit cell:	Completed after 0 iterations at t[s]:   3791.84
ElecMinimize: 	Predicted alpha/alphaT>3.000000, increasing alphaT to 3.771216e-02.
	Linear fluid (dielectric constant: 78.4, screening length: 5.74355 Bohr) occupying 0.744444 of unit cell:	Completed after 0 iterations at t[s]:   3812.04
ElecMinimize: 	Predicted alpha/alphaT>3.000000, increasing alphaT to 1.131365e-01.
	Linear fluid (dielectric constant: 78.4, screening length: 5.74355 Bohr) occupying 0.744444 of unit cell:	Completed after 2 iterations at t[s]:   3832.22
	Linear fluid (dielectric constant: 78.4, screening length: 5.74355 Bohr) occupying 0.744444 of unit cell:	Completed after 0 iterations at t[s]:   3852.77
ElecMinimize: 	Step increased F by 3.961577e-08, reducing alpha to 4.422328e-03.
	Linear fluid (dielectric constant: 78.4, screening length: 5.74355 Bohr) occupying 0.744444 of unit cell:	Completed after 0 iterations at t[s]:   3892.40
ElecMinimize: 	Step increased F by 4.993421e-08, reducing alpha to 4.422328e-04.
	Linear fluid (dielectric constant: 78.4, screening length: 5.74355 Bohr) occupying 0.744444 of unit cell:	Completed after 0 iterations at t[s]:   3931.88
ElecMinimize: 	Step increased F by 5.104903e-08, reducing alpha to 4.422328e-05.
ElecMinimize: 	Step failed to reduce F after 3 attempts. Quitting step.
ElecMinimize: 	Undoing step.
	Linear fluid (dielectric constant: 78.4, screening length: 5.74355 Bohr) occupying 0.744444 of unit cell:	Completed after 0 iterations at t[s]:   3971.10
ElecMinimize: 	Step failed along negative gradient direction.
ElecMinimize: Probably at roundoff error limit. (Stopping)
Setting wave functions to eigenvectors of Hamiltonian
Single-point solvation energy estimate, DeltaF = -0.123262759917907

# Ionic positions in lattice coordinates:
ion W   0.083334439986111   0.166665542472221   0.500000000000000 1
ion W   0.333334439986111   0.166665542472221   0.500000000000000 1
ion W   0.583334439986111   0.166665542472221   0.500000000000000 1
ion W   0.833334439986111   0.166665542472221   0.500000000000000 1
ion W   0.083334439986111   0.416665542472221   0.500000000000000 1
ion W   0.333334439986111   0.416665542472221   0.500000000000000 1
ion W   0.583334439986111   0.416665542472221   0.500000000000000 1
ion W   0.833334439986111   0.416665542472221   0.500000000000000 1
ion W   0.083334439986111   0.666665542472221   0.500000000000000 1
ion W   0.333334439986111   0.666665542472221   0.500000000000000 1
ion W   0.583334439986111   0.666665542472221   0.500000000000000 1
ion W   0.833334439986111   0.666665542472221   0.500000000000000 1
ion W   0.083334439986111   0.916665542472221   0.500000000000000 1
ion W   0.333334439986111   0.916665542472221   0.500000000000000 1
ion W   0.583334439986111   0.916665542472221   0.500000000000000 1
ion W   0.833334439986111   0.916665542472221   0.500000000000000 1
ion Se   0.166667773319445   0.083332209138888   0.406896668529060 1
ion Se   0.166667773319445   0.083332209138888   0.593103331470940 1
ion Se   0.416667773319445   0.083332209138888   0.406896668529060 1
ion Se   0.416667773319445   0.083332209138888   0.593103331470940 1
ion Se   0.666667773319445   0.083332209138888   0.406896668529060 1
ion Se   0.666667773319445   0.083332209138888   0.593103331470940 1
ion Se   0.916667773319445   0.083332209138888   0.406896668529060 1
ion Se   0.916667773319445   0.083332209138888   0.593103331470940 1
ion Se   0.166667773319445   0.333332209138888   0.406896668529060 1
ion Se   0.166667773319445   0.333332209138888   0.593103331470940 1
ion Se   0.416667773319445   0.333332209138888   0.406896668529060 1
ion Se   0.416667773319445   0.333332209138888   0.593103331470940 1
ion Se   0.666667773319445   0.333332209138888   0.406896668529060 1
ion Se   0.666667773319445   0.333332209138888   0.593103331470940 1
ion Se   0.916667773319445   0.333332209138888   0.406896668529060 1
ion Se   0.916667773319445   0.333332209138888   0.593103331470940 1
ion Se   0.166667773319445   0.583332209138888   0.406896668529060 1
ion Se   0.166667773319445   0.583332209138888   0.593103331470940 1
ion Se   0.416667773319445   0.583332209138888   0.406896668529060 1
ion Se   0.416667773319445   0.583332209138888   0.593103331470940 1
ion Se   0.666667773319445   0.583332209138888   0.406896668529060 1
ion Se   0.666667773319445   0.583332209138888   0.593103331470940 1
ion Se   0.916667773319445   0.583332209138888   0.406896668529060 1
ion Se   0.916667773319445   0.583332209138888   0.593103331470940 1
ion Se   0.166667773319445   0.833332209138888   0.406896668529060 1
ion Se   0.166667773319445   0.833332209138888   0.593103331470940 1
ion Se   0.416667773319445   0.833332209138888   0.406896668529060 1
ion Se   0.416667773319445   0.833332209138888   0.593103331470940 1
ion Se   0.666667773319445   0.833332209138888   0.406896668529060 1
ion Se   0.666667773319445   0.833332209138888   0.593103331470940 1
ion Se   0.916667773319445   0.833332209138888   0.406896668529060 1
ion Se   0.916667773319445   0.833332209138888   0.593103331470940 1


# Forces in Lattice coordinates:
force W  -0.000000000000000  -0.000000000000000   0.000000000000000 1
force W  -0.000000000000000  -0.000000000000000   0.000000000000000 1
force W   0.000000000000000  -0.000000000000000   0.000000000000000 1
force W   0.000000000000000  -0.000000000000000  -0.000000000000000 1
force W   0.000000000000000   0.000000000000000   0.000000000000000 1
force W   0.000000000000000  -0.000000000000000   0.000000000000000 1
force W  -0.000000000000000  -0.000000000000000   0.000000000000000 1
force W  -0.000000000000000  -0.000000000000000  -0.000000000000000 1
force W  -0.000000000000000   0.000000000000000  -0.000000000000000 1
force W  -0.000000000000000  -0.000000000000000  -0.000000000000000 1
force W  -0.000000000000000  -0.000000000000000   0.000000000000000 1
force W   0.000000000000000  -0.000000000000000   0.000000000000000 1
force W   0.000000000000000  -0.000000000000000   0.000000000000000 1
force W  -0.000000000000000  -0.000000000000000  -0.000000000000000 1
force W  -0.000000000000000  -0.000000000000000  -0.000000000000000 1
force W   0.000000000000000  -0.000000000000000   0.000000000000000 1
force Se   0.000000000000000  -0.000000000000000  -0.034813228192224 1
force Se   0.000000000000000   0.000000000000000   0.034813228192224 1
force Se   0.000000000000000   0.000000000000000  -0.034813228192339 1
force Se   0.000000000000000   0.000000000000000   0.034813228192223 1
force Se  -0.000000000000000  -0.000000000000000  -0.034813228192226 1
force Se  -0.000000000000000   0.000000000000000   0.034813228192224 1
force Se  -0.000000000000000  -0.000000000000000  -0.034813228192223 1
force Se  -0.000000000000000   0.000000000000000   0.034813228192226 1
force Se   0.000000000000000  -0.000000000000000  -0.034813228192109 1
force Se  -0.000000000000000   0.000000000000000   0.034813228192223 1
force Se  -0.000000000000000   0.000000000000000  -0.034813228192224 1
force Se   0.000000000000000  -0.000000000000000   0.034813228192223 1
force Se   0.000000000000000   0.000000000000000  -0.034813228192226 1
force Se  -0.000000000000000   0.000000000000000   0.034813228192224 1
force Se   0.000000000000000  -0.000000000000000  -0.034813228192224 1
force Se   0.000000000000000   0.000000000000000   0.034813228192224 1
force Se  -0.000000000000000  -0.000000000000000  -0.034813228192110 1
force Se   0.000000000000000   0.000000000000000   0.034813228192224 1
force Se  -0.000000000000000   0.000000000000000  -0.034813228192224 1
force Se   0.000000000000000  -0.000000000000000   0.034813228192223 1
force Se   0.000000000000000  -0.000000000000000  -0.034813228192224 1
force Se   0.000000000000000  -0.000000000000000   0.034813228192223 1
force Se  -0.000000000000000  -0.000000000000000  -0.034813228192227 1
force Se  -0.000000000000000   0.000000000000000   0.034813228192337 1
force Se  -0.000000000000000  -0.000000000000000  -0.034813228191997 1
force Se   0.000000000000000   0.000000000000000   0.034813228192223 1
force Se  -0.000000000000000   0.000000000000000  -0.034813228192110 1
force Se   0.000000000000000   0.000000000000000   0.034813228192224 1
force Se  -0.000000000000000   0.000000000000000  -0.034813228192227 1
force Se   0.000000000000000  -0.000000000000000   0.034813228192223 1
force Se   0.000000000000000  -0.000000000000000  -0.034813228192224 1
force Se   0.000000000000000   0.000000000000000   0.034813228192223 1

# Energy components:
   A_diel =       -0.1127156818230388
   Eewald =     7935.1870961835611524
       EH =     9106.1139493814098387
     Eloc =   -18528.3225113869120833
      Enl =     -154.7785390907302485
      Exc =     -805.9614463377033644
 Exc_core =      564.8999477537579423
       KE =      476.0708885818236240
  MuShift =       -0.0112064139501076
-------------------------------------
     Etot =    -1406.9145370105650272
       TS =        0.0196883208690495
-------------------------------------
        F =    -1406.9342253314341633

IonicMinimize: Iter:   0  F: -1406.934225331434163  |grad|_K:  4.786e-04  t[s]:   4013.56

#--- Lowdin population analysis ---
# oxidation-state W -0.711 -0.711 -0.711 -0.711 -0.711 -0.711 -0.711 -0.711 -0.711 -0.711 -0.711 -0.711 -0.711 -0.711 -0.711 -0.711
# magnetic-moments W -0.000 -0.000 -0.000 -0.000 -0.000 -0.000 -0.000 -0.000 -0.000 -0.000 -0.000 -0.000 -0.000 -0.000 -0.000 -0.000
# oxidation-state Se +0.376 +0.376 +0.376 +0.376 +0.376 +0.376 +0.376 +0.376 +0.376 +0.376 +0.376 +0.376 +0.376 +0.376 +0.376 +0.376 +0.376 +0.376 +0.376 +0.376 +0.376 +0.376 +0.376 +0.376 +0.376 +0.376 +0.376 +0.376 +0.376 +0.376 +0.376 +0.376
# magnetic-moments Se -0.000 -0.000 -0.000 -0.000 -0.000 -0.000 -0.000 -0.000 -0.000 -0.000 -0.000 -0.000 -0.000 -0.000 -0.000 -0.000 -0.000 -0.000 -0.000 -0.000 -0.000 -0.000 -0.000 -0.000 -0.000 -0.000 -0.000 -0.000 -0.000 -0.000 -0.000 -0.000

	Linear fluid (dielectric constant: 78.4, screening length: 5.74355 Bohr) occupying 0.744412 of unit cell:	Completed after 4 iterations at t[s]:   4032.25

-------- Electronic minimization -----------
	Linear fluid (dielectric constant: 78.4, screening length: 5.74355 Bohr) occupying 0.744412 of unit cell:	Completed after 0 iterations at t[s]:   4049.60
	FillingsUpdate:  mu: -0.114896518  nElectrons: 417.000000  magneticMoment: [ Abs: 0.00003  Tot: -0.00000 ]
ElecMinimize: Iter:   0  F: -1406.934248230203366  |grad|_K:  1.566e-07  alpha:  1.000e+00
	Linear fluid (dielectric constant: 78.4, screening length: 5.74355 Bohr) occupying 0.744409 of unit cell:	Completed after 4 iterations at t[s]:   4095.09
	Linear fluid (dielectric constant: 78.4, screening length: 5.74355 Bohr) occupying 0.744411 of unit cell:	Completed after 2 iterations at t[s]:   4116.39
	FillingsUpdate:  mu: -0.115140463  nElectrons: 417.000000  magneticMoment: [ Abs: 0.00003  Tot: -0.00000 ]
	SubspaceRotationAdjust: set factor to 0.311
ElecMinimize: Iter:   1  F: -1406.934251611414311  |grad|_K:  8.670e-08  alpha:  6.410e-01  linmin:  4.620e-04  t[s]:   4143.47
	Linear fluid (dielectric constant: 78.4, screening length: 5.74355 Bohr) occupying 0.744412 of unit cell:	Completed after 0 iterations at t[s]:   4159.75
	Linear fluid (dielectric constant: 78.4, screening length: 5.74355 Bohr) occupying 0.744412 of unit cell:	Completed after 2 iterations at t[s]:   4180.92
	FillingsUpdate:  mu: -0.115116110  nElectrons: 417.000000  magneticMoment: [ Abs: 0.00003  Tot: -0.00000 ]
	SubspaceRotationAdjust: set factor to 0.389
ElecMinimize: Iter:   2  F: -1406.934253031558001  |grad|_K:  9.459e-08  alpha:  9.712e-01  linmin:  2.182e-04  t[s]:   4207.92
	Linear fluid (dielectric constant: 78.4, screening length: 5.74355 Bohr) occupying 0.744416 of unit cell:	Completed after 2 iterations at t[s]:   4224.79
	Linear fluid (dielectric constant: 78.4, screening length: 5.74355 Bohr) occupying 0.744414 of unit cell:	Completed after 0 iterations at t[s]:   4245.79
	FillingsUpdate:  mu: -0.115038226  nElectrons: 417.000000  magneticMoment: [ Abs: 0.00002  Tot: -0.00000 ]
	SubspaceRotationAdjust: set factor to 0.427
ElecMinimize: Iter:   3  F: -1406.934253942172745  |grad|_K:  6.714e-08  alpha:  4.771e-01  linmin:  1.666e-04  t[s]:   4271.58
	Linear fluid (dielectric constant: 78.4, screening length: 5.74355 Bohr) occupying 0.744415 of unit cell:	Completed after 2 iterations at t[s]:   4289.07
	Linear fluid (dielectric constant: 78.4, screening length: 5.74355 Bohr) occupying 0.744415 of unit cell:	Completed after 0 iterations at t[s]:   4309.38
	FillingsUpdate:  mu: -0.115108812  nElectrons: 417.000000  magneticMoment: [ Abs: 0.00001  Tot: -0.00000 ]
	SubspaceRotationAdjust: set factor to 0.356
ElecMinimize: Iter:   4  F: -1406.934254213002077  |grad|_K:  4.313e-08  alpha:  3.466e-01  linmin: -1.096e-04  t[s]:   4335.12
	Linear fluid (dielectric constant: 78.4, screening length: 5.74355 Bohr) occupying 0.744416 of unit cell:	Completed after 0 iterations at t[s]:   4351.34
	Linear fluid (dielectric constant: 78.4, screening length: 5.74355 Bohr) occupying 0.744416 of unit cell:	Completed after 0 iterations at t[s]:   4371.42
	FillingsUpdate:  mu: -0.115109398  nElectrons: 417.000000  magneticMoment: [ Abs: 0.00001  Tot: -0.00000 ]
	SubspaceRotationAdjust: set factor to 0.527
ElecMinimize: Iter:   5  F: -1406.934254406344962  |grad|_K:  3.531e-08  alpha:  4.561e-01  linmin: -4.499e-08  t[s]:   4398.00
	Linear fluid (dielectric constant: 78.4, screening length: 5.74355 Bohr) occupying 0.744418 of unit cell:	Completed after 3 iterations at t[s]:   4415.00
	Linear fluid (dielectric constant: 78.4, screening length: 5.74355 Bohr) occupying 0.744417 of unit cell:	Completed after 0 iterations at t[s]:   4436.05
	FillingsUpdate:  mu: -0.115041887  nElectrons: 417.000000  magneticMoment: [ Abs: 0.00001  Tot: -0.00000 ]
	SubspaceRotationAdjust: set factor to 0.396
ElecMinimize: Iter:   6  F: -1406.934254428568465  |grad|_K:  3.718e-08  alpha:  1.861e-01  linmin:  1.041e-04  t[s]:   4461.87
	Linear fluid (dielectric constant: 78.4, screening length: 5.74355 Bohr) occupying 0.744417 of unit cell:	Completed after 0 iterations at t[s]:   4478.75
	Linear fluid (dielectric constant: 78.4, screening length: 5.74355 Bohr) occupying 0.744417 of unit cell:	Completed after 0 iterations at t[s]:   4499.02
	FillingsUpdate:  mu: -0.115041941  nElectrons: 417.000000  magneticMoment: [ Abs: 0.00000  Tot: -0.00000 ]
	SubspaceRotationAdjust: set factor to 0.356
ElecMinimize: Iter:   7  F: -1406.934254464119476  |grad|_K:  3.005e-08  alpha:  1.804e-01  linmin:  5.975e-08  t[s]:   4524.83
	Linear fluid (dielectric constant: 78.4, screening length: 5.74355 Bohr) occupying 0.744417 of unit cell:	Completed after 0 iterations at t[s]:   4541.61
	Linear fluid (dielectric constant: 78.4, screening length: 5.74355 Bohr) occupying 0.744417 of unit cell:	Completed after 1 iterations at t[s]:   4561.39
ElecMinimize: 	Step increased F by 1.473090e-07, reducing alpha to 4.233160e-02.
	Linear fluid (dielectric constant: 78.4, screening length: 5.74355 Bohr) occupying 0.744417 of unit cell:	Completed after 0 iterations at t[s]:   4600.95
	FillingsUpdate:  mu: -0.115107027  nElectrons: 417.000000  magneticMoment: [ Abs: 0.00000  Tot: -0.00000 ]
	SubspaceRotationAdjust: set factor to 0.206
ElecMinimize: Iter:   8  F: -1406.934254504029241  |grad|_K:  2.739e-08  alpha:  4.233e-02  linmin:  1.647e-04  t[s]:   4626.77
	Linear fluid (dielectric constant: 78.4, screening length: 5.74355 Bohr) occupying 0.744417 of unit cell:	Completed after 0 iterations at t[s]:   4643.59
	Linear fluid (dielectric constant: 78.4, screening length: 5.74355 Bohr) occupying 0.744417 of unit cell:	Completed after 0 iterations at t[s]:   4663.40
	FillingsUpdate:  mu: -0.115107030  nElectrons: 417.000000  magneticMoment: [ Abs: 0.00000  Tot: -0.00000 ]
	SubspaceRotationAdjust: set factor to 0.213
ElecMinimize: Iter:   9  F: -1406.934254506684283  |grad|_K:  2.320e-08  alpha:  1.033e-01  linmin:  7.542e-07  t[s]:   4688.99
	Linear fluid (dielectric constant: 78.4, screening length: 5.74355 Bohr) occupying 0.744418 of unit cell:	Completed after 0 iterations at t[s]:   4705.57
ElecMinimize: 	Predicted alpha/alphaT>3.000000, increasing alphaT to 3.098001e-01.
	Linear fluid (dielectric constant: 78.4, screening length: 5.74355 Bohr) occupying 0.744418 of unit cell:	Completed after 2 iterations at t[s]:   4725.73
	Linear fluid (dielectric constant: 78.4, screening length: 5.74355 Bohr) occupying 0.744418 of unit cell:	Completed after 0 iterations at t[s]:   4746.69
ElecMinimize: 	Step increased F by 5.797142e-08, reducing alpha to 7.179415e-03.
	Linear fluid (dielectric constant: 78.4, screening length: 5.74355 Bohr) occupying 0.744417 of unit cell:	Completed after 0 iterations at t[s]:   4786.32
ElecMinimize: 	Step increased F by 5.658262e-08, reducing alpha to 7.179415e-04.
	Linear fluid (dielectric constant: 78.4, screening length: 5.74355 Bohr) occupying 0.744417 of unit cell:	Completed after 0 iterations at t[s]:   4826.51
ElecMinimize: 	Step increased F by 5.655693e-08, reducing alpha to 7.179415e-05.
ElecMinimize: 	Step failed to reduce F after 3 attempts. Quitting step.
ElecMinimize: 	Undoing step.
	Linear fluid (dielectric constant: 78.4, screening length: 5.74355 Bohr) occupying 0.744417 of unit cell:	Completed after 0 iterations at t[s]:   4865.79
ElecMinimize: 	Step failed: resetting search direction.
	FillingsUpdate:  mu: -0.115062171  nElectrons: 417.000000  magneticMoment: [ Abs: 0.00000  Tot: -0.00000 ]
	SubspaceRotationAdjust: set factor to 0.144
ElecMinimize: Iter:  10  F: -1406.934254450129174  |grad|_K:  1.601e-08  alpha:  7.179e-05
	Linear fluid (dielectric constant: 78.4, screening length: 5.74355 Bohr) occupying 0.744417 of unit cell:	Completed after 0 iterations at t[s]:   4908.23
ElecMinimize: 	Predicted alpha/alphaT>3.000000, increasing alphaT to 3.098001e-01.
	Linear fluid (dielectric constant: 78.4, screening length: 5.74355 Bohr) occupying 0.744417 of unit cell:	Completed after 0 iterations at t[s]:   4927.55
	Linear fluid (dielectric constant: 78.4, screening length: 5.74355 Bohr) occupying 0.744417 of unit cell:	Completed after 0 iterations at t[s]:   4946.88
	FillingsUpdate:  mu: -0.115061941  nElectrons: 417.000000  magneticMoment: [ Abs: 0.00000  Tot: -0.00000 ]
	SubspaceRotationAdjust: set factor to 0.175
ElecMinimize: Iter:  11  F: -1406.934254481299831  |grad|_K:  1.596e-08  alpha:  5.748e-01  linmin:  8.190e-07  t[s]:   4972.80
	Linear fluid (dielectric constant: 78.4, screening length: 5.74355 Bohr) occupying 0.744417 of unit cell:	Completed after 1 iterations at t[s]:   4989.55
	Linear fluid (dielectric constant: 78.4, screening length: 5.74355 Bohr) occupying 0.744417 of unit cell:	Completed after 0 iterations at t[s]:   5010.13
ElecMinimize: 	Step increased F by 2.643287e-08, reducing alpha to 1.118428e-02.
	Linear fluid (dielectric constant: 78.4, screening length: 5.74355 Bohr) occupying 0.744417 of unit cell:	Completed after 0 iterations at t[s]:   5049.40
ElecMinimize: 	Step increased F by 1.506169e-08, reducing alpha to 1.118428e-03.
	Linear fluid (dielectric constant: 78.4, screening length: 5.74355 Bohr) occupying 0.744417 of unit cell:	Completed after 0 iterations at t[s]:   5088.90
ElecMinimize: 	Step increased F by 1.402441e-08, reducing alpha to 1.118428e-04.
ElecMinimize: 	Step failed to reduce F after 3 attempts. Quitting step.
ElecMinimize: 	Undoing step.
	Linear fluid (dielectric constant: 78.4, screening length: 5.74355 Bohr) occupying 0.744417 of unit cell:	Completed after 0 iterations at t[s]:   5128.65
ElecMinimize: 	Step failed: resetting search direction.
	FillingsUpdate:  mu: -0.115103898  nElectrons: 417.000000  magneticMoment: [ Abs: 0.00000  Tot: -0.00000 ]
	SubspaceRotationAdjust: set factor to 0.157
ElecMinimize: Iter:  12  F: -1406.934254467314759  |grad|_K:  2.498e-08  alpha:  1.118e-04
	Linear fluid (dielectric constant: 78.4, screening length: 5.74355 Bohr) occupying 0.744418 of unit cell:	Completed after 3 iterations at t[s]:   5171.75
	Linear fluid (dielectric constant: 78.4, screening length: 5.74355 Bohr) occupying 0.744417 of unit cell:	Completed after 0 iterations at t[s]:   5193.42
	FillingsUpdate:  mu: -0.115063000  nElectrons: 417.000000  magneticMoment: [ Abs: 0.00000  Tot: -0.00000 ]
	SubspaceRotationAdjust: set factor to 0.0813
ElecMinimize: Iter:  13  F: -1406.934254472529801  |grad|_K:  9.221e-09  alpha:  2.157e-01  linmin:  4.950e-04  t[s]:   5219.33
	Linear fluid (dielectric constant: 78.4, screening length: 5.74355 Bohr) occupying 0.744417 of unit cell:	Completed after 0 iterations at t[s]:   5235.95
ElecMinimize: 	Predicted alpha/alphaT>3.000000, increasing alphaT to 6.470498e-01.
	Linear fluid (dielectric constant: 78.4, screening length: 5.74355 Bohr) occupying 0.744417 of unit cell:	Completed after 0 iterations at t[s]:   5256.40
	Linear fluid (dielectric constant: 78.4, screening length: 5.74355 Bohr) occupying 0.744417 of unit cell:	Completed after 0 iterations at t[s]:   5276.23
	FillingsUpdate:  mu: -0.115062808  nElectrons: 417.000000  magneticMoment: [ Abs: 0.00000  Tot: -0.00000 ]
	SubspaceRotationAdjust: set factor to 0.094
ElecMinimize: Iter:  14  F: -1406.934254489552814  |grad|_K:  1.306e-08  alpha:  1.286e+00  linmin: -3.514e-07  t[s]:   5302.16
	Linear fluid (dielectric constant: 78.4, screening length: 5.74355 Bohr) occupying 0.744417 of unit cell:	Completed after 1 iterations at t[s]:   5318.94
	Linear fluid (dielectric constant: 78.4, screening length: 5.74355 Bohr) occupying 0.744417 of unit cell:	Completed after 1 iterations at t[s]:   5340.22
ElecMinimize: 	Step increased F by 3.958394e-08, reducing alpha to 1.384155e-02.
	Linear fluid (dielectric constant: 78.4, screening length: 5.74355 Bohr) occupying 0.744417 of unit cell:	Completed after 0 iterations at t[s]:   5380.26
ElecMinimize: 	Step increased F by 2.053616e-08, reducing alpha to 1.384155e-03.
	Linear fluid (dielectric constant: 78.4, screening length: 5.74355 Bohr) occupying 0.744417 of unit cell:	Completed after 0 iterations at t[s]:   5419.01
ElecMinimize: 	Step increased F by 1.877856e-08, reducing alpha to 1.384155e-04.
ElecMinimize: 	Step failed to reduce F after 3 attempts. Quitting step.
ElecMinimize: 	Undoing step.
	Linear fluid (dielectric constant: 78.4, screening length: 5.74355 Bohr) occupying 0.744417 of unit cell:	Completed after 0 iterations at t[s]:   5458.78
ElecMinimize: 	Step failed: resetting search direction.
	FillingsUpdate:  mu: -0.115120038  nElectrons: 417.000000  magneticMoment: [ Abs: 0.00000  Tot: -0.00000 ]
	SubspaceRotationAdjust: set factor to 0.0893
ElecMinimize: Iter:  15  F: -1406.934254470767655  |grad|_K:  3.030e-08  alpha:  1.384e-04
	Linear fluid (dielectric constant: 78.4, screening length: 5.74355 Bohr) occupying 0.744417 of unit cell:	Completed after 2 iterations at t[s]:   5501.50
	Linear fluid (dielectric constant: 78.4, screening length: 5.74355 Bohr) occupying 0.744417 of unit cell:	Completed after 2 iterations at t[s]:   5523.20
ElecMinimize: 	Step increased F by 4.067715e-09, reducing alpha to 3.301670e-02.
	Linear fluid (dielectric constant: 78.4, screening length: 5.74355 Bohr) occupying 0.744417 of unit cell:	Completed after 0 iterations at t[s]:   5563.03
	FillingsUpdate:  mu: -0.115070356  nElectrons: 417.000000  magneticMoment: [ Abs: 0.00000  Tot: -0.00000 ]
	SubspaceRotationAdjust: set factor to 0.0771
ElecMinimize: Iter:  16  F: -1406.934254472492512  |grad|_K:  1.081e-08  alpha:  3.302e-02  linmin: -4.020e-04  t[s]:   5589.52
	Linear fluid (dielectric constant: 78.4, screening length: 5.74355 Bohr) occupying 0.744417 of unit cell:	Completed after 0 iterations at t[s]:   5606.01
ElecMinimize: 	Predicted alpha/alphaT>3.000000, increasing alphaT to 9.905011e-02.
	Linear fluid (dielectric constant: 78.4, screening length: 5.74355 Bohr) occupying 0.744417 of unit cell:	Completed after 0 iterations at t[s]:   5626.18
	Linear fluid (dielectric constant: 78.4, screening length: 5.74355 Bohr) occupying 0.744417 of unit cell:	Completed after 0 iterations at t[s]:   5646.13
	FillingsUpdate:  mu: -0.115070335  nElectrons: 417.000000  magneticMoment: [ Abs: 0.00000  Tot: -0.00000 ]
	SubspaceRotationAdjust: set factor to 0.105
ElecMinimize: Iter:  17  F: -1406.934254478297134  |grad|_K:  2.504e-09  alpha:  2.072e-01  linmin:  2.767e-05  t[s]:   5671.69
ElecMinimize: Converged (|Delta F|<1.000000e-08 for 2 iters).
Setting wave functions to eigenvectors of Hamiltonian

# Ionic positions in lattice coordinates:
ion W   0.083334439986111   0.166665542472221   0.500000000000000 1
ion W   0.333334439986111   0.166665542472221   0.500000000000000 1
ion W   0.583334439986111   0.166665542472221   0.500000000000000 1
ion W   0.833334439986111   0.166665542472221   0.500000000000000 1
ion W   0.083334439986111   0.416665542472221   0.500000000000000 1
ion W   0.333334439986111   0.416665542472221   0.500000000000000 1
ion W   0.583334439986111   0.416665542472221   0.500000000000000 1
ion W   0.833334439986111   0.416665542472221   0.500000000000000 1
ion W   0.083334439986111   0.666665542472221   0.500000000000000 1
ion W   0.333334439986111   0.666665542472221   0.500000000000000 1
ion W   0.583334439986111   0.666665542472221   0.500000000000000 1
ion W   0.833334439986111   0.666665542472221   0.500000000000000 1
ion W   0.083334439986111   0.916665542472221   0.500000000000000 1
ion W   0.333334439986111   0.916665542472221   0.500000000000000 1
ion W   0.583334439986111   0.916665542472221   0.500000000000000 1
ion W   0.833334439986111   0.916665542472221   0.500000000000000 1
ion Se   0.166667773319445   0.083332209138888   0.406867062509600 1
ion Se   0.166667773319445   0.083332209138888   0.593132937490400 1
ion Se   0.416667773319445   0.083332209138888   0.406867062509600 1
ion Se   0.416667773319445   0.083332209138888   0.593132937490400 1
ion Se   0.666667773319445   0.083332209138888   0.406867062509600 1
ion Se   0.666667773319445   0.083332209138888   0.593132937490400 1
ion Se   0.916667773319445   0.083332209138888   0.406867062509600 1
ion Se   0.916667773319445   0.083332209138888   0.593132937490400 1
ion Se   0.166667773319445   0.333332209138888   0.406867062509600 1
ion Se   0.166667773319445   0.333332209138888   0.593132937490400 1
ion Se   0.416667773319445   0.333332209138888   0.406867062509600 1
ion Se   0.416667773319445   0.333332209138888   0.593132937490400 1
ion Se   0.666667773319445   0.333332209138888   0.406867062509600 1
ion Se   0.666667773319445   0.333332209138888   0.593132937490400 1
ion Se   0.916667773319445   0.333332209138888   0.406867062509600 1
ion Se   0.916667773319445   0.333332209138888   0.593132937490400 1
ion Se   0.166667773319445   0.583332209138888   0.406867062509600 1
ion Se   0.166667773319445   0.583332209138888   0.593132937490400 1
ion Se   0.416667773319445   0.583332209138888   0.406867062509600 1
ion Se   0.416667773319445   0.583332209138888   0.593132937490400 1
ion Se   0.666667773319445   0.583332209138888   0.406867062509600 1
ion Se   0.666667773319445   0.583332209138888   0.593132937490400 1
ion Se   0.916667773319445   0.583332209138888   0.406867062509600 1
ion Se   0.916667773319445   0.583332209138888   0.593132937490400 1
ion Se   0.166667773319445   0.833332209138888   0.406867062509600 1
ion Se   0.166667773319445   0.833332209138888   0.593132937490400 1
ion Se   0.416667773319445   0.833332209138888   0.406867062509600 1
ion Se   0.416667773319445   0.833332209138888   0.593132937490400 1
ion Se   0.666667773319445   0.833332209138888   0.406867062509600 1
ion Se   0.666667773319445   0.833332209138888   0.593132937490400 1
ion Se   0.916667773319445   0.833332209138888   0.406867062509600 1
ion Se   0.916667773319445   0.833332209138888   0.593132937490400 1


# Forces in Lattice coordinates:
force W  -0.000000000000000   0.000000000000000   0.000000000000000 1
force W   0.000000000000000   0.000000000000000   0.000000000000000 1
force W   0.000000000000000   0.000000000000000  -0.000000000000000 1
force W  -0.000000000000000   0.000000000000000   0.000000000000000 1
force W  -0.000000000000000   0.000000000000000   0.000000000000000 1
force W  -0.000000000000000   0.000000000000000   0.000000000000000 1
force W  -0.000000000000000   0.000000000000000   0.000000000000000 1
force W   0.000000000000000   0.000000000000000   0.000000000000000 1
force W  -0.000000000000000   0.000000000000000  -0.000000000000000 1
force W  -0.000000000000000   0.000000000000000  -0.000000000000000 1
force W  -0.000000000000000   0.000000000000000   0.000000000000000 1
force W   0.000000000000000   0.000000000000000  -0.000000000000000 1
force W  -0.000000000000000   0.000000000000000   0.000000000000000 1
force W   0.000000000000000   0.000000000000000  -0.000000000000000 1
force W   0.000000000000000  -0.000000000000000  -0.000000000000000 1
force W  -0.000000000000000   0.000000000000000   0.000000000000000 1
force Se  -0.000000000000000   0.000000000000000  -0.027175071610396 1
force Se   0.000000000000000  -0.000000000000000   0.027175071610396 1
force Se  -0.000000000000000   0.000000000000000  -0.027175071610509 1
force Se  -0.000000000000000  -0.000000000000000   0.027175071610396 1
force Se  -0.000000000000000   0.000000000000000  -0.027175071610394 1
force Se   0.000000000000000  -0.000000000000000   0.027175071610396 1
force Se   0.000000000000000   0.000000000000000  -0.027175071610393 1
force Se   0.000000000000000  -0.000000000000000   0.027175071610282 1
force Se  -0.000000000000000   0.000000000000000  -0.027175071610394 1
force Se   0.000000000000000  -0.000000000000000   0.027175071610396 1
force Se  -0.000000000000000   0.000000000000000  -0.027175071610053 1
force Se   0.000000000000000  -0.000000000000000   0.027175071610396 1
force Se   0.000000000000000  -0.000000000000000  -0.027175071610396 1
force Se  -0.000000000000000   0.000000000000000   0.027175071610511 1
force Se  -0.000000000000000   0.000000000000000  -0.027175071610506 1
force Se  -0.000000000000000  -0.000000000000000   0.027175071610511 1
force Se  -0.000000000000000   0.000000000000000  -0.027175071610394 1
force Se   0.000000000000000  -0.000000000000000   0.027175071610397 1
force Se  -0.000000000000000   0.000000000000000  -0.027175071610507 1
force Se  -0.000000000000000  -0.000000000000000   0.027175071610509 1
force Se  -0.000000000000000   0.000000000000000  -0.027175071610396 1
force Se   0.000000000000000   0.000000000000000   0.027175071610396 1
force Se  -0.000000000000000   0.000000000000000  -0.027175071610280 1
force Se   0.000000000000000  -0.000000000000000   0.027175071610396 1
force Se  -0.000000000000000   0.000000000000000  -0.027175071610394 1
force Se   0.000000000000000  -0.000000000000000   0.027175071610397 1
force Se  -0.000000000000000   0.000000000000000  -0.027175071610279 1
force Se   0.000000000000000  -0.000000000000000   0.027175071610396 1
force Se  -0.000000000000000   0.000000000000000  -0.027175071610507 1
force Se  -0.000000000000000   0.000000000000000   0.027175071610394 1
force Se   0.000000000000000   0.000000000000000  -0.027175071610280 1
force Se   0.000000000000000  -0.000000000000000   0.027175071610282 1

# Energy components:
   A_diel =       -0.1127053930982646
   Eewald =     7934.5781450667218451
       EH =     9105.5169276675605943
     Eloc =   -18527.1053516198917350
      Enl =     -154.7794146717418187
      Exc =     -805.9542485189306262
 Exc_core =      564.8999400673642413
       KE =      476.0533417000131067
  MuShift =       -0.0112064139501076
-------------------------------------
     Etot =    -1406.9145721159520690
       TS =        0.0196823623451739
-------------------------------------
        F =    -1406.9342544782971345

IonicMinimize: Iter:   1  F: -1406.934254478297134  |grad|_K:  3.736e-04  alpha:  1.000e+00  linmin: -1.000e+00  t[s]:   5688.39

#--- Lowdin population analysis ---
# oxidation-state W -0.710 -0.710 -0.710 -0.710 -0.710 -0.710 -0.710 -0.710 -0.710 -0.710 -0.710 -0.710 -0.710 -0.710 -0.710 -0.710
# magnetic-moments W -0.000 -0.000 -0.000 -0.000 -0.000 -0.000 -0.000 -0.000 -0.000 -0.000 -0.000 -0.000 -0.000 -0.000 -0.000 -0.000
# oxidation-state Se +0.375 +0.375 +0.375 +0.375 +0.375 +0.375 +0.375 +0.375 +0.375 +0.375 +0.375 +0.375 +0.375 +0.375 +0.375 +0.375 +0.375 +0.375 +0.375 +0.375 +0.375 +0.375 +0.375 +0.375 +0.375 +0.375 +0.375 +0.375 +0.375 +0.375 +0.375 +0.375
# magnetic-moments Se -0.000 -0.000 -0.000 -0.000 -0.000 -0.000 -0.000 -0.000 -0.000 -0.000 -0.000 -0.000 -0.000 -0.000 -0.000 -0.000 -0.000 -0.000 -0.000 -0.000 -0.000 -0.000 -0.000 -0.000 -0.000 -0.000 -0.000 -0.000 -0.000 -0.000 -0.000 -0.000

	Linear fluid (dielectric constant: 78.4, screening length: 5.74355 Bohr) occupying 0.744296 of unit cell:	Completed after 6 iterations at t[s]:   5707.12

-------- Electronic minimization -----------
	Linear fluid (dielectric constant: 78.4, screening length: 5.74355 Bohr) occupying 0.744296 of unit cell:	Completed after 0 iterations at t[s]:   5725.09
	FillingsUpdate:  mu: -0.114715202  nElectrons: 417.000000  magneticMoment: [ Abs: 0.00009  Tot: -0.00000 ]
ElecMinimize: Iter:   0  F: -1406.934245806965919  |grad|_K:  3.821e-07  alpha:  1.000e+00
	Linear fluid (dielectric constant: 78.4, screening length: 5.74355 Bohr) occupying 0.744296 of unit cell:	Completed after 5 iterations at t[s]:   5771.44
	Linear fluid (dielectric constant: 78.4, screening length: 5.74355 Bohr) occupying 0.744296 of unit cell:	Completed after 2 iterations at t[s]:   5792.93
	FillingsUpdate:  mu: -0.115201741  nElectrons: 417.000000  magneticMoment: [ Abs: 0.00010  Tot: -0.00000 ]
	SubspaceRotationAdjust: set factor to 0.132
ElecMinimize: Iter:   1  F: -1406.934271301420040  |grad|_K:  2.163e-07  alpha:  8.259e-01  linmin:  4.631e-05  t[s]:   5818.76
	Linear fluid (dielectric constant: 78.4, screening length: 5.74355 Bohr) occupying 0.744297 of unit cell:	Completed after 2 iterations at t[s]:   5835.67
	Linear fluid (dielectric constant: 78.4, screening length: 5.74355 Bohr) occupying 0.744297 of unit cell:	Completed after 3 iterations at t[s]:   5856.53
	FillingsUpdate:  mu: -0.115280554  nElectrons: 417.000000  magneticMoment: [ Abs: 0.00010  Tot: -0.00000 ]
	SubspaceRotationAdjust: set factor to 0.167
ElecMinimize: Iter:   2  F: -1406.934285579084417  |grad|_K:  2.381e-07  alpha:  1.447e+00  linmin:  2.409e-05  t[s]:   5883.38
	Linear fluid (dielectric constant: 78.4, screening length: 5.74355 Bohr) occupying 0.744300 of unit cell:	Completed after 2 iterations at t[s]:   5900.36
	Linear fluid (dielectric constant: 78.4, screening length: 5.74355 Bohr) occupying 0.744299 of unit cell:	Completed after 0 iterations at t[s]:   5920.44
	FillingsUpdate:  mu: -0.115285013  nElectrons: 417.000000  magneticMoment: [ Abs: 0.00008  Tot: -0.00000 ]
	SubspaceRotationAdjust: set factor to 0.197
ElecMinimize: Iter:   3  F: -1406.934296610086903  |grad|_K:  2.341e-07  alpha:  9.147e-01  linmin:  4.242e-05  t[s]:   5946.95
	Linear fluid (dielectric constant: 78.4, screening length: 5.74355 Bohr) occupying 0.744305 of unit cell:	Completed after 1 iterations at t[s]:   5963.67
	Linear fluid (dielectric constant: 78.4, screening length: 5.74355 Bohr) occupying 0.744304 of unit cell:	Completed after 0 iterations at t[s]:   5984.16
	FillingsUpdate:  mu: -0.115243385  nElectrons: 417.000000  magneticMoment: [ Abs: 0.00005  Tot: -0.00000 ]
	SubspaceRotationAdjust: set factor to 0.228
ElecMinimize: Iter:   4  F: -1406.934305082594392  |grad|_K:  1.780e-07  alpha:  7.388e-01  linmin: -3.805e-06  t[s]:   6010.15
	Linear fluid (dielectric constant: 78.4, screening length: 5.74355 Bohr) occupying 0.744311 of unit cell:	Completed after 1 iterations at t[s]:   6026.78
	Linear fluid (dielectric constant: 78.4, screening length: 5.74355 Bohr) occupying 0.744311 of unit cell:	Completed after 0 iterations at t[s]:   6047.35
	FillingsUpdate:  mu: -0.115228210  nElectrons: 417.000000  magneticMoment: [ Abs: 0.00003  Tot: -0.00000 ]
	SubspaceRotationAdjust: set factor to 0.253
ElecMinimize: Iter:   5  F: -1406.934309500784593  |grad|_K:  1.175e-07  alpha:  6.569e-01  linmin: -1.819e-06  t[s]:   6073.02
	Linear fluid (dielectric constant: 78.4, screening length: 5.74355 Bohr) occupying 0.744317 of unit cell:	Completed after 0 iterations at t[s]:   6089.28
	Linear fluid (dielectric constant: 78.4, screening length: 5.74355 Bohr) occupying 0.744317 of unit cell:	Completed after 0 iterations at t[s]:   6109.86
	FillingsUpdate:  mu: -0.115229200  nElectrons: 417.000000  magneticMoment: [ Abs: 0.00001  Tot: -0.00000 ]
	SubspaceRotationAdjust: set factor to 0.279
ElecMinimize: Iter:   6  F: -1406.934311420457561  |grad|_K:  8.079e-08  alpha:  6.551e-01  linmin:  3.147e-08  t[s]:   6135.76
	Linear fluid (dielectric constant: 78.4, screening length: 5.74355 Bohr) occupying 0.744322 of unit cell:	Completed after 2 iterations at t[s]:   6152.86
	Linear fluid (dielectric constant: 78.4, screening length: 5.74355 Bohr) occupying 0.744321 of unit cell:	Completed after 0 iterations at t[s]:   6173.53
	FillingsUpdate:  mu: -0.115195331  nElectrons: 417.000000  magneticMoment: [ Abs: 0.00001  Tot: -0.00000 ]
	SubspaceRotationAdjust: set factor to 0.302
ElecMinimize: Iter:   7  F: -1406.934312037761629  |grad|_K:  4.746e-08  alpha:  4.643e-01  linmin: -1.765e-05  t[s]:   6199.27
	Linear fluid (dielectric constant: 78.4, screening length: 5.74355 Bohr) occupying 0.744322 of unit cell:	Completed after 0 iterations at t[s]:   6215.41
	Linear fluid (dielectric constant: 78.4, screening length: 5.74355 Bohr) occupying 0.744323 of unit cell:	Completed after 0 iterations at t[s]:   6235.09
	FillingsUpdate:  mu: -0.115195354  nElectrons: 417.000000  magneticMoment: [ Abs: 0.00001  Tot: -0.00000 ]
	SubspaceRotationAdjust: set factor to 0.327
ElecMinimize: Iter:   8  F: -1406.934312349368611  |grad|_K:  3.286e-08  alpha:  6.324e-01  linmin:  7.484e-09  t[s]:   6260.86
	Linear fluid (dielectric constant: 78.4, screening length: 5.74355 Bohr) occupying 0.744324 of unit cell:	Completed after 0 iterations at t[s]:   6277.63
	Linear fluid (dielectric constant: 78.4, screening length: 5.74355 Bohr) occupying 0.744324 of unit cell:	Completed after 0 iterations at t[s]:   6297.46
	FillingsUpdate:  mu: -0.115195277  nElectrons: 417.000000  magneticMoment: [ Abs: 0.00001  Tot: -0.00000 ]
	SubspaceRotationAdjust: set factor to 0.386
ElecMinimize: Iter:   9  F: -1406.934312477198091  |grad|_K:  2.167e-08  alpha:  5.587e-01  linmin:  1.850e-08  t[s]:   6323.24
	Linear fluid (dielectric constant: 78.4, screening length: 5.74355 Bohr) occupying 0.744323 of unit cell:	Completed after 0 iterations at t[s]:   6339.37
	Linear fluid (dielectric constant: 78.4, screening length: 5.74355 Bohr) occupying 0.744323 of unit cell:	Completed after 0 iterations at t[s]:   6359.30
	FillingsUpdate:  mu: -0.115194231  nElectrons: 417.000000  magneticMoment: [ Abs: 0.00001  Tot: -0.00000 ]
	SubspaceRotationAdjust: set factor to 0.524
ElecMinimize: Iter:  10  F: -1406.934312528468354  |grad|_K:  1.336e-08  alpha:  5.281e-01  linmin: -3.272e-05  t[s]:   6385.01
	Linear fluid (dielectric constant: 78.4, screening length: 5.74355 Bohr) occupying 0.744322 of unit cell:	Completed after 0 iterations at t[s]:   6401.51
	Linear fluid (dielectric constant: 78.4, screening length: 5.74355 Bohr) occupying 0.744322 of unit cell:	Completed after 0 iterations at t[s]:   6421.45
	FillingsUpdate:  mu: -0.115194185  nElectrons: 417.000000  magneticMoment: [ Abs: 0.00001  Tot: -0.00000 ]
	SubspaceRotationAdjust: set factor to 0.651
ElecMinimize: Iter:  11  F: -1406.934312562033483  |grad|_K:  1.205e-08  alpha:  7.304e-01  linmin: -9.342e-08  t[s]:   6447.54
	Linear fluid (dielectric constant: 78.4, screening length: 5.74355 Bohr) occupying 0.744320 of unit cell:	Completed after 0 iterations at t[s]:   6464.18
	Linear fluid (dielectric constant: 78.4, screening length: 5.74355 Bohr) occupying 0.744321 of unit cell:	Completed after 0 iterations at t[s]:   6484.28
	FillingsUpdate:  mu: -0.115194149  nElectrons: 417.000000  magneticMoment: [ Abs: 0.00000  Tot: +0.00000 ]
	SubspaceRotationAdjust: set factor to 0.781
	SubspaceRotationAdjust: resetting CG because factor has changed by 7.41705
	Linear fluid (dielectric constant: 78.4, screening length: 5.74355 Bohr) occupying 0.744321 of unit cell:	Completed after 0 iterations at t[s]:   6519.65
ElecMinimize: 	State modified externally: resetting search direction.
ElecMinimize: Iter:  12  F: -1406.934312577392802  |grad|_K:  7.661e-09  alpha:  4.986e-01
	Linear fluid (dielectric constant: 78.4, screening length: 5.74355 Bohr) occupying 0.744320 of unit cell:	Completed after 0 iterations at t[s]:   6561.70
	Linear fluid (dielectric constant: 78.4, screening length: 5.74355 Bohr) occupying 0.744320 of unit cell:	Completed after 0 iterations at t[s]:   6581.39
	FillingsUpdate:  mu: -0.115194131  nElectrons: 417.000000  magneticMoment: [ Abs: 0.00000  Tot: +0.00000 ]
	SubspaceRotationAdjust: set factor to 0.994
ElecMinimize: Iter:  13  F: -1406.934312584304280  |grad|_K:  5.058e-09  alpha:  5.550e-01  linmin:  1.414e-07  t[s]:   6607.70
	Linear fluid (dielectric constant: 78.4, screening length: 5.74355 Bohr) occupying 0.744320 of unit cell:	Completed after 0 iterations at t[s]:   6624.02
	Linear fluid (dielectric constant: 78.4, screening length: 5.74355 Bohr) occupying 0.744320 of unit cell:	Completed after 0 iterations at t[s]:   6644.40
	FillingsUpdate:  mu: -0.115194124  nElectrons: 417.000000  magneticMoment: [ Abs: 0.00000  Tot: +0.00000 ]
	SubspaceRotationAdjust: set factor to 1.11
ElecMinimize: Iter:  14  F: -1406.934312586843134  |grad|_K:  2.956e-09  alpha:  4.719e-01  linmin: -3.616e-08  t[s]:   6670.54
ElecMinimize: Converged (|Delta F|<1.000000e-08 for 2 iters).
Setting wave functions to eigenvectors of Hamiltonian

# Ionic positions in lattice coordinates:
ion W   0.083334439986111   0.166665542472221   0.500000000000000 1
ion W   0.333334439986111   0.166665542472221   0.500000000000000 1
ion W   0.583334439986111   0.166665542472221   0.500000000000000 1
ion W   0.833334439986111   0.166665542472221   0.500000000000000 1
ion W   0.083334439986111   0.416665542472221   0.500000000000000 1
ion W   0.333334439986111   0.416665542472221   0.500000000000000 1
ion W   0.583334439986111   0.416665542472221   0.500000000000000 1
ion W   0.833334439986111   0.416665542472221   0.500000000000000 1
ion W   0.083334439986111   0.666665542472221   0.500000000000000 1
ion W   0.333334439986111   0.666665542472221   0.500000000000000 1
ion W   0.583334439986111   0.666665542472221   0.500000000000000 1
ion W   0.833334439986111   0.666665542472221   0.500000000000000 1
ion W   0.083334439986111   0.916665542472221   0.500000000000000 1
ion W   0.333334439986111   0.916665542472221   0.500000000000000 1
ion W   0.583334439986111   0.916665542472221   0.500000000000000 1
ion W   0.833334439986111   0.916665542472221   0.500000000000000 1
ion Se   0.166667773319445   0.083332209138888   0.406761730065796 1
ion Se   0.166667773319445   0.083332209138888   0.593238269934204 1
ion Se   0.416667773319445   0.083332209138888   0.406761730065796 1
ion Se   0.416667773319445   0.083332209138888   0.593238269934204 1
ion Se   0.666667773319445   0.083332209138888   0.406761730065796 1
ion Se   0.666667773319445   0.083332209138888   0.593238269934204 1
ion Se   0.916667773319445   0.083332209138888   0.406761730065796 1
ion Se   0.916667773319445   0.083332209138888   0.593238269934204 1
ion Se   0.166667773319445   0.333332209138888   0.406761730065796 1
ion Se   0.166667773319445   0.333332209138888   0.593238269934204 1
ion Se   0.416667773319445   0.333332209138888   0.406761730065796 1
ion Se   0.416667773319445   0.333332209138888   0.593238269934204 1
ion Se   0.666667773319445   0.333332209138888   0.406761730065796 1
ion Se   0.666667773319445   0.333332209138888   0.593238269934204 1
ion Se   0.916667773319445   0.333332209138888   0.406761730065796 1
ion Se   0.916667773319445   0.333332209138888   0.593238269934204 1
ion Se   0.166667773319445   0.583332209138888   0.406761730065796 1
ion Se   0.166667773319445   0.583332209138888   0.593238269934204 1
ion Se   0.416667773319445   0.583332209138888   0.406761730065796 1
ion Se   0.416667773319445   0.583332209138888   0.593238269934204 1
ion Se   0.666667773319445   0.583332209138888   0.406761730065796 1
ion Se   0.666667773319445   0.583332209138888   0.593238269934204 1
ion Se   0.916667773319445   0.583332209138888   0.406761730065796 1
ion Se   0.916667773319445   0.583332209138888   0.593238269934204 1
ion Se   0.166667773319445   0.833332209138888   0.406761730065796 1
ion Se   0.166667773319445   0.833332209138888   0.593238269934204 1
ion Se   0.416667773319445   0.833332209138888   0.406761730065796 1
ion Se   0.416667773319445   0.833332209138888   0.593238269934204 1
ion Se   0.666667773319445   0.833332209138888   0.406761730065796 1
ion Se   0.666667773319445   0.833332209138888   0.593238269934204 1
ion Se   0.916667773319445   0.833332209138888   0.406761730065796 1
ion Se   0.916667773319445   0.833332209138888   0.593238269934204 1


# Forces in Lattice coordinates:
force W  -0.000000000000000   0.000000000000000  -0.000000000000000 1
force W   0.000000000000000  -0.000000000000000   0.000000000000000 1
force W  -0.000000000000000  -0.000000000000000  -0.000000000000000 1
force W  -0.000000000000000   0.000000000000000   0.000000000000000 1
force W   0.000000000000000   0.000000000000000   0.000000000000000 1
force W   0.000000000000000  -0.000000000000000   0.000000000000000 1
force W  -0.000000000000000   0.000000000000000  -0.000000000000000 1
force W   0.000000000000000   0.000000000000000   0.000000000000000 1
force W   0.000000000000000  -0.000000000000000  -0.000000000000000 1
force W   0.000000000000000  -0.000000000000000  -0.000000000000000 1
force W  -0.000000000000000  -0.000000000000000   0.000000000000000 1
force W  -0.000000000000000  -0.000000000000000  -0.000000000000000 1
force W  -0.000000000000000   0.000000000000000   0.000000000000000 1
force W  -0.000000000000000  -0.000000000000000  -0.000000000000000 1
force W  -0.000000000000000  -0.000000000000000  -0.000000000000000 1
force W   0.000000000000000   0.000000000000000   0.000000000000000 1
force Se  -0.000000000000000  -0.000000000000000  -0.006831610708356 1
force Se   0.000000000000000   0.000000000000000   0.006831610708126 1
force Se  -0.000000000000000  -0.000000000000000  -0.006831610708128 1
force Se   0.000000000000000   0.000000000000000   0.006831610708353 1
force Se  -0.000000000000000   0.000000000000000  -0.006831610708352 1
force Se  -0.000000000000000   0.000000000000000   0.006831610708355 1
force Se  -0.000000000000000   0.000000000000000  -0.006831610708355 1
force Se   0.000000000000000   0.000000000000000   0.006831610708352 1
force Se  -0.000000000000000  -0.000000000000000  -0.006831610708241 1
force Se   0.000000000000000  -0.000000000000000   0.006831610708355 1
force Se  -0.000000000000000  -0.000000000000000  -0.006831610708245 1
force Se   0.000000000000000   0.000000000000000   0.006831610708240 1
force Se  -0.000000000000000  -0.000000000000000  -0.006831610708469 1
force Se   0.000000000000000   0.000000000000000   0.006831610708357 1
force Se  -0.000000000000000  -0.000000000000000  -0.006831610708352 1
force Se   0.000000000000000   0.000000000000000   0.006831610708469 1
force Se  -0.000000000000000  -0.000000000000000  -0.006831610708238 1
force Se  -0.000000000000000   0.000000000000000   0.006831610708470 1
force Se   0.000000000000000  -0.000000000000000  -0.006831610708241 1
force Se   0.000000000000000   0.000000000000000   0.006831610708469 1
force Se  -0.000000000000000  -0.000000000000000  -0.006831610708357 1
force Se   0.000000000000000   0.000000000000000   0.006831610708128 1
force Se  -0.000000000000000  -0.000000000000000  -0.006831610708467 1
force Se   0.000000000000000   0.000000000000000   0.006831610708241 1
force Se  -0.000000000000000  -0.000000000000000  -0.006831610708467 1
force Se  -0.000000000000000   0.000000000000000   0.006831610708356 1
force Se   0.000000000000000  -0.000000000000000  -0.006831610708352 1
force Se  -0.000000000000000   0.000000000000000   0.006831610708469 1
force Se   0.000000000000000  -0.000000000000000  -0.006831610708355 1
force Se   0.000000000000000   0.000000000000000   0.006831610708467 1
force Se   0.000000000000000  -0.000000000000000  -0.006831610708356 1
force Se   0.000000000000000   0.000000000000000   0.006831610708352 1

# Energy components:
   A_diel =       -0.1126680372792045
   Eewald =     7932.4115637447557674
       EH =     9103.3926275315461680
     Eloc =   -18522.7743422128951352
      Enl =     -154.7863552925151396
      Exc =     -805.9291675854210553
 Exc_core =      564.8999128622285752
       KE =      475.9949835336551018
  MuShift =       -0.0112064139501076
-------------------------------------
     Etot =    -1406.9146518698737509
       TS =        0.0196607169694923
-------------------------------------
        F =    -1406.9343125868431343

IonicMinimize: Iter:   2  F: -1406.934312586843134  |grad|_K:  9.391e-05  alpha:  1.000e+00  linmin: -1.000e+00  t[s]:   6686.77
IonicMinimize: Converged (|grad|_K<1.000000e-04).

#--- Lowdin population analysis ---
# oxidation-state W -0.709 -0.709 -0.709 -0.709 -0.709 -0.709 -0.709 -0.709 -0.709 -0.709 -0.709 -0.709 -0.709 -0.709 -0.709 -0.709
# magnetic-moments W -0.000 -0.000 -0.000 -0.000 -0.000 -0.000 -0.000 -0.000 -0.000 -0.000 -0.000 -0.000 -0.000 -0.000 -0.000 -0.000
# oxidation-state Se +0.374 +0.374 +0.374 +0.374 +0.374 +0.374 +0.374 +0.374 +0.374 +0.374 +0.374 +0.374 +0.374 +0.374 +0.374 +0.374 +0.374 +0.374 +0.374 +0.374 +0.374 +0.374 +0.374 +0.374 +0.374 +0.374 +0.374 +0.374 +0.374 +0.374 +0.374 +0.374
# magnetic-moments Se +0.000 +0.000 +0.000 +0.000 +0.000 +0.000 +0.000 +0.000 +0.000 +0.000 +0.000 +0.000 +0.000 +0.000 +0.000 +0.000 +0.000 +0.000 +0.000 +0.000 +0.000 +0.000 +0.000 +0.000 +0.000 +0.000 +0.000 +0.000 +0.000 +0.000 +0.000 +0.000


Dumping 'NbTe2.fillings' ... done
Dumping 'NbTe2.wfns' ... done
Dumping 'NbTe2.fluidState' ... done
Dumping 'NbTe2.ionpos' ... done
Dumping 'NbTe2.eigenvals' ... done
End date and time: Fri Feb 12 05:42:30 2021  (Duration: 0-1:51:34.58)
Done!
