
*************** JDFTx 1.5.0  ***************

Start date and time: Sat Sep 26 15:18:07 2020
Executable jdftx_gpu with command-line: -i Charged.in -o Charged.out
Running on hosts (process indices):  amax (0-6)
Divided in process groups (process indices):  0 (0)  1 (1)  2 (2)  3 (3)  4 (4)  5 (5)  6 (6)
gpuInit: Found compatible cuda device 0 'Tesla K80'
gpuInit: Found compatible cuda device 1 'Tesla K80'
gpuInit: Found compatible cuda device 2 'Tesla K80'
gpuInit: Found compatible cuda device 3 'Tesla K80'
gpuInit: Found compatible cuda device 4 'Tesla K80'
gpuInit: Found compatible cuda device 5 'Tesla K80'
gpuInit: Found compatible cuda device 6 'Tesla K80'
gpuInit: Selected device 0
Resource initialization completed at t[s]:     18.59
Run totals: 7 processes, 24 threads, 7 GPUs


Input parsed successfully to the following command list (including defaults):

basis kpoint-dependent
cache-projectors no
coords-type Lattice
core-overlap-check none
coulomb-interaction Slab 001
coulomb-truncation-embed 0 0 0.5
davidson-band-ratio 1.1
dump End State
dump-name NbTe2.$VAR
elec-cutoff 20 100
elec-eigen-algo Davidson
elec-ex-corr gga-PBE
elec-initial-magnetization 30.000000 no
elec-smearing Gauss 0.0073499
electronic-minimize  \
	dirUpdateScheme      FletcherReeves \
	linminMethod         DirUpdateRecommended \
	nIterations          500 \
	history              15 \
	knormThreshold       0 \
	energyDiffThreshold  1e-08 \
	nEnergyDiff          2 \
	alphaTstart          1 \
	alphaTmin            1e-10 \
	updateTestStepSize   yes \
	alphaTreduceFactor   0.1 \
	alphaTincreaseFactor 3 \
	nAlphaAdjustMax      3 \
	wolfeEnergy          0.0001 \
	wolfeGradient        0.9 \
	fdTest               no
exchange-regularization WignerSeitzTruncated
fluid LinearPCM 298.000000 1.013250
fluid-anion F- 1 MeanFieldLJ \
	epsBulk 1 \
	pMol 0 \
	epsInf 1 \
	Pvap 0 \
	sigmaBulk 0 \
	Rvdw 2.24877 \
	Res 0 \
	tauNuc 343133
fluid-cation Na+ 1 MeanFieldLJ \
	epsBulk 1 \
	pMol 0 \
	epsInf 1 \
	Pvap 0 \
	sigmaBulk 0 \
	Rvdw 2.19208 \
	Res 0 \
	tauNuc 343133
fluid-ex-corr lda-TF lda-PZ
fluid-gummel-loop 10 1.000000e-05
fluid-minimize  \
	dirUpdateScheme      PolakRibiere \
	linminMethod         DirUpdateRecommended \
	nIterations          400 \
	history              15 \
	knormThreshold       1e-11 \
	energyDiffThreshold  0 \
	nEnergyDiff          2 \
	alphaTstart          1 \
	alphaTmin            1e-10 \
	updateTestStepSize   yes \
	alphaTreduceFactor   0.1 \
	alphaTincreaseFactor 3 \
	nAlphaAdjustMax      6 \
	wolfeEnergy          0.0001 \
	wolfeGradient        0.9 \
	fdTest               no
fluid-solvent H2O 55.338 ScalarEOS \
	epsBulk 78.4 \
	pMol 0.92466 \
	epsInf 1.77 \
	Pvap 1.06736e-10 \
	sigmaBulk 4.62e-05 \
	Rvdw 2.61727 \
	Res 1.42 \
	tauNuc 343133 \
	poleEl 15 7 1
forces-output-coords Positions
initial-state NbTe2.$VAR
ion Cr   0.166669997000000   0.166669992000003   0.499824525668402 1
ion Cr   0.333329990000003   0.333329999000000   0.500175474331598 1
ion Cr   0.666670031999999   0.166669992000003   0.499824525668402 1
ion Cr   0.833329919999997   0.333329999000000   0.500175474331598 1
ion Cr   0.166669954000000   0.666670042000000   0.499824525668402 1
ion Cr   0.333329958000000   0.833329958999997   0.500175474331598 1
ion Cr   0.666669988999999   0.666670042000000   0.499824525668402 1
ion Cr   0.833329923000001   0.833329958999997   0.500175474331598 1
ion Ge   0.000000000000000  -0.000000000000000   0.434540095758764 1
ion Ge   0.000000000000000  -0.000000000000000   0.565469934241234 1
ion Ge   0.500000000000000  -0.000000000000000   0.434540095758764 1
ion Ge   0.500000000000000  -0.000000000000000   0.565469934241234 1
ion Ge   0.000000000000000   0.500000000999997   0.434540095758764 1
ion Ge   0.000000000000000   0.500000000999997   0.565469934241234 1
ion Ge   0.500000016999998   0.500000000999997   0.434540095758764 1
ion Ge   0.500000016999998   0.500000000999997   0.565469934241234 1
ion Te   0.312842621140774   0.000208036851459   0.594284143237768 1
ion Te   0.000208033851455   0.186949334007773   0.594284143237768 1
ion Te   0.186949324007772   0.312842635140776   0.594284143237768 1
ion Te   0.187167371859224   0.499771941148540   0.405715856762232 1
ion Te   0.499771984148540   0.313060669992231   0.405715856762232 1
ion Te   0.313060652992233   0.187167369859224   0.405715856762232 1
ion Te   0.812842726140773   0.000208036851459   0.594284143237768 1
ion Te   0.500208033851455   0.186949334007773   0.594284143237768 1
ion Te   0.686949289007773   0.312842635140776   0.594284143237768 1
ion Te   0.687167371859224   0.499771941148540   0.405715856762232 1
ion Te   0.999772019148546   0.313060669992231   0.405715856762232 1
ion Te   0.813060686992228   0.187167369859224   0.405715856762232 1
ion Te   0.312842631140775   0.500208051851457   0.594284143237768 1
ion Te   0.000207995851459   0.686949375007773   0.594284143237768 1
ion Te   0.186949346007774   0.812842696140770   0.594284143237768 1
ion Te   0.187167368859228   0.999771982148540   0.405715856762232 1
ion Te   0.499771967148542   0.813060670992227   0.405715856762232 1
ion Te   0.313060644992232   0.687167349859230   0.405715856762232 1
ion Te   0.812842701140774   0.500208051851457   0.594284143237768 1
ion Te   0.500207995851459   0.686949375007773   0.594284143237768 1
ion Te   0.686949311007767   0.812842696140770   0.594284143237768 1
ion Te   0.687167334859225   0.999771982148540   0.405715856762232 1
ion Te   0.999772071148544   0.813060670992227   0.405715856762232 1
ion Te   0.813060679992231   0.687167349859230   0.405715856762232 1
ion-species GBRV/$ID_pbe.uspp
ion-width Ecut
ionic-minimize  \
	dirUpdateScheme      L-BFGS \
	linminMethod         DirUpdateRecommended \
	nIterations          500 \
	history              15 \
	knormThreshold       0.0001 \
	energyDiffThreshold  1e-06 \
	nEnergyDiff          2 \
	alphaTstart          1 \
	alphaTmin            1e-10 \
	updateTestStepSize   yes \
	alphaTreduceFactor   0.1 \
	alphaTincreaseFactor 3 \
	nAlphaAdjustMax      3 \
	wolfeEnergy          0.0001 \
	wolfeGradient        0.9 \
	fdTest               no
kpoint   0.000000000000   0.000000000000   0.000000000000  1.00000000000000
kpoint-folding 3 3 1 
latt-move-scale 1 1 1
latt-scale 1 1 1 
lattice Triclinic 25.8976 25.8976 34.8552 90 90 60
lattice-minimize  \
	dirUpdateScheme      L-BFGS \
	linminMethod         DirUpdateRecommended \
	nIterations          0 \
	history              15 \
	knormThreshold       0 \
	energyDiffThreshold  1e-06 \
	nEnergyDiff          2 \
	alphaTstart          1 \
	alphaTmin            1e-10 \
	updateTestStepSize   yes \
	alphaTreduceFactor   0.1 \
	alphaTincreaseFactor 3 \
	nAlphaAdjustMax      3 \
	wolfeEnergy          0.0001 \
	wolfeGradient        0.9 \
	fdTest               no
lcao-params -1 1e-06 0.0073499
pcm-variant CANDLE
spintype z-spin
subspace-rotation-factor 1 yes
symmetries automatic
symmetry-threshold 0.0001
target-mu -0.171252 no




---------- Setting up symmetries ----------

Found 24 point-group symmetries of the bravais lattice
Found 4 space-group symmetries with basis
Applied RMS atom displacement 7.74555e-07 bohrs to make symmetries exact.

---------- Initializing the Grid ----------
R = 
[    25.8976    12.9488          0  ]
[          0    22.4279          0  ]
[          0          0    34.8552  ]
unit cell volume = 20244.9
G =
[   0.242617  -0.140075          0  ]
[          0    0.28015          0  ]
[          0          0   0.180265  ]
Minimum fftbox size, Smin = [  120  120  160  ]
Chosen fftbox size, S = [  120  120  160  ]

---------- Initializing tighter grid for wavefunction operations ----------
R = 
[    25.8976    12.9488          0  ]
[          0    22.4279          0  ]
[          0          0    34.8552  ]
unit cell volume = 20244.9
G =
[   0.242617  -0.140075          0  ]
[          0    0.28015          0  ]
[          0          0   0.180265  ]
Minimum fftbox size, Smin = [  108  108  144  ]
Chosen fftbox size, S = [  108  108  144  ]

---------- Exchange Correlation functional ----------
Initalized PBE GGA exchange.
Initalized PBE GGA correlation.

---------- Setting up pseudopotentials ----------
Width of ionic core gaussian charges (only for fluid interactions / plotting) set to 0.397384

Reading pseudopotential file '/home/guoxy/vasp/jdftx-1.5.0/build/pseudopotentials/GBRV/cr_pbe.uspp':
  Title: Cr.  Created by USPP 7.3.6 on 15-6-15
  Reference state energy: -87.029289.  14 valence electrons in orbitals:
    |300>  occupation: 2  eigenvalue: -3.285614
    |310>  occupation: 6  eigenvalue: -2.226709
    |400>  occupation: 1.6  eigenvalue: -0.454946
    |320>  occupation: 3.4  eigenvalue: -0.614185
  lMax: 2  lLocal: 3  QijEcut: 6
  6 projectors sampled on a log grid with 595 points:
    l: 0  eig: -3.285615  rCut: 1.55
    l: 0  eig: -0.454949  rCut: 1.55
    l: 1  eig: -2.226708  rCut: 1.55
    l: 1  eig: 0.500000  rCut: 1.55
    l: 2  eig: -0.614184  rCut: 1.7
    l: 2  eig: 0.500000  rCut: 1.7
  Partial core density with radius 0.75
  Transforming core density to a uniform radial grid of dG=0.02 with 1630 points.
  Transforming local potential to a uniform radial grid of dG=0.02 with 1630 points.
  Transforming nonlocal projectors to a uniform radial grid of dG=0.02 with 432 points.
  Transforming density augmentations to a uniform radial grid of dG=0.02 with 1630 points.
  Transforming atomic orbitals to a uniform radial grid of dG=0.02 with 432 points.
  Core radius for overlap checks: 1.70 bohrs.

Reading pseudopotential file '/home/guoxy/vasp/jdftx-1.5.0/build/pseudopotentials/GBRV/ge_pbe.uspp':
  Title: Ge.  Created by USPP 7.3.6 on 31-3-15
  Reference state energy: -106.660278.  14 valence electrons in orbitals:
    |320>  occupation: 10  eigenvalue: -1.077168
    |400>  occupation: 2  eigenvalue: -0.431112
    |410>  occupation: 2  eigenvalue: -0.143157
  lMax: 2  lLocal: 3  QijEcut: 6
  6 projectors sampled on a log grid with 621 points:
    l: 0  eig: -0.431110  rCut: 1.9
    l: 0  eig: 1.000000  rCut: 1.9
    l: 1  eig: -0.143157  rCut: 1.9
    l: 1  eig: 1.000000  rCut: 1.9
    l: 2  eig: -1.077168  rCut: 1.7
    l: 2  eig: 0.000000  rCut: 1.7
  Partial core density with radius 0.8
  Transforming core density to a uniform radial grid of dG=0.02 with 1630 points.
  Transforming local potential to a uniform radial grid of dG=0.02 with 1630 points.
  Transforming nonlocal projectors to a uniform radial grid of dG=0.02 with 432 points.
  Transforming density augmentations to a uniform radial grid of dG=0.02 with 1630 points.
  Transforming atomic orbitals to a uniform radial grid of dG=0.02 with 432 points.
  Core radius for overlap checks: 2.00 bohrs.

Reading pseudopotential file '/home/guoxy/vasp/jdftx-1.5.0/build/pseudopotentials/GBRV/te_pbe.uspp':
  Title: Te.  Created by USPP 7.3.6 on 14-9-2013
  Reference state energy: -13.134220.  6 valence electrons in orbitals:
    |500>  occupation: 2  eigenvalue: -0.555231
    |510>  occupation: 4  eigenvalue: -0.218781
  lMax: 2  lLocal: 2  QijEcut: 5
  5 projectors sampled on a log grid with 723 points:
    l: 0  eig: -0.555229  rCut: 2.1
    l: 0  eig: 1.000000  rCut: 2.1
    l: 1  eig: -0.218780  rCut: 2.1
    l: 1  eig: 1.000000  rCut: 2.1
    l: 2  eig: 1.000000  rCut: 2.6
  Partial core density with radius 1.8
  Transforming core density to a uniform radial grid of dG=0.02 with 1630 points.
  Transforming local potential to a uniform radial grid of dG=0.02 with 1630 points.
  Transforming nonlocal projectors to a uniform radial grid of dG=0.02 with 432 points.
  Transforming density augmentations to a uniform radial grid of dG=0.02 with 1630 points.
  Transforming atomic orbitals to a uniform radial grid of dG=0.02 with 432 points.
  Core radius for overlap checks: 2.60 bohrs.

Initialized 3 species with 40 total atoms.

Folded 1 k-points by 3x3x1 to 9 k-points.

---------- Setting up k-points, bands, fillings ----------
Adding inversion symmetry to k-mesh for non-inversion-symmetric unit cell.
Reduced to 5 k-points under symmetry. 
Computing the number of bands and number of electrons
Calculating initial fillings.
nElectrons: 368.000000   nBands: 248   nStates: 10

----- Setting up reduced wavefunction bases (one per k-point) -----
average nbasis = 86467.889 , ideal nbasis = 86487.914

---------- Setting up coulomb interaction ----------
Fluid mode embedding: using embedded box, but periodic Coulomb kernel.
(Fluid response is responsible for (approximate) separation between periodic images.)
Setting up double-sized grid for truncated Coulomb potentials:
R = 
[    25.8976    12.9488          0  ]
[          0    22.4279          0  ]
[          0          0    69.7105  ]
unit cell volume = 40489.9
G =
[   0.242617  -0.140075          0  ]
[          0    0.28015          0  ]
[          0          0  0.0901326  ]
Chosen fftbox size, S = [  120  120  320  ]
Integer grid location selected as the embedding center:
   Grid: [  0  0  80  ]
   Lattice: [  0  0  0.5  ]
   Cartesian: [  0  0  17.4276  ]
Constructing Wigner-Seitz cell: 8 faces (6 quadrilaterals, 2 hexagons)
Range-separation parameter for embedded mesh potentials due to point charges: 0.588822 bohrs.

Initializing van der Waals corrections
	NOTE: vdW corrections apply only for interactions with fluid.
	Cr:  C6:  187.33 Eh-a0^6  R0: 2.952 a0
	Ge:  C6:  296.60 Eh-a0^6  R0: 3.264 a0
	Te:  C6:  550.54 Eh-a0^6  R0: 3.575 a0

---------- Setting up ewald sum ----------
Optimum gaussian width for ewald sums = 7.407680 bohr.
Real space sum over 847 unit cells with max indices [  5  5  3  ]
Reciprocal space sum over 7425 terms with max indices [  7  7  16  ]

---------- Allocating electronic variables ----------
Initializing wave functions:  linear combination of atomic orbitals
Cr pseudo-atom occupations:   s ( 2 0 )  p ( 6 )  d ( 6 )
Ge pseudo-atom occupations:   s ( 2 )  p ( 2 )  d ( 10 )
Te pseudo-atom occupations:   s ( 2 )  p ( 4 )
	FillingsUpdate:  mu: -0.171251800  nElectrons: 368.000000  magneticMoment: [ Abs: 5.50495  Tot: +5.50283 ]
LCAOMinimize: Iter:   0  G: -1455.6515526116916135  |grad|_K:  1.094e-02  alpha:  1.000e+00
	FillingsUpdate:  mu: -0.171251800  nElectrons: 368.000000  magneticMoment: [ Abs: 5.05337  Tot: +5.05295 ]
LCAOMinimize: Iter:   1  G: -1467.0187284903147429  |grad|_K:  1.224e-02  alpha:  1.230e-01  linmin: -5.398e-02  cgtest:  7.045e-01  t[s]:     76.27
LCAOMinimize: 	Wrong curvature in test step, increasing alphaT to 3.689230e-01.
	FillingsUpdate:  mu: -0.171251800  nElectrons: 368.000000  magneticMoment: [ Abs: 5.11662  Tot: +5.10787 ]
LCAOMinimize: Iter:   2  G: -1491.2190506391739291  |grad|_K:  1.372e-02  alpha: -1.770e-01  linmin: -9.509e-02  cgtest:  5.581e-01  t[s]:     93.98
LCAOMinimize: 	Step increased G by 1.670203e+02, reducing alpha to 2.559202e-02.
	FillingsUpdate:  mu: -0.171251800  nElectrons: 368.000000  magneticMoment: [ Abs: 4.99023  Tot: +4.97664 ]
LCAOMinimize: Iter:   3  G: -1499.7234987031324636  |grad|_K:  1.585e-02  alpha:  2.559e-02  linmin: -1.254e-01  cgtest:  7.597e-01  t[s]:    124.19
LCAOMinimize: 	Wrong curvature in test step, increasing alphaT to 7.677605e-02.
	FillingsUpdate:  mu: -0.171251800  nElectrons: 368.000000  magneticMoment: [ Abs: 5.14372  Tot: +5.11701 ]
LCAOMinimize: Iter:   4  G: -1514.1746225883182433  |grad|_K:  2.563e-02  alpha: -2.003e-02  linmin: -2.013e-01  cgtest:  5.287e-01  t[s]:    141.79
LCAOMinimize: 	Step increased G by 2.917000e+02, reducing alpha to 4.324411e-02.
	FillingsUpdate:  mu: -0.171251800  nElectrons: 368.000000  magneticMoment: [ Abs: 5.17598  Tot: +5.17323 ]
LCAOMinimize: Iter:   5  G: -1537.6536246011871754  |grad|_K:  8.770e-03  alpha:  4.324e-02  linmin:  1.057e-01  cgtest: -2.665e+00  t[s]:    171.49
LCAOMinimize: 	Bad step direction: g.d > 0.
LCAOMinimize: 	Undoing step.
LCAOMinimize: 	Step failed: resetting search direction.
	FillingsUpdate:  mu: -0.171251800  nElectrons: 368.000000  magneticMoment: [ Abs: 5.17598  Tot: +5.17323 ]
LCAOMinimize: Iter:   6  G: -1537.6536246011871754  |grad|_K:  8.770e-03  alpha:  0.000e+00
LCAOMinimize: 	Wrong curvature in test step, increasing alphaT to 1.297323e-01.
	FillingsUpdate:  mu: -0.171251800  nElectrons: 368.000000  magneticMoment: [ Abs: 5.06659  Tot: +5.06056 ]
LCAOMinimize: Iter:   7  G: -1540.0481353863931417  |grad|_K:  9.979e-03  alpha: -1.342e-01  linmin: -1.315e-01  cgtest:  8.201e-01  t[s]:    199.89
LCAOMinimize: 	Step increased G by 4.566835e+01, reducing alpha to 2.472811e-02.
	FillingsUpdate:  mu: -0.171251800  nElectrons: 368.000000  magneticMoment: [ Abs: 5.03821  Tot: +5.02900 ]
LCAOMinimize: Iter:   8  G: -1542.6372018155450405  |grad|_K:  1.195e-02  alpha:  2.473e-02  linmin: -1.540e-01  cgtest:  7.858e-01  t[s]:    228.66
LCAOMinimize: 	Wrong curvature in test step, increasing alphaT to 7.418432e-02.
	FillingsUpdate:  mu: -0.171251800  nElectrons: 368.000000  magneticMoment: [ Abs: 4.84683  Tot: +4.83466 ]
LCAOMinimize: Iter:   9  G: -1548.4347203723607436  |grad|_K:  1.785e-02  alpha: -2.307e-02  linmin: -1.957e-01  cgtest:  5.993e-01  t[s]:    246.00
LCAOMinimize: 	Step increased G by 9.281132e+01, reducing alpha to 3.832386e-02.
LCAOMinimize: 	Step increased G by 1.267093e+01, reducing alpha to 3.832386e-03.
	FillingsUpdate:  mu: -0.171251800  nElectrons: 368.000000  magneticMoment: [ Abs: 4.58143  Tot: +4.57631 ]
LCAOMinimize: Iter:  10  G: -1552.0463180369686143  |grad|_K:  2.298e-02  alpha:  3.832e-03  linmin: -2.235e-01  cgtest:  7.309e-01  t[s]:    287.16
LCAOMinimize: 	Wrong curvature in test step, increasing alphaT to 1.149716e-02.
	FillingsUpdate:  mu: -0.171251800  nElectrons: 368.000000  magneticMoment: [ Abs: 3.67828  Tot: +3.67781 ]
LCAOMinimize: Iter:  11  G: -1559.6697308529223847  |grad|_K:  3.290e-02  alpha: -3.030e-03  linmin: -2.801e-01  cgtest:  6.072e-01  t[s]:    304.36
LCAOMinimize: 	Step increased G by 1.137751e+02, reducing alpha to 4.377491e-02.
LCAOMinimize: 	Step increased G by 5.789831e+01, reducing alpha to 4.377491e-03.
	FillingsUpdate:  mu: -0.171251800  nElectrons: 368.000000  magneticMoment: [ Abs: 1.72763  Tot: +1.57641 ]
LCAOMinimize: Iter:  12  G: -1573.9767699121055102  |grad|_K:  2.198e-02  alpha:  4.377e-03  linmin: -3.080e-01  cgtest:  9.629e-01  t[s]:    345.88
LCAOMinimize: Encountered beta<0, resetting CG.
LCAOMinimize: 	Wrong curvature in test step, increasing alphaT to 1.313247e-02.
	FillingsUpdate:  mu: -0.171251800  nElectrons: 368.000000  magneticMoment: [ Abs: 1.95228  Tot: +1.80945 ]
LCAOMinimize: Iter:  13  G: -1575.3099285927680739  |grad|_K:  2.167e-02  alpha: -1.328e-01  linmin: -2.230e-01  cgtest:  9.467e-01  t[s]:    363.91
LCAOMinimize: 	Step increased G by 7.415931e+01, reducing alpha to 3.789054e-02.
	FillingsUpdate:  mu: -0.171251800  nElectrons: 368.000000  magneticMoment: [ Abs: 1.96856  Tot: +1.87036 ]
LCAOMinimize: Iter:  14  G: -1583.9085808062729939  |grad|_K:  5.560e-03  alpha:  3.789e-02  linmin: -2.344e-01  cgtest:  9.508e-01  t[s]:    394.24
LCAOMinimize: Encountered beta<0, resetting CG.
	FillingsUpdate:  mu: -0.171251800  nElectrons: 368.000000  magneticMoment: [ Abs: 1.53901  Tot: +1.36266 ]
LCAOMinimize: Iter:  15  G: -1584.4853198700525354  |grad|_K:  1.032e-03  alpha:  5.629e-02  linmin: -2.604e-01  cgtest:  9.247e-01  t[s]:    412.39
LCAOMinimize: Encountered beta<0, resetting CG.
	FillingsUpdate:  mu: -0.171251800  nElectrons: 368.000000  magneticMoment: [ Abs: 1.61931  Tot: +1.45498 ]
LCAOMinimize: Iter:  16  G: -1584.5197907476403998  |grad|_K:  1.022e-03  alpha:  1.322e-01  linmin:  9.587e-02  cgtest: -3.907e-01  t[s]:    430.59
	FillingsUpdate:  mu: -0.171251800  nElectrons: 368.000000  magneticMoment: [ Abs: 1.64119  Tot: +1.48684 ]
LCAOMinimize: Iter:  17  G: -1584.5219120956301140  |grad|_K:  8.696e-04  alpha:  1.299e-02  linmin:  2.734e-03  cgtest:  7.383e-01  t[s]:    447.73
	FillingsUpdate:  mu: -0.171251800  nElectrons: 368.000000  magneticMoment: [ Abs: 1.67425  Tot: +1.53927 ]
LCAOMinimize: Iter:  18  G: -1584.5324665549574092  |grad|_K:  5.677e-04  alpha:  3.245e-02  linmin: -1.992e-01  cgtest:  9.810e-01  t[s]:    469.20
LCAOMinimize: Encountered beta<0, resetting CG.
	FillingsUpdate:  mu: -0.171251800  nElectrons: 368.000000  magneticMoment: [ Abs: 1.73020  Tot: +1.61560 ]
LCAOMinimize: Iter:  19  G: -1584.5375596836479417  |grad|_K:  3.939e-04  alpha:  4.448e-02  linmin: -1.331e-01  cgtest:  7.791e-01  t[s]:    490.82
LCAOMinimize: Encountered beta<0, resetting CG.
	FillingsUpdate:  mu: -0.171251800  nElectrons: 368.000000  magneticMoment: [ Abs: 1.78635  Tot: +1.68329 ]
LCAOMinimize: Iter:  20  G: -1584.5390547761724065  |grad|_K:  4.862e-04  alpha:  3.403e-02  linmin: -3.125e-02  cgtest:  2.215e-01  t[s]:    512.76
	FillingsUpdate:  mu: -0.171251800  nElectrons: 368.000000  magneticMoment: [ Abs: 1.93944  Tot: +1.86166 ]
LCAOMinimize: Iter:  21  G: -1584.5425983835473289  |grad|_K:  3.413e-04  alpha:  3.789e-02  linmin: -6.478e-02  cgtest: -7.527e-02  t[s]:    534.87
	FillingsUpdate:  mu: -0.171251800  nElectrons: 368.000000  magneticMoment: [ Abs: 2.22064  Tot: +2.16455 ]
LCAOMinimize: Iter:  22  G: -1584.5461770750778214  |grad|_K:  5.227e-04  alpha:  5.712e-02  linmin: -2.479e-02  cgtest: -1.600e-01  t[s]:    556.46
	FillingsUpdate:  mu: -0.171251800  nElectrons: 368.000000  magneticMoment: [ Abs: 3.47438  Tot: +3.43716 ]
LCAOMinimize: Iter:  23  G: -1584.5568685969537910  |grad|_K:  6.148e-04  alpha:  7.604e-02  linmin:  5.090e-04  cgtest: -4.296e-01  t[s]:    578.25
	FillingsUpdate:  mu: -0.171251800  nElectrons: 368.000000  magneticMoment: [ Abs: 4.56474  Tot: +4.48284 ]
LCAOMinimize: Iter:  24  G: -1584.5621161962355927  |grad|_K:  5.521e-04  alpha:  2.880e-02  linmin:  1.587e-02  cgtest:  4.336e-01  t[s]:    599.48
LCAOMinimize: 	Wrong curvature in test step, increasing alphaT to 8.641317e-02.
	FillingsUpdate:  mu: -0.171251800  nElectrons: 368.000000  magneticMoment: [ Abs: 5.34673  Tot: +5.20463 ]
LCAOMinimize: Iter:  25  G: -1584.5688132511907042  |grad|_K:  5.896e-04  alpha: -2.225e-02  linmin: -4.562e-02  cgtest:  9.644e-01  t[s]:    620.12
LCAOMinimize: 	Wrong curvature in test step, increasing alphaT to 3.000000e+00.
	FillingsUpdate:  mu: -0.171251800  nElectrons: 368.000000  magneticMoment: [ Abs: 17.82941  Tot: +17.18463 ]
LCAOMinimize: Iter:  26  G: -1584.8071983481943334  |grad|_K:  2.535e-03  alpha: -1.162e+01  linmin: -6.303e-03  cgtest:  1.066e-01  t[s]:    641.13
LCAOMinimize: 	Step increased G by 1.543987e-01, reducing alpha to 1.062715e-02.
	FillingsUpdate:  mu: -0.171251800  nElectrons: 368.000000  magneticMoment: [ Abs: 19.49364  Tot: +18.70350 ]
LCAOMinimize: Iter:  27  G: -1584.8585948113204722  |grad|_K:  2.019e-03  alpha:  1.063e-02  linmin: -5.267e-02  cgtest:  1.017e+00  t[s]:    678.54
LCAOMinimize: Encountered beta<0, resetting CG.
LCAOMinimize: 	Predicted alpha/alphaT>3.000000, increasing alphaT to 3.188145e-02.
	FillingsUpdate:  mu: -0.171251800  nElectrons: 368.000000  magneticMoment: [ Abs: 20.52253  Tot: +19.50931 ]
LCAOMinimize: Iter:  28  G: -1584.9501622179659535  |grad|_K:  1.817e-03  alpha:  7.432e-02  linmin:  3.621e-03  cgtest: -1.728e-02  t[s]:    708.62
	FillingsUpdate:  mu: -0.171251800  nElectrons: 368.000000  magneticMoment: [ Abs: 21.82472  Tot: +20.44539 ]
LCAOMinimize: Iter:  29  G: -1585.0213477986712860  |grad|_K:  1.226e-03  alpha:  7.085e-02  linmin:  1.602e-02  cgtest:  9.367e-02  t[s]:    731.28
LCAOMinimize: 	Wrong curvature in test step, increasing alphaT to 2.125594e-01.
	FillingsUpdate:  mu: -0.171251800  nElectrons: 368.000000  magneticMoment: [ Abs: 22.96265  Tot: +21.31196 ]
LCAOMinimize: Iter:  30  G: -1585.0877721030731209  |grad|_K:  7.201e-04  alpha: -5.462e-01  linmin: -2.157e-01  cgtest:  1.033e+00  t[s]:    753.41
LCAOMinimize: Encountered beta<0, resetting CG.
LCAOMinimize: None of the convergence criteria satisfied after 30 iterations.
----- createFluidSolver() ----- (Fluid-side solver setup)
   Initializing fluid molecule 'H2O'
     Initializing site 'O'
       Electron density: proportional to exp(-r/0.36935)*erfc((r-0.51523)/0.36823) with norm 6.826
       Charge density: gaussian nuclear width 0.478731 with net site charge 0.826
       Polarizability: cuspless exponential with width 0.32 and norm 3.73
       Hard sphere radius: 2.57003 bohrs
       Positions in reference frame:
         [ +0.000000 +0.000000 +0.000000 ]
     Initializing site 'H'
       Electron density: proportional to exp(-r/0.34641)*erfc((r-0)/0.390882) with norm 0.587
       Charge density: gaussian nuclear width 0.377945 with net site charge -0.413
       Polarizability: cuspless exponential with width 0.39 and norm 3.3
       Positions in reference frame:
         [ +0.000000 -1.441945 +1.122523 ]
         [ +0.000000 +1.441945 +1.122523 ]
     Net charge: 0   dipole magnitude: 0.927204
     Initializing spherical shell mfKernel with radius 2.61727 Bohr
     deltaS corrections:
       site 'O': -7.54299
       site 'H': -6.83917
   Initializing fluid molecule 'Na+'
     Initializing site 'Na'
       Electron density: proportional to exp(-r/0.19682)*erfc((r-0.71491)/0.41314) with norm 8.1383
       Charge density: gaussian nuclear width 0.365347 with net site charge -1
       Hard sphere radius: 1.86327 bohrs
       Positions in reference frame:
         [ +0.000000 +0.000000 +0.000000 ]
     Net charge: -1   dipole magnitude: 0
     Initializing gaussian mfKernel with width: 1.55004 Bohr
     deltaS corrections:
       site 'Na': -22.3555
   Initializing fluid molecule 'F-'
     Initializing site 'F'
       Electron density: proportional to exp(-r/0.38886)*erfc((r-0)/0.438782) with norm 8
       Charge density: gaussian nuclear width 0.374796 with net site charge 1
       Hard sphere radius: 2.39995 bohrs
       Positions in reference frame:
         [ +0.000000 +0.000000 +0.000000 ]
     Net charge: 1   dipole magnitude: 0
     Initializing gaussian mfKernel with width: 1.59012 Bohr
     deltaS corrections:
       site 'F': -9.04335

Correction to mu due to finite nuclear width = -0.00901781
   Cavity determined by nc: 0.00142 and sigma: 0.707107
   Nonlocal vdW cavity from gaussian model electron density with norm = 8 and sigma = 0.993594 bohr
   Charge asymmetry in cavity with sensitivity pCavity = 36.5 e-bohr/Eh
   Electrostatic cavity expanded by eta = 1.46 bohrs
   Weighted density cavitation model constrained by Nbulk: 0.0049383 bohr^-3, Pvap: 3.14029 kPa, Rvdw: 2.61727 bohr and sigmaBulk: 4.62e-05 Eh/bohr^2 at T: 298 K.
   Weighted density dispersion model using vdW pair potentials with single solvent site with sqrtC6eff: 0.77 SI.


---- Citations for features of the code used in this run ----

   Software package:
      R. Sundararaman, K. Letchworth-Weaver, K.A. Schwarz, D. Gunceler, Y. Ozhabes and T.A. Arias, 'JDFTx: software for joint density-functional theory', SoftwareX 6, 278 (2017)

   gga-PBE exchange-correlation functional:
      J.P. Perdew, K. Burke and M. Ernzerhof, Phys. Rev. Lett. 77, 3865 (1996)

   Pseudopotentials:
      KF Garrity, JW Bennett, KM Rabe and D Vanderbilt, Comput. Mater. Sci. 81, 446 (2014)

   Truncated Coulomb potentials:
      R. Sundararaman and T.A. Arias, Phys. Rev. B 87, 165122 (2013)

   Van der Waals correction pair-potentials:
      S. Grimme, J. Comput. Chem. 27, 1787 (2006)

   Charge-asymmetric nonlocally-determined local-electric (CANDLE) solvation model:
      R. Sundararaman and W.A. Goddard III, J. Chem. Phys. 142, 064107 (2015)

   Total energy minimization with Auxiliary Hamiltonian:
      C. Freysoldt, S. Boeck, and J. Neugebauer, Phys. Rev. B 79, 241103(R) (2009)

   Grand-canonical (fixed-potential) DFT:
      R. Sundararaman, W. A. Goddard III and T. A. Arias, J. Chem. Phys. 146, 114104 (2017)

This list may not be complete. Please suggest additional citations or
report any other bugs at https://github.com/shankar1729/jdftx/issues

Initialization completed successfully at t[s]:    757.77

Fluid solver invoked on fresh (partially random / LCAO) wavefunctions
Running a vacuum solve first:

-------- Initial electronic minimization -----------
	FillingsUpdate:  mu: -0.155320994  nElectrons: 368.000000  magneticMoment: [ Abs: 22.96265  Tot: +21.31196 ]
ElecMinimize: Iter:   0  G: -1585.067161805463684  |grad|_K:  1.016e-04  alpha:  1.000e+00
	FillingsUpdate:  mu: -0.096356873  nElectrons: 368.000000  magneticMoment: [ Abs: 26.43990  Tot: +23.31009 ]
	SubspaceRotationAdjust: set factor to 1
ElecMinimize: Iter:   1  G: -1586.190896911819436  |grad|_K:  6.855e-05  alpha:  5.105e-01  linmin: -8.225e-07  t[s]:    802.54
	FillingsUpdate:  mu: -0.072203850  nElectrons: 368.000000  magneticMoment: [ Abs: 28.50723  Tot: +23.74095 ]
	SubspaceRotationAdjust: set factor to 0.63
ElecMinimize: Iter:   2  G: -1586.596209295708377  |grad|_K:  8.727e-05  alpha:  4.098e-01  linmin: -7.748e-05  t[s]:    829.56
	FillingsUpdate:  mu: -0.082078250  nElectrons: 368.000000  magneticMoment: [ Abs: 30.06548  Tot: +24.00227 ]
	SubspaceRotationAdjust: set factor to 0.371
ElecMinimize: Iter:   3  G: -1586.890980021260930  |grad|_K:  2.704e-05  alpha:  1.951e-01  linmin:  1.079e-04  t[s]:    857.43
	FillingsUpdate:  mu: -0.106304016  nElectrons: 368.000000  magneticMoment: [ Abs: 30.27884  Tot: +23.97538 ]
	SubspaceRotationAdjust: set factor to 0.296
ElecMinimize: Iter:   4  G: -1586.963745691270333  |grad|_K:  2.401e-05  alpha:  4.751e-01  linmin: -9.894e-05  t[s]:    885.85
	FillingsUpdate:  mu: -0.091555174  nElectrons: 368.000000  magneticMoment: [ Abs: 30.83137  Tot: +23.95819 ]
	SubspaceRotationAdjust: set factor to 0.286
ElecMinimize: Iter:   5  G: -1587.026935036364193  |grad|_K:  1.184e-05  alpha:  5.000e-01  linmin:  4.333e-05  t[s]:    913.22
	FillingsUpdate:  mu: -0.093158445  nElectrons: 368.000000  magneticMoment: [ Abs: 30.96103  Tot: +23.88526 ]
	SubspaceRotationAdjust: set factor to 0.299
ElecMinimize: Iter:   6  G: -1587.051899488505114  |grad|_K:  8.550e-06  alpha:  8.347e-01  linmin:  6.725e-05  t[s]:    940.95
	FillingsUpdate:  mu: -0.090052947  nElectrons: 368.000000  magneticMoment: [ Abs: 31.00880  Tot: +23.84078 ]
	SubspaceRotationAdjust: set factor to 0.301
ElecMinimize: Iter:   7  G: -1587.059554547399330  |grad|_K:  6.278e-06  alpha:  4.909e-01  linmin: -3.086e-06  t[s]:    969.68
	FillingsUpdate:  mu: -0.094183303  nElectrons: 368.000000  magneticMoment: [ Abs: 30.94420  Tot: +23.78752 ]
	SubspaceRotationAdjust: set factor to 0.288
ElecMinimize: Iter:   8  G: -1587.064264937987446  |grad|_K:  4.234e-06  alpha:  5.564e-01  linmin:  1.007e-05  t[s]:    998.72
	FillingsUpdate:  mu: -0.093077573  nElectrons: 368.000000  magneticMoment: [ Abs: 30.89849  Tot: +23.75070 ]
	SubspaceRotationAdjust: set factor to 0.305
ElecMinimize: Iter:   9  G: -1587.066538865423354  |grad|_K:  2.950e-06  alpha:  5.926e-01  linmin:  6.037e-06  t[s]:   1027.17
	FillingsUpdate:  mu: -0.092760886  nElectrons: 368.000000  magneticMoment: [ Abs: 30.84152  Tot: +23.72709 ]
	SubspaceRotationAdjust: set factor to 0.284
ElecMinimize: Iter:  10  G: -1587.067546590510347  |grad|_K:  2.082e-06  alpha:  5.401e-01  linmin:  4.201e-06  t[s]:   1054.49
	FillingsUpdate:  mu: -0.093327612  nElectrons: 368.000000  magneticMoment: [ Abs: 30.78344  Tot: +23.71148 ]
	SubspaceRotationAdjust: set factor to 0.278
ElecMinimize: Iter:  11  G: -1587.068025901769033  |grad|_K:  1.479e-06  alpha:  5.156e-01  linmin:  1.727e-06  t[s]:   1082.68
	FillingsUpdate:  mu: -0.093393313  nElectrons: 368.000000  magneticMoment: [ Abs: 30.73986  Tot: +23.70202 ]
	SubspaceRotationAdjust: set factor to 0.284
ElecMinimize: Iter:  12  G: -1587.068276220149528  |grad|_K:  9.267e-07  alpha:  5.333e-01  linmin:  1.225e-06  t[s]:   1110.16
	FillingsUpdate:  mu: -0.093698723  nElectrons: 368.000000  magneticMoment: [ Abs: 30.70534  Tot: +23.69766 ]
	SubspaceRotationAdjust: set factor to 0.28
ElecMinimize: Iter:  13  G: -1587.068385585803526  |grad|_K:  6.826e-07  alpha:  5.933e-01  linmin:  1.940e-06  t[s]:   1137.99
	FillingsUpdate:  mu: -0.093315263  nElectrons: 368.000000  magneticMoment: [ Abs: 30.68179  Tot: +23.69655 ]
	SubspaceRotationAdjust: set factor to 0.269
ElecMinimize: Iter:  14  G: -1587.068440758349197  |grad|_K:  4.553e-07  alpha:  5.518e-01  linmin:  4.785e-07  t[s]:   1165.47
	FillingsUpdate:  mu: -0.093515488  nElectrons: 368.000000  magneticMoment: [ Abs: 30.65904  Tot: +23.69677 ]
	SubspaceRotationAdjust: set factor to 0.282
ElecMinimize: Iter:  15  G: -1587.068466409296207  |grad|_K:  3.236e-07  alpha:  5.764e-01  linmin:  1.505e-06  t[s]:   1193.67
	FillingsUpdate:  mu: -0.093465141  nElectrons: 368.000000  magneticMoment: [ Abs: 30.64330  Tot: +23.69778 ]
	SubspaceRotationAdjust: set factor to 0.305
ElecMinimize: Iter:  16  G: -1587.068479052560861  |grad|_K:  2.195e-07  alpha:  5.624e-01  linmin:  4.290e-07  t[s]:   1220.95
	FillingsUpdate:  mu: -0.093558622  nElectrons: 368.000000  magneticMoment: [ Abs: 30.62991  Tot: +23.69885 ]
	SubspaceRotationAdjust: set factor to 0.322
ElecMinimize: Iter:  17  G: -1587.068485298630321  |grad|_K:  1.630e-07  alpha:  6.038e-01  linmin:  6.349e-07  t[s]:   1249.45
	FillingsUpdate:  mu: -0.093507879  nElectrons: 368.000000  magneticMoment: [ Abs: 30.62137  Tot: +23.69982 ]
	SubspaceRotationAdjust: set factor to 0.333
ElecMinimize: Iter:  18  G: -1587.068488225164856  |grad|_K:  1.174e-07  alpha:  5.130e-01  linmin:  1.364e-07  t[s]:   1277.66
	FillingsUpdate:  mu: -0.093509585  nElectrons: 368.000000  magneticMoment: [ Abs: 30.61365  Tot: +23.70063 ]
	SubspaceRotationAdjust: set factor to 0.337
ElecMinimize: Iter:  19  G: -1587.068489860968157  |grad|_K:  8.144e-08  alpha:  5.530e-01  linmin:  1.889e-07  t[s]:   1304.25
	FillingsUpdate:  mu: -0.093532184  nElectrons: 368.000000  magneticMoment: [ Abs: 30.60781  Tot: +23.70115 ]
	SubspaceRotationAdjust: set factor to 0.32
ElecMinimize: Iter:  20  G: -1587.068490652510036  |grad|_K:  6.009e-08  alpha:  5.558e-01  linmin:  9.525e-08  t[s]:   1331.97
	FillingsUpdate:  mu: -0.093514658  nElectrons: 368.000000  magneticMoment: [ Abs: 30.60429  Tot: +23.70146 ]
	SubspaceRotationAdjust: set factor to 0.305
ElecMinimize: Iter:  21  G: -1587.068491018858595  |grad|_K:  4.208e-08  alpha:  4.725e-01  linmin:  4.419e-08  t[s]:   1360.24
	FillingsUpdate:  mu: -0.093522714  nElectrons: 368.000000  magneticMoment: [ Abs: 30.60119  Tot: +23.70162 ]
	SubspaceRotationAdjust: set factor to 0.297
ElecMinimize: Iter:  22  G: -1587.068491235880174  |grad|_K:  2.718e-08  alpha:  5.708e-01  linmin:  3.541e-08  t[s]:   1388.08
	FillingsUpdate:  mu: -0.093510855  nElectrons: 368.000000  magneticMoment: [ Abs: 30.59931  Tot: +23.70165 ]
	SubspaceRotationAdjust: set factor to 0.297
ElecMinimize: Iter:  23  G: -1587.068491334684040  |grad|_K:  2.050e-08  alpha:  6.227e-01  linmin:  4.012e-08  t[s]:   1416.00
	FillingsUpdate:  mu: -0.093515532  nElectrons: 368.000000  magneticMoment: [ Abs: 30.59814  Tot: +23.70161 ]
	SubspaceRotationAdjust: set factor to 0.317
ElecMinimize: Iter:  24  G: -1587.068491377362307  |grad|_K:  1.444e-08  alpha:  4.731e-01  linmin:  2.380e-08  t[s]:   1444.47
	FillingsUpdate:  mu: -0.093514852  nElectrons: 368.000000  magneticMoment: [ Abs: 30.59723  Tot: +23.70154 ]
	SubspaceRotationAdjust: set factor to 0.351
ElecMinimize: Iter:  25  G: -1587.068491404204906  |grad|_K:  9.675e-09  alpha:  5.995e-01  linmin:  1.573e-07  t[s]:   1471.57
	FillingsUpdate:  mu: -0.093513089  nElectrons: 368.000000  magneticMoment: [ Abs: 30.59676  Tot: +23.70146 ]
	SubspaceRotationAdjust: set factor to 0.383
ElecMinimize: Iter:  26  G: -1587.068491416159304  |grad|_K:  7.270e-09  alpha:  5.944e-01  linmin: -3.174e-07  t[s]:   1499.91
	FillingsUpdate:  mu: -0.093514373  nElectrons: 368.000000  magneticMoment: [ Abs: 30.59649  Tot: +23.70140 ]
	SubspaceRotationAdjust: set factor to 0.385
ElecMinimize: Iter:  27  G: -1587.068491421662884  |grad|_K:  5.336e-09  alpha:  4.831e-01  linmin:  8.102e-08  t[s]:   1527.39
	FillingsUpdate:  mu: -0.093512416  nElectrons: 368.000000  magneticMoment: [ Abs: 30.59635  Tot: +23.70135 ]
	SubspaceRotationAdjust: set factor to 0.346
ElecMinimize: Iter:  28  G: -1587.068491424712192  |grad|_K:  3.533e-09  alpha:  4.962e-01  linmin: -1.047e-06  t[s]:   1555.43
ElecMinimize: Converged (|Delta G|<1.000000e-08 for 2 iters).
Setting wave functions to eigenvectors of Hamiltonian
Vacuum energy after initial minimize, F = -1587.068491424712192

Shifting auxilliary hamiltonian by -0.077739 to set nElectrons=368.000000
	Linear fluid (dielectric constant: 78.4, screening length: 5.74355 Bohr) occupying 0.738521 of unit cell:	Completed after 16 iterations at t[s]:   1565.53

-------- Electronic minimization -----------
	Linear fluid (dielectric constant: 78.4, screening length: 5.74355 Bohr) occupying 0.738521 of unit cell:	Completed after 0 iterations at t[s]:   1575.24
	FillingsUpdate:  mu: -0.171251800  nElectrons: 368.000000  magneticMoment: [ Abs: 30.59632  Tot: +23.70129 ]
ElecMinimize: Iter:   0  G: -1587.058165573566384  |grad|_K:  1.709e-06  alpha:  1.000e+00
	Linear fluid (dielectric constant: 78.4, screening length: 5.74355 Bohr) occupying 0.738887 of unit cell:	Completed after 12 iterations at t[s]:   1598.98
	Linear fluid (dielectric constant: 78.4, screening length: 5.74355 Bohr) occupying 0.738792 of unit cell:	Completed after 10 iterations at t[s]:   1611.98
	FillingsUpdate:  mu: -0.171251800  nElectrons: 367.861611  magneticMoment: [ Abs: 30.61536  Tot: +23.70532 ]
	SubspaceRotationAdjust: set factor to 0.29
ElecMinimize: Iter:   1  G: -1587.058627026507793  |grad|_K:  1.644e-06  alpha:  7.387e-01  linmin: -2.200e-05  t[s]:   1623.36
	Linear fluid (dielectric constant: 78.4, screening length: 5.74355 Bohr) occupying 0.739341 of unit cell:	Completed after 10 iterations at t[s]:   1633.16
	Linear fluid (dielectric constant: 78.4, screening length: 5.74355 Bohr) occupying 0.739174 of unit cell:	Completed after 5 iterations at t[s]:   1645.02
	FillingsUpdate:  mu: -0.171251800  nElectrons: 367.806908  magneticMoment: [ Abs: 30.64263  Tot: +23.70769 ]
	SubspaceRotationAdjust: set factor to 0.242
ElecMinimize: Iter:   2  G: -1587.058925734964987  |grad|_K:  1.374e-06  alpha:  5.125e-01  linmin:  8.826e-06  t[s]:   1657.17
	Linear fluid (dielectric constant: 78.4, screening length: 5.74355 Bohr) occupying 0.739547 of unit cell:	Completed after 9 iterations at t[s]:   1668.03
	Linear fluid (dielectric constant: 78.4, screening length: 5.74355 Bohr) occupying 0.739536 of unit cell:	Completed after 2 iterations at t[s]:   1679.98
	FillingsUpdate:  mu: -0.171251800  nElectrons: 367.776271  magneticMoment: [ Abs: 30.64789  Tot: +23.70723 ]
	SubspaceRotationAdjust: set factor to 0.318
ElecMinimize: Iter:   3  G: -1587.059126978199401  |grad|_K:  8.176e-07  alpha:  4.970e-01  linmin:  1.186e-04  t[s]:   1691.72
	Linear fluid (dielectric constant: 78.4, screening length: 5.74355 Bohr) occupying 0.739709 of unit cell:	Completed after 7 iterations at t[s]:   1701.73
	Linear fluid (dielectric constant: 78.4, screening length: 5.74355 Bohr) occupying 0.739778 of unit cell:	Completed after 3 iterations at t[s]:   1713.31
	FillingsUpdate:  mu: -0.171251800  nElectrons: 367.761012  magneticMoment: [ Abs: 30.64916  Tot: +23.70587 ]
	SubspaceRotationAdjust: set factor to 0.397
ElecMinimize: Iter:   4  G: -1587.059225893865460  |grad|_K:  3.743e-07  alpha:  6.966e-01  linmin: -9.169e-05  t[s]:   1725.33
	Linear fluid (dielectric constant: 78.4, screening length: 5.74355 Bohr) occupying 0.739850 of unit cell:	Completed after 3 iterations at t[s]:   1734.63
	Linear fluid (dielectric constant: 78.4, screening length: 5.74355 Bohr) occupying 0.739838 of unit cell:	Completed after 2 iterations at t[s]:   1745.88
	FillingsUpdate:  mu: -0.171251800  nElectrons: 367.756995  magneticMoment: [ Abs: 30.64951  Tot: +23.70507 ]
	SubspaceRotationAdjust: set factor to 0.359
ElecMinimize: Iter:   5  G: -1587.059243482310649  |grad|_K:  3.788e-07  alpha:  5.830e-01  linmin:  1.015e-04  t[s]:   1757.36
	Linear fluid (dielectric constant: 78.4, screening length: 5.74355 Bohr) occupying 0.739916 of unit cell:	Completed after 6 iterations at t[s]:   1767.02
	Linear fluid (dielectric constant: 78.4, screening length: 5.74355 Bohr) occupying 0.739893 of unit cell:	Completed after 2 iterations at t[s]:   1778.71
	FillingsUpdate:  mu: -0.171251800  nElectrons: 367.759152  magneticMoment: [ Abs: 30.65541  Tot: +23.70519 ]
	SubspaceRotationAdjust: set factor to 0.254
ElecMinimize: Iter:   6  G: -1587.059255960688688  |grad|_K:  2.105e-07  alpha:  4.103e-01  linmin:  8.990e-05  t[s]:   1791.02
	Linear fluid (dielectric constant: 78.4, screening length: 5.74355 Bohr) occupying 0.739910 of unit cell:	Completed after 3 iterations at t[s]:   1800.07
	Linear fluid (dielectric constant: 78.4, screening length: 5.74355 Bohr) occupying 0.739916 of unit cell:	Completed after 0 iterations at t[s]:   1811.08
	FillingsUpdate:  mu: -0.171251800  nElectrons: 367.755809  magneticMoment: [ Abs: 30.65842  Tot: +23.70488 ]
	SubspaceRotationAdjust: set factor to 0.257
ElecMinimize: Iter:   7  G: -1587.059261525693273  |grad|_K:  1.256e-07  alpha:  5.699e-01  linmin: -1.098e-03  t[s]:   1823.24
	Linear fluid (dielectric constant: 78.4, screening length: 5.74355 Bohr) occupying 0.739923 of unit cell:	Completed after 3 iterations at t[s]:   1832.63
	Linear fluid (dielectric constant: 78.4, screening length: 5.74355 Bohr) occupying 0.739923 of unit cell:	Completed after 0 iterations at t[s]:   1843.73
	FillingsUpdate:  mu: -0.171251800  nElectrons: 367.754640  magneticMoment: [ Abs: 30.66046  Tot: +23.70480 ]
	SubspaceRotationAdjust: set factor to 0.261
ElecMinimize: Iter:   8  G: -1587.059263554420568  |grad|_K:  1.060e-07  alpha:  5.500e-01  linmin: -6.894e-04  t[s]:   1855.60
	Linear fluid (dielectric constant: 78.4, screening length: 5.74355 Bohr) occupying 0.739929 of unit cell:	Completed after 2 iterations at t[s]:   1864.45
	Linear fluid (dielectric constant: 78.4, screening length: 5.74355 Bohr) occupying 0.739927 of unit cell:	Completed after 0 iterations at t[s]:   1875.61
	FillingsUpdate:  mu: -0.171251800  nElectrons: 367.755800  magneticMoment: [ Abs: 30.66246  Tot: +23.70492 ]
	SubspaceRotationAdjust: set factor to 0.229
ElecMinimize: Iter:   9  G: -1587.059264668675269  |grad|_K:  9.281e-08  alpha:  4.189e-01  linmin:  3.585e-04  t[s]:   1887.70
	Linear fluid (dielectric constant: 78.4, screening length: 5.74355 Bohr) occupying 0.739931 of unit cell:	Completed after 2 iterations at t[s]:   1896.32
	Linear fluid (dielectric constant: 78.4, screening length: 5.74355 Bohr) occupying 0.739930 of unit cell:	Completed after 0 iterations at t[s]:   1907.03
	FillingsUpdate:  mu: -0.171251800  nElectrons: 367.756412  magneticMoment: [ Abs: 30.66326  Tot: +23.70495 ]
	SubspaceRotationAdjust: set factor to 0.223
ElecMinimize: Iter:  10  G: -1587.059265110784281  |grad|_K:  5.862e-08  alpha:  2.755e-01  linmin:  2.672e-04  t[s]:   1918.97
	Linear fluid (dielectric constant: 78.4, screening length: 5.74355 Bohr) occupying 0.739931 of unit cell:	Completed after 0 iterations at t[s]:   1927.47
	Linear fluid (dielectric constant: 78.4, screening length: 5.74355 Bohr) occupying 0.739932 of unit cell:	Completed after 0 iterations at t[s]:   1938.80
	FillingsUpdate:  mu: -0.171251800  nElectrons: 367.757233  magneticMoment: [ Abs: 30.66463  Tot: +23.70504 ]
	SubspaceRotationAdjust: set factor to 0.232
ElecMinimize: Iter:  11  G: -1587.059265546512734  |grad|_K:  4.851e-08  alpha:  6.276e-01  linmin: -1.601e-07  t[s]:   1950.80
	Linear fluid (dielectric constant: 78.4, screening length: 5.74355 Bohr) occupying 0.739935 of unit cell:	Completed after 2 iterations at t[s]:   1959.46
	Linear fluid (dielectric constant: 78.4, screening length: 5.74355 Bohr) occupying 0.739933 of unit cell:	Completed after 0 iterations at t[s]:   1970.51
ElecMinimize: 	Step increased G by 4.167759e-09, reducing alpha to 1.844959e-02.
	Linear fluid (dielectric constant: 78.4, screening length: 5.74355 Bohr) occupying 0.739932 of unit cell:	Completed after 2 iterations at t[s]:   1991.60
ElecMinimize: 	Step increased G by 1.337280e-07, reducing alpha to 1.844959e-03.
	Linear fluid (dielectric constant: 78.4, screening length: 5.74355 Bohr) occupying 0.739932 of unit cell:	Completed after 0 iterations at t[s]:   2011.77
ElecMinimize: 	Step increased G by 1.404792e-07, reducing alpha to 1.844959e-04.
ElecMinimize: 	Step failed to reduce G after 3 attempts. Quitting step.
ElecMinimize: 	Undoing step.
	Linear fluid (dielectric constant: 78.4, screening length: 5.74355 Bohr) occupying 0.739932 of unit cell:	Completed after 0 iterations at t[s]:   2030.97
ElecMinimize: 	Step failed: resetting search direction.
	FillingsUpdate:  mu: -0.171251800  nElectrons: 367.757235  magneticMoment: [ Abs: 30.66464  Tot: +23.70504 ]
	SubspaceRotationAdjust: set factor to 0.229
ElecMinimize: Iter:  12  G: -1587.059265405961696  |grad|_K:  5.349e-08  alpha:  1.845e-04
	Linear fluid (dielectric constant: 78.4, screening length: 5.74355 Bohr) occupying 0.739932 of unit cell:	Completed after 2 iterations at t[s]:   2052.07
	Linear fluid (dielectric constant: 78.4, screening length: 5.74355 Bohr) occupying 0.739932 of unit cell:	Completed after 0 iterations at t[s]:   2063.52
	FillingsUpdate:  mu: -0.171251800  nElectrons: 367.757067  magneticMoment: [ Abs: 30.66459  Tot: +23.70502 ]
	SubspaceRotationAdjust: set factor to 0.198
ElecMinimize: Iter:  13  G: -1587.059265634523854  |grad|_K:  5.001e-08  alpha:  2.719e-01  linmin:  1.784e-03  t[s]:   2075.85
	Linear fluid (dielectric constant: 78.4, screening length: 5.74355 Bohr) occupying 0.739933 of unit cell:	Completed after 2 iterations at t[s]:   2085.04
	Linear fluid (dielectric constant: 78.4, screening length: 5.74355 Bohr) occupying 0.739932 of unit cell:	Completed after 0 iterations at t[s]:   2096.29
ElecMinimize: 	Step increased G by 3.374885e-08, reducing alpha to 1.134786e-02.
	Linear fluid (dielectric constant: 78.4, screening length: 5.74355 Bohr) occupying 0.739932 of unit cell:	Completed after 0 iterations at t[s]:   2116.21
ElecMinimize: 	Step increased G by 5.522043e-08, reducing alpha to 1.134786e-03.
	Linear fluid (dielectric constant: 78.4, screening length: 5.74355 Bohr) occupying 0.739932 of unit cell:	Completed after 0 iterations at t[s]:   2135.93
ElecMinimize: 	Step increased G by 5.837546e-08, reducing alpha to 1.134786e-04.
ElecMinimize: 	Step failed to reduce G after 3 attempts. Quitting step.
ElecMinimize: 	Undoing step.
	Linear fluid (dielectric constant: 78.4, screening length: 5.74355 Bohr) occupying 0.739932 of unit cell:	Completed after 0 iterations at t[s]:   2155.69
ElecMinimize: 	Step failed: resetting search direction.
	FillingsUpdate:  mu: -0.171251800  nElectrons: 367.757067  magneticMoment: [ Abs: 30.66460  Tot: +23.70502 ]
	SubspaceRotationAdjust: set factor to 0.193
ElecMinimize: Iter:  14  G: -1587.059265576122016  |grad|_K:  2.258e-08  alpha:  1.135e-04
	Linear fluid (dielectric constant: 78.4, screening length: 5.74355 Bohr) occupying 0.739932 of unit cell:	Completed after 0 iterations at t[s]:   2175.88
	Linear fluid (dielectric constant: 78.4, screening length: 5.74355 Bohr) occupying 0.739933 of unit cell:	Completed after 0 iterations at t[s]:   2186.78
	FillingsUpdate:  mu: -0.171251800  nElectrons: 367.757038  magneticMoment: [ Abs: 30.66482  Tot: +23.70504 ]
	SubspaceRotationAdjust: set factor to 0.203
ElecMinimize: Iter:  15  G: -1587.059265643990557  |grad|_K:  2.416e-08  alpha:  6.197e-01  linmin: -3.760e-07  t[s]:   2199.03
	Linear fluid (dielectric constant: 78.4, screening length: 5.74355 Bohr) occupying 0.739933 of unit cell:	Completed after 0 iterations at t[s]:   2207.91
	Linear fluid (dielectric constant: 78.4, screening length: 5.74355 Bohr) occupying 0.739933 of unit cell:	Completed after 0 iterations at t[s]:   2218.55
	FillingsUpdate:  mu: -0.171251800  nElectrons: 367.756992  magneticMoment: [ Abs: 30.66520  Tot: +23.70507 ]
	SubspaceRotationAdjust: set factor to 0.23
ElecMinimize: Iter:  16  G: -1587.059265707732948  |grad|_K:  1.253e-08  alpha:  5.085e-01  linmin: -7.835e-09  t[s]:   2230.98
	Linear fluid (dielectric constant: 78.4, screening length: 5.74355 Bohr) occupying 0.739933 of unit cell:	Completed after 0 iterations at t[s]:   2239.19
	Linear fluid (dielectric constant: 78.4, screening length: 5.74355 Bohr) occupying 0.739934 of unit cell:	Completed after 0 iterations at t[s]:   2250.87
	FillingsUpdate:  mu: -0.171251800  nElectrons: 367.756945  magneticMoment: [ Abs: 30.66560  Tot: +23.70511 ]
	SubspaceRotationAdjust: set factor to 0.258
ElecMinimize: Iter:  17  G: -1587.059265737244004  |grad|_K:  1.023e-08  alpha:  8.758e-01  linmin:  4.052e-07  t[s]:   2262.91
	Linear fluid (dielectric constant: 78.4, screening length: 5.74355 Bohr) occupying 0.739933 of unit cell:	Completed after 0 iterations at t[s]:   2271.34
	Linear fluid (dielectric constant: 78.4, screening length: 5.74355 Bohr) occupying 0.739933 of unit cell:	Completed after 0 iterations at t[s]:   2282.55
	FillingsUpdate:  mu: -0.171251800  nElectrons: 367.756908  magneticMoment: [ Abs: 30.66592  Tot: +23.70513 ]
	SubspaceRotationAdjust: set factor to 0.281
ElecMinimize: Iter:  18  G: -1587.059265750540362  |grad|_K:  9.413e-09  alpha:  5.914e-01  linmin: -2.440e-07  t[s]:   2294.70
	Linear fluid (dielectric constant: 78.4, screening length: 5.74355 Bohr) occupying 0.739933 of unit cell:	Completed after 0 iterations at t[s]:   2303.13
	Linear fluid (dielectric constant: 78.4, screening length: 5.74355 Bohr) occupying 0.739933 of unit cell:	Completed after 0 iterations at t[s]:   2313.67
	FillingsUpdate:  mu: -0.171251800  nElectrons: 367.756864  magneticMoment: [ Abs: 30.66630  Tot: +23.70516 ]
	SubspaceRotationAdjust: set factor to 0.325
ElecMinimize: Iter:  19  G: -1587.059265761224196  |grad|_K:  5.024e-09  alpha:  5.610e-01  linmin: -4.328e-07  t[s]:   2325.78
	Linear fluid (dielectric constant: 78.4, screening length: 5.74355 Bohr) occupying 0.739933 of unit cell:	Completed after 0 iterations at t[s]:   2334.48
	Linear fluid (dielectric constant: 78.4, screening length: 5.74355 Bohr) occupying 0.739933 of unit cell:	Completed after 0 iterations at t[s]:   2345.25
ElecMinimize: 	Step increased G by 2.351453e-08, reducing alpha to 6.084290e-03.
	Linear fluid (dielectric constant: 78.4, screening length: 5.74355 Bohr) occupying 0.739933 of unit cell:	Completed after 0 iterations at t[s]:   2364.90
ElecMinimize: 	Step increased G by 2.391516e-08, reducing alpha to 6.084290e-04.
	Linear fluid (dielectric constant: 78.4, screening length: 5.74355 Bohr) occupying 0.739933 of unit cell:	Completed after 0 iterations at t[s]:   2384.14
ElecMinimize: 	Step increased G by 2.395927e-08, reducing alpha to 6.084290e-05.
ElecMinimize: 	Step failed to reduce G after 3 attempts. Quitting step.
ElecMinimize: 	Undoing step.
	Linear fluid (dielectric constant: 78.4, screening length: 5.74355 Bohr) occupying 0.739933 of unit cell:	Completed after 0 iterations at t[s]:   2403.30
ElecMinimize: 	Step failed: resetting search direction.
	FillingsUpdate:  mu: -0.171251800  nElectrons: 367.756864  magneticMoment: [ Abs: 30.66630  Tot: +23.70516 ]
	SubspaceRotationAdjust: set factor to 0.317
ElecMinimize: Iter:  20  G: -1587.059265737270152  |grad|_K:  6.465e-09  alpha:  6.084e-05
	Linear fluid (dielectric constant: 78.4, screening length: 5.74355 Bohr) occupying 0.739933 of unit cell:	Completed after 0 iterations at t[s]:   2423.96
	Linear fluid (dielectric constant: 78.4, screening length: 5.74355 Bohr) occupying 0.739933 of unit cell:	Completed after 0 iterations at t[s]:   2435.23
	FillingsUpdate:  mu: -0.171251800  nElectrons: 367.756944  magneticMoment: [ Abs: 30.66654  Tot: +23.70518 ]
	SubspaceRotationAdjust: set factor to 0.387
ElecMinimize: Iter:  21  G: -1587.059265743867172  |grad|_K:  6.527e-09  alpha:  7.340e-01  linmin: -5.102e-07  t[s]:   2447.39
	Linear fluid (dielectric constant: 78.4, screening length: 5.74355 Bohr) occupying 0.739933 of unit cell:	Completed after 0 iterations at t[s]:   2455.54
	Linear fluid (dielectric constant: 78.4, screening length: 5.74355 Bohr) occupying 0.739933 of unit cell:	Completed after 0 iterations at t[s]:   2466.10
	FillingsUpdate:  mu: -0.171251800  nElectrons: 367.757058  magneticMoment: [ Abs: 30.66690  Tot: +23.70522 ]
	SubspaceRotationAdjust: set factor to 0.468
ElecMinimize: Iter:  22  G: -1587.059265749163615  |grad|_K:  5.576e-09  alpha:  5.781e-01  linmin: -1.788e-07  t[s]:   2478.25
ElecMinimize: Converged (|Delta G|<1.000000e-08 for 2 iters).
Setting wave functions to eigenvectors of Hamiltonian
Single-point solvation energy estimate, DeltaG = +0.009225675548578

# Ionic positions in lattice coordinates:
ion Cr   0.166669992999999   0.166670017000001   0.499824525668402 1
ion Cr   0.333329947750000   0.333329978999998   0.500175474331598 1
ion Cr   0.666669992999999   0.166670017000001   0.499824525668402 1
ion Cr   0.833329947750000   0.333329978999998   0.500175474331598 1
ion Cr   0.166669992999999   0.666670017000001   0.499824525668402 1
ion Cr   0.333329947750000   0.833329978999998   0.500175474331598 1
ion Cr   0.666669992999999   0.666670017000001   0.499824525668402 1
ion Cr   0.833329947750000   0.833329978999998   0.500175474331598 1
ion Ge   0.000000004249999   0.000000000499998   0.434540095758764 1
ion Ge   0.000000004249999   0.000000000499998   0.565469934241234 1
ion Ge   0.500000004249999   0.000000000499998   0.434540095758764 1
ion Ge   0.500000004249999   0.000000000499998   0.565469934241234 1
ion Ge   0.000000004249999   0.500000000499998   0.434540095758764 1
ion Ge   0.000000004249999   0.500000000499998   0.565469934241234 1
ion Ge   0.500000004249999   0.500000000499998   0.434540095758764 1
ion Ge   0.500000004249999   0.500000000499998   0.565469934241234 1
ion Te   0.312842669890774   0.000208044351458   0.594284143237768 1
ion Te   0.000208014851457   0.186949354507773   0.594284143237768 1
ion Te   0.186949317507772   0.312842665640773   0.594284143237768 1
ion Te   0.187167361859225   0.499771961648540   0.405715856762232 1
ion Te   0.499772010398543   0.313060670492229   0.405715856762232 1
ion Te   0.313060666242231   0.187167359859227   0.405715856762232 1
ion Te   0.812842669890774   0.000208044351458   0.594284143237768 1
ion Te   0.500208014851457   0.186949354507773   0.594284143237768 1
ion Te   0.686949317507772   0.312842665640773   0.594284143237768 1
ion Te   0.687167361859225   0.499771961648540   0.405715856762232 1
ion Te   0.999772010398543   0.313060670492229   0.405715856762232 1
ion Te   0.813060666242231   0.187167359859227   0.405715856762232 1
ion Te   0.312842669890774   0.500208044351458   0.594284143237768 1
ion Te   0.000208014851457   0.686949354507773   0.594284143237768 1
ion Te   0.186949317507772   0.812842665640773   0.594284143237768 1
ion Te   0.187167361859225   0.999771961648540   0.405715856762232 1
ion Te   0.499772010398543   0.813060670492229   0.405715856762232 1
ion Te   0.313060666242231   0.687167359859227   0.405715856762232 1
ion Te   0.812842669890774   0.500208044351458   0.594284143237768 1
ion Te   0.500208014851457   0.686949354507773   0.594284143237768 1
ion Te   0.686949317507772   0.812842665640773   0.594284143237768 1
ion Te   0.687167361859225   0.999771961648540   0.405715856762232 1
ion Te   0.999772010398543   0.813060670492229   0.405715856762232 1
ion Te   0.813060666242231   0.687167359859227   0.405715856762232 1


# Forces in Lattice coordinates:
force Cr  -0.000327588348905  -0.000339474763561   0.010588428100035 1
force Cr   0.000329325313970   0.000341611149789  -0.010689643978370 1
force Cr  -0.000327588348905  -0.000339474763561   0.010588428100035 1
force Cr   0.000329325313970   0.000341611149789  -0.010689643978370 1
force Cr  -0.000327588348905  -0.000339474763561   0.010588428100035 1
force Cr   0.000329325313970   0.000341611149789  -0.010689643978370 1
force Cr  -0.000327588348905  -0.000339474763561   0.010588428100035 1
force Cr   0.000329325313970   0.000341611149789  -0.010689643978370 1
force Ge  -0.000054839823052  -0.000005722967460   0.022124173674438 1
force Ge   0.000055241529095   0.000007303555928  -0.022380219167971 1
force Ge  -0.000054839823052  -0.000005722967460   0.022124173674438 1
force Ge   0.000055241529095   0.000007303555928  -0.022380219168085 1
force Ge  -0.000054839823052  -0.000005722967460   0.022124173674552 1
force Ge   0.000055241529095   0.000007303555928  -0.022380219168198 1
force Ge  -0.000054839823052  -0.000005722967460   0.022124173674552 1
force Ge   0.000055241529095   0.000007303555928  -0.022380219168198 1
force Te  -0.030472898405119  -0.016996933540979   0.035396487343251 1
force Te   0.013599467531933   0.030410614262330   0.035271626854817 1
force Te   0.016890108232389  -0.013586721062650   0.035785298645265 1
force Te   0.030340108899621   0.017502949518223  -0.035281251823033 1
force Te  -0.012964220587396  -0.030281956587127  -0.035156252968340 1
force Te  -0.017397672313968   0.012947137704743  -0.035669368538584 1
force Te  -0.030472898405115  -0.016996933540981   0.035396487343194 1
force Te   0.013599467531933   0.030410614262330   0.035271626854817 1
force Te   0.016890108232389  -0.013586721062651   0.035785298645265 1
force Te   0.030340108899618   0.017502949518223  -0.035281251822976 1
force Te  -0.012964220587398  -0.030281956587123  -0.035156252968340 1
force Te  -0.017397672313970   0.012947137704743  -0.035669368538584 1
force Te  -0.030472898405122  -0.016996933540981   0.035396487343251 1
force Te   0.013599467531935   0.030410614262333   0.035271626854760 1
force Te   0.016890108232389  -0.013586721062651   0.035785298645208 1
force Te   0.030340108899618   0.017502949518223  -0.035281251822976 1
force Te  -0.012964220587398  -0.030281956587123  -0.035156252968340 1
force Te  -0.017397672313968   0.012947137704741  -0.035669368538584 1
force Te  -0.030472898405119  -0.016996933540982   0.035396487343307 1
force Te   0.013599467531937   0.030410614262333   0.035271626854760 1
force Te   0.016890108232391  -0.013586721062650   0.035785298645265 1
force Te   0.030340108899618   0.017502949518223  -0.035281251822975 1
force Te  -0.012964220587398  -0.030281956587123  -0.035156252968340 1
force Te  -0.017397672313968   0.012947137704741  -0.035669368538584 1

# Energy components:
   A_diel =        0.0230988382018339
   Eewald =     5580.3704616410923336
       EH =     7009.0884189648641041
     Eloc =   -14360.0971555411342706
      Enl =      119.1255363638150300
      Exc =     -496.5769243516630240
 Exc_core =      224.7103444367526208
       KE =      273.3280396908060652
  MuShift =        0.0021908048417881
-------------------------------------
     Etot =    -1650.0259891524246996
       TS =        0.0123347321676627
-------------------------------------
        F =    -1650.0383238845922733
      muN =      -62.9790581354287298
-------------------------------------
        G =    -1587.0592657491636146

IonicMinimize: Iter:   0  G: -1587.059265749163615  |grad|_K:  7.190e-04  t[s]:   2488.36

#--- Lowdin population analysis ---
# oxidation-state Cr +0.880 +0.880 +0.880 +0.880 +0.880 +0.880 +0.880 +0.880
# magnetic-moments Cr +3.341 +3.340 +3.341 +3.340 +3.341 +3.340 +3.341 +3.340
# oxidation-state Ge +0.014 +0.014 +0.014 +0.014 +0.014 +0.014 +0.014 +0.014
# magnetic-moments Ge +0.065 +0.065 +0.065 +0.065 +0.065 +0.065 +0.065 +0.065
# oxidation-state Te -0.171 -0.171 -0.171 -0.171 -0.171 -0.171 -0.171 -0.171 -0.171 -0.171 -0.171 -0.171 -0.171 -0.171 -0.171 -0.171 -0.171 -0.171 -0.171 -0.171 -0.171 -0.171 -0.171 -0.171
# magnetic-moments Te -0.175 -0.176 -0.176 -0.175 -0.176 -0.176 -0.175 -0.176 -0.176 -0.175 -0.176 -0.176 -0.175 -0.176 -0.176 -0.175 -0.176 -0.176 -0.175 -0.176 -0.176 -0.175 -0.176 -0.176

Shifting auxilliary hamiltonian by 0.000001 to set nElectrons=367.757058
	Linear fluid (dielectric constant: 78.4, screening length: 5.74355 Bohr) occupying 0.739907 of unit cell:	Completed after 3 iterations at t[s]:   2498.24

-------- Electronic minimization -----------
	Linear fluid (dielectric constant: 78.4, screening length: 5.74355 Bohr) occupying 0.739907 of unit cell:	Completed after 0 iterations at t[s]:   2507.78
	FillingsUpdate:  mu: -0.171251800  nElectrons: 367.757058  magneticMoment: [ Abs: 30.66779  Tot: +23.70528 ]
ElecMinimize: Iter:   0  G: -1587.059318593256421  |grad|_K:  1.390e-07  alpha:  1.000e+00
	Linear fluid (dielectric constant: 78.4, screening length: 5.74355 Bohr) occupying 0.739905 of unit cell:	Completed after 3 iterations at t[s]:   2530.40
	Linear fluid (dielectric constant: 78.4, screening length: 5.74355 Bohr) occupying 0.739905 of unit cell:	Completed after 2 iterations at t[s]:   2542.06
	FillingsUpdate:  mu: -0.171251800  nElectrons: 367.753927  magneticMoment: [ Abs: 30.66764  Tot: +23.70473 ]
	SubspaceRotationAdjust: set factor to 0.353
ElecMinimize: Iter:   1  G: -1587.059321423082110  |grad|_K:  1.641e-07  alpha:  7.115e-01  linmin: -2.034e-06  t[s]:   2554.13
	Linear fluid (dielectric constant: 78.4, screening length: 5.74355 Bohr) occupying 0.739909 of unit cell:	Completed after 2 iterations at t[s]:   2562.64
	Linear fluid (dielectric constant: 78.4, screening length: 5.74355 Bohr) occupying 0.739907 of unit cell:	Completed after 1 iterations at t[s]:   2573.59
	FillingsUpdate:  mu: -0.171251800  nElectrons: 367.754850  magneticMoment: [ Abs: 30.66943  Tot: +23.70466 ]
	SubspaceRotationAdjust: set factor to 0.386
ElecMinimize: Iter:   2  G: -1587.059323430617951  |grad|_K:  8.248e-08  alpha:  3.436e-01  linmin:  1.161e-04  t[s]:   2585.38
	Linear fluid (dielectric constant: 78.4, screening length: 5.74355 Bohr) occupying 0.739908 of unit cell:	Completed after 0 iterations at t[s]:   2593.85
	Linear fluid (dielectric constant: 78.4, screening length: 5.74355 Bohr) occupying 0.739909 of unit cell:	Completed after 2 iterations at t[s]:   2605.36
	FillingsUpdate:  mu: -0.171251800  nElectrons: 367.756439  magneticMoment: [ Abs: 30.66991  Tot: +23.70453 ]
	SubspaceRotationAdjust: set factor to 0.414
ElecMinimize: Iter:   3  G: -1587.059324205858275  |grad|_K:  5.616e-08  alpha:  6.564e-01  linmin:  1.146e-03  t[s]:   2617.58
	Linear fluid (dielectric constant: 78.4, screening length: 5.74355 Bohr) occupying 0.739911 of unit cell:	Completed after 0 iterations at t[s]:   2625.63
	Linear fluid (dielectric constant: 78.4, screening length: 5.74355 Bohr) occupying 0.739911 of unit cell:	Completed after 0 iterations at t[s]:   2636.20
	FillingsUpdate:  mu: -0.171251800  nElectrons: 367.757140  magneticMoment: [ Abs: 30.67022  Tot: +23.70443 ]
	SubspaceRotationAdjust: set factor to 0.43
ElecMinimize: Iter:   4  G: -1587.059324521101644  |grad|_K:  3.092e-08  alpha:  5.593e-01  linmin:  2.032e-07  t[s]:   2648.12
	Linear fluid (dielectric constant: 78.4, screening length: 5.74355 Bohr) occupying 0.739912 of unit cell:	Completed after 1 iterations at t[s]:   2656.98
	Linear fluid (dielectric constant: 78.4, screening length: 5.74355 Bohr) occupying 0.739911 of unit cell:	Completed after 0 iterations at t[s]:   2668.10
ElecMinimize: 	Step increased G by 7.406061e-08, reducing alpha to 1.296328e-02.
	Linear fluid (dielectric constant: 78.4, screening length: 5.74355 Bohr) occupying 0.739911 of unit cell:	Completed after 0 iterations at t[s]:   2686.68
ElecMinimize: 	Step increased G by 7.479889e-08, reducing alpha to 1.296328e-03.
	Linear fluid (dielectric constant: 78.4, screening length: 5.74355 Bohr) occupying 0.739911 of unit cell:	Completed after 0 iterations at t[s]:   2706.37
ElecMinimize: 	Step increased G by 7.356425e-08, reducing alpha to 1.296328e-04.
ElecMinimize: 	Step failed to reduce G after 3 attempts. Quitting step.
ElecMinimize: 	Undoing step.
	Linear fluid (dielectric constant: 78.4, screening length: 5.74355 Bohr) occupying 0.739911 of unit cell:	Completed after 0 iterations at t[s]:   2726.46
ElecMinimize: 	Step failed: resetting search direction.
	FillingsUpdate:  mu: -0.171251800  nElectrons: 367.757141  magneticMoment: [ Abs: 30.67022  Tot: +23.70443 ]
	SubspaceRotationAdjust: set factor to 0.426
ElecMinimize: Iter:   5  G: -1587.059324447582640  |grad|_K:  5.868e-08  alpha:  1.296e-04
	Linear fluid (dielectric constant: 78.4, screening length: 5.74355 Bohr) occupying 0.739910 of unit cell:	Completed after 1 iterations at t[s]:   2747.76
	Linear fluid (dielectric constant: 78.4, screening length: 5.74355 Bohr) occupying 0.739911 of unit cell:	Completed after 3 iterations at t[s]:   2759.17
	FillingsUpdate:  mu: -0.171251800  nElectrons: 367.756763  magneticMoment: [ Abs: 30.67000  Tot: +23.70439 ]
	SubspaceRotationAdjust: set factor to 0.288
ElecMinimize: Iter:   6  G: -1587.059324453849740  |grad|_K:  2.980e-08  alpha:  1.599e-01  linmin:  1.550e-03  t[s]:   2771.91
	Linear fluid (dielectric constant: 78.4, screening length: 5.74355 Bohr) occupying 0.739911 of unit cell:	Completed after 0 iterations at t[s]:   2780.55
ElecMinimize: 	Predicted alpha/alphaT>3.000000, increasing alphaT to 4.796814e-01.
	Linear fluid (dielectric constant: 78.4, screening length: 5.74355 Bohr) occupying 0.739911 of unit cell:	Completed after 0 iterations at t[s]:   2791.16
	Linear fluid (dielectric constant: 78.4, screening length: 5.74355 Bohr) occupying 0.739911 of unit cell:	Completed after 0 iterations at t[s]:   2801.71
	FillingsUpdate:  mu: -0.171251800  nElectrons: 367.756356  magneticMoment: [ Abs: 30.67025  Tot: +23.70438 ]
	SubspaceRotationAdjust: set factor to 0.389
ElecMinimize: Iter:   7  G: -1587.059324533134486  |grad|_K:  2.423e-08  alpha:  5.027e-01  linmin: -5.126e-07  t[s]:   2813.53
	Linear fluid (dielectric constant: 78.4, screening length: 5.74355 Bohr) occupying 0.739911 of unit cell:	Completed after 1 iterations at t[s]:   2822.17
	Linear fluid (dielectric constant: 78.4, screening length: 5.74355 Bohr) occupying 0.739911 of unit cell:	Completed after 0 iterations at t[s]:   2833.02
	FillingsUpdate:  mu: -0.171251800  nElectrons: 367.756300  magneticMoment: [ Abs: 30.67035  Tot: +23.70438 ]
	SubspaceRotationAdjust: set factor to 0.351
ElecMinimize: Iter:   8  G: -1587.059324537996645  |grad|_K:  5.317e-08  alpha:  1.012e-01  linmin:  1.411e-03  t[s]:   2844.82
ElecMinimize: 	Bad step direction: g.d > 0.
ElecMinimize: 	Undoing step.
	Linear fluid (dielectric constant: 78.4, screening length: 5.74355 Bohr) occupying 0.739911 of unit cell:	Completed after 0 iterations at t[s]:   2853.39
ElecMinimize: 	Step failed: resetting search direction.
	FillingsUpdate:  mu: -0.171251800  nElectrons: 367.756300  magneticMoment: [ Abs: 30.67035  Tot: +23.70438 ]
	SubspaceRotationAdjust: set factor to 0.46
ElecMinimize: Iter:   9  G: -1587.059324537996417  |grad|_K:  5.210e-08  alpha:  0.000e+00
	Linear fluid (dielectric constant: 78.4, screening length: 5.74355 Bohr) occupying 0.739911 of unit cell:	Completed after 1 iterations at t[s]:   2874.55
	Linear fluid (dielectric constant: 78.4, screening length: 5.74355 Bohr) occupying 0.739911 of unit cell:	Completed after 0 iterations at t[s]:   2886.13
ElecMinimize: 	Step increased G by 1.633725e-08, reducing alpha to 5.301509e-03.
	Linear fluid (dielectric constant: 78.4, screening length: 5.74355 Bohr) occupying 0.739911 of unit cell:	Completed after 0 iterations at t[s]:   2905.22
ElecMinimize: 	Step increased G by 4.112098e-08, reducing alpha to 5.301509e-04.
	Linear fluid (dielectric constant: 78.4, screening length: 5.74355 Bohr) occupying 0.739911 of unit cell:	Completed after 0 iterations at t[s]:   2925.01
ElecMinimize: 	Step increased G by 4.377148e-08, reducing alpha to 5.301509e-05.
ElecMinimize: 	Step failed to reduce G after 3 attempts. Quitting step.
ElecMinimize: 	Undoing step.
	Linear fluid (dielectric constant: 78.4, screening length: 5.74355 Bohr) occupying 0.739911 of unit cell:	Completed after 0 iterations at t[s]:   2944.56
ElecMinimize: 	Step failed along negative gradient direction.
ElecMinimize: Probably at roundoff error limit. (Stopping)
Setting wave functions to eigenvectors of Hamiltonian

# Ionic positions in lattice coordinates:
ion Cr   0.166669679660409   0.166669667685362   0.499833242111743 1
ion Cr   0.333330263362084   0.333330330719453   0.500166676340389 1
ion Cr   0.666669679660409   0.166669667685362   0.499833242111743 1
ion Cr   0.833330263362084   0.333330330719453   0.500166676340389 1
ion Cr   0.166669679660409   0.666669667685362   0.499833242111743 1
ion Cr   0.333330263362084   0.833330330719453   0.500166676340389 1
ion Cr   0.666669679660409   0.666669667685362   0.499833242111743 1
ion Cr   0.833330263362084   0.833330330719453   0.500166676340389 1
ion Ge  -0.000000098612561   0.000000043576081   0.434558307520107 1
ion Ge   0.000000107282999  -0.000000039948946   0.565451513488468 1
ion Ge   0.499999901387439   0.000000043576081   0.434558307520107 1
ion Ge   0.500000107282999  -0.000000039948946   0.565451513488468 1
ion Ge  -0.000000098612561   0.500000043576081   0.434558307520107 1
ion Ge   0.000000107282999   0.499999960051054   0.565451513488468 1
ion Ge   0.499999901387439   0.500000043576081   0.434558307520107 1
ion Ge   0.500000107282999   0.499999960051054   0.565451513488468 1
ion Te   0.312798984726047   0.000204544413348   0.594313279723315 1
ion Te   0.000204822879751   0.186996293381127   0.594313176947987 1
ion Te   0.186996401217524   0.312798865946481   0.594313599762183 1
ion Te   0.187210280993311   0.499776599435519   0.405686816894575 1
ion Te   0.499776338310516   0.313013355835057   0.405686919783796 1
ion Te   0.313013210179920   0.187210392456513   0.405686497427436 1
ion Te   0.812798984726047   0.000204544413348   0.594313279723315 1
ion Te   0.500204822879751   0.186996293381127   0.594313176947987 1
ion Te   0.686996401217523   0.312798865946481   0.594313599762183 1
ion Te   0.687210280993311   0.499776599435519   0.405686816894575 1
ion Te   0.999776338310516   0.313013355835057   0.405686919783796 1
ion Te   0.813013210179920   0.187210392456513   0.405686497427436 1
ion Te   0.312798984726047   0.500204544413348   0.594313279723315 1
ion Te   0.000204822879751   0.686996293381127   0.594313176947987 1
ion Te   0.186996401217524   0.812798865946481   0.594313599762183 1
ion Te   0.187210280993311   0.999776599435519   0.405686816894575 1
ion Te   0.499776338310516   0.813013355835057   0.405686919783796 1
ion Te   0.313013210179920   0.687210392456512   0.405686497427436 1
ion Te   0.812798984726047   0.500204544413348   0.594313279723315 1
ion Te   0.500204822879751   0.686996293381127   0.594313176947987 1
ion Te   0.686996401217523   0.812798865946481   0.594313599762183 1
ion Te   0.687210280993311   0.999776599435519   0.405686816894575 1
ion Te   0.999776338310516   0.813013355835057   0.405686919783796 1
ion Te   0.813013210179920   0.687210392456512   0.405686497427436 1


# Forces in Lattice coordinates:
force Cr  -0.000312579202616  -0.000319274616934   0.009882982925769 1
force Cr   0.000316473663676   0.000321062167285  -0.009987145425014 1
force Cr  -0.000312579202616  -0.000319274616934   0.009882982925769 1
force Cr   0.000316473663676   0.000321062167285  -0.009987145425014 1
force Cr  -0.000312579202616  -0.000319274616934   0.009882982925770 1
force Cr   0.000316473663676   0.000321062167285  -0.009987145425015 1
force Cr  -0.000312579202616  -0.000319274616934   0.009882982925769 1
force Cr   0.000316473663676   0.000321062167285  -0.009987145425014 1
force Ge  -0.000054741178546   0.000006064292113   0.014630161945174 1
force Ge   0.000055287951910  -0.000004749110625  -0.014880579093351 1
force Ge  -0.000054741178546   0.000006064292113   0.014630161945060 1
force Ge   0.000055287951910  -0.000004749110625  -0.014880579093351 1
force Ge  -0.000054741178546   0.000006064292113   0.014630161945174 1
force Ge   0.000055287951910  -0.000004749110625  -0.014880579093237 1
force Ge  -0.000054741178546   0.000006064292113   0.014630161945174 1
force Ge   0.000055287951910  -0.000004749110625  -0.014880579093237 1
force Te  -0.027878487414209  -0.015846502035927   0.032040928701852 1
force Te   0.012146004086440   0.027824214773583   0.031923934033671 1
force Te   0.015753236672300  -0.012138007179913   0.032377281641615 1
force Te   0.027757606902502   0.016193481635839  -0.031963494253760 1
force Te  -0.011681454958407  -0.027706946583072  -0.031846392275315 1
force Te  -0.016101531860498   0.011669512262518  -0.032299240509737 1
force Te  -0.027878487414209  -0.015846502035927   0.032040928701852 1
force Te   0.012146004086440   0.027824214773579   0.031923934033671 1
force Te   0.015753236672298  -0.012138007179911   0.032377281641615 1
force Te   0.027757606902502   0.016193481635839  -0.031963494253646 1
force Te  -0.011681454958407  -0.027706946583072  -0.031846392275258 1
force Te  -0.016101531860498   0.011669512262521  -0.032299240509793 1
force Te  -0.027878487414213  -0.015846502035929   0.032040928701852 1
force Te   0.012146004086440   0.027824214773575   0.031923934033614 1
force Te   0.015753236672300  -0.012138007179911   0.032377281641615 1
force Te   0.027757606902506   0.016193481635838  -0.031963494253703 1
force Te  -0.011681454958409  -0.027706946583068  -0.031846392275315 1
force Te  -0.016101531860498   0.011669512262518  -0.032299240509737 1
force Te  -0.027878487414209  -0.015846502035929   0.032040928701852 1
force Te   0.012146004086438   0.027824214773579   0.031923934033671 1
force Te   0.015753236672300  -0.012138007179911   0.032377281641615 1
force Te   0.027757606902502   0.016193481635838  -0.031963494253703 1
force Te  -0.011681454958409  -0.027706946583068  -0.031846392275315 1
force Te  -0.016101531860498   0.011669512262519  -0.032299240509737 1

# Energy components:
   A_diel =        0.0231445117119474
   Eewald =     5580.1311426758802554
       EH =     7008.8445921482280028
     Eloc =   -14359.6165879183699872
      Enl =      119.1307236511677417
      Exc =     -496.5743762743879870
 Exc_core =      224.7103414657632925
       KE =      273.3229409364389539
  MuShift =        0.0021976412605499
-------------------------------------
     Etot =    -1650.0258811623066322
       TS =        0.0123716409774959
-------------------------------------
        F =    -1650.0382528032841947
      muN =      -62.9789283090884524
-------------------------------------
        G =    -1587.0593244941958346

IonicMinimize: Iter:   1  G: -1587.059324494195835  |grad|_K:  6.473e-04  alpha:  1.000e+00  linmin: -9.981e-01  t[s]:   2966.06

#--- Lowdin population analysis ---
# oxidation-state Cr +0.880 +0.880 +0.880 +0.880 +0.880 +0.880 +0.880 +0.880
# magnetic-moments Cr +3.341 +3.340 +3.341 +3.340 +3.341 +3.340 +3.341 +3.340
# oxidation-state Ge +0.014 +0.014 +0.014 +0.014 +0.014 +0.014 +0.014 +0.014
# magnetic-moments Ge +0.065 +0.065 +0.065 +0.065 +0.065 +0.065 +0.065 +0.065
# oxidation-state Te -0.171 -0.171 -0.171 -0.171 -0.171 -0.171 -0.171 -0.171 -0.171 -0.171 -0.171 -0.171 -0.171 -0.171 -0.171 -0.171 -0.171 -0.171 -0.171 -0.171 -0.171 -0.171 -0.171 -0.171
# magnetic-moments Te -0.176 -0.176 -0.176 -0.176 -0.176 -0.176 -0.176 -0.176 -0.176 -0.176 -0.176 -0.176 -0.176 -0.176 -0.176 -0.176 -0.176 -0.176 -0.176 -0.176 -0.176 -0.176 -0.176 -0.176

Shifting auxilliary hamiltonian by -0.000012 to set nElectrons=367.756300
	Linear fluid (dielectric constant: 78.4, screening length: 5.74355 Bohr) occupying 0.739586 of unit cell:	Completed after 9 iterations at t[s]:   2977.01

-------- Electronic minimization -----------
	Linear fluid (dielectric constant: 78.4, screening length: 5.74355 Bohr) occupying 0.739586 of unit cell:	Completed after 0 iterations at t[s]:   2986.61
	FillingsUpdate:  mu: -0.171251800  nElectrons: 367.756300  magneticMoment: [ Abs: 30.67127  Tot: +23.70417 ]
ElecMinimize: Iter:   0  G: -1587.059017504645226  |grad|_K:  1.470e-06  alpha:  1.000e+00
	Linear fluid (dielectric constant: 78.4, screening length: 5.74355 Bohr) occupying 0.739569 of unit cell:	Completed after 10 iterations at t[s]:   3010.22
	Linear fluid (dielectric constant: 78.4, screening length: 5.74355 Bohr) occupying 0.739574 of unit cell:	Completed after 8 iterations at t[s]:   3023.18
	FillingsUpdate:  mu: -0.171251800  nElectrons: 367.723490  magneticMoment: [ Abs: 30.67386  Tot: +23.69822 ]
	SubspaceRotationAdjust: set factor to 0.329
ElecMinimize: Iter:   1  G: -1587.059355078386034  |grad|_K:  1.549e-06  alpha:  7.281e-01  linmin: -1.709e-05  t[s]:   3034.94
	Linear fluid (dielectric constant: 78.4, screening length: 5.74355 Bohr) occupying 0.739626 of unit cell:	Completed after 12 iterations at t[s]:   3045.80
	Linear fluid (dielectric constant: 78.4, screening length: 5.74355 Bohr) occupying 0.739597 of unit cell:	Completed after 10 iterations at t[s]:   3059.00
	FillingsUpdate:  mu: -0.171251800  nElectrons: 367.744843  magneticMoment: [ Abs: 30.68772  Tot: +23.69769 ]
	SubspaceRotationAdjust: set factor to 0.304
ElecMinimize: Iter:   2  G: -1587.059523909661493  |grad|_K:  9.172e-07  alpha:  3.268e-01  linmin: -1.443e-05  t[s]:   3071.65
	Linear fluid (dielectric constant: 78.4, screening length: 5.74355 Bohr) occupying 0.739608 of unit cell:	Completed after 8 iterations at t[s]:   3081.42
	Linear fluid (dielectric constant: 78.4, screening length: 5.74355 Bohr) occupying 0.739613 of unit cell:	Completed after 2 iterations at t[s]:   3092.45
	FillingsUpdate:  mu: -0.171251800  nElectrons: 367.756678  magneticMoment: [ Abs: 30.68881  Tot: +23.69542 ]
	SubspaceRotationAdjust: set factor to 0.395
ElecMinimize: Iter:   3  G: -1587.059608742910541  |grad|_K:  5.328e-07  alpha:  4.671e-01  linmin: -1.026e-04  t[s]:   3104.35
	Linear fluid (dielectric constant: 78.4, screening length: 5.74355 Bohr) occupying 0.739616 of unit cell:	Completed after 2 iterations at t[s]:   3113.48
	Linear fluid (dielectric constant: 78.4, screening length: 5.74355 Bohr) occupying 0.739616 of unit cell:	Completed after 2 iterations at t[s]:   3125.34
	FillingsUpdate:  mu: -0.171251800  nElectrons: 367.753612  magneticMoment: [ Abs: 30.68929  Tot: +23.69320 ]
	SubspaceRotationAdjust: set factor to 0.487
ElecMinimize: Iter:   4  G: -1587.059643957515163  |grad|_K:  2.931e-07  alpha:  5.718e-01  linmin: -9.542e-05  t[s]:   3137.79
	Linear fluid (dielectric constant: 78.4, screening length: 5.74355 Bohr) occupying 0.739616 of unit cell:	Completed after 7 iterations at t[s]:   3147.88
	Linear fluid (dielectric constant: 78.4, screening length: 5.74355 Bohr) occupying 0.739616 of unit cell:	Completed after 2 iterations at t[s]:   3159.32
	FillingsUpdate:  mu: -0.171251800  nElectrons: 367.747771  magneticMoment: [ Abs: 30.69085  Tot: +23.69226 ]
	SubspaceRotationAdjust: set factor to 0.491
ElecMinimize: Iter:   5  G: -1587.059651934679778  |grad|_K:  1.829e-07  alpha:  4.319e-01  linmin:  1.483e-04  t[s]:   3171.50
	Linear fluid (dielectric constant: 78.4, screening length: 5.74355 Bohr) occupying 0.739619 of unit cell:	Completed after 2 iterations at t[s]:   3180.34
	Linear fluid (dielectric constant: 78.4, screening length: 5.74355 Bohr) occupying 0.739620 of unit cell:	Completed after 0 iterations at t[s]:   3190.94
	FillingsUpdate:  mu: -0.171251800  nElectrons: 367.748609  magneticMoment: [ Abs: 30.69284  Tot: +23.69195 ]
	SubspaceRotationAdjust: set factor to 0.494
ElecMinimize: Iter:   6  G: -1587.059655430918610  |grad|_K:  9.513e-08  alpha:  4.883e-01  linmin: -7.026e-04  t[s]:   3203.09
	Linear fluid (dielectric constant: 78.4, screening length: 5.74355 Bohr) occupying 0.739622 of unit cell:	Completed after 3 iterations at t[s]:   3212.19
	Linear fluid (dielectric constant: 78.4, screening length: 5.74355 Bohr) occupying 0.739622 of unit cell:	Completed after 0 iterations at t[s]:   3222.79
[...]
	Linear fluid (dielectric constant: 78.4, screening length: 5.74355 Bohr) occupying 0.739502 of unit cell:	Completed after 0 iterations at t[s]:   4647.32
ElecMinimize: 	Predicted alpha/alphaT>3.000000, increasing alphaT to 3.988616e-01.
	Linear fluid (dielectric constant: 78.4, screening length: 5.74355 Bohr) occupying 0.739502 of unit cell:	Completed after 0 iterations at t[s]:   4657.81
	Linear fluid (dielectric constant: 78.4, screening length: 5.74355 Bohr) occupying 0.739502 of unit cell:	Completed after 0 iterations at t[s]:   4668.75
	FillingsUpdate:  mu: -0.171251800  nElectrons: 367.742701  magneticMoment: [ Abs: 30.73308  Tot: +23.69386 ]
	SubspaceRotationAdjust: set factor to 0.185
ElecMinimize: Iter:  23  G: -1587.059679263407588  |grad|_K:  2.529e-08  alpha:  3.241e-01  linmin: -2.270e-03  t[s]:   4679.91
	Linear fluid (dielectric constant: 78.4, screening length: 5.74355 Bohr) occupying 0.739502 of unit cell:	Completed after 1 iterations at t[s]:   4688.34
	Linear fluid (dielectric constant: 78.4, screening length: 5.74355 Bohr) occupying 0.739502 of unit cell:	Completed after 0 iterations at t[s]:   4698.84
ElecMinimize: 	Step increased G by 4.948311e-08, reducing alpha to 5.789929e-03.
	Linear fluid (dielectric constant: 78.4, screening length: 5.74355 Bohr) occupying 0.739502 of unit cell:	Completed after 0 iterations at t[s]:   4718.54
ElecMinimize: 	Step increased G by 2.682373e-08, reducing alpha to 5.789929e-04.
	Linear fluid (dielectric constant: 78.4, screening length: 5.74355 Bohr) occupying 0.739502 of unit cell:	Completed after 0 iterations at t[s]:   4737.29
ElecMinimize: 	Step increased G by 2.463617e-08, reducing alpha to 5.789929e-05.
ElecMinimize: 	Step failed to reduce G after 3 attempts. Quitting step.
ElecMinimize: 	Undoing step.
	Linear fluid (dielectric constant: 78.4, screening length: 5.74355 Bohr) occupying 0.739502 of unit cell:	Completed after 0 iterations at t[s]:   4756.40
ElecMinimize: 	Step failed: resetting search direction.
	FillingsUpdate:  mu: -0.171251800  nElectrons: 367.742701  magneticMoment: [ Abs: 30.73308  Tot: +23.69386 ]
	SubspaceRotationAdjust: set factor to 0.161
ElecMinimize: Iter:  24  G: -1587.059679238813260  |grad|_K:  3.658e-08  alpha:  5.790e-05
	Linear fluid (dielectric constant: 78.4, screening length: 5.74355 Bohr) occupying 0.739502 of unit cell:	Completed after 2 iterations at t[s]:   4776.53
	Linear fluid (dielectric constant: 78.4, screening length: 5.74355 Bohr) occupying 0.739502 of unit cell:	Completed after 0 iterations at t[s]:   4787.14
ElecMinimize: 	Step increased G by 8.162033e-09, reducing alpha to 9.584982e-03.
	Linear fluid (dielectric constant: 78.4, screening length: 5.74355 Bohr) occupying 0.739502 of unit cell:	Completed after 0 iterations at t[s]:   4805.79
	FillingsUpdate:  mu: -0.171251800  nElectrons: 367.742705  magneticMoment: [ Abs: 30.73308  Tot: +23.69386 ]
	SubspaceRotationAdjust: set factor to 0.111
ElecMinimize: Iter:  25  G: -1587.059679266039439  |grad|_K:  2.699e-08  alpha:  9.585e-03  linmin:  1.058e-02  t[s]:   4817.83
	Linear fluid (dielectric constant: 78.4, screening length: 5.74355 Bohr) occupying 0.739502 of unit cell:	Completed after 0 iterations at t[s]:   4825.90
ElecMinimize: 	Wrong curvature in test step, increasing alphaT to 2.875495e-02.
	Linear fluid (dielectric constant: 78.4, screening length: 5.74355 Bohr) occupying 0.739502 of unit cell:	Completed after 0 iterations at t[s]:   4834.59
	FillingsUpdate:  mu: -0.171251800  nElectrons: 367.742706  magneticMoment: [ Abs: 30.73308  Tot: +23.69386 ]
	SubspaceRotationAdjust: set factor to 0.155
ElecMinimize: Iter:  26  G: -1587.059679267071488  |grad|_K:  2.551e-08  alpha: -9.411e-01  linmin: -2.937e-03  t[s]:   4846.69
	Linear fluid (dielectric constant: 78.4, screening length: 5.74355 Bohr) occupying 0.739502 of unit cell:	Completed after 2 iterations at t[s]:   4855.71
	Linear fluid (dielectric constant: 78.4, screening length: 5.74355 Bohr) occupying 0.739502 of unit cell:	Completed after 2 iterations at t[s]:   4866.69
ElecMinimize: 	Step increased G by 8.868551e-08, reducing alpha to 1.254415e-02.
	Linear fluid (dielectric constant: 78.4, screening length: 5.74355 Bohr) occupying 0.739502 of unit cell:	Completed after 0 iterations at t[s]:   4885.66
ElecMinimize: 	Step increased G by 5.497623e-08, reducing alpha to 1.254415e-03.
	Linear fluid (dielectric constant: 78.4, screening length: 5.74355 Bohr) occupying 0.739502 of unit cell:	Completed after 0 iterations at t[s]:   4904.28
ElecMinimize: 	Step increased G by 5.215111e-08, reducing alpha to 1.254415e-04.
ElecMinimize: 	Step failed to reduce G after 3 attempts. Quitting step.
ElecMinimize: 	Undoing step.
	Linear fluid (dielectric constant: 78.4, screening length: 5.74355 Bohr) occupying 0.739502 of unit cell:	Completed after 0 iterations at t[s]:   4923.64
ElecMinimize: 	Step failed: resetting search direction.
	FillingsUpdate:  mu: -0.171251800  nElectrons: 367.742706  magneticMoment: [ Abs: 30.73308  Tot: +23.69386 ]
	SubspaceRotationAdjust: set factor to 0.126
ElecMinimize: Iter:  27  G: -1587.059679214943344  |grad|_K:  2.478e-08  alpha:  1.254e-04
	Linear fluid (dielectric constant: 78.4, screening length: 5.74355 Bohr) occupying 0.739502 of unit cell:	Completed after 2 iterations at t[s]:   4943.94
	Linear fluid (dielectric constant: 78.4, screening length: 5.74355 Bohr) occupying 0.739502 of unit cell:	Completed after 2 iterations at t[s]:   4955.72
ElecMinimize: 	Step increased G by 9.433279e-09, reducing alpha to 1.777078e-02.
	Linear fluid (dielectric constant: 78.4, screening length: 5.74355 Bohr) occupying 0.739502 of unit cell:	Completed after 0 iterations at t[s]:   4974.58
	FillingsUpdate:  mu: -0.171251800  nElectrons: 367.742712  magneticMoment: [ Abs: 30.73309  Tot: +23.69386 ]
	SubspaceRotationAdjust: set factor to 0.0857
ElecMinimize: Iter:  28  G: -1587.059679231060954  |grad|_K:  1.601e-08  alpha:  1.777e-02  linmin:  7.703e-03  t[s]:   4986.73
	Linear fluid (dielectric constant: 78.4, screening length: 5.74355 Bohr) occupying 0.739502 of unit cell:	Completed after 0 iterations at t[s]:   4994.62
ElecMinimize: 	Predicted alpha/alphaT>3.000000, increasing alphaT to 5.331233e-02.
	Linear fluid (dielectric constant: 78.4, screening length: 5.74355 Bohr) occupying 0.739502 of unit cell:	Completed after 0 iterations at t[s]:   5005.00
ElecMinimize: 	Predicted alpha/alphaT>3.000000, increasing alphaT to 1.599370e-01.
	Linear fluid (dielectric constant: 78.4, screening length: 5.74355 Bohr) occupying 0.739502 of unit cell:	Completed after 0 iterations at t[s]:   5015.60
	Linear fluid (dielectric constant: 78.4, screening length: 5.74355 Bohr) occupying 0.739502 of unit cell:	Completed after 0 iterations at t[s]:   5026.54
	FillingsUpdate:  mu: -0.171251800  nElectrons: 367.742763  magneticMoment: [ Abs: 30.73315  Tot: +23.69386 ]
	SubspaceRotationAdjust: set factor to 0.117
ElecMinimize: Iter:  29  G: -1587.059679242424636  |grad|_K:  1.481e-08  alpha:  4.133e-01  linmin:  8.103e-06  t[s]:   5038.34
	Linear fluid (dielectric constant: 78.4, screening length: 5.74355 Bohr) occupying 0.739502 of unit cell:	Completed after 1 iterations at t[s]:   5047.10
	Linear fluid (dielectric constant: 78.4, screening length: 5.74355 Bohr) occupying 0.739502 of unit cell:	Completed after 0 iterations at t[s]:   5057.75
ElecMinimize: 	Step increased G by 4.887943e-08, reducing alpha to 6.374056e-03.
	Linear fluid (dielectric constant: 78.4, screening length: 5.74355 Bohr) occupying 0.739502 of unit cell:	Completed after 0 iterations at t[s]:   5075.65
ElecMinimize: 	Step increased G by 4.385947e-08, reducing alpha to 6.374056e-04.
	Linear fluid (dielectric constant: 78.4, screening length: 5.74355 Bohr) occupying 0.739502 of unit cell:	Completed after 0 iterations at t[s]:   5094.22
ElecMinimize: 	Step increased G by 4.337039e-08, reducing alpha to 6.374056e-05.
ElecMinimize: 	Step failed to reduce G after 3 attempts. Quitting step.
ElecMinimize: 	Undoing step.
	Linear fluid (dielectric constant: 78.4, screening length: 5.74355 Bohr) occupying 0.739502 of unit cell:	Completed after 0 iterations at t[s]:   5113.24
ElecMinimize: 	Step failed: resetting search direction.
	FillingsUpdate:  mu: -0.171251800  nElectrons: 367.742763  magneticMoment: [ Abs: 30.73315  Tot: +23.69386 ]
	SubspaceRotationAdjust: set factor to 0.104
ElecMinimize: Iter:  30  G: -1587.059679199053789  |grad|_K:  1.587e-08  alpha:  6.374e-05
	Linear fluid (dielectric constant: 78.4, screening length: 5.74355 Bohr) occupying 0.739502 of unit cell:	Completed after 0 iterations at t[s]:   5133.82
	Linear fluid (dielectric constant: 78.4, screening length: 5.74355 Bohr) occupying 0.739502 of unit cell:	Completed after 0 iterations at t[s]:   5144.33
	FillingsUpdate:  mu: -0.171251800  nElectrons: 367.742792  magneticMoment: [ Abs: 30.73327  Tot: +23.69387 ]
	SubspaceRotationAdjust: set factor to 0.131
ElecMinimize: Iter:  31  G: -1587.059679224697675  |grad|_K:  1.047e-08  alpha:  4.740e-01  linmin:  3.447e-06  t[s]:   5156.15
	Linear fluid (dielectric constant: 78.4, screening length: 5.74355 Bohr) occupying 0.739501 of unit cell:	Completed after 1 iterations at t[s]:   5164.39
	Linear fluid (dielectric constant: 78.4, screening length: 5.74355 Bohr) occupying 0.739502 of unit cell:	Completed after 0 iterations at t[s]:   5175.59
ElecMinimize: 	Step increased G by 3.866467e-08, reducing alpha to 6.612676e-03.
	Linear fluid (dielectric constant: 78.4, screening length: 5.74355 Bohr) occupying 0.739502 of unit cell:	Completed after 0 iterations at t[s]:   5193.86
ElecMinimize: 	Step increased G by 3.707714e-08, reducing alpha to 6.612676e-04.
	Linear fluid (dielectric constant: 78.4, screening length: 5.74355 Bohr) occupying 0.739502 of unit cell:	Completed after 0 iterations at t[s]:   5212.69
ElecMinimize: 	Step increased G by 3.693617e-08, reducing alpha to 6.612676e-05.
ElecMinimize: 	Step failed to reduce G after 3 attempts. Quitting step.
ElecMinimize: 	Undoing step.
	Linear fluid (dielectric constant: 78.4, screening length: 5.74355 Bohr) occupying 0.739502 of unit cell:	Completed after 0 iterations at t[s]:   5231.41
ElecMinimize: 	Step failed: resetting search direction.
	FillingsUpdate:  mu: -0.171251800  nElectrons: 367.742793  magneticMoment: [ Abs: 30.73327  Tot: +23.69387 ]
	SubspaceRotationAdjust: set factor to 0.125
ElecMinimize: Iter:  32  G: -1587.059679187758093  |grad|_K:  1.408e-08  alpha:  6.613e-05
	Linear fluid (dielectric constant: 78.4, screening length: 5.74355 Bohr) occupying 0.739502 of unit cell:	Completed after 0 iterations at t[s]:   5251.48
	Linear fluid (dielectric constant: 78.4, screening length: 5.74355 Bohr) occupying 0.739502 of unit cell:	Completed after 0 iterations at t[s]:   5262.40
	FillingsUpdate:  mu: -0.171251800  nElectrons: 367.742821  magneticMoment: [ Abs: 30.73330  Tot: +23.69386 ]
	SubspaceRotationAdjust: set factor to 0.144
ElecMinimize: Iter:  33  G: -1587.059679203731093  |grad|_K:  7.500e-09  alpha:  3.751e-01  linmin: -1.479e-06  t[s]:   5274.39
	Linear fluid (dielectric constant: 78.4, screening length: 5.74355 Bohr) occupying 0.739502 of unit cell:	Completed after 0 iterations at t[s]:   5282.42
	Linear fluid (dielectric constant: 78.4, screening length: 5.74355 Bohr) occupying 0.739502 of unit cell:	Completed after 0 iterations at t[s]:   5292.75
	FillingsUpdate:  mu: -0.171251800  nElectrons: 367.742857  magneticMoment: [ Abs: 30.73333  Tot: +23.69386 ]
	SubspaceRotationAdjust: set factor to 0.183
ElecMinimize: Iter:  34  G: -1587.059679208500256  |grad|_K:  4.520e-09  alpha:  3.965e-01  linmin:  1.585e-05  t[s]:   5305.20
	Linear fluid (dielectric constant: 78.4, screening length: 5.74355 Bohr) occupying 0.739502 of unit cell:	Completed after 0 iterations at t[s]:   5313.27
	Linear fluid (dielectric constant: 78.4, screening length: 5.74355 Bohr) occupying 0.739502 of unit cell:	Completed after 0 iterations at t[s]:   5323.83
	FillingsUpdate:  mu: -0.171251800  nElectrons: 367.742978  magneticMoment: [ Abs: 30.73345  Tot: +23.69386 ]
	SubspaceRotationAdjust: set factor to 0.214
ElecMinimize: Iter:  35  G: -1587.059679213452000  |grad|_K:  6.634e-09  alpha:  1.133e+00  linmin:  7.349e-07  t[s]:   5335.44
ElecMinimize: Converged (|Delta G|<1.000000e-08 for 2 iters).
Setting wave functions to eigenvectors of Hamiltonian

# Ionic positions in lattice coordinates:
ion Cr   0.166665249839365   0.166666814388871   0.499953707303214 1
ion Cr   0.333334731070662   0.333333210750084   0.500046156899856 1
ion Cr   0.666665249839365   0.166666814388871   0.499953707303214 1
ion Cr   0.833334731070663   0.333333210750084   0.500046156899856 1
ion Cr   0.166665249839365   0.666666814388871   0.499953707303214 1
ion Cr   0.333334731070662   0.833333210750084   0.500046156899856 1
ion Cr   0.666665249839365   0.666666814388871   0.499953707303214 1
ion Cr   0.833334731070663   0.833333210750084   0.500046156899856 1
ion Ge  -0.000002317996830   0.000003816018484   0.434435928235217 1
ion Ge   0.000002254026281  -0.000003790874849   0.565569510155564 1
ion Ge   0.499997682003170   0.000003816018484   0.434435928235217 1
ion Ge   0.500002254026281  -0.000003790874849   0.565569510155564 1
ion Ge  -0.000002317996830   0.500003816018484   0.434435928235217 1
ion Ge   0.000002254026281   0.499996209125151   0.565569510155564 1
ion Ge   0.499997682003170   0.500003816018484   0.434435928235217 1
ion Ge   0.500002254026281   0.499996209125151   0.565569510155564 1
ion Te   0.312345313828042   0.000054017229293   0.594810216033707 1
ion Te   0.000058578103367   0.187597501996962   0.594808479968544 1
ion Te   0.187603226635907   0.312339295748477   0.594813150552119 1
ion Te   0.187651839751755   0.499946679142774   0.405191369376792 1
ion Te   0.499942191157373   0.312404632781322   0.405193096629215 1
ion Te   0.312398923584080   0.187657876318577   0.405188414845771 1
ion Te   0.812345313828042   0.000054017229293   0.594810216033707 1
ion Te   0.500058578103367   0.187597501996962   0.594808479968544 1
ion Te   0.687603226635907   0.312339295748477   0.594813150552119 1
ion Te   0.687651839751755   0.499946679142774   0.405191369376792 1
ion Te   0.999942191157373   0.312404632781322   0.405193096629215 1
ion Te   0.812398923584080   0.187657876318577   0.405188414845771 1
ion Te   0.312345313828042   0.500054017229293   0.594810216033707 1
ion Te   0.000058578103367   0.687597501996962   0.594808479968544 1
ion Te   0.187603226635907   0.812339295748477   0.594813150552119 1
ion Te   0.187651839751755   0.999946679142774   0.405191369376792 1
ion Te   0.499942191157373   0.812404632781322   0.405193096629215 1
ion Te   0.312398923584080   0.687657876318577   0.405188414845771 1
ion Te   0.812345313828042   0.500054017229293   0.594810216033707 1
ion Te   0.500058578103367   0.687597501996962   0.594808479968544 1
ion Te   0.687603226635907   0.812339295748477   0.594813150552119 1
ion Te   0.687651839751755   0.999946679142774   0.405191369376792 1
ion Te   0.999942191157373   0.812404632781322   0.405193096629215 1
ion Te   0.812398923584080   0.687657876318577   0.405188414845771 1


# Forces in Lattice coordinates:
force Cr  -0.000160114477390  -0.000211706660260   0.004512522030780 1
force Cr   0.000179567914876   0.000209570482748  -0.004428768582782 1
force Cr  -0.000160114477390  -0.000211706660260   0.004512522030780 1
force Cr   0.000179567914876   0.000209570482748  -0.004428768582782 1
force Cr  -0.000160114477390  -0.000211706660260   0.004512522030780 1
force Cr   0.000179567914876   0.000209570482748  -0.004428768582782 1
force Cr  -0.000160114477390  -0.000211706660260   0.004512522030780 1
force Cr   0.000179567914876   0.000209570482748  -0.004428768582782 1
force Ge  -0.000075886350315   0.000024034455791   0.002442428597309 1
force Ge   0.000079074190233  -0.000022839446450  -0.002440061339737 1
force Ge  -0.000075886350315   0.000024034455791   0.002442428597309 1
force Ge   0.000079074190233  -0.000022839446450  -0.002440061339623 1
force Ge  -0.000075886350315   0.000024034455791   0.002442428597195 1
force Ge   0.000079074190233  -0.000022839446450  -0.002440061339623 1
force Ge  -0.000075886350315   0.000024034455791   0.002442428597195 1
force Ge   0.000079074190233  -0.000022839446450  -0.002440061339623 1
force Te   0.002189867861907   0.000606162566192  -0.000405239244270 1
force Te  -0.001610870128752  -0.002291623061582  -0.000409703192350 1
force Te  -0.000663613391876   0.001607098954522  -0.000377599355428 1
force Te  -0.002137970455583  -0.000479065165828   0.000340732579079 1
force Te   0.001681789931880   0.002236595693830   0.000343291230761 1
force Te   0.000535394643891  -0.001680540117085   0.000312710875910 1
force Te   0.002189867861903   0.000606162566192  -0.000405239244270 1
force Te  -0.001610870128752  -0.002291623061578  -0.000409703192350 1
force Te  -0.000663613391876   0.001607098954522  -0.000377599355371 1
force Te  -0.002137970455583  -0.000479065165828   0.000340732579136 1
force Te   0.001681789931880   0.002236595693830   0.000343291230761 1
force Te   0.000535394643893  -0.001680540117087   0.000312710875910 1
force Te   0.002189867861910   0.000606162566190  -0.000405239244214 1
force Te  -0.001610870128754  -0.002291623061582  -0.000409703192293 1
force Te  -0.000663613391878   0.001607098954524  -0.000377599355371 1
force Te  -0.002137970455586  -0.000479065165826   0.000340732579136 1
force Te   0.001681789931880   0.002236595693833   0.000343291230704 1
force Te   0.000535394643893  -0.001680540117087   0.000312710875910 1
force Te   0.002189867861907   0.000606162566190  -0.000405239244157 1
force Te  -0.001610870128756  -0.002291623061578  -0.000409703192293 1
force Te  -0.000663613391876   0.001607098954524  -0.000377599355485 1
force Te  -0.002137970455586  -0.000479065165828   0.000340732579193 1
force Te   0.001681789931880   0.002236595693830   0.000343291230761 1
force Te   0.000535394643893  -0.001680540117087   0.000312710875910 1

# Energy components:
   A_diel =        0.0238926106380596
   Eewald =     5573.1614319356676788
       EH =     7001.6450883618881562
     Eloc =   -14345.4377008258834394
      Enl =      119.1715181402496597
      Exc =     -496.5209640645398963
 Exc_core =      224.7103107046703201
       KE =      273.2207279666415616
  MuShift =        0.0023177777757648
-------------------------------------
     Etot =    -1650.0233773928925984
       TS =        0.0129486889333065
-------------------------------------
        F =    -1650.0363260818257913
      muN =      -62.9766468683739049
-------------------------------------
        G =    -1587.0596792134520001

IonicMinimize: Iter:   3  G: -1587.059679213452000  |grad|_K:  5.512e-05  alpha:  1.000e+00  linmin: -7.111e-02  t[s]:   5344.62
IonicMinimize: Converged (|grad|_K<1.000000e-04).

#--- Lowdin population analysis ---
# oxidation-state Cr +0.882 +0.882 +0.882 +0.882 +0.882 +0.882 +0.882 +0.882
# magnetic-moments Cr +3.345 +3.345 +3.345 +3.345 +3.345 +3.345 +3.345 +3.345
# oxidation-state Ge +0.014 +0.014 +0.014 +0.014 +0.014 +0.014 +0.014 +0.014
# magnetic-moments Ge +0.064 +0.064 +0.064 +0.064 +0.064 +0.064 +0.064 +0.064
# oxidation-state Te -0.171 -0.171 -0.171 -0.171 -0.171 -0.171 -0.171 -0.171 -0.171 -0.171 -0.171 -0.171 -0.171 -0.171 -0.171 -0.171 -0.171 -0.171 -0.171 -0.171 -0.171 -0.171 -0.171 -0.171
# magnetic-moments Te -0.177 -0.177 -0.177 -0.177 -0.177 -0.177 -0.177 -0.177 -0.177 -0.177 -0.177 -0.177 -0.177 -0.177 -0.177 -0.177 -0.177 -0.177 -0.177 -0.177 -0.177 -0.177 -0.177 -0.177


Dumping 'NbTe2.fillings' ... done
Dumping 'NbTe2.wfns' ... done
Dumping 'NbTe2.fluidState' ... done
Dumping 'NbTe2.ionpos' ... done
Dumping 'NbTe2.eigenvals' ... done
End date and time: Sat Sep 26 16:47:17 2020  (Duration: 0-1:29:10.38)
Done!
