
*************** JDFTx 1.5.0  ***************

Start date and time: Sat Jul 11 20:48:16 2020
Executable jdftx_gpu with command-line: -i Charged.in -o Charged.out
Running on hosts (process indices):  amax (0-1)
Divided in process groups (process indices):  0 (0)  1 (1)
gpuInit: Found compatible cuda device 0 'Tesla K80'
gpuInit: Found compatible cuda device 1 'Tesla K80'
gpuInit: Selected device 0
Resource initialization completed at t[s]:     10.99
Run totals: 2 processes, 24 threads, 2 GPUs


Input parsed successfully to the following command list (including defaults):

basis kpoint-dependent
cache-projectors no
coords-type Lattice
core-overlap-check none
coulomb-interaction Slab 001
coulomb-truncation-embed 0 0 0.5
davidson-band-ratio 1.1
dump End State
dump-name NbTe2.$VAR
elec-cutoff 20 100
elec-eigen-algo Davidson
elec-ex-corr gga-PBE
elec-smearing Gauss 0.0073499
electronic-minimize  \
	dirUpdateScheme      FletcherReeves \
	linminMethod         DirUpdateRecommended \
	nIterations          500 \
	history              15 \
	knormThreshold       0 \
	energyDiffThreshold  1e-08 \
	nEnergyDiff          2 \
	alphaTstart          1 \
	alphaTmin            1e-10 \
	updateTestStepSize   yes \
	alphaTreduceFactor   0.1 \
	alphaTincreaseFactor 3 \
	nAlphaAdjustMax      3 \
	wolfeEnergy          0.0001 \
	wolfeGradient        0.9 \
	fdTest               no
exchange-regularization WignerSeitzTruncated
fluid LinearPCM 298.000000 1.013250
fluid-anion F- 1 MeanFieldLJ \
	epsBulk 1 \
	pMol 0 \
	epsInf 1 \
	Pvap 0 \
	sigmaBulk 0 \
	Rvdw 2.24877 \
	Res 0 \
	tauNuc 343133
fluid-cation Na+ 1 MeanFieldLJ \
	epsBulk 1 \
	pMol 0 \
	epsInf 1 \
	Pvap 0 \
	sigmaBulk 0 \
	Rvdw 2.19208 \
	Res 0 \
	tauNuc 343133
fluid-ex-corr lda-TF lda-PZ
fluid-gummel-loop 10 1.000000e-05
fluid-minimize  \
	dirUpdateScheme      PolakRibiere \
	linminMethod         DirUpdateRecommended \
	nIterations          400 \
	history              15 \
	knormThreshold       1e-11 \
	energyDiffThreshold  0 \
	nEnergyDiff          2 \
	alphaTstart          1 \
	alphaTmin            1e-10 \
	updateTestStepSize   yes \
	alphaTreduceFactor   0.1 \
	alphaTincreaseFactor 3 \
	nAlphaAdjustMax      6 \
	wolfeEnergy          0.0001 \
	wolfeGradient        0.9 \
	fdTest               no
fluid-solvent H2O 55.338 ScalarEOS \
	epsBulk 78.4 \
	pMol 0.92466 \
	epsInf 1.77 \
	Pvap 1.06736e-10 \
	sigmaBulk 4.62e-05 \
	Rvdw 2.61727 \
	Res 1.42 \
	tauNuc 343133 \
	poleEl 15 7 1
forces-output-coords Positions
initial-state NbTe2.$VAR
ion Nb   0.164711947170022   0.181924217945280   0.493697461390396 0
ion Nb   0.006185445828327   0.979237082062930   0.499294445408692 0
ion Nb   0.798824643013548   0.802314002536881   0.503467136493547 0
ion Nb   0.592453983748957   0.623711067727317   0.504599753888221 0
ion Nb   0.496641101938186   0.983312035893660   0.499848410517623 0
ion Nb   0.396628611125776   0.424475162921498   0.493401615882344 0
ion Nb   0.297364039288239   0.803778420272542   0.503256145071686 0
ion Nb   0.093522112006535   0.621771123109329   0.504452744243137 0
ion Nb   0.894062061105078   0.380018359875534   0.498487759033372 0
ion Ir   0.733267499274165   0.214523914209211   0.494836688533187 0
ion Se   0.939618953562520   0.262495240826678   0.595109575015832 0
ion Se   0.174782081753371   0.330601326211472   0.413807929589528 0
ion Se   0.722725437497270   0.078869888986438   0.573422478191376 0
ion Se   0.955502315543167   0.123911505841938   0.405697395656558 0
ion Se   0.532890461745949   0.867514758847137   0.598429590212974 0
ion Se   0.761606087221205   0.931319410525242   0.405470551542714 0
ion Se   0.658712677211984   0.337498080394364   0.404745991301708 0
ion Se   0.331845673018051   0.672303219805476   0.600118534513086 0
ion Se   0.224902051806799   0.063960952089549   0.589393468644686 0
ion Se   0.478620622923790   0.140410996955857   0.423420788653566 0
ion Se   0.564414235349768   0.740834738832458   0.407842439859594 0
ion Se   0.133597368284488   0.466310949451696   0.584925027772201 0
ion Se   0.029996579041672   0.865620697939378   0.599087260587245 0
ion Se   0.363042181368131   0.549445626619957   0.409087055805167 0
ion Se   0.265492771980559   0.932174445369178   0.403238573960963 0
ion Se   0.832506067939422   0.670836968067416   0.600027146633874 0
ion Se   0.062197065757023   0.740016274559616   0.407982562790482 0
ion Se   0.632674363375966   0.469093477058816   0.585596935077480 0
ion Se   0.865706925120038   0.536282903063143   0.424229494728747 0
ion-species GBRV/$ID_pbe.uspp
ion-width Ecut
ionic-minimize  \
	dirUpdateScheme      L-BFGS \
	linminMethod         DirUpdateRecommended \
	nIterations          0 \
	history              15 \
	knormThreshold       0.0001 \
	energyDiffThreshold  1e-06 \
	nEnergyDiff          2 \
	alphaTstart          1 \
	alphaTmin            1e-10 \
	updateTestStepSize   yes \
	alphaTreduceFactor   0.1 \
	alphaTincreaseFactor 3 \
	nAlphaAdjustMax      3 \
	wolfeEnergy          0.0001 \
	wolfeGradient        0.9 \
	fdTest               no
kpoint   0.000000000000   0.000000000000   0.000000000000  1.00000000000000
kpoint-folding 5 2 1 
latt-move-scale 1 1 1
latt-scale 1 1 1 
lattice Triclinic 13.0583 28.5428 34.8986 90 90 83.5088
lattice-minimize  \
	dirUpdateScheme      L-BFGS \
	linminMethod         DirUpdateRecommended \
	nIterations          0 \
	history              15 \
	knormThreshold       0 \
	energyDiffThreshold  1e-06 \
	nEnergyDiff          2 \
	alphaTstart          1 \
	alphaTmin            1e-10 \
	updateTestStepSize   yes \
	alphaTreduceFactor   0.1 \
	alphaTincreaseFactor 3 \
	nAlphaAdjustMax      3 \
	wolfeEnergy          0.0001 \
	wolfeGradient        0.9 \
	fdTest               no
lcao-params -1 1e-06 0.0073499
pcm-variant CANDLE
spintype no-spin
subspace-rotation-factor 1 yes
symmetries automatic
symmetry-threshold 0.0001
target-mu -0.171252 no




---------- Setting up symmetries ----------

Found 4 point-group symmetries of the bravais lattice
Found 1 space-group symmetries with basis
Applied RMS atom displacement 0 bohrs to make symmetries exact.

---------- Initializing the Grid ----------
R = 
[    13.0583    3.22678          0  ]
[          0    28.3598          0  ]
[          0          0    34.8986  ]
unit cell volume = 12924.1
G =
[   0.481163 -0.0547467          0  ]
[          0   0.221552          0  ]
[          0          0   0.180041  ]
Minimum fftbox size, Smin = [  60  132  160  ]
Chosen fftbox size, S = [  60  140  160  ]

---------- Initializing tighter grid for wavefunction operations ----------
R = 
[    13.0583    3.22678          0  ]
[          0    28.3598          0  ]
[          0          0    34.8986  ]
unit cell volume = 12924.1
G =
[   0.481163 -0.0547467          0  ]
[          0   0.221552          0  ]
[          0          0   0.180041  ]
Minimum fftbox size, Smin = [  56  116  144  ]
Chosen fftbox size, S = [  56  120  144  ]

---------- Exchange Correlation functional ----------
Initalized PBE GGA exchange.
Initalized PBE GGA correlation.

---------- Setting up pseudopotentials ----------
Width of ionic core gaussian charges (only for fluid interactions / plotting) set to 0.397384

Reading pseudopotential file '/home/guoxy/vasp/jdftx-1.5.0/build/pseudopotentials/GBRV/nb_pbe.uspp':
  Title: Nb.  Created by USPP 7.3.6 on 14-9-2013
  Reference state energy: -58.592548.  13 valence electrons in orbitals:
    |400>  occupation: 2  eigenvalue: -2.145853
    |410>  occupation: 6  eigenvalue: -1.268635
    |420>  occupation: 4  eigenvalue: -0.111734
    |500>  occupation: 1  eigenvalue: -0.146332
    |510>  occupation: 0  eigenvalue: -0.040820
  lMax: 2  lLocal: 3  QijEcut: 5
  6 projectors sampled on a log grid with 627 points:
    l: 0  eig: -2.145854  rCut: 1.8
    l: 0  eig: -0.146334  rCut: 1.8
    l: 1  eig: -1.268634  rCut: 2
    l: 1  eig: 0.150000  rCut: 2
    l: 2  eig: -0.040820  rCut: 2.2
    l: 2  eig: 0.150000  rCut: 2.2
  Partial core density with radius 1.2
  Transforming core density to a uniform radial grid of dG=0.02 with 1338 points.
  Transforming local potential to a uniform radial grid of dG=0.02 with 1338 points.
  Transforming nonlocal projectors to a uniform radial grid of dG=0.02 with 432 points.
  Transforming density augmentations to a uniform radial grid of dG=0.02 with 1338 points.
  Transforming atomic orbitals to a uniform radial grid of dG=0.02 with 432 points.
  Core radius for overlap checks: 2.20 bohrs.

Reading pseudopotential file '/home/guoxy/vasp/jdftx-1.5.0/build/pseudopotentials/GBRV/ir_pbe.uspp':
  Title: Ir.  Created by USPP 7.3.6 on 3-2-2014
  Reference state energy: -90.436894.  15 valence electrons in orbitals:
    |510>  occupation: 6  eigenvalue: -2.019590
    |520>  occupation: 8.5  eigenvalue: -0.306422
    |600>  occupation: 0  eigenvalue: -0.312524
    |610>  occupation: 0  eigenvalue: -0.124096
  lMax: 2  lLocal: 3  QijEcut: 5
  7 projectors sampled on a log grid with 745 points:
    l: 0  eig: -0.312523  rCut: 2.55
    l: 0  eig: 0.250000  rCut: 2.55
    l: 1  eig: -2.019590  rCut: 1.62
    l: 1  eig: -0.124096  rCut: 1.62
    l: 1  eig: 1.000000  rCut: 1.62
    l: 2  eig: -0.500000  rCut: 1.65
    l: 2  eig: -0.306421  rCut: 1.65
  Partial core density with radius 1.15
  Transforming core density to a uniform radial grid of dG=0.02 with 1338 points.
  Transforming local potential to a uniform radial grid of dG=0.02 with 1338 points.
  Transforming nonlocal projectors to a uniform radial grid of dG=0.02 with 432 points.
  Transforming density augmentations to a uniform radial grid of dG=0.02 with 1338 points.
  Transforming atomic orbitals to a uniform radial grid of dG=0.02 with 432 points.
  Core radius for overlap checks: 2.55 bohrs.

Reading pseudopotential file '/home/guoxy/vasp/jdftx-1.5.0/build/pseudopotentials/GBRV/se_pbe.uspp':
  Title: Se.  Created by USPP 7.3.6 on 14-9-2013
  Reference state energy: -21.672887.  6 valence electrons in orbitals:
    |400>  occupation: 2  eigenvalue: -0.635284
    |410>  occupation: 4  eigenvalue: -0.239295
  lMax: 2  lLocal: 3  QijEcut: 5
  6 projectors sampled on a log grid with 625 points:
    l: 0  eig: -0.635278  rCut: 1.5
    l: 0  eig: 0.500000  rCut: 1.5
    l: 1  eig: -0.239295  rCut: 1.5
    l: 1  eig: 0.500000  rCut: 1.5
    l: 2  eig: 0.000000  rCut: 1.8
    l: 2  eig: 1.000000  rCut: 1.8
  Partial core density with radius 1.2
  Transforming core density to a uniform radial grid of dG=0.02 with 1338 points.
  Transforming local potential to a uniform radial grid of dG=0.02 with 1338 points.
  Transforming nonlocal projectors to a uniform radial grid of dG=0.02 with 432 points.
  Transforming density augmentations to a uniform radial grid of dG=0.02 with 1338 points.
  Transforming atomic orbitals to a uniform radial grid of dG=0.02 with 432 points.
  Core radius for overlap checks: 1.80 bohrs.

Initialized 3 species with 29 total atoms.

Folded 1 k-points by 5x2x1 to 10 k-points.

---------- Setting up k-points, bands, fillings ----------
Adding inversion symmetry to k-mesh for non-inversion-symmetric unit cell.
Reduced to 6 k-points under symmetry. 
Computing the number of bands and number of electrons
Reading initial fillings from file NbTe2.fillings.
nElectrons: 246.000000   nBands: 205   nStates: 6

----- Setting up reduced wavefunction bases (one per k-point) -----
average nbasis = 55213.300 , ideal nbasis = 55212.649

---------- Setting up coulomb interaction ----------
Fluid mode embedding: using embedded box, but periodic Coulomb kernel.
(Fluid response is responsible for (approximate) separation between periodic images.)
Setting up double-sized grid for truncated Coulomb potentials:
R = 
[    13.0583    3.22678          0  ]
[          0    28.3598          0  ]
[          0          0    69.7973  ]
unit cell volume = 25848.2
G =
[   0.481163 -0.0547467          0  ]
[          0   0.221552          0  ]
[          0          0  0.0900205  ]
Chosen fftbox size, S = [  60  140  320  ]
Integer grid location selected as the embedding center:
   Grid: [  0  0  80  ]
   Lattice: [  0  0  0.5  ]
   Cartesian: [  0  0  17.4493  ]
Constructing Wigner-Seitz cell: 8 faces (6 quadrilaterals, 2 hexagons)
Range-separation parameter for embedded mesh potentials due to point charges: 0.589189 bohrs.

Initializing van der Waals corrections
	NOTE: vdW corrections apply only for interactions with fluid.
	Nb:  C6:  427.91 Eh-a0^6  R0: 3.097 a0
	Ir:  C6:  815.23 Eh-a0^6  R0: 3.326 a0 (WARNING: beyond Grimme's data set)
	Se:  C6:  219.24 Eh-a0^6  R0: 3.347 a0

---------- Setting up ewald sum ----------
Optimum gaussian width for ewald sums = 6.729564 bohr.
Real space sum over 585 unit cells with max indices [  6  4  2  ]
Reciprocal space sum over 5355 terms with max indices [  4  8  17  ]

---------- Allocating electronic variables ----------
Initializing wave functions:  reading from 'NbTe2.wfns'
----- createFluidSolver() ----- (Fluid-side solver setup)
   Initializing fluid molecule 'H2O'
     Initializing site 'O'
       Electron density: proportional to exp(-r/0.36935)*erfc((r-0.51523)/0.36823) with norm 6.826
       Charge density: gaussian nuclear width 0.478731 with net site charge 0.826
       Polarizability: cuspless exponential with width 0.32 and norm 3.73
       Hard sphere radius: 2.57003 bohrs
       Positions in reference frame:
         [ +0.000000 +0.000000 +0.000000 ]
     Initializing site 'H'
       Electron density: proportional to exp(-r/0.34641)*erfc((r-0)/0.390882) with norm 0.587
       Charge density: gaussian nuclear width 0.377945 with net site charge -0.413
       Polarizability: cuspless exponential with width 0.39 and norm 3.3
       Positions in reference frame:
         [ +0.000000 -1.441945 +1.122523 ]
         [ +0.000000 +1.441945 +1.122523 ]
     Net charge: 0   dipole magnitude: 0.927204
     Initializing spherical shell mfKernel with radius 2.61727 Bohr
     deltaS corrections:
       site 'O': -7.54299
       site 'H': -6.83917
   Initializing fluid molecule 'Na+'
     Initializing site 'Na'
       Electron density: proportional to exp(-r/0.19682)*erfc((r-0.71491)/0.41314) with norm 8.1383
       Charge density: gaussian nuclear width 0.365347 with net site charge -1
       Hard sphere radius: 1.86327 bohrs
       Positions in reference frame:
         [ +0.000000 +0.000000 +0.000000 ]
     Net charge: -1   dipole magnitude: 0
     Initializing gaussian mfKernel with width: 1.55004 Bohr
     deltaS corrections:
       site 'Na': -22.3555
   Initializing fluid molecule 'F-'
     Initializing site 'F'
       Electron density: proportional to exp(-r/0.38886)*erfc((r-0)/0.438782) with norm 8
       Charge density: gaussian nuclear width 0.374796 with net site charge 1
       Hard sphere radius: 2.39995 bohrs
       Positions in reference frame:
         [ +0.000000 +0.000000 +0.000000 ]
     Net charge: 1   dipole magnitude: 0
     Initializing gaussian mfKernel with width: 1.59012 Bohr
     deltaS corrections:
       site 'F': -9.04335

Correction to mu due to finite nuclear width = -0.00944289
   Cavity determined by nc: 0.00142 and sigma: 0.707107
   Nonlocal vdW cavity from gaussian model electron density with norm = 8 and sigma = 0.993594 bohr
   Charge asymmetry in cavity with sensitivity pCavity = 36.5 e-bohr/Eh
   Electrostatic cavity expanded by eta = 1.46 bohrs
   Weighted density cavitation model constrained by Nbulk: 0.0049383 bohr^-3, Pvap: 3.14029 kPa, Rvdw: 2.61727 bohr and sigmaBulk: 4.62e-05 Eh/bohr^2 at T: 298 K.
   Weighted density dispersion model using vdW pair potentials with single solvent site with sqrtC6eff: 0.77 SI.
Reading fluid state from 'NbTe2.fluidState'


---- Citations for features of the code used in this run ----

   Software package:
      R. Sundararaman, K. Letchworth-Weaver, K.A. Schwarz, D. Gunceler, Y. Ozhabes and T.A. Arias, 'JDFTx: software for joint density-functional theory', SoftwareX 6, 278 (2017)

   gga-PBE exchange-correlation functional:
      J.P. Perdew, K. Burke and M. Ernzerhof, Phys. Rev. Lett. 77, 3865 (1996)

   Pseudopotentials:
      KF Garrity, JW Bennett, KM Rabe and D Vanderbilt, Comput. Mater. Sci. 81, 446 (2014)

   Truncated Coulomb potentials:
      R. Sundararaman and T.A. Arias, Phys. Rev. B 87, 165122 (2013)

   Van der Waals correction pair-potentials:
      S. Grimme, J. Comput. Chem. 27, 1787 (2006)

   Charge-asymmetric nonlocally-determined local-electric (CANDLE) solvation model:
      R. Sundararaman and W.A. Goddard III, J. Chem. Phys. 142, 064107 (2015)

   Total energy minimization with Auxiliary Hamiltonian:
      C. Freysoldt, S. Boeck, and J. Neugebauer, Phys. Rev. B 79, 241103(R) (2009)

   Grand-canonical (fixed-potential) DFT:
      R. Sundararaman, W. A. Goddard III and T. A. Arias, J. Chem. Phys. 146, 114104 (2017)

This list may not be complete. Please suggest additional citations or
report any other bugs at https://github.com/shankar1729/jdftx/issues

Initialization completed successfully at t[s]:     17.75

Shifting auxilliary hamiltonian by 0.003412 to set nElectrons=246.000000
	Linear fluid (dielectric constant: 78.4, screening length: 5.74355 Bohr) occupying 0.753349 of unit cell:	Completed after 0 iterations at t[s]:     20.74

-------- Electronic minimization -----------
	Linear fluid (dielectric constant: 78.4, screening length: 5.74355 Bohr) occupying 0.753349 of unit cell:	Completed after 0 iterations at t[s]:     24.09
	FillingsUpdate:  mu: -0.171251800  nElectrons: 246.000000
ElecMinimize: Iter:   0  G: -732.331584111797952  |grad|_K:  5.087e-06  alpha:  1.000e+00
	Linear fluid (dielectric constant: 78.4, screening length: 5.74355 Bohr) occupying 0.760955 of unit cell:	Completed after 20 iterations at t[s]:     37.05
	Linear fluid (dielectric constant: 78.4, screening length: 5.74355 Bohr) occupying 0.753341 of unit cell:	Completed after 20 iterations at t[s]:     43.39
	FillingsUpdate:  mu: -0.171251800  nElectrons: 246.053888
	SubspaceRotationAdjust: set factor to 0.553
ElecMinimize: Iter:   1  G: -732.331661044416023  |grad|_K:  2.321e-06  alpha:  5.227e-02  linmin:  7.149e-03  t[s]:     49.45
	Linear fluid (dielectric constant: 78.4, screening length: 5.74355 Bohr) occupying 0.753323 of unit cell:	Completed after 4 iterations at t[s]:     54.58
ElecMinimize: 	Predicted alpha/alphaT>3.000000, increasing alphaT to 1.567950e-01.
	Linear fluid (dielectric constant: 78.4, screening length: 5.74355 Bohr) occupying 0.753286 of unit cell:
*************** JDFTx 1.5.0  ***************

Start date and time: Sun Jul 12 18:14:13 2020
Executable jdftx_gpu with command-line: -i Charged.in -o Charged.out
Running on hosts (process indices):  amax (0-3)
Divided in process groups (process indices):  0 (0)  1 (1)  2 (2)  3 (3)
gpuInit: Found compatible cuda device 0 'Tesla K80'
gpuInit: Found compatible cuda device 1 'Tesla K80'
gpuInit: Found compatible cuda device 2 'Tesla K80'
gpuInit: Found compatible cuda device 3 'Tesla K80'
gpuInit: Selected device 0
Resource initialization completed at t[s]:     16.66
Run totals: 4 processes, 24 threads, 4 GPUs


Input parsed successfully to the following command list (including defaults):

basis kpoint-dependent
cache-projectors no
coords-type Lattice
core-overlap-check none
coulomb-interaction Slab 001
coulomb-truncation-embed 0 0 0.5
davidson-band-ratio 1.1
dump End State
dump-name NbTe2.$VAR
elec-cutoff 20 100
elec-eigen-algo Davidson
elec-ex-corr gga-PBE
elec-smearing Gauss 0.0073499
electronic-minimize  \
	dirUpdateScheme      FletcherReeves \
	linminMethod         DirUpdateRecommended \
	nIterations          500 \
	history              15 \
	knormThreshold       0 \
	energyDiffThreshold  1e-08 \
	nEnergyDiff          2 \
	alphaTstart          1 \
	alphaTmin            1e-10 \
	updateTestStepSize   yes \
	alphaTreduceFactor   0.1 \
	alphaTincreaseFactor 3 \
	nAlphaAdjustMax      3 \
	wolfeEnergy          0.0001 \
	wolfeGradient        0.9 \
	fdTest               no
exchange-regularization WignerSeitzTruncated
fluid LinearPCM 298.000000 1.013250
fluid-anion F- 1 MeanFieldLJ \
	epsBulk 1 \
	pMol 0 \
	epsInf 1 \
	Pvap 0 \
	sigmaBulk 0 \
	Rvdw 2.24877 \
	Res 0 \
	tauNuc 343133
fluid-cation Na+ 1 MeanFieldLJ \
	epsBulk 1 \
	pMol 0 \
	epsInf 1 \
	Pvap 0 \
	sigmaBulk 0 \
	Rvdw 2.19208 \
	Res 0 \
	tauNuc 343133
fluid-ex-corr lda-TF lda-PZ
fluid-gummel-loop 10 1.000000e-05
fluid-minimize  \
	dirUpdateScheme      PolakRibiere \
	linminMethod         DirUpdateRecommended \
	nIterations          400 \
	history              15 \
	knormThreshold       1e-11 \
	energyDiffThreshold  0 \
	nEnergyDiff          2 \
	alphaTstart          1 \
	alphaTmin            1e-10 \
	updateTestStepSize   yes \
	alphaTreduceFactor   0.1 \
	alphaTincreaseFactor 3 \
	nAlphaAdjustMax      6 \
	wolfeEnergy          0.0001 \
	wolfeGradient        0.9 \
	fdTest               no
fluid-solvent H2O 55.338 ScalarEOS \
	epsBulk 78.4 \
	pMol 0.92466 \
	epsInf 1.77 \
	Pvap 1.06736e-10 \
	sigmaBulk 4.62e-05 \
	Rvdw 2.61727 \
	Res 1.42 \
	tauNuc 343133 \
	poleEl 15 7 1
forces-output-coords Positions
initial-state NbTe2.$VAR
ion Nb   0.164711947170022   0.181924217945280   0.493697461390396 0
ion Nb   0.006185445828327   0.979237082062930   0.499294445408692 0
ion Nb   0.798824643013548   0.802314002536881   0.503467136493547 0
ion Nb   0.592453983748957   0.623711067727317   0.504599753888221 0
ion Nb   0.496641101938186   0.983312035893660   0.499848410517623 0
ion Nb   0.396628611125776   0.424475162921498   0.493401615882344 0
ion Nb   0.297364039288239   0.803778420272542   0.503256145071686 0
ion Nb   0.093522112006535   0.621771123109329   0.504452744243137 0
ion Nb   0.894062061105078   0.380018359875534   0.498487759033372 0
ion Ir   0.733267499274165   0.214523914209211   0.494836688533187 0
ion Se   0.939618953562520   0.262495240826678   0.595109575015832 0
ion Se   0.174782081753371   0.330601326211472   0.413807929589528 0
ion Se   0.722725437497270   0.078869888986438   0.573422478191376 0
ion Se   0.955502315543167   0.123911505841938   0.405697395656558 0
ion Se   0.532890461745949   0.867514758847137   0.598429590212974 0
ion Se   0.761606087221205   0.931319410525242   0.405470551542714 0
ion Se   0.658712677211984   0.337498080394364   0.404745991301708 0
ion Se   0.331845673018051   0.672303219805476   0.600118534513086 0
ion Se   0.224902051806799   0.063960952089549   0.589393468644686 0
ion Se   0.478620622923790   0.140410996955857   0.423420788653566 0
ion Se   0.564414235349768   0.740834738832458   0.407842439859594 0
ion Se   0.133597368284488   0.466310949451696   0.584925027772201 0
ion Se   0.029996579041672   0.865620697939378   0.599087260587245 0
ion Se   0.363042181368131   0.549445626619957   0.409087055805167 0
ion Se   0.265492771980559   0.932174445369178   0.403238573960963 0
ion Se   0.832506067939422   0.670836968067416   0.600027146633874 0
ion Se   0.062197065757023   0.740016274559616   0.407982562790482 0
ion Se   0.632674363375966   0.469093477058816   0.585596935077480 0
ion Se   0.865706925120038   0.536282903063143   0.424229494728747 0
ion-species GBRV/$ID_pbe.uspp
ion-width Ecut
ionic-minimize  \
	dirUpdateScheme      L-BFGS \
	linminMethod         DirUpdateRecommended \
	nIterations          0 \
	history              15 \
	knormThreshold       0.0001 \
	energyDiffThreshold  1e-06 \
	nEnergyDiff          2 \
	alphaTstart          1 \
	alphaTmin            1e-10 \
	updateTestStepSize   yes \
	alphaTreduceFactor   0.1 \
	alphaTincreaseFactor 3 \
	nAlphaAdjustMax      3 \
	wolfeEnergy          0.0001 \
	wolfeGradient        0.9 \
	fdTest               no
kpoint   0.000000000000   0.000000000000   0.000000000000  1.00000000000000
kpoint-folding 5 2 1 
latt-move-scale 1 1 1
latt-scale 1 1 1 
lattice Triclinic 13.0583 28.5428 34.8986 90 90 83.5088
lattice-minimize  \
	dirUpdateScheme      L-BFGS \
	linminMethod         DirUpdateRecommended \
	nIterations          0 \
	history              15 \
	knormThreshold       0 \
	energyDiffThreshold  1e-06 \
	nEnergyDiff          2 \
	alphaTstart          1 \
	alphaTmin            1e-10 \
	updateTestStepSize   yes \
	alphaTreduceFactor   0.1 \
	alphaTincreaseFactor 3 \
	nAlphaAdjustMax      3 \
	wolfeEnergy          0.0001 \
	wolfeGradient        0.9 \
	fdTest               no
lcao-params -1 1e-06 0.0073499
pcm-variant CANDLE
spintype no-spin
subspace-rotation-factor 1 yes
symmetries automatic
symmetry-threshold 0.0001
target-mu -0.171252 no




---------- Setting up symmetries ----------

Found 4 point-group symmetries of the bravais lattice
Found 1 space-group symmetries with basis
Applied RMS atom displacement 0 bohrs to make symmetries exact.

---------- Initializing the Grid ----------
R = 
[    13.0583    3.22678          0  ]
[          0    28.3598          0  ]
[          0          0    34.8986  ]
unit cell volume = 12924.1
G =
[   0.481163 -0.0547467          0  ]
[          0   0.221552          0  ]
[          0          0   0.180041  ]
Minimum fftbox size, Smin = [  60  132  160  ]
Chosen fftbox size, S = [  60  140  160  ]

---------- Initializing tighter grid for wavefunction operations ----------
R = 
[    13.0583    3.22678          0  ]
[          0    28.3598          0  ]
[          0          0    34.8986  ]
unit cell volume = 12924.1
G =
[   0.481163 -0.0547467          0  ]
[          0   0.221552          0  ]
[          0          0   0.180041  ]
Minimum fftbox size, Smin = [  56  116  144  ]
Chosen fftbox size, S = [  56  120  144  ]

---------- Exchange Correlation functional ----------
Initalized PBE GGA exchange.
Initalized PBE GGA correlation.

---------- Setting up pseudopotentials ----------
Width of ionic core gaussian charges (only for fluid interactions / plotting) set to 0.397384

Reading pseudopotential file '/home/guoxy/vasp/jdftx-1.5.0/build/pseudopotentials/GBRV/nb_pbe.uspp':
  Title: Nb.  Created by USPP 7.3.6 on 14-9-2013
  Reference state energy: -58.592548.  13 valence electrons in orbitals:
    |400>  occupation: 2  eigenvalue: -2.145853
    |410>  occupation: 6  eigenvalue: -1.268635
    |420>  occupation: 4  eigenvalue: -0.111734
    |500>  occupation: 1  eigenvalue: -0.146332
    |510>  occupation: 0  eigenvalue: -0.040820
  lMax: 2  lLocal: 3  QijEcut: 5
  6 projectors sampled on a log grid with 627 points:
    l: 0  eig: -2.145854  rCut: 1.8
    l: 0  eig: -0.146334  rCut: 1.8
    l: 1  eig: -1.268634  rCut: 2
    l: 1  eig: 0.150000  rCut: 2
    l: 2  eig: -0.040820  rCut: 2.2
    l: 2  eig: 0.150000  rCut: 2.2
  Partial core density with radius 1.2
  Transforming core density to a uniform radial grid of dG=0.02 with 1338 points.
  Transforming local potential to a uniform radial grid of dG=0.02 with 1338 points.
  Transforming nonlocal projectors to a uniform radial grid of dG=0.02 with 432 points.
  Transforming density augmentations to a uniform radial grid of dG=0.02 with 1338 points.
  Transforming atomic orbitals to a uniform radial grid of dG=0.02 with 432 points.
  Core radius for overlap checks: 2.20 bohrs.

Reading pseudopotential file '/home/guoxy/vasp/jdftx-1.5.0/build/pseudopotentials/GBRV/ir_pbe.uspp':
  Title: Ir.  Created by USPP 7.3.6 on 3-2-2014
  Reference state energy: -90.436894.  15 valence electrons in orbitals:
    |510>  occupation: 6  eigenvalue: -2.019590
    |520>  occupation: 8.5  eigenvalue: -0.306422
    |600>  occupation: 0  eigenvalue: -0.312524
    |610>  occupation: 0  eigenvalue: -0.124096
  lMax: 2  lLocal: 3  QijEcut: 5
  7 projectors sampled on a log grid with 745 points:
    l: 0  eig: -0.312523  rCut: 2.55
    l: 0  eig: 0.250000  rCut: 2.55
    l: 1  eig: -2.019590  rCut: 1.62
    l: 1  eig: -0.124096  rCut: 1.62
    l: 1  eig: 1.000000  rCut: 1.62
    l: 2  eig: -0.500000  rCut: 1.65
    l: 2  eig: -0.306421  rCut: 1.65
  Partial core density with radius 1.15
  Transforming core density to a uniform radial grid of dG=0.02 with 1338 points.
  Transforming local potential to a uniform radial grid of dG=0.02 with 1338 points.
  Transforming nonlocal projectors to a uniform radial grid of dG=0.02 with 432 points.
  Transforming density augmentations to a uniform radial grid of dG=0.02 with 1338 points.
  Transforming atomic orbitals to a uniform radial grid of dG=0.02 with 432 points.
  Core radius for overlap checks: 2.55 bohrs.

Reading pseudopotential file '/home/guoxy/vasp/jdftx-1.5.0/build/pseudopotentials/GBRV/se_pbe.uspp':
  Title: Se.  Created by USPP 7.3.6 on 14-9-2013
  Reference state energy: -21.672887.  6 valence electrons in orbitals:
    |400>  occupation: 2  eigenvalue: -0.635284
    |410>  occupation: 4  eigenvalue: -0.239295
  lMax: 2  lLocal: 3  QijEcut: 5
  6 projectors sampled on a log grid with 625 points:
    l: 0  eig: -0.635278  rCut: 1.5
    l: 0  eig: 0.500000  rCut: 1.5
    l: 1  eig: -0.239295  rCut: 1.5
    l: 1  eig: 0.500000  rCut: 1.5
    l: 2  eig: 0.000000  rCut: 1.8
    l: 2  eig: 1.000000  rCut: 1.8
  Partial core density with radius 1.2
  Transforming core density to a uniform radial grid of dG=0.02 with 1338 points.
  Transforming local potential to a uniform radial grid of dG=0.02 with 1338 points.
  Transforming nonlocal projectors to a uniform radial grid of dG=0.02 with 432 points.
  Transforming density augmentations to a uniform radial grid of dG=0.02 with 1338 points.
  Transforming atomic orbitals to a uniform radial grid of dG=0.02 with 432 points.
  Core radius for overlap checks: 1.80 bohrs.

Initialized 3 species with 29 total atoms.

Folded 1 k-points by 5x2x1 to 10 k-points.

---------- Setting up k-points, bands, fillings ----------
Adding inversion symmetry to k-mesh for non-inversion-symmetric unit cell.
Reduced to 6 k-points under symmetry. 
Computing the number of bands and number of electrons
Reading initial fillings from file NbTe2.fillings.
nElectrons: 246.000000   nBands: 205   nStates: 6

----- Setting up reduced wavefunction bases (one per k-point) -----
average nbasis = 55213.300 , ideal nbasis = 55212.649

---------- Setting up coulomb interaction ----------
Fluid mode embedding: using embedded box, but periodic Coulomb kernel.
(Fluid response is responsible for (approximate) separation between periodic images.)
Setting up double-sized grid for truncated Coulomb potentials:
R = 
[    13.0583    3.22678          0  ]
[          0    28.3598          0  ]
[          0          0    69.7973  ]
unit cell volume = 25848.2
G =
[   0.481163 -0.0547467          0  ]
[          0   0.221552          0  ]
[          0          0  0.0900205  ]
Chosen fftbox size, S = [  60  140  320  ]
Integer grid location selected as the embedding center:
   Grid: [  0  0  80  ]
   Lattice: [  0  0  0.5  ]
   Cartesian: [  0  0  17.4493  ]
Constructing Wigner-Seitz cell: 8 faces (6 quadrilaterals, 2 hexagons)
Range-separation parameter for embedded mesh potentials due to point charges: 0.589189 bohrs.

Initializing van der Waals corrections
	NOTE: vdW corrections apply only for interactions with fluid.
	Nb:  C6:  427.91 Eh-a0^6  R0: 3.097 a0
	Ir:  C6:  815.23 Eh-a0^6  R0: 3.326 a0 (WARNING: beyond Grimme's data set)
	Se:  C6:  219.24 Eh-a0^6  R0: 3.347 a0

---------- Setting up ewald sum ----------
Optimum gaussian width for ewald sums = 6.729564 bohr.
Real space sum over 585 unit cells with max indices [  6  4  2  ]
Reciprocal space sum over 5355 terms with max indices [  4  8  17  ]

---------- Allocating electronic variables ----------
Initializing wave functions:  reading from 'NbTe2.wfns'
----- createFluidSolver() ----- (Fluid-side solver setup)
   Initializing fluid molecule 'H2O'
     Initializing site 'O'
       Electron density: proportional to exp(-r/0.36935)*erfc((r-0.51523)/0.36823) with norm 6.826
       Charge density: gaussian nuclear width 0.478731 with net site charge 0.826
       Polarizability: cuspless exponential with width 0.32 and norm 3.73
       Hard sphere radius: 2.57003 bohrs
       Positions in reference frame:
         [ +0.000000 +0.000000 +0.000000 ]
     Initializing site 'H'
       Electron density: proportional to exp(-r/0.34641)*erfc((r-0)/0.390882) with norm 0.587
       Charge density: gaussian nuclear width 0.377945 with net site charge -0.413
       Polarizability: cuspless exponential with width 0.39 and norm 3.3
       Positions in reference frame:
         [ +0.000000 -1.441945 +1.122523 ]
         [ +0.000000 +1.441945 +1.122523 ]
     Net charge: 0   dipole magnitude: 0.927204
     Initializing spherical shell mfKernel with radius 2.61727 Bohr
     deltaS corrections:
       site 'O': -7.54299
       site 'H': -6.83917
   Initializing fluid molecule 'Na+'
     Initializing site 'Na'
       Electron density: proportional to exp(-r/0.19682)*erfc((r-0.71491)/0.41314) with norm 8.1383
       Charge density: gaussian nuclear width 0.365347 with net site charge -1
       Hard sphere radius: 1.86327 bohrs
       Positions in reference frame:
         [ +0.000000 +0.000000 +0.000000 ]
     Net charge: -1   dipole magnitude: 0
     Initializing gaussian mfKernel with width: 1.55004 Bohr
     deltaS corrections:
       site 'Na': -22.3555
   Initializing fluid molecule 'F-'
     Initializing site 'F'
       Electron density: proportional to exp(-r/0.38886)*erfc((r-0)/0.438782) with norm 8
       Charge density: gaussian nuclear width 0.374796 with net site charge 1
       Hard sphere radius: 2.39995 bohrs
       Positions in reference frame:
         [ +0.000000 +0.000000 +0.000000 ]
     Net charge: 1   dipole magnitude: 0
     Initializing gaussian mfKernel with width: 1.59012 Bohr
     deltaS corrections:
       site 'F': -9.04335

Correction to mu due to finite nuclear width = -0.00944289
   Cavity determined by nc: 0.00142 and sigma: 0.707107
   Nonlocal vdW cavity from gaussian model electron density with norm = 8 and sigma = 0.993594 bohr
   Charge asymmetry in cavity with sensitivity pCavity = 36.5 e-bohr/Eh
   Electrostatic cavity expanded by eta = 1.46 bohrs
   Weighted density cavitation model constrained by Nbulk: 0.0049383 bohr^-3, Pvap: 3.14029 kPa, Rvdw: 2.61727 bohr and sigmaBulk: 4.62e-05 Eh/bohr^2 at T: 298 K.
   Weighted density dispersion model using vdW pair potentials with single solvent site with sqrtC6eff: 0.77 SI.
Reading fluid state from 'NbTe2.fluidState'


---- Citations for features of the code used in this run ----

   Software package:
      R. Sundararaman, K. Letchworth-Weaver, K.A. Schwarz, D. Gunceler, Y. Ozhabes and T.A. Arias, 'JDFTx: software for joint density-functional theory', SoftwareX 6, 278 (2017)

   gga-PBE exchange-correlation functional:
      J.P. Perdew, K. Burke and M. Ernzerhof, Phys. Rev. Lett. 77, 3865 (1996)

   Pseudopotentials:
      KF Garrity, JW Bennett, KM Rabe and D Vanderbilt, Comput. Mater. Sci. 81, 446 (2014)

   Truncated Coulomb potentials:
      R. Sundararaman and T.A. Arias, Phys. Rev. B 87, 165122 (2013)

   Van der Waals correction pair-potentials:
      S. Grimme, J. Comput. Chem. 27, 1787 (2006)

   Charge-asymmetric nonlocally-determined local-electric (CANDLE) solvation model:
      R. Sundararaman and W.A. Goddard III, J. Chem. Phys. 142, 064107 (2015)

   Total energy minimization with Auxiliary Hamiltonian:
      C. Freysoldt, S. Boeck, and J. Neugebauer, Phys. Rev. B 79, 241103(R) (2009)

   Grand-canonical (fixed-potential) DFT:
      R. Sundararaman, W. A. Goddard III and T. A. Arias, J. Chem. Phys. 146, 114104 (2017)

This list may not be complete. Please suggest additional citations or
report any other bugs at https://github.com/shankar1729/jdftx/issues

Initialization completed successfully at t[s]:     30.21

Shifting auxilliary hamiltonian by 0.003412 to set nElectrons=246.000000
	Linear fluid (dielectric constant: 78.4, screening length: 5.74355 Bohr) occupying 0.753349 of unit cell:	Completed after 0 iterations at t[s]:     32.42

-------- Electronic minimization -----------
	Linear fluid (dielectric constant: 78.4, screening length: 5.74355 Bohr) occupying 0.753349 of unit cell:	Completed after 0 iterations at t[s]:     35.14
	FillingsUpdate:  mu: -0.171251800  nElectrons: 246.000000
ElecMinimize: Iter:   0  G: -732.331584111787265  |grad|_K:  5.087e-06  alpha:  1.000e+00
	Linear fluid (dielectric constant: 78.4, screening length: 5.74355 Bohr) occupying 0.760955 of unit cell:	Completed after 20 iterations at t[s]:     44.87
	Linear fluid (dielectric constant: 78.4, screening length: 5.74355 Bohr) occupying 0.753341 of unit cell:	Completed after 20 iterations at t[s]:     49.72
	FillingsUpdate:  mu: -0.171251800  nElectrons: 246.053888
	SubspaceRotationAdjust: set factor to 0.553
ElecMinimize: Iter:   1  G: -732.331661044423072  |grad|_K:  2.321e-06  alpha:  5.227e-02  linmin:  7.149e-03  t[s]:     53.91
	Linear fluid (dielectric constant: 78.4, screening length: 5.74355 Bohr) occupying 0.753323 of unit cell:	Completed after 4 iterations at t[s]:     57.74
ElecMinimize: 	Predicted alpha/alphaT>3.000000, increasing alphaT to 1.567950e-01.
	Linear fluid (dielectric constant: 78.4, screening length: 5.74355 Bohr) occupying 0.753286 of unit cell:	Completed after 8 iterations at t[s]:     61.93
	Linear fluid (dielectric constant: 78.4, screening length: 5.74355 Bohr) occupying 0.753284 of unit cell:	Completed after 2 iterations at t[s]:     65.78
	FillingsUpdate:  mu: -0.171251800  nElectrons: 246.063118
	SubspaceRotationAdjust: set factor to 0.313
ElecMinimize: Iter:   2  G: -732.331712013043443  |grad|_K:  1.408e-06  alpha:  1.643e-01  linmin: -5.732e-05  t[s]:     69.96
	Linear fluid (dielectric constant: 78.4, screening length: 5.74355 Bohr) occupying 0.753247 of unit cell:	Completed after 12 iterations at t[s]:     74.39
	Linear fluid (dielectric constant: 78.4, screening length: 5.74355 Bohr) occupying 0.753240 of unit cell:	Completed after 7 iterations at t[s]:     78.70
	FillingsUpdate:  mu: -0.171251800  nElectrons: 246.091638
	SubspaceRotationAdjust: set factor to 0.155
ElecMinimize: Iter:   3  G: -732.331738248389001  |grad|_K:  7.892e-07  alpha:  1.950e-01  linmin:  1.773e-04  t[s]:     82.90
	Linear fluid (dielectric constant: 78.4, screening length: 5.74355 Bohr) occupying 0.753208 of unit cell:	Completed after 7 iterations at t[s]:     86.83
	Linear fluid (dielectric constant: 78.4, screening length: 5.74355 Bohr) occupying 0.753147 of unit cell:	Completed after 9 iterations at t[s]:     91.11
	FillingsUpdate:  mu: -0.171251800  nElectrons: 246.096231
	SubspaceRotationAdjust: set factor to 0.0967
	SubspaceRotationAdjust: resetting CG because factor has changed by 0.0967127
	Linear fluid (dielectric constant: 78.4, screening length: 5.74355 Bohr) occupying 0.753147 of unit cell:	Completed after 0 iterations at t[s]:     97.25
ElecMinimize: 	State modified externally: resetting search direction.
ElecMinimize: Iter:   4  G: -732.331761184652805  |grad|_K:  5.178e-07  alpha:  5.560e-01
	Linear fluid (dielectric constant: 78.4, screening length: 5.74355 Bohr) occupying 0.753132 of unit cell:	Completed after 9 iterations at t[s]:    105.82
	Linear fluid (dielectric constant: 78.4, screening length: 5.74355 Bohr) occupying 0.753134 of unit cell:	Completed after 3 iterations at t[s]:    109.87
	FillingsUpdate:  mu: -0.171251800  nElectrons: 246.106819
	SubspaceRotationAdjust: set factor to 0.148
ElecMinimize: Iter:   5  G: -732.331769823210834  |grad|_K:  2.764e-07  alpha:  4.725e-01  linmin:  1.536e-03  t[s]:    114.14
	Linear fluid (dielectric constant: 78.4, screening length: 5.74355 Bohr) occupying 0.753113 of unit cell:	Completed after 3 iterations at t[s]:    117.62
	Linear fluid (dielectric constant: 78.4, screening length: 5.74355 Bohr) occupying 0.753087 of unit cell:	Completed after 6 iterations at t[s]:    121.67
	FillingsUpdate:  mu: -0.171251800  nElectrons: 246.107092
	SubspaceRotationAdjust: set factor to 0.15
ElecMinimize: Iter:   6  G: -732.331775281091382  |grad|_K:  2.232e-07  alpha:  1.070e+00  linmin: -7.672e-04  t[s]:    125.78
	Linear fluid (dielectric constant: 78.4, screening length: 5.74355 Bohr) occupying 0.753036 of unit cell:	Completed after 6 iterations at t[s]:    129.77
	Linear fluid (dielectric constant: 78.4, screening length: 5.74355 Bohr) occupying 0.753052 of unit cell:	Completed after 2 iterations at t[s]:    133.66
	FillingsUpdate:  mu: -0.171251800  nElectrons: 246.109997
	SubspaceRotationAdjust: set factor to 0.145
ElecMinimize: Iter:   7  G: -732.331777843884083  |grad|_K:  1.773e-07  alpha:  7.447e-01  linmin:  1.977e-04  t[s]:    138.17
	Linear fluid (dielectric constant: 78.4, screening length: 5.74355 Bohr) occupying 0.753024 of unit cell:	Completed after 3 iterations at t[s]:    141.98
	Linear fluid (dielectric constant: 78.4, screening length: 5.74355 Bohr) occupying 0.753014 of unit cell:	Completed after 2 iterations at t[s]:    145.80
	FillingsUpdate:  mu: -0.171251800  nElectrons: 246.115352
	SubspaceRotationAdjust: set factor to 0.163
ElecMinimize: Iter:   8  G: -732.331779982190938  |grad|_K:  1.447e-07  alpha:  1.016e+00  linmin: -1.653e-04  t[s]:    149.82
	Linear fluid (dielectric constant: 78.4, screening length: 5.74355 Bohr) occupying 0.752991 of unit cell:	Completed after 8 iterations at t[s]:    153.92
	Linear fluid (dielectric constant: 78.4, screening length: 5.74355 Bohr) occupying 0.753000 of unit cell:	Completed after 3 iterations at t[s]:    157.84
	FillingsUpdate:  mu: -0.171251800  nElectrons: 246.119462
	SubspaceRotationAdjust: set factor to 0.104
ElecMinimize: Iter:   9  G: -732.331780848112089  |grad|_K:  1.481e-07  alpha:  6.114e-01  linmin:  3.995e-04  t[s]:    161.95
	Linear fluid (dielectric constant: 78.4, screening length: 5.74355 Bohr) occupying 0.752980 of unit cell:	Completed after 6 iterations at t[s]:    166.01
	Linear fluid (dielectric constant: 78.4, screening length: 5.74355 Bohr) occupying 0.752984 of unit cell:	Completed after 0 iterations at t[s]:    169.80
	FillingsUpdate:  mu: -0.171251800  nElectrons: 246.118538
	SubspaceRotationAdjust: set factor to 0.0836
ElecMinimize: Iter:  10  G: -732.331781545069248  |grad|_K:  1.403e-07  alpha:  4.909e-01  linmin:  2.137e-04  t[s]:    174.14
	Linear fluid (dielectric constant: 78.4, screening length: 5.74355 Bohr) occupying 0.752971 of unit cell:	Completed after 2 iterations at t[s]:    177.75
	Linear fluid (dielectric constant: 78.4, screening length: 5.74355 Bohr) occupying 0.752970 of unit cell:	Completed after 0 iterations at t[s]:    181.23
	FillingsUpdate:  mu: -0.171251800  nElectrons: 246.118937
	SubspaceRotationAdjust: set factor to 0.106
ElecMinimize: Iter:  11  G: -732.331782206843855  |grad|_K:  7.576e-08  alpha:  5.152e-01  linmin: -6.576e-04  t[s]:    185.39
	Linear fluid (dielectric constant: 78.4, screening length: 5.74355 Bohr) occupying 0.752966 of unit cell:	Completed after 2 iterations at t[s]:    189.07
	Linear fluid (dielectric constant: 78.4, screening length: 5.74355 Bohr) occupying 0.752966 of unit cell:	Completed after 0 iterations at t[s]:    192.73
	FillingsUpdate:  mu: -0.171251800  nElectrons: 246.119863
	SubspaceRotationAdjust: set factor to 0.107
ElecMinimize: Iter:  12  G: -732.331782471070028  |grad|_K:  5.107e-08  alpha:  6.017e-01  linmin: -1.676e-03  t[s]:    196.90
	Linear fluid (dielectric constant: 78.4, screening length: 5.74355 Bohr) occupying 0.752964 of unit cell:	Completed after 2 iterations at t[s]:    200.66
	Linear fluid (dielectric constant: 78.4, screening length: 5.74355 Bohr) occupying 0.752964 of unit cell:	Completed after 0 iterations at t[s]:    204.38
	FillingsUpdate:  mu: -0.171251800  nElectrons: 246.120258
	SubspaceRotationAdjust: set factor to 0.117
ElecMinimize: Iter:  13  G: -732.331782567669165  |grad|_K:  3.713e-08  alpha:  4.989e-01  linmin: -2.602e-03  t[s]:    208.87
	Linear fluid (dielectric constant: 78.4, screening length: 5.74355 Bohr) occupying 0.752963 of unit cell:	Completed after 0 iterations at t[s]:    212.43
	Linear fluid (dielectric constant: 78.4, screening length: 5.74355 Bohr) occupying 0.752963 of unit cell:	Completed after 0 iterations at t[s]:    215.96
	FillingsUpdate:  mu: -0.171251800  nElectrons: 246.119790
	SubspaceRotationAdjust: set factor to 0.132
ElecMinimize: Iter:  14  G: -732.331782640018560  |grad|_K:  3.616e-08  alpha:  6.244e-01  linmin: -2.396e-03  t[s]:    220.14
	Linear fluid (dielectric constant: 78.4, screening length: 5.74355 Bohr) occupying 0.752962 of unit cell:	Completed after 3 iterations at t[s]:    223.89
	Linear fluid (dielectric constant: 78.4, screening length: 5.74355 Bohr) occupying 0.752963 of unit cell:	Completed after 0 iterations at t[s]:    227.57
	FillingsUpdate:  mu: -0.171251800  nElectrons: 246.119444
	SubspaceRotationAdjust: set factor to 0.105
ElecMinimize: Iter:  15  G: -732.331782682616563  |grad|_K:  6.705e-08  alpha:  1.767e-01  linmin:  9.517e-03  t[s]:    231.76
ElecMinimize: 	Bad step direction: g.d > 0.
ElecMinimize: 	Undoing step.
	Linear fluid (dielectric constant: 78.4, screening length: 5.74355 Bohr) occupying 0.752963 of unit cell:	Completed after 0 iterations at t[s]:    235.36
ElecMinimize: 	Step failed: resetting search direction.
	FillingsUpdate:  mu: -0.171251800  nElectrons: 246.119444
	SubspaceRotationAdjust: set factor to 0.116
ElecMinimize: Iter:  16  G: -732.331782682618950  |grad|_K:  6.348e-08  alpha:  0.000e+00
	Linear fluid (dielectric constant: 78.4, screening length: 5.74355 Bohr) occupying 0.752963 of unit cell:	Completed after 2 iterations at t[s]:    243.08
	Linear fluid (dielectric constant: 78.4, screening length: 5.74355 Bohr) occupying 0.752963 of unit cell:	Completed after 0 iterations at t[s]:    246.69
ElecMinimize: 	Step increased G by 3.260811e-08, reducing alpha to 6.982741e-03.
	Linear fluid (dielectric constant: 78.4, screening length: 5.74355 Bohr) occupying 0.752963 of unit cell:	Completed after 0 iterations at t[s]:    253.46
ElecMinimize: 	Step increased G by 3.866990e-08, reducing alpha to 6.982741e-04.
	Linear fluid (dielectric constant: 78.4, screening length: 5.74355 Bohr) occupying 0.752963 of unit cell:	Completed after 0 iterations at t[s]:    260.04
ElecMinimize: 	Step increased G by 3.936509e-08, reducing alpha to 6.982741e-05.
ElecMinimize: 	Step failed to reduce G after 3 attempts. Quitting step.
ElecMinimize: 	Undoing step.
	Linear fluid (dielectric constant: 78.4, screening length: 5.74355 Bohr) occupying 0.752963 of unit cell:	Completed after 0 iterations at t[s]:    267.27
ElecMinimize: 	Step failed along negative gradient direction.
ElecMinimize: Probably at roundoff error limit. (Stopping)
Setting wave functions to eigenvectors of Hamiltonian

# Ionic positions in lattice coordinates:
ion Nb   0.164711947170022   0.181924217945280   0.493697461390396 0
ion Nb   0.006185445828327   0.979237082062930   0.499294445408692 0
ion Nb   0.798824643013548   0.802314002536881   0.503467136493547 0
ion Nb   0.592453983748957   0.623711067727317   0.504599753888221 0
ion Nb   0.496641101938186   0.983312035893660   0.499848410517623 0
ion Nb   0.396628611125776   0.424475162921498   0.493401615882344 0
ion Nb   0.297364039288239   0.803778420272542   0.503256145071686 0
ion Nb   0.093522112006535   0.621771123109329   0.504452744243137 0
ion Nb   0.894062061105078   0.380018359875534   0.498487759033372 0
ion Ir   0.733267499274165   0.214523914209211   0.494836688533187 0
ion Se   0.939618953562520   0.262495240826678   0.595109575015832 0
ion Se   0.174782081753371   0.330601326211472   0.413807929589528 0
ion Se   0.722725437497270   0.078869888986438   0.573422478191376 0
ion Se   0.955502315543167   0.123911505841938   0.405697395656558 0
ion Se   0.532890461745949   0.867514758847137   0.598429590212974 0
ion Se   0.761606087221205   0.931319410525242   0.405470551542714 0
ion Se   0.658712677211984   0.337498080394364   0.404745991301708 0
ion Se   0.331845673018051   0.672303219805476   0.600118534513086 0
ion Se   0.224902051806799   0.063960952089549   0.589393468644686 0
ion Se   0.478620622923790   0.140410996955857   0.423420788653566 0
ion Se   0.564414235349768   0.740834738832458   0.407842439859594 0
ion Se   0.133597368284488   0.466310949451696   0.584925027772201 0
ion Se   0.029996579041672   0.865620697939378   0.599087260587245 0
ion Se   0.363042181368131   0.549445626619957   0.409087055805167 0
ion Se   0.265492771980559   0.932174445369178   0.403238573960963 0
ion Se   0.832506067939422   0.670836968067416   0.600027146633874 0
ion Se   0.062197065757023   0.740016274559616   0.407982562790482 0
ion Se   0.632674363375966   0.469093477058816   0.585596935077480 0
ion Se   0.865706925120038   0.536282903063143   0.424229494728747 0


# Forces in Lattice coordinates:
force Nb  -0.004247977189236   0.061682310651252  -0.008049633293463 0
force Nb  -0.016288169481471   0.038184150335800  -0.018053792441227 0
force Nb   0.002007446227944   0.000258974688796   0.009975603412881 0
force Nb   0.006317364653104  -0.048296548933002   0.019766393058204 0
force Nb  -0.008430194704590   0.022171101363681  -0.027742940877570 0
force Nb   0.011181578699326  -0.013652942894526  -0.049866596962165 0
force Nb  -0.000703627930835   0.005565063231071   0.022286486099852 0
force Nb   0.012061445368014  -0.025736355947256   0.028718481298012 0
force Nb   0.004393944176011   0.035524144285258   0.018255711979767 0
force Ir  -0.009502674330306  -0.003359789183172  -0.029760656817124 0
force Se   0.002556921641930  -0.007181478790076   0.008215233324147 0
force Se   0.002620884490032  -0.012110593582659   0.003899024247710 0
force Se   0.018342418186017  -0.000373076975140   0.024190659670849 0
force Se  -0.002900864883048  -0.008509791235549   0.005474396480906 0
force Se   0.001620340009860   0.000585682842199  -0.001885728849343 0
force Se   0.004591941872560   0.012062880244907   0.002482574994850 0
force Se  -0.001306243278824  -0.011039901804327  -0.009955904303970 0
force Se  -0.007409036461143  -0.011297297173414   0.010081301394395 0
force Se   0.003930438390196   0.004817811193960   0.004531786427860 0
force Se   0.005340586392771  -0.021036671498502   0.002609815551676 0
force Se  -0.001306935461788   0.013373390949008  -0.018201240515847 0
force Se  -0.010038518495906   0.007466408871778   0.007419575757050 0
force Se   0.006681164649994  -0.007508688866518   0.012886066492380 0
force Se  -0.001483881651304  -0.019160508804384   0.007415506899742 0
force Se   0.001934917931169   0.007091505805763   0.003462467346431 0
force Se  -0.006617773563031  -0.022783078418281   0.013219762620209 0
force Se   0.001277279862897   0.010625935705038  -0.006129033083355 0
force Se   0.000590789144101   0.000213455203298   0.028175983554567 0
force Se  -0.004228197599076  -0.014789402754978  -0.018007344637624 0

# Energy components:
   A_diel =       -0.0030534616467326
   Eewald =     4099.7503830583236777
       EH =     4741.3320706668364437
     Eloc =    -9831.8469390641766950
      Enl =      138.0699102360656241
      Exc =     -390.2747384593012612
 Exc_core =      262.1779591169663490
       KE =      206.3479087061931523
  MuShift =       -0.0011279071437822
-------------------------------------
     Etot =     -774.4476271078845002
       TS =        0.0325535188824587
-------------------------------------
        F =     -774.4801806267669235
      muN =      -42.1483979835187341
-------------------------------------
        G =     -732.3317826432481752

IonicMinimize: Iter:   0  G: -732.331782643248175  |grad|_K:  0.000e+00  t[s]:    274.31
IonicMinimize: Converged (|grad|_K<1.000000e-04).

#--- Lowdin population analysis ---
# oxidation-state Nb -0.433 -0.557 -0.598 -0.555 -0.559 -0.437 -0.582 -0.550 -0.507
# oxidation-state Ir -0.837
# oxidation-state Se +0.403 +0.270 +0.328 +0.475 +0.336 +0.340 +0.382 +0.311 +0.315 +0.320 +0.356 +0.242 +0.351 +0.385 +0.321 +0.348 +0.354 +0.282 +0.207


Dumping 'NbTe2.fillings' ... done
Dumping 'NbTe2.wfns' ... done
Dumping 'NbTe2.fluidState' ... done
Dumping 'NbTe2.eigenvals' ... done
End date and time: Sun Jul 12 18:18:50 2020  (Duration: 0-0:04:36.58)
Done!
