
*************** JDFTx 1.5.0  ***************

Start date and time: Fri Jul 10 12:47:20 2020
Executable jdftx_gpu with command-line: -i Neutral.in -o Neutral.out
Running on hosts (process indices):  amax (0)
Divided in process groups (process indices):  0 (0)
gpuInit: Found compatible cuda device 0 'Tesla K80'
gpuInit: Selected device 0
Resource initialization completed at t[s]:     21.19
Run totals: 1 processes, 24 threads, 1 GPUs


Input parsed successfully to the following command list (including defaults):

basis kpoint-dependent
cache-projectors no
coords-type Lattice
core-overlap-check none
coulomb-interaction Slab 001
coulomb-truncation-embed 0 0 0.5
davidson-band-ratio 1.1
dump End State
dump-name NbTe2.$VAR
elec-cutoff 20 100
elec-eigen-algo Davidson
elec-ex-corr gga-PBE
elec-smearing Gauss 0.0073499
electronic-minimize  \
	dirUpdateScheme      FletcherReeves \
	linminMethod         DirUpdateRecommended \
	nIterations          100 \
	history              15 \
	knormThreshold       0 \
	energyDiffThreshold  1e-08 \
	nEnergyDiff          2 \
	alphaTstart          1 \
	alphaTmin            1e-10 \
	updateTestStepSize   yes \
	alphaTreduceFactor   0.1 \
	alphaTincreaseFactor 3 \
	nAlphaAdjustMax      3 \
	wolfeEnergy          0.0001 \
	wolfeGradient        0.9 \
	fdTest               no
electronic-scf  \
	nIterations	500 \
	energyDiffThreshold	1e-08 \
	residualThreshold	1e-07 \
	mixFraction	0.5 \
	qMetric	0.8 \
	history	10 \
	nEigSteps	2 \
	eigDiffThreshold	1e-08 \
	mixedVariable	Density \
	qKerker	0.8 \
	qKappa	-1 \
	verbose	no \
	mixFractionMag	1.5
exchange-regularization WignerSeitzTruncated
fluid LinearPCM 298.000000 1.013250
fluid-anion F- 1 MeanFieldLJ \
	epsBulk 1 \
	pMol 0 \
	epsInf 1 \
	Pvap 0 \
	sigmaBulk 0 \
	Rvdw 2.24877 \
	Res 0 \
	tauNuc 343133
fluid-cation Na+ 1 MeanFieldLJ \
	epsBulk 1 \
	pMol 0 \
	epsInf 1 \
	Pvap 0 \
	sigmaBulk 0 \
	Rvdw 2.19208 \
	Res 0 \
	tauNuc 343133
fluid-ex-corr lda-TF lda-PZ
fluid-gummel-loop 10 1.000000e-05
fluid-minimize  \
	dirUpdateScheme      PolakRibiere \
	linminMethod         DirUpdateRecommended \
	nIterations          400 \
	history              15 \
	knormThreshold       1e-11 \
	energyDiffThreshold  0 \
	nEnergyDiff          2 \
	alphaTstart          1 \
	alphaTmin            1e-10 \
	updateTestStepSize   yes \
	alphaTreduceFactor   0.1 \
	alphaTincreaseFactor 3 \
	nAlphaAdjustMax      6 \
	wolfeEnergy          0.0001 \
	wolfeGradient        0.9 \
	fdTest               no
fluid-solvent H2O 55.338 ScalarEOS \
	epsBulk 78.4 \
	pMol 0.92466 \
	epsInf 1.77 \
	Pvap 1.06736e-10 \
	sigmaBulk 4.62e-05 \
	Rvdw 2.61727 \
	Res 1.42 \
	tauNuc 343133 \
	poleEl 15 7 1
forces-output-coords Positions
initial-state NbTe2.$VAR
ion Nb   0.164711947170022   0.181924217945280   0.493697461390396 0
ion Nb   0.006185445828327   0.979237082062930   0.499294445408692 0
ion Nb   0.798824643013548   0.802314002536881   0.503467136493547 0
ion Nb   0.592453983748957   0.623711067727317   0.504599753888221 0
ion Nb   0.496641101938186   0.983312035893660   0.499848410517623 0
ion Nb   0.396628611125776   0.424475162921498   0.493401615882344 0
ion Nb   0.297364039288239   0.803778420272542   0.503256145071686 0
ion Nb   0.093522112006535   0.621771123109329   0.504452744243137 0
ion Nb   0.894062061105078   0.380018359875534   0.498487759033372 0
ion Ir   0.733267499274165   0.214523914209211   0.494836688533187 0
ion Se   0.939618953562520   0.262495240826678   0.595109575015832 0
ion Se   0.174782081753371   0.330601326211472   0.413807929589528 0
ion Se   0.722725437497270   0.078869888986438   0.573422478191376 0
ion Se   0.955502315543167   0.123911505841938   0.405697395656558 0
ion Se   0.532890461745949   0.867514758847137   0.598429590212974 0
ion Se   0.761606087221205   0.931319410525242   0.405470551542714 0
ion Se   0.658712677211984   0.337498080394364   0.404745991301708 0
ion Se   0.331845673018051   0.672303219805476   0.600118534513086 0
ion Se   0.224902051806799   0.063960952089549   0.589393468644686 0
ion Se   0.478620622923790   0.140410996955857   0.423420788653566 0
ion Se   0.564414235349768   0.740834738832458   0.407842439859594 0
ion Se   0.133597368284488   0.466310949451696   0.584925027772201 0
ion Se   0.029996579041672   0.865620697939378   0.599087260587245 0
ion Se   0.363042181368131   0.549445626619957   0.409087055805167 0
ion Se   0.265492771980559   0.932174445369178   0.403238573960963 0
ion Se   0.832506067939422   0.670836968067416   0.600027146633874 0
ion Se   0.062197065757023   0.740016274559616   0.407982562790482 0
ion Se   0.632674363375966   0.469093477058816   0.585596935077480 0
ion Se   0.865706925120038   0.536282903063143   0.424229494728747 0
ion-species GBRV/$ID_pbe.uspp
ion-width Ecut
ionic-minimize  \
	dirUpdateScheme      L-BFGS \
	linminMethod         DirUpdateRecommended \
	nIterations          0 \
	history              15 \
	knormThreshold       0.0001 \
	energyDiffThreshold  1e-06 \
	nEnergyDiff          2 \
	alphaTstart          1 \
	alphaTmin            1e-10 \
	updateTestStepSize   yes \
	alphaTreduceFactor   0.1 \
	alphaTincreaseFactor 3 \
	nAlphaAdjustMax      3 \
	wolfeEnergy          0.0001 \
	wolfeGradient        0.9 \
	fdTest               no
kpoint   0.000000000000   0.000000000000   0.000000000000  1.00000000000000
kpoint-folding 5 2 1 
latt-move-scale 1 1 1
latt-scale 1 1 1 
lattice Triclinic 13.0583 28.5428 34.8986 90 90 83.5088
lattice-minimize  \
	dirUpdateScheme      L-BFGS \
	linminMethod         DirUpdateRecommended \
	nIterations          0 \
	history              15 \
	knormThreshold       0 \
	energyDiffThreshold  1e-06 \
	nEnergyDiff          2 \
	alphaTstart          1 \
	alphaTmin            1e-10 \
	updateTestStepSize   yes \
	alphaTreduceFactor   0.1 \
	alphaTincreaseFactor 3 \
	nAlphaAdjustMax      3 \
	wolfeEnergy          0.0001 \
	wolfeGradient        0.9 \
	fdTest               no
lcao-params -1 1e-06 0.0073499
pcm-variant CANDLE
spintype no-spin
subspace-rotation-factor 1 yes
symmetries automatic
symmetry-threshold 0.0001



---------- Setting up symmetries ----------

Found 4 point-group symmetries of the bravais lattice
Found 1 space-group symmetries with basis
Applied RMS atom displacement 0 bohrs to make symmetries exact.

---------- Initializing the Grid ----------
R = 
[    13.0583    3.22678          0  ]
[          0    28.3598          0  ]
[          0          0    34.8986  ]
unit cell volume = 12924.1
G =
[   0.481163 -0.0547467          0  ]
[          0   0.221552          0  ]
[          0          0   0.180041  ]
Minimum fftbox size, Smin = [  60  132  160  ]
Chosen fftbox size, S = [  60  140  160  ]

---------- Initializing tighter grid for wavefunction operations ----------
R = 
[    13.0583    3.22678          0  ]
[          0    28.3598          0  ]
[          0          0    34.8986  ]
unit cell volume = 12924.1
G =
[   0.481163 -0.0547467          0  ]
[          0   0.221552          0  ]
[          0          0   0.180041  ]
Minimum fftbox size, Smin = [  56  116  144  ]
Chosen fftbox size, S = [  56  120  144  ]

---------- Exchange Correlation functional ----------
Initalized PBE GGA exchange.
Initalized PBE GGA correlation.

---------- Setting up pseudopotentials ----------
Width of ionic core gaussian charges (only for fluid interactions / plotting) set to 0.397384

Reading pseudopotential file '/home/guoxy/vasp/jdftx-1.5.0/build/pseudopotentials/GBRV/nb_pbe.uspp':
  Title: Nb.  Created by USPP 7.3.6 on 14-9-2013
  Reference state energy: -58.592548.  13 valence electrons in orbitals:
    |400>  occupation: 2  eigenvalue: -2.145853
    |410>  occupation: 6  eigenvalue: -1.268635
    |420>  occupation: 4  eigenvalue: -0.111734
    |500>  occupation: 1  eigenvalue: -0.146332
    |510>  occupation: 0  eigenvalue: -0.040820
  lMax: 2  lLocal: 3  QijEcut: 5
  6 projectors sampled on a log grid with 627 points:
    l: 0  eig: -2.145854  rCut: 1.8
    l: 0  eig: -0.146334  rCut: 1.8
    l: 1  eig: -1.268634  rCut: 2
    l: 1  eig: 0.150000  rCut: 2
    l: 2  eig: -0.040820  rCut: 2.2
    l: 2  eig: 0.150000  rCut: 2.2
  Partial core density with radius 1.2
  Transforming core density to a uniform radial grid of dG=0.02 with 1338 points.
  Transforming local potential to a uniform radial grid of dG=0.02 with 1338 points.
  Transforming nonlocal projectors to a uniform radial grid of dG=0.02 with 432 points.
  Transforming density augmentations to a uniform radial grid of dG=0.02 with 1338 points.
  Transforming atomic orbitals to a uniform radial grid of dG=0.02 with 432 points.
  Core radius for overlap checks: 2.20 bohrs.

Reading pseudopotential file '/home/guoxy/vasp/jdftx-1.5.0/build/pseudopotentials/GBRV/ir_pbe.uspp':
  Title: Ir.  Created by USPP 7.3.6 on 3-2-2014
  Reference state energy: -90.436894.  15 valence electrons in orbitals:
    |510>  occupation: 6  eigenvalue: -2.019590
    |520>  occupation: 8.5  eigenvalue: -0.306422
    |600>  occupation: 0  eigenvalue: -0.312524
    |610>  occupation: 0  eigenvalue: -0.124096
  lMax: 2  lLocal: 3  QijEcut: 5
  7 projectors sampled on a log grid with 745 points:
    l: 0  eig: -0.312523  rCut: 2.55
    l: 0  eig: 0.250000  rCut: 2.55
    l: 1  eig: -2.019590  rCut: 1.62
    l: 1  eig: -0.124096  rCut: 1.62
    l: 1  eig: 1.000000  rCut: 1.62
    l: 2  eig: -0.500000  rCut: 1.65
    l: 2  eig: -0.306421  rCut: 1.65
  Partial core density with radius 1.15
  Transforming core density to a uniform radial grid of dG=0.02 with 1338 points.
  Transforming local potential to a uniform radial grid of dG=0.02 with 1338 points.
  Transforming nonlocal projectors to a uniform radial grid of dG=0.02 with 432 points.
  Transforming density augmentations to a uniform radial grid of dG=0.02 with 1338 points.
  Transforming atomic orbitals to a uniform radial grid of dG=0.02 with 432 points.
  Core radius for overlap checks: 2.55 bohrs.

Reading pseudopotential file '/home/guoxy/vasp/jdftx-1.5.0/build/pseudopotentials/GBRV/se_pbe.uspp':
  Title: Se.  Created by USPP 7.3.6 on 14-9-2013
  Reference state energy: -21.672887.  6 valence electrons in orbitals:
    |400>  occupation: 2  eigenvalue: -0.635284
    |410>  occupation: 4  eigenvalue: -0.239295
  lMax: 2  lLocal: 3  QijEcut: 5
  6 projectors sampled on a log grid with 625 points:
    l: 0  eig: -0.635278  rCut: 1.5
    l: 0  eig: 0.500000  rCut: 1.5
    l: 1  eig: -0.239295  rCut: 1.5
    l: 1  eig: 0.500000  rCut: 1.5
    l: 2  eig: 0.000000  rCut: 1.8
    l: 2  eig: 1.000000  rCut: 1.8
  Partial core density with radius 1.2
  Transforming core density to a uniform radial grid of dG=0.02 with 1338 points.
  Transforming local potential to a uniform radial grid of dG=0.02 with 1338 points.
  Transforming nonlocal projectors to a uniform radial grid of dG=0.02 with 432 points.
  Transforming density augmentations to a uniform radial grid of dG=0.02 with 1338 points.
  Transforming atomic orbitals to a uniform radial grid of dG=0.02 with 432 points.
  Core radius for overlap checks: 1.80 bohrs.

Initialized 3 species with 29 total atoms.

Folded 1 k-points by 5x2x1 to 10 k-points.

---------- Setting up k-points, bands, fillings ----------
Adding inversion symmetry to k-mesh for non-inversion-symmetric unit cell.
Reduced to 6 k-points under symmetry. 
Computing the number of bands and number of electrons
Calculating initial fillings.
nElectrons: 246.000000   nBands: 205   nStates: 6

----- Setting up reduced wavefunction bases (one per k-point) -----
average nbasis = 55213.300 , ideal nbasis = 55212.649

---------- Setting up coulomb interaction ----------
Fluid mode embedding: using embedded box, but periodic Coulomb kernel.
(Fluid response is responsible for (approximate) separation between periodic images.)
Setting up double-sized grid for truncated Coulomb potentials:
R = 
[    13.0583    3.22678          0  ]
[          0    28.3598          0  ]
[          0          0    69.7973  ]
unit cell volume = 25848.2
G =
[   0.481163 -0.0547467          0  ]
[          0   0.221552          0  ]
[          0          0  0.0900205  ]
Chosen fftbox size, S = [  60  140  320  ]
Integer grid location selected as the embedding center:
   Grid: [  0  0  80  ]
   Lattice: [  0  0  0.5  ]
   Cartesian: [  0  0  17.4493  ]
Constructing Wigner-Seitz cell: 8 faces (6 quadrilaterals, 2 hexagons)
Range-separation parameter for embedded mesh potentials due to point charges: 0.589189 bohrs.

Initializing van der Waals corrections
	NOTE: vdW corrections apply only for interactions with fluid.
	Nb:  C6:  427.91 Eh-a0^6  R0: 3.097 a0
	Ir:  C6:  815.23 Eh-a0^6  R0: 3.326 a0 (WARNING: beyond Grimme's data set)
	Se:  C6:  219.24 Eh-a0^6  R0: 3.347 a0

---------- Setting up ewald sum ----------
Optimum gaussian width for ewald sums = 6.729564 bohr.
Real space sum over 585 unit cells with max indices [  6  4  2  ]
Reciprocal space sum over 5355 terms with max indices [  4  8  17  ]

---------- Allocating electronic variables ----------
Initializing wave functions:  linear combination of atomic orbitals
Nb pseudo-atom occupations:   s ( 2 2 )  p ( 6 0 )  d ( 3 )
Ir pseudo-atom occupations:   s ( 2 )  p ( 6 0 )  d ( 7 )
Se pseudo-atom occupations:   s ( 2 )  p ( 4 )
	FillingsUpdate:  mu: +0.144365649  nElectrons: 246.000000
LCAOMinimize: Iter:   0  F: -769.4017897127433798  |grad|_K:  1.913e-02  alpha:  1.000e+00
LCAOMinimize: 	Step increased F by 1.026235e+01, reducing alpha to 3.714355e-02.
	FillingsUpdate:  mu: +0.160612207  nElectrons: 246.000000
LCAOMinimize: Iter:   1  F: -771.9933072858842706  |grad|_K:  1.076e-02  alpha:  3.714e-02  linmin: -3.678e-01  cgtest:  9.643e-01  t[s]:     76.18
LCAOMinimize: Encountered beta<0, resetting CG.
	FillingsUpdate:  mu: -0.065986333  nElectrons: 246.000000
LCAOMinimize: Iter:   2  F: -773.6336794716154373  |grad|_K:  2.932e-03  alpha:  1.020e-01  linmin: -2.358e-01  cgtest:  6.755e-01  t[s]:     92.48
LCAOMinimize: Encountered beta<0, resetting CG.
	FillingsUpdate:  mu: -0.114599239  nElectrons: 246.000000
LCAOMinimize: Iter:   3  F: -773.7304716196571235  |grad|_K:  1.773e-03  alpha:  8.778e-02  linmin:  7.000e-03  cgtest: -3.376e-02  t[s]:    108.92
	FillingsUpdate:  mu: -0.137766354  nElectrons: 246.000000
LCAOMinimize: Iter:   4  F: -773.7652669691927940  |grad|_K:  4.415e-04  alpha:  8.840e-02  linmin:  2.689e-03  cgtest:  2.283e-01  t[s]:    125.56
	FillingsUpdate:  mu: -0.134441617  nElectrons: 246.000000
LCAOMinimize: Iter:   5  F: -773.7696268539476705  |grad|_K:  4.766e-04  alpha:  1.757e-01  linmin: -2.044e-04  cgtest: -9.366e-03  t[s]:    141.83
	FillingsUpdate:  mu: -0.129805619  nElectrons: 246.000000
LCAOMinimize: Iter:   6  F: -773.7729021661957631  |grad|_K:  3.190e-04  alpha:  1.134e-01  linmin:  5.538e-06  cgtest:  2.010e-02  t[s]:    158.23
	FillingsUpdate:  mu: -0.130778594  nElectrons: 246.000000
LCAOMinimize: Iter:   7  F: -773.7749623054900212  |grad|_K:  1.498e-04  alpha:  1.602e-01  linmin:  8.747e-03  cgtest:  7.400e-03  t[s]:    174.96
	FillingsUpdate:  mu: -0.132766833  nElectrons: 246.000000
LCAOMinimize: Iter:   8  F: -773.7754284596237540  |grad|_K:  9.220e-05  alpha:  1.664e-01  linmin: -1.058e-03  cgtest:  3.139e-02  t[s]:    191.18
	FillingsUpdate:  mu: -0.132751746  nElectrons: 246.000000
LCAOMinimize: Iter:   9  F: -773.7755176386914400  |grad|_K:  5.537e-05  alpha:  8.217e-02  linmin:  5.498e-05  cgtest: -1.430e-02  t[s]:    206.78
	FillingsUpdate:  mu: -0.131923456  nElectrons: 246.000000
LCAOMinimize: Iter:  10  F: -773.7755839274062737  |grad|_K:  2.439e-05  alpha:  1.700e-01  linmin:  9.785e-04  cgtest:  2.778e-03  t[s]:    222.24
	FillingsUpdate:  mu: -0.131793100  nElectrons: 246.000000
LCAOMinimize: Iter:  11  F: -773.7755986722308990  |grad|_K:  1.933e-05  alpha:  1.951e-01  linmin:  1.016e-04  cgtest:  2.613e-03  t[s]:    237.37
	FillingsUpdate:  mu: -0.131999279  nElectrons: 246.000000
LCAOMinimize: Iter:  12  F: -773.7756047182031125  |grad|_K:  1.752e-05  alpha:  1.271e-01  linmin: -1.415e-06  cgtest:  4.459e-04  t[s]:    252.71
	FillingsUpdate:  mu: -0.132138417  nElectrons: 246.000000
LCAOMinimize: Iter:  13  F: -773.7756092081220913  |grad|_K:  5.449e-06  alpha:  1.149e-01  linmin: -1.667e-04  cgtest: -1.162e-03  t[s]:    267.88
	FillingsUpdate:  mu: -0.132092628  nElectrons: 246.000000
LCAOMinimize: Iter:  14  F: -773.7756101384727572  |grad|_K:  2.782e-06  alpha:  2.461e-01  linmin:  2.190e-04  cgtest: -1.330e-03  t[s]:    282.89
	FillingsUpdate:  mu: -0.132112561  nElectrons: 246.000000
LCAOMinimize: Iter:  15  F: -773.7756102855965992  |grad|_K:  2.505e-06  alpha:  1.493e-01  linmin: -1.481e-05  cgtest:  6.355e-04  t[s]:    298.25
LCAOMinimize: Converged (|Delta F|<1.000000e-06 for 2 iters).
----- createFluidSolver() ----- (Fluid-side solver setup)
   Initializing fluid molecule 'H2O'
     Initializing site 'O'
       Electron density: proportional to exp(-r/0.36935)*erfc((r-0.51523)/0.36823) with norm 6.826
       Charge density: gaussian nuclear width 0.478731 with net site charge 0.826
       Polarizability: cuspless exponential with width 0.32 and norm 3.73
       Hard sphere radius: 2.57003 bohrs
       Positions in reference frame:
         [ +0.000000 +0.000000 +0.000000 ]
     Initializing site 'H'
       Electron density: proportional to exp(-r/0.34641)*erfc((r-0)/0.390882) with norm 0.587
       Charge density: gaussian nuclear width 0.377945 with net site charge -0.413
       Polarizability: cuspless exponential with width 0.39 and norm 3.3
       Positions in reference frame:
         [ +0.000000 -1.441945 +1.122523 ]
         [ +0.000000 +1.441945 +1.122523 ]
     Net charge: 0   dipole magnitude: 0.927204
     Initializing spherical shell mfKernel with radius 2.61727 Bohr
     deltaS corrections:
       site 'O': -7.54299
       site 'H': -6.83917
   Initializing fluid molecule 'Na+'
     Initializing site 'Na'
       Electron density: proportional to exp(-r/0.19682)*erfc((r-0.71491)/0.41314) with norm 8.1383
       Charge density: gaussian nuclear width 0.365347 with net site charge -1
       Hard sphere radius: 1.86327 bohrs
       Positions in reference frame:
         [ +0.000000 +0.000000 +0.000000 ]
     Net charge: -1   dipole magnitude: 0
     Initializing gaussian mfKernel with width: 1.55004 Bohr
     deltaS corrections:
       site 'Na': -22.3555
   Initializing fluid molecule 'F-'
     Initializing site 'F'
       Electron density: proportional to exp(-r/0.38886)*erfc((r-0)/0.438782) with norm 8
       Charge density: gaussian nuclear width 0.374796 with net site charge 1
       Hard sphere radius: 2.39995 bohrs
       Positions in reference frame:
         [ +0.000000 +0.000000 +0.000000 ]
     Net charge: 1   dipole magnitude: 0
     Initializing gaussian mfKernel with width: 1.59012 Bohr
     deltaS corrections:
       site 'F': -9.04335

Correction to mu due to finite nuclear width = -0.00944289
   Cavity determined by nc: 0.00142 and sigma: 0.707107
   Nonlocal vdW cavity from gaussian model electron density with norm = 8 and sigma = 0.993594 bohr
   Charge asymmetry in cavity with sensitivity pCavity = 36.5 e-bohr/Eh
   Electrostatic cavity expanded by eta = 1.46 bohrs
   Weighted density cavitation model constrained by Nbulk: 0.0049383 bohr^-3, Pvap: 3.14029 kPa, Rvdw: 2.61727 bohr and sigmaBulk: 4.62e-05 Eh/bohr^2 at T: 298 K.
   Weighted density dispersion model using vdW pair potentials with single solvent site with sqrtC6eff: 0.77 SI.


---- Citations for features of the code used in this run ----

   Software package:
      R. Sundararaman, K. Letchworth-Weaver, K.A. Schwarz, D. Gunceler, Y. Ozhabes and T.A. Arias, 'JDFTx: software for joint density-functional theory', SoftwareX 6, 278 (2017)

   gga-PBE exchange-correlation functional:
      J.P. Perdew, K. Burke and M. Ernzerhof, Phys. Rev. Lett. 77, 3865 (1996)

   Pseudopotentials:
      KF Garrity, JW Bennett, KM Rabe and D Vanderbilt, Comput. Mater. Sci. 81, 446 (2014)

   Truncated Coulomb potentials:
      R. Sundararaman and T.A. Arias, Phys. Rev. B 87, 165122 (2013)

   Van der Waals correction pair-potentials:
      S. Grimme, J. Comput. Chem. 27, 1787 (2006)

   Charge-asymmetric nonlocally-determined local-electric (CANDLE) solvation model:
      R. Sundararaman and W.A. Goddard III, J. Chem. Phys. 142, 064107 (2015)

This list may not be complete. Please suggest additional citations or
report any other bugs at https://github.com/shankar1729/jdftx/issues

Initialization completed successfully at t[s]:    301.84

Fluid solver invoked on fresh (partially random / LCAO) wavefunctions
Running a vacuum solve first:

-------- Initial electronic minimization -----------
Will mix electronic density at each iteration.
	FillingsUpdate:  mu: -0.132112561  nElectrons: 246.000000
	FillingsUpdate:  mu: -0.138213347  nElectrons: 246.000000
SCF: Cycle:  0   F: -774.102584238725626   dF: -3.270e-01   |Residual|: 2.698e-01   |deigs|: 5.385e-02  t[s]:    349.91
	FillingsUpdate:  mu: -0.129638134  nElectrons: 246.000000
SCF: Cycle:  1   F: -774.368269997174252   dF: -2.657e-01   |Residual|: 1.521e-01   |deigs|: 9.881e-03  t[s]:    387.58
	FillingsUpdate:  mu: -0.124640025  nElectrons: 246.000000
SCF: Cycle:  2   F: -774.312643598961131   dF: +5.563e-02   |Residual|: 1.631e-01   |deigs|: 8.772e-03  t[s]:    425.31
	FillingsUpdate:  mu: -0.121107342  nElectrons: 246.000000
SCF: Cycle:  3   F: -774.453650834169935   dF: -1.410e-01   |Residual|: 4.337e-02   |deigs|: 6.182e-03  t[s]:    463.19
	FillingsUpdate:  mu: -0.118463534  nElectrons: 246.000000
SCF: Cycle:  4   F: -774.461634332560948   dF: -7.983e-03   |Residual|: 2.493e-02   |deigs|: 2.763e-03  t[s]:    500.56
	FillingsUpdate:  mu: -0.114735722  nElectrons: 246.000000
SCF: Cycle:  5   F: -774.461621038494854   dF: +1.329e-05   |Residual|: 1.849e-02   |deigs|: 3.371e-03  t[s]:    538.26
	FillingsUpdate:  mu: -0.112652765  nElectrons: 246.000000
SCF: Cycle:  6   F: -774.464330476264763   dF: -2.709e-03   |Residual|: 1.038e-02   |deigs|: 2.109e-03  t[s]:    575.90
	FillingsUpdate:  mu: -0.109135006  nElectrons: 246.000000
SCF: Cycle:  7   F: -774.465465128480673   dF: -1.135e-03   |Residual|: 8.293e-03   |deigs|: 3.203e-03  t[s]:    613.74
	FillingsUpdate:  mu: -0.106495518  nElectrons: 246.000000
SCF: Cycle:  8   F: -774.465656311552266   dF: -1.912e-04   |Residual|: 5.739e-03   |deigs|: 2.418e-03  t[s]:    651.63
	FillingsUpdate:  mu: -0.104837188  nElectrons: 246.000000
SCF: Cycle:  9   F: -774.465851747126635   dF: -1.954e-04   |Residual|: 3.964e-03   |deigs|: 1.545e-03  t[s]:    689.42
	FillingsUpdate:  mu: -0.102039159  nElectrons: 246.000000
SCF: Cycle: 10   F: -774.465935047752055   dF: -8.330e-05   |Residual|: 2.966e-03   |deigs|: 2.684e-03  t[s]:    727.36
	FillingsUpdate:  mu: -0.101048344  nElectrons: 246.000000
SCF: Cycle: 11   F: -774.465950767669028   dF: -1.572e-05   |Residual|: 2.704e-03   |deigs|: 1.045e-03  t[s]:    765.09
	FillingsUpdate:  mu: -0.099536907  nElectrons: 246.000000
SCF: Cycle: 12   F: -774.465983076680232   dF: -3.231e-05   |Residual|: 1.927e-03   |deigs|: 1.933e-03  t[s]:    802.80
	FillingsUpdate:  mu: -0.097195564  nElectrons: 246.000000
SCF: Cycle: 13   F: -774.465994094959115   dF: -1.102e-05   |Residual|: 1.750e-03   |deigs|: 2.641e-03  t[s]:    840.66
	FillingsUpdate:  mu: -0.096231876  nElectrons: 246.000000
SCF: Cycle: 14   F: -774.466016379574285   dF: -2.228e-05   |Residual|: 1.336e-03   |deigs|: 1.035e-03  t[s]:    878.44
	FillingsUpdate:  mu: -0.095051825  nElectrons: 246.000000
SCF: Cycle: 15   F: -774.466035505205241   dF: -1.913e-05   |Residual|: 1.031e-03   |deigs|: 1.281e-03  t[s]:    916.17
	FillingsUpdate:  mu: -0.094238290  nElectrons: 246.000000
SCF: Cycle: 16   F: -774.466039201440594   dF: -3.696e-06   |Residual|: 8.958e-04   |deigs|: 8.813e-04  t[s]:    954.08
	FillingsUpdate:  mu: -0.093736937  nElectrons: 246.000000
SCF: Cycle: 17   F: -774.466046204376084   dF: -7.003e-06   |Residual|: 6.017e-04   |deigs|: 5.846e-04  t[s]:    991.78
	FillingsUpdate:  mu: -0.093515386  nElectrons: 246.000000
SCF: Cycle: 18   F: -774.466049061950798   dF: -2.858e-06   |Residual|: 4.537e-04   |deigs|: 3.212e-04  t[s]:   1029.69
	FillingsUpdate:  mu: -0.093262010  nElectrons: 246.000000
SCF: Cycle: 19   F: -774.466050868824937   dF: -1.807e-06   |Residual|: 3.107e-04   |deigs|: 3.980e-04  t[s]:   1066.71
	FillingsUpdate:  mu: -0.093194628  nElectrons: 246.000000
SCF: Cycle: 20   F: -774.466052057112506   dF: -1.188e-06   |Residual|: 1.760e-04   |deigs|: 2.110e-04  t[s]:   1104.13
	FillingsUpdate:  mu: -0.093162580  nElectrons: 246.000000
SCF: Cycle: 21   F: -774.466052714773127   dF: -6.577e-07   |Residual|: 7.513e-05   |deigs|: 2.062e-04  t[s]:   1141.81
	FillingsUpdate:  mu: -0.093163352  nElectrons: 246.000000
SCF: Cycle: 22   F: -774.466053137183735   dF: -4.224e-07   |Residual|: 6.232e-05   |deigs|: 6.013e-05  t[s]:   1179.27
	FillingsUpdate:  mu: -0.093157059  nElectrons: 246.000000
SCF: Cycle: 23   F: -774.466053442689145   dF: -3.055e-07   |Residual|: 4.786e-05   |deigs|: 4.182e-05  t[s]:   1216.97
	FillingsUpdate:  mu: -0.093149577  nElectrons: 246.000000
SCF: Cycle: 24   F: -774.466053650276649   dF: -2.076e-07   |Residual|: 3.958e-05   |deigs|: 3.265e-05  t[s]:   1254.46
	FillingsUpdate:  mu: -0.093143431  nElectrons: 246.000000
SCF: Cycle: 25   F: -774.466053789147622   dF: -1.389e-07   |Residual|: 2.665e-05   |deigs|: 2.418e-05  t[s]:   1292.18
	FillingsUpdate:  mu: -0.093136635  nElectrons: 246.000000
SCF: Cycle: 26   F: -774.466053882063420   dF: -9.292e-08   |Residual|: 1.772e-05   |deigs|: 2.371e-05  t[s]:   1329.82
	FillingsUpdate:  mu: -0.093131350  nElectrons: 246.000000
SCF: Cycle: 27   F: -774.466053945710655   dF: -6.365e-08   |Residual|: 8.708e-06   |deigs|: 1.501e-05  t[s]:   1367.40
	FillingsUpdate:  mu: -0.093129695  nElectrons: 246.000000
SCF: Cycle: 28   F: -774.466053987581290   dF: -4.187e-08   |Residual|: 8.015e-06   |deigs|: 7.128e-06  t[s]:   1405.06
	FillingsUpdate:  mu: -0.093126633  nElectrons: 246.000000
SCF: Cycle: 29   F: -774.466054015901022   dF: -2.832e-08   |Residual|: 4.915e-06   |deigs|: 7.982e-06  t[s]:   1442.47
	FillingsUpdate:  mu: -0.093125323  nElectrons: 246.000000
SCF: Cycle: 30   F: -774.466054034653098   dF: -1.875e-08   |Residual|: 4.897e-06   |deigs|: 8.143e-06  t[s]:   1479.88
	FillingsUpdate:  mu: -0.093124147  nElectrons: 246.000000
SCF: Cycle: 31   F: -774.466054047348052   dF: -1.269e-08   |Residual|: 2.968e-06   |deigs|: 4.772e-06  t[s]:   1516.99
	FillingsUpdate:  mu: -0.093123331  nElectrons: 246.000000
SCF: Cycle: 32   F: -774.466054055883660   dF: -8.536e-09   |Residual|: 2.799e-06   |deigs|: 2.980e-06  t[s]:   1554.21
	FillingsUpdate:  mu: -0.093123004  nElectrons: 246.000000
SCF: Cycle: 33   F: -774.466054061684986   dF: -5.801e-09   |Residual|: 3.255e-06   |deigs|: 1.164e-06  t[s]:   1591.60
SCF: Converged (|Delta E|<1.000000e-08 for 2 iters).

Vacuum energy after initial minimize, F = -774.466054061684986

	FillingsUpdate:  mu: -0.093123004  nElectrons: 246.000000
	Linear fluid (dielectric constant: 78.4, screening length: 5.74355 Bohr) occupying 0.752668 of unit cell:	Completed after 22 iterations at t[s]:   1597.75

-------- Electronic minimization -----------
Will mix electronic density at each iteration.
	FillingsUpdate:  mu: -0.093123004  nElectrons: 246.000000
	Linear fluid (dielectric constant: 78.4, screening length: 5.74355 Bohr) occupying 0.752668 of unit cell:	Completed after 0 iterations at t[s]:   1602.72
	FillingsUpdate:  mu: -0.176207718  nElectrons: 246.000000
	Linear fluid (dielectric constant: 78.4, screening length: 5.74355 Bohr) occupying 0.753427 of unit cell:	Completed after 19 iterations at t[s]:   1647.55
SCF: Cycle:  0   F: -774.457890654440916   dF: +1.406e-03   |Residual|: 9.160e-03   |deigs|: 1.034e-04  t[s]:   1648.30
	Linear fluid (dielectric constant: 78.4, screening length: 5.74355 Bohr) occupying 0.752634 of unit cell:	Completed after 19 iterations at t[s]:   1649.72
	FillingsUpdate:  mu: -0.175764848  nElectrons: 246.000000
	Linear fluid (dielectric constant: 78.4, screening length: 5.74355 Bohr) occupying 0.753411 of unit cell:	Completed after 18 iterations at t[s]:   1688.42
SCF: Cycle:  1   F: -774.458369922492011   dF: -4.793e-04   |Residual|: 1.158e-02   |deigs|: 8.034e-04  t[s]:   1689.14
	Linear fluid (dielectric constant: 78.4, screening length: 5.74355 Bohr) occupying 0.752644 of unit cell:	Completed after 17 iterations at t[s]:   1690.48
	FillingsUpdate:  mu: -0.175720061  nElectrons: 246.000000
	Linear fluid (dielectric constant: 78.4, screening length: 5.74355 Bohr) occupying 0.753395 of unit cell:	Completed after 16 iterations at t[s]:   1728.99
SCF: Cycle:  2   F: -774.459378790515757   dF: -1.009e-03   |Residual|: 3.112e-03   |deigs|: 5.302e-04  t[s]:   1729.72
	Linear fluid (dielectric constant: 78.4, screening length: 5.74355 Bohr) occupying 0.752688 of unit cell:	Completed after 16 iterations at t[s]:   1731.01
	FillingsUpdate:  mu: -0.175485837  nElectrons: 246.000000
	Linear fluid (dielectric constant: 78.4, screening length: 5.74355 Bohr) occupying 0.753383 of unit cell:	Completed after 14 iterations at t[s]:   1769.19
SCF: Cycle:  3   F: -774.459500716282719   dF: -1.219e-04   |Residual|: 1.757e-03   |deigs|: 2.472e-04  t[s]:   1769.91
	Linear fluid (dielectric constant: 78.4, screening length: 5.74355 Bohr) occupying 0.752742 of unit cell:	Completed after 13 iterations at t[s]:   1771.03
	FillingsUpdate:  mu: -0.175334381  nElectrons: 246.000000
	Linear fluid (dielectric constant: 78.4, screening length: 5.74355 Bohr) occupying 0.753375 of unit cell:	Completed after 12 iterations at t[s]:   1809.28
SCF: Cycle:  4   F: -774.459510698562667   dF: -9.982e-06   |Residual|: 1.423e-03   |deigs|: 1.670e-04  t[s]:   1810.00
	Linear fluid (dielectric constant: 78.4, screening length: 5.74355 Bohr) occupying 0.752882 of unit cell:	Completed after 12 iterations at t[s]:   1811.07
	FillingsUpdate:  mu: -0.175045554  nElectrons: 246.000000
	Linear fluid (dielectric constant: 78.4, screening length: 5.74355 Bohr) occupying 0.753362 of unit cell:	Completed after 9 iterations at t[s]:   1849.29
SCF: Cycle:  5   F: -774.459520887780172   dF: -1.019e-05   |Residual|: 8.021e-04   |deigs|: 2.985e-04  t[s]:   1850.05
	Linear fluid (dielectric constant: 78.4, screening length: 5.74355 Bohr) occupying 0.752992 of unit cell:	Completed after 10 iterations at t[s]:   1850.99
	FillingsUpdate:  mu: -0.174918835  nElectrons: 246.000000
	Linear fluid (dielectric constant: 78.4, screening length: 5.74355 Bohr) occupying 0.753358 of unit cell:	Completed after 9 iterations at t[s]:   1888.99
SCF: Cycle:  6   F: -774.459522256943046   dF: -1.369e-06   |Residual|: 7.237e-04   |deigs|: 1.335e-04  t[s]:   1889.75
	Linear fluid (dielectric constant: 78.4, screening length: 5.74355 Bohr) occupying 0.753167 of unit cell:	Completed after 9 iterations at t[s]:   1890.64
	FillingsUpdate:  mu: -0.174776723  nElectrons: 246.000000
	Linear fluid (dielectric constant: 78.4, screening length: 5.74355 Bohr) occupying 0.753357 of unit cell:	Completed after 8 iterations at t[s]:   1928.63
SCF: Cycle:  7   F: -774.459525374801160   dF: -3.118e-06   |Residual|: 4.119e-04   |deigs|: 1.500e-04  t[s]:   1929.40
	Linear fluid (dielectric constant: 78.4, screening length: 5.74355 Bohr) occupying 0.753307 of unit cell:	Completed after 4 iterations at t[s]:   1930.03
	FillingsUpdate:  mu: -0.174645388  nElectrons: 246.000000
	Linear fluid (dielectric constant: 78.4, screening length: 5.74355 Bohr) occupying 0.753352 of unit cell:	Completed after 6 iterations at t[s]:   1967.45
SCF: Cycle:  8   F: -774.459525336920706   dF: +3.788e-08   |Residual|: 3.543e-04   |deigs|: 1.274e-04  t[s]:   1968.19
	Linear fluid (dielectric constant: 78.4, screening length: 5.74355 Bohr) occupying 0.753363 of unit cell:	Completed after 3 iterations at t[s]:   1968.75
	FillingsUpdate:  mu: -0.174680806  nElectrons: 246.000000
	Linear fluid (dielectric constant: 78.4, screening length: 5.74355 Bohr) occupying 0.753357 of unit cell:	Completed after 8 iterations at t[s]:   2006.61
SCF: Cycle:  9   F: -774.459523190599953   dF: +2.146e-06   |Residual|: 4.334e-04   |deigs|: 4.574e-05  t[s]:   2007.33
	Linear fluid (dielectric constant: 78.4, screening length: 5.74355 Bohr) occupying 0.753421 of unit cell:	Completed after 8 iterations at t[s]:   2008.16
	FillingsUpdate:  mu: -0.174667313  nElectrons: 246.000000
	Linear fluid (dielectric constant: 78.4, screening length: 5.74355 Bohr) occupying 0.753359 of unit cell:	Completed after 4 iterations at t[s]:   2045.32
SCF: Cycle: 10   F: -774.459525776407304   dF: -2.586e-06   |Residual|: 2.988e-04   |deigs|: 4.259e-05  t[s]:   2046.05
	Linear fluid (dielectric constant: 78.4, screening length: 5.74355 Bohr) occupying 0.753483 of unit cell:	Completed after 3 iterations at t[s]:   2046.62
	FillingsUpdate:  mu: -0.174635663  nElectrons: 246.000000
	Linear fluid (dielectric constant: 78.4, screening length: 5.74355 Bohr) occupying 0.753359 of unit cell:	Completed after 4 iterations at t[s]:   2083.71
SCF: Cycle: 11   F: -774.459525928849757   dF: -1.524e-07   |Residual|: 2.294e-04   |deigs|: 8.261e-05  t[s]:   2084.45
	Linear fluid (dielectric constant: 78.4, screening length: 5.74355 Bohr) occupying 0.753480 of unit cell:	Completed after 3 iterations at t[s]:   2084.99
	FillingsUpdate:  mu: -0.174647709  nElectrons: 246.000000
	Linear fluid (dielectric constant: 78.4, screening length: 5.74355 Bohr) occupying 0.753358 of unit cell:	Completed after 6 iterations at t[s]:   2122.91
SCF: Cycle: 12   F: -774.459523068403996   dF: +2.860e-06   |Residual|: 4.080e-04   |deigs|: 9.233e-05  t[s]:   2123.61
	Linear fluid (dielectric constant: 78.4, screening length: 5.74355 Bohr) occupying 0.753480 of unit cell:	Completed after 6 iterations at t[s]:   2124.31
	FillingsUpdate:  mu: -0.174640956  nElectrons: 246.000000
	Linear fluid (dielectric constant: 78.4, screening length: 5.74355 Bohr) occupying 0.753357 of unit cell:	Completed after 3 iterations at t[s]:   2160.42
SCF: Cycle: 13   F: -774.459526555806519   dF: -3.487e-06   |Residual|: 1.403e-04   |deigs|: 8.140e-05  t[s]:   2161.24
	Linear fluid (dielectric constant: 78.4, screening length: 5.74355 Bohr) occupying 0.753449 of unit cell:	Completed after 1 iterations at t[s]:   2161.70
	FillingsUpdate:  mu: -0.174636275  nElectrons: 246.000000
	Linear fluid (dielectric constant: 78.4, screening length: 5.74355 Bohr) occupying 0.753354 of unit cell:	Completed after 3 iterations at t[s]:   2199.44
SCF: Cycle: 14   F: -774.459526005135672   dF: +5.507e-07   |Residual|: 2.729e-04   |deigs|: 1.268e-04  t[s]:   2200.27
	Linear fluid (dielectric constant: 78.4, screening length: 5.74355 Bohr) occupying 0.753417 of unit cell:	Completed after 3 iterations at t[s]:   2200.84
	FillingsUpdate:  mu: -0.174647660  nElectrons: 246.000000
	Linear fluid (dielectric constant: 78.4, screening length: 5.74355 Bohr) occupying 0.753354 of unit cell:	Completed after 5 iterations at t[s]:   2238.72
SCF: Cycle: 15   F: -774.459525080490266   dF: +9.246e-07   |Residual|: 3.127e-04   |deigs|: 1.150e-04  t[s]:   2239.49
	Linear fluid (dielectric constant: 78.4, screening length: 5.74355 Bohr) occupying 0.753403 of unit cell:	Completed after 3 iterations at t[s]:   2240.05
	FillingsUpdate:  mu: -0.174662640  nElectrons: 246.000000
	Linear fluid (dielectric constant: 78.4, screening length: 5.74355 Bohr) occupying 0.753354 of unit cell:	Completed after 6 iterations at t[s]:   2277.87
SCF: Cycle: 16   F: -774.459525653098240   dF: -5.726e-07   |Residual|: 2.561e-04   |deigs|: 7.465e-05  t[s]:   2278.62
	Linear fluid (dielectric constant: 78.4, screening length: 5.74355 Bohr) occupying 0.753400 of unit cell:	Completed after 3 iterations at t[s]:   2279.19
	FillingsUpdate:  mu: -0.174645799  nElectrons: 246.000000
	Linear fluid (dielectric constant: 78.4, screening length: 5.74355 Bohr) occupying 0.753353 of unit cell:	Completed after 7 iterations at t[s]:   2316.71
SCF: Cycle: 17   F: -774.459522836609949   dF: +2.816e-06   |Residual|: 4.064e-04   |deigs|: 3.764e-05  t[s]:   2317.44
	Linear fluid (dielectric constant: 78.4, screening length: 5.74355 Bohr) occupying 0.753374 of unit cell:	Completed after 7 iterations at t[s]:   2318.21
	FillingsUpdate:  mu: -0.174659291  nElectrons: 246.000000
	Linear fluid (dielectric constant: 78.4, screening length: 5.74355 Bohr) occupying 0.753352 of unit cell:	Completed after 3 iterations at t[s]:   2355.25
SCF: Cycle: 18   F: -774.459526544094047   dF: -3.707e-06   |Residual|: 1.702e-04   |deigs|: 8.617e-05  t[s]:   2355.97
	Linear fluid (dielectric constant: 78.4, screening length: 5.74355 Bohr) occupying 0.753355 of unit cell:	Completed after 3 iterations at t[s]:   2356.51
	FillingsUpdate:  mu: -0.174665416  nElectrons: 246.000000
	Linear fluid (dielectric constant: 78.4, screening length: 5.74355 Bohr) occupying 0.753351 of unit cell:	Completed after 3 iterations at t[s]:   2391.67
SCF: Cycle: 19   F: -774.459526561695270   dF: -1.760e-08   |Residual|: 2.221e-04   |deigs|: 1.016e-04  t[s]:   2392.39
	Linear fluid (dielectric constant: 78.4, screening length: 5.74355 Bohr) occupying 0.753351 of unit cell:	Completed after 2 iterations at t[s]:   2392.90
	FillingsUpdate:  mu: -0.174658434  nElectrons: 246.000000
	Linear fluid (dielectric constant: 78.4, screening length: 5.74355 Bohr) occupying 0.753350 of unit cell:	Completed after 3 iterations at t[s]:   2430.54
SCF: Cycle: 20   F: -774.459526564279713   dF: -2.584e-09   |Residual|: 1.291e-04   |deigs|: 4.734e-05  t[s]:   2431.25
	Linear fluid (dielectric constant: 78.4, screening length: 5.74355 Bohr) occupying 0.753343 of unit cell:	Completed after 3 iterations at t[s]:   2431.78
	FillingsUpdate:  mu: -0.174662869  nElectrons: 246.000000
	Linear fluid (dielectric constant: 78.4, screening length: 5.74355 Bohr) occupying 0.753350 of unit cell:	Completed after 2 iterations at t[s]:   2469.68
SCF: Cycle: 21   F: -774.459526770870752   dF: -2.066e-07   |Residual|: 1.178e-04   |deigs|: 3.907e-05  t[s]:   2470.44
	Linear fluid (dielectric constant: 78.4, screening length: 5.74355 Bohr) occupying 0.753335 of unit cell:	Completed after 2 iterations at t[s]:   2470.95
	FillingsUpdate:  mu: -0.174658851  nElectrons: 246.000000
	Linear fluid (dielectric constant: 78.4, screening length: 5.74355 Bohr) occupying 0.753349 of unit cell:	Completed after 5 iterations at t[s]:   2508.77
SCF: Cycle: 22   F: -774.459524944642567   dF: +1.826e-06   |Residual|: 3.366e-04   |deigs|: 8.034e-05  t[s]:   2509.48
	Linear fluid (dielectric constant: 78.4, screening length: 5.74355 Bohr) occupying 0.753333 of unit cell:	Completed after 3 iterations at t[s]:   2510.04
	FillingsUpdate:  mu: -0.174666083  nElectrons: 246.000000
	Linear fluid (dielectric constant: 78.4, screening length: 5.74355 Bohr) occupying 0.753349 of unit cell:	Completed after 3 iterations at t[s]:   2545.74
SCF: Cycle: 23   F: -774.459526525726687   dF: -1.581e-06   |Residual|: 1.653e-04   |deigs|: 3.605e-05  t[s]:   2546.47
	Linear fluid (dielectric constant: 78.4, screening length: 5.74355 Bohr) occupying 0.753332 of unit cell:	Completed after 3 iterations at t[s]:   2547.01
	FillingsUpdate:  mu: -0.174652488  nElectrons: 246.000000
	Linear fluid (dielectric constant: 78.4, screening length: 5.74355 Bohr) occupying 0.753348 of unit cell:	Completed after 6 iterations at t[s]:   2584.67
SCF: Cycle: 24   F: -774.459524279002721   dF: +2.247e-06   |Residual|: 3.315e-04   |deigs|: 2.485e-05  t[s]:   2585.40
	Linear fluid (dielectric constant: 78.4, screening length: 5.74355 Bohr) occupying 0.753334 of unit cell:	Completed after 6 iterations at t[s]:   2586.13
	FillingsUpdate:  mu: -0.174660758  nElectrons: 246.000000
	Linear fluid (dielectric constant: 78.4, screening length: 5.74355 Bohr) occupying 0.753349 of unit cell:	Completed after 3 iterations at t[s]:   2621.40
SCF: Cycle: 25   F: -774.459526204894587   dF: -1.926e-06   |Residual|: 1.806e-04   |deigs|: 1.382e-05  t[s]:   2622.15
	Linear fluid (dielectric constant: 78.4, screening length: 5.74355 Bohr) occupying 0.753337 of unit cell:	Completed after 3 iterations at t[s]:   2622.71
	FillingsUpdate:  mu: -0.174668038  nElectrons: 246.000000
	Linear fluid (dielectric constant: 78.4, screening length: 5.74355 Bohr) occupying 0.753349 of unit cell:	Completed after 1 iterations at t[s]:   2658.32
SCF: Cycle: 26   F: -774.459526862346706   dF: -6.575e-07   |Residual|: 7.374e-05   |deigs|: 2.037e-05  t[s]:   2659.04
	Linear fluid (dielectric constant: 78.4, screening length: 5.74355 Bohr) occupying 0.753334 of unit cell:	Completed after 0 iterations at t[s]:   2659.42
	FillingsUpdate:  mu: -0.174661821  nElectrons: 246.000000
	Linear fluid (dielectric constant: 78.4, screening length: 5.74355 Bohr) occupying 0.753348 of unit cell:	Completed after 3 iterations at t[s]:   2697.07
SCF: Cycle: 27   F: -774.459525580018635   dF: +1.282e-06   |Residual|: 3.765e-04   |deigs|: 4.678e-05  t[s]:   2697.84
	Linear fluid (dielectric constant: 78.4, screening length: 5.74355 Bohr) occupying 0.753339 of unit cell:	Completed after 3 iterations at t[s]:   2698.40
	FillingsUpdate:  mu: -0.174655021  nElectrons: 246.000000
	Linear fluid (dielectric constant: 78.4, screening length: 5.74355 Bohr) occupying 0.753348 of unit cell:	Completed after 6 iterations at t[s]:   2735.97
SCF: Cycle: 28   F: -774.459524086430747   dF: +1.494e-06   |Residual|: 3.316e-04   |deigs|: 2.935e-05  t[s]:   2736.73
	Linear fluid (dielectric constant: 78.4, screening length: 5.74355 Bohr) occupying 0.753338 of unit cell:	Completed after 6 iterations at t[s]:   2737.48
	FillingsUpdate:  mu: -0.174657604  nElectrons: 246.000000
	Linear fluid (dielectric constant: 78.4, screening length: 5.74355 Bohr) occupying 0.753348 of unit cell:	Completed after 3 iterations at t[s]:   2773.33
SCF: Cycle: 29   F: -774.459526261581232   dF: -2.175e-06   |Residual|: 1.626e-04   |deigs|: 2.185e-05  t[s]:   2774.07
	Linear fluid (dielectric constant: 78.4, screening length: 5.74355 Bohr) occupying 0.753337 of unit cell:	Completed after 3 iterations at t[s]:   2774.62
	FillingsUpdate:  mu: -0.174663267  nElectrons: 246.000000
	Linear fluid (dielectric constant: 78.4, screening length: 5.74355 Bohr) occupying 0.753349 of unit cell:	Completed after 0 iterations at t[s]:   2809.92
SCF: Cycle: 30   F: -774.459526907743452   dF: -6.462e-07   |Residual|: 5.690e-05   |deigs|: 1.744e-05  t[s]:   2810.63
	Linear fluid (dielectric constant: 78.4, screening length: 5.74355 Bohr) occupying 0.753337 of unit cell:	Completed after 0 iterations at t[s]:   2810.94
	FillingsUpdate:  mu: -0.174663261  nElectrons: 246.000000
	Linear fluid (dielectric constant: 78.4, screening length: 5.74355 Bohr) occupying 0.753348 of unit cell:	Completed after 0 iterations at t[s]:   2841.80
SCF: Cycle: 31   F: -774.459526908411362   dF: -6.679e-10   |Residual|: 5.694e-05   |deigs|: 1.006e-05  t[s]:   2842.52
	Linear fluid (dielectric constant: 78.4, screening length: 5.74355 Bohr) occupying 0.753339 of unit cell:	Completed after 0 iterations at t[s]:   2842.83
	FillingsUpdate:  mu: -0.174663252  nElectrons: 246.000000
	Linear fluid (dielectric constant: 78.4, screening length: 5.74355 Bohr) occupying 0.753349 of unit cell:	Completed after 1 iterations at t[s]:   2878.96
SCF: Cycle: 32   F: -774.459526875026427   dF: +3.338e-08   |Residual|: 5.773e-05   |deigs|: 1.333e-05  t[s]:   2879.65
	Linear fluid (dielectric constant: 78.4, screening length: 5.74355 Bohr) occupying 0.753341 of unit cell:	Completed after 0 iterations at t[s]:   2880.01
	FillingsUpdate:  mu: -0.174659002  nElectrons: 246.000000
	Linear fluid (dielectric constant: 78.4, screening length: 5.74355 Bohr) occupying 0.753348 of unit cell:	Completed after 3 iterations at t[s]:   2917.77
SCF: Cycle: 33   F: -774.459525915630024   dF: +9.594e-07   |Residual|: 2.559e-04   |deigs|: 2.469e-05  t[s]:   2918.51
	Linear fluid (dielectric constant: 78.4, screening length: 5.74355 Bohr) occupying 0.753341 of unit cell:	Completed after 3 iterations at t[s]:   2919.08
	FillingsUpdate:  mu: -0.174650754  nElectrons: 246.000000
	Linear fluid (dielectric constant: 78.4, screening length: 5.74355 Bohr) occupying 0.753348 of unit cell:	Completed after 6 iterations at t[s]:   2956.83
SCF: Cycle: 34   F: -774.459523225960993   dF: +2.690e-06   |Residual|: 4.303e-04   |deigs|: 2.688e-05  t[s]:   2957.60
	Linear fluid (dielectric constant: 78.4, screening length: 5.74355 Bohr) occupying 0.753342 of unit cell:	Completed after 5 iterations at t[s]:   2958.28
	FillingsUpdate:  mu: -0.174656022  nElectrons: 246.000000
	Linear fluid (dielectric constant: 78.4, screening length: 5.74355 Bohr) occupying 0.753348 of unit cell:	Completed after 3 iterations at t[s]:   2994.14
SCF: Cycle: 35   F: -774.459525357292137   dF: -2.131e-06   |Residual|: 3.881e-04   |deigs|: 1.598e-05  t[s]:   2994.91
	Linear fluid (dielectric constant: 78.4, screening length: 5.74355 Bohr) occupying 0.753342 of unit cell:	Completed after 3 iterations at t[s]:   2995.45
	FillingsUpdate:  mu: -0.174666189  nElectrons: 246.000000
	Linear fluid (dielectric constant: 78.4, screening length: 5.74355 Bohr) occupying 0.753349 of unit cell:	Completed after 3 iterations at t[s]:   3027.45
SCF: Cycle: 36   F: -774.459526053293075   dF: -6.960e-07   |Residual|: 3.290e-04   |deigs|: 1.451e-05  t[s]:   3028.19
	Linear fluid (dielectric constant: 78.4, screening length: 5.74355 Bohr) occupying 0.753342 of unit cell:	Completed after 3 iterations at t[s]:   3028.73
	FillingsUpdate:  mu: -0.174656542  nElectrons: 246.000000
	Linear fluid (dielectric constant: 78.4, screening length: 5.74355 Bohr) occupying 0.753349 of unit cell:	Completed after 6 iterations at t[s]:   3066.12
SCF: Cycle: 37   F: -774.459524293928666   dF: +1.759e-06   |Residual|: 3.969e-04   |deigs|: 1.661e-05  t[s]:   3066.84
	Linear fluid (dielectric constant: 78.4, screening length: 5.74355 Bohr) occupying 0.753341 of unit cell:	Completed after 6 iterations at t[s]:   3067.56
	FillingsUpdate:  mu: -0.174656944  nElectrons: 246.000000
	Linear fluid (dielectric constant: 78.4, screening length: 5.74355 Bohr) occupying 0.753348 of unit cell:	Completed after 3 iterations at t[s]:   3099.60
SCF: Cycle: 38   F: -774.459525625887750   dF: -1.332e-06   |Residual|: 3.302e-04   |deigs|: 7.069e-06  t[s]:   3100.33
	Linear fluid (dielectric constant: 78.4, screening length: 5.74355 Bohr) occupying 0.753342 of unit cell:	Completed after 3 iterations at t[s]:   3100.88
	FillingsUpdate:  mu: -0.174668345  nElectrons: 246.000000
	Linear fluid (dielectric constant: 78.4, screening length: 5.74355 Bohr) occupying 0.753349 of unit cell:	Completed after 3 iterations at t[s]:   3133.60
SCF: Cycle: 39   F: -774.459526054473258   dF: -4.286e-07   |Residual|: 3.483e-04   |deigs|: 1.373e-05  t[s]:   3134.35
	Linear fluid (dielectric constant: 78.4, screening length: 5.74355 Bohr) occupying 0.753342 of unit cell:	Completed after 2 iterations at t[s]:   3134.85
	FillingsUpdate:  mu: -0.174659454  nElectrons: 246.000000
	Linear fluid (dielectric constant: 78.4, screening length: 5.74355 Bohr) occupying 0.753349 of unit cell:	Completed after 6 iterations at t[s]:   3168.45
SCF: Cycle: 40   F: -774.459524907292689   dF: +1.147e-06   |Residual|: 3.538e-04   |deigs|: 1.545e-05  t[s]:   3169.19
	Linear fluid (dielectric constant: 78.4, screening length: 5.74355 Bohr) occupying 0.753341 of unit cell:	Completed after 3 iterations at t[s]:   3169.73
	FillingsUpdate:  mu: -0.174668706  nElectrons: 246.000000
	Linear fluid (dielectric constant: 78.4, screening length: 5.74355 Bohr) occupying 0.753349 of unit cell:	Completed after 3 iterations at t[s]:   3207.03
SCF: Cycle: 41   F: -774.459525574722761   dF: -6.674e-07   |Residual|: 4.119e-04   |deigs|: 1.796e-05  t[s]:   3207.73
	Linear fluid (dielectric constant: 78.4, screening length: 5.74355 Bohr) occupying 0.753341 of unit cell:	Completed after 3 iterations at t[s]:   3208.30
	FillingsUpdate:  mu: -0.174659125  nElectrons: 246.000000
	Linear fluid (dielectric constant: 78.4, screening length: 5.74355 Bohr) occupying 0.753349 of unit cell:	Completed after 6 iterations at t[s]:   3246.09
SCF: Cycle: 42   F: -774.459524471974532   dF: +1.103e-06   |Residual|: 3.446e-04   |deigs|: 2.053e-05  t[s]:   3246.80
	Linear fluid (dielectric constant: 78.4, screening length: 5.74355 Bohr) occupying 0.753340 of unit cell:	Completed after 6 iterations at t[s]:   3247.51
	FillingsUpdate:  mu: -0.174658725  nElectrons: 246.000000
	Linear fluid (dielectric constant: 78.4, screening length: 5.74355 Bohr) occupying 0.753348 of unit cell:	Completed after 3 iterations at t[s]:   3284.46
SCF: Cycle: 43   F: -774.459526140392882   dF: -1.668e-06   |Residual|: 1.842e-04   |deigs|: 1.332e-05  t[s]:   3285.20
	Linear fluid (dielectric constant: 78.4, screening length: 5.74355 Bohr) occupying 0.753342 of unit cell:	Completed after 3 iterations at t[s]:   3285.76
	FillingsUpdate:  mu: -0.174666001  nElectrons: 246.000000
	Linear fluid (dielectric constant: 78.4, screening length: 5.74355 Bohr) occupying 0.753349 of unit cell:	Completed after 2 iterations at t[s]:   3322.09
SCF: Cycle: 44   F: -774.459526761425877   dF: -6.210e-07   |Residual|: 1.401e-04   |deigs|: 1.612e-05  t[s]:   3322.79
	Linear fluid (dielectric constant: 78.4, screening length: 5.74355 Bohr) occupying 0.753342 of unit cell:	Completed after 2 iterations at t[s]:   3323.27
	FillingsUpdate:  mu: -0.174658223  nElectrons: 246.000000
	Linear fluid (dielectric constant: 78.4, screening length: 5.74355 Bohr) occupying 0.753348 of unit cell:	Completed after 3 iterations at t[s]:   3360.98
SCF: Cycle: 45   F: -774.459526365038528   dF: +3.964e-07   |Residual|: 1.977e-04   |deigs|: 1.290e-05  t[s]:   3361.75
	Linear fluid (dielectric constant: 78.4, screening length: 5.74355 Bohr) occupying 0.753343 of unit cell:	Completed after 3 iterations at t[s]:   3362.31
	FillingsUpdate:  mu: -0.174661347  nElectrons: 246.000000
	Linear fluid (dielectric constant: 78.4, screening length: 5.74355 Bohr) occupying 0.753349 of unit cell:	Completed after 3 iterations at t[s]:   3399.58
SCF: Cycle: 46   F: -774.459526763420627   dF: -3.984e-07   |Residual|: 8.935e-05   |deigs|: 8.578e-06  t[s]:   3400.28
	Linear fluid (dielectric constant: 78.4, screening length: 5.74355 Bohr) occupying 0.753343 of unit cell:	Completed after 2 iterations at t[s]:   3400.75
	FillingsUpdate:  mu: -0.174655153  nElectrons: 246.000000
	Linear fluid (dielectric constant: 78.4, screening length: 5.74355 Bohr) occupying 0.753348 of unit cell:	Completed after 4 iterations at t[s]:   3435.80
SCF: Cycle: 47   F: -774.459526144959341   dF: +6.185e-07   |Residual|: 1.819e-04   |deigs|: 1.050e-05  t[s]:   3436.49
	Linear fluid (dielectric constant: 78.4, screening length: 5.74355 Bohr) occupying 0.753343 of unit cell:	Completed after 3 iterations at t[s]:   3437.04
	FillingsUpdate:  mu: -0.174664557  nElectrons: 246.000000
	Linear fluid (dielectric constant: 78.4, screening length: 5.74355 Bohr) occupying 0.753349 of unit cell:	Completed after 3 iterations at t[s]:   3461.48
SCF: Cycle: 48   F: -774.459526498057357   dF: -3.531e-07   |Residual|: 1.290e-04   |deigs|: 1.225e-05  t[s]:   3462.36
	Linear fluid (dielectric constant: 78.4, screening length: 5.74355 Bohr) occupying 0.753343 of unit cell:	Completed after 3 iterations at t[s]:   3462.94
	FillingsUpdate:  mu: -0.174659558  nElectrons: 246.000000
	Linear fluid (dielectric constant: 78.4, screening length: 5.74355 Bohr) occupying 0.753348 of unit cell:	Completed after 4 iterations at t[s]:   3494.45
SCF: Cycle: 49   F: -774.459526133039503   dF: +3.650e-07   |Residual|: 1.754e-04   |deigs|: 9.728e-06  t[s]:   3495.20
	Linear fluid (dielectric constant: 78.4, screening length: 5.74355 Bohr) occupying 0.753344 of unit cell:	Completed after 3 iterations at t[s]:   3495.75
	FillingsUpdate:  mu: -0.174659514  nElectrons: 246.000000
	Linear fluid (dielectric constant: 78.4, screening length: 5.74355 Bohr) occupying 0.753349 of unit cell:	Completed after 3 iterations at t[s]:   3531.41
SCF: Cycle: 50   F: -774.459526351954082   dF: -2.189e-07   |Residual|: 1.525e-04   |deigs|: 9.882e-06  t[s]:   3532.25
	Linear fluid (dielectric constant: 78.4, screening length: 5.74355 Bohr) occupying 0.753345 of unit cell:	Completed after 3 iterations at t[s]:   3532.83
	FillingsUpdate:  mu: -0.174653772  nElectrons: 246.000000
	Linear fluid (dielectric constant: 78.4, screening length: 5.74355 Bohr) occupying 0.753348 of unit cell:	Completed after 4 iterations at t[s]:   3570.71
SCF: Cycle: 51   F: -774.459526082007187   dF: +2.699e-07   |Residual|: 1.793e-04   |deigs|: 1.126e-05  t[s]:   3571.47
	Linear fluid (dielectric constant: 78.4, screening length: 5.74355 Bohr) occupying 0.753346 of unit cell:	Completed after 3 iterations at t[s]:   3572.03
	FillingsUpdate:  mu: -0.174664140  nElectrons: 246.000000
	Linear fluid (dielectric constant: 78.4, screening length: 5.74355 Bohr) occupying 0.753349 of unit cell:	Completed after 4 iterations at t[s]:   3609.85
SCF: Cycle: 52   F: -774.459526092322108   dF: -1.031e-08   |Residual|: 1.738e-04   |deigs|: 1.670e-05  t[s]:   3610.61
	Linear fluid (dielectric constant: 78.4, screening length: 5.74355 Bohr) occupying 0.753347 of unit cell:	Completed after 3 iterations at t[s]:   3611.16
	FillingsUpdate:  mu: -0.174654868  nElectrons: 246.000000
	Linear fluid (dielectric constant: 78.4, screening length: 5.74355 Bohr) occupying 0.753349 of unit cell:	Completed after 3 iterations at t[s]:   3648.89
SCF: Cycle: 53   F: -774.459526080842920   dF: +1.148e-08   |Residual|: 1.804e-04   |deigs|: 1.456e-05  t[s]:   3649.61
	Linear fluid (dielectric constant: 78.4, screening length: 5.74355 Bohr) occupying 0.753346 of unit cell:	Completed after 3 iterations at t[s]:   3650.15
	FillingsUpdate:  mu: -0.174660063  nElectrons: 246.000000
	Linear fluid (dielectric constant: 78.4, screening length: 5.74355 Bohr) occupying 0.753349 of unit cell:	Completed after 4 iterations at t[s]:   3688.01
SCF: Cycle: 54   F: -774.459525963234796   dF: +1.176e-07   |Residual|: 1.866e-04   |deigs|: 1.305e-05  t[s]:   3688.76
	Linear fluid (dielectric constant: 78.4, screening length: 5.74355 Bohr) occupying 0.753346 of unit cell:	Completed after 3 iterations at t[s]:   3689.30
	FillingsUpdate:  mu: -0.174657947  nElectrons: 246.000000
	Linear fluid (dielectric constant: 78.4, screening length: 5.74355 Bohr) occupying 0.753348 of unit cell:	Completed after 6 iterations at t[s]:   3727.13
SCF: Cycle: 55   F: -774.459525824992284   dF: +1.382e-07   |Residual|: 1.995e-04   |deigs|: 1.233e-05  t[s]:   3727.86
	Linear fluid (dielectric constant: 78.4, screening length: 5.74355 Bohr) occupying 0.753345 of unit cell:	Completed after 3 iterations at t[s]:   3728.40
	FillingsUpdate:  mu: -0.174661621  nElectrons: 246.000000
	Linear fluid (dielectric constant: 78.4, screening length: 5.74355 Bohr) occupying 0.753349 of unit cell:	Completed after 3 iterations at t[s]:   3766.10
SCF: Cycle: 56   F: -774.459526218002907   dF: -3.930e-07   |Residual|: 1.718e-04   |deigs|: 1.060e-05  t[s]:   3766.83
	Linear fluid (dielectric constant: 78.4, screening length: 5.74355 Bohr) occupying 0.753347 of unit cell:	Completed after 3 iterations at t[s]:   3767.37
	FillingsUpdate:  mu: -0.174659282  nElectrons: 246.000000
	Linear fluid (dielectric constant: 78.4, screening length: 5.74355 Bohr) occupying 0.753349 of unit cell:	Completed after 3 iterations at t[s]:   3805.14
SCF: Cycle: 57   F: -774.459526277615055   dF: -5.961e-08   |Residual|: 1.697e-04   |deigs|: 1.549e-05  t[s]:   3805.84
	Linear fluid (dielectric constant: 78.4, screening length: 5.74355 Bohr) occupying 0.753347 of unit cell:	Completed after 3 iterations at t[s]:   3806.38
	FillingsUpdate:  mu: -0.174661026  nElectrons: 246.000000
	Linear fluid (dielectric constant: 78.4, screening length: 5.74355 Bohr) occupying 0.753349 of unit cell:	Completed after 3 iterations at t[s]:   3844.01
SCF: Cycle: 58   F: -774.459526055727679   dF: +2.219e-07   |Residual|: 1.752e-04   |deigs|: 1.061e-05  t[s]:   3844.77
	Linear fluid (dielectric constant: 78.4, screening length: 5.74355 Bohr) occupying 0.753348 of unit cell:	Completed after 3 iterations at t[s]:   3845.32
	FillingsUpdate:  mu: -0.174657377  nElectrons: 246.000000
	Linear fluid (dielectric constant: 78.4, screening length: 5.74355 Bohr) occupying 0.753349 of unit cell:	Completed after 5 iterations at t[s]:   3883.18
SCF: Cycle: 59   F: -774.459525928614198   dF: +1.271e-07   |Residual|: 1.988e-04   |deigs|: 1.589e-05  t[s]:   3883.95
	Linear fluid (dielectric constant: 78.4, screening length: 5.74355 Bohr) occupying 0.753348 of unit cell:	Completed after 3 iterations at t[s]:   3884.52
	FillingsUpdate:  mu: -0.174657083  nElectrons: 246.000000
	Linear fluid (dielectric constant: 78.4, screening length: 5.74355 Bohr) occupying 0.753349 of unit cell:	Completed after 3 iterations at t[s]:   3922.08
SCF: Cycle: 60   F: -774.459525969220408   dF: -4.061e-08   |Residual|: 1.888e-04   |deigs|: 1.061e-05  t[s]:   3922.86
	Linear fluid (dielectric constant: 78.4, screening length: 5.74355 Bohr) occupying 0.753348 of unit cell:	Completed after 3 iterations at t[s]:   3923.41
	FillingsUpdate:  mu: -0.174657133  nElectrons: 246.000000
	Linear fluid (dielectric constant: 78.4, screening length: 5.74355 Bohr) occupying 0.753349 of unit cell:	Completed after 3 iterations at t[s]:   3961.00
SCF: Cycle: 61   F: -774.459526165196621   dF: -1.960e-07   |Residual|: 1.818e-04   |deigs|: 1.009e-05  t[s]:   3961.70
	Linear fluid (dielectric constant: 78.4, screening length: 5.74355 Bohr) occupying 0.753348 of unit cell:	Completed after 3 iterations at t[s]:   3962.26
	FillingsUpdate:  mu: -0.174657336  nElectrons: 246.000000
	Linear fluid (dielectric constant: 78.4, screening length: 5.74355 Bohr) occupying 0.753349 of unit cell:	Completed after 5 iterations at t[s]:   4000.16
SCF: Cycle: 62   F: -774.459525811489129   dF: +3.537e-07   |Residual|: 1.932e-04   |deigs|: 1.167e-05  t[s]:   4000.87
	Linear fluid (dielectric constant: 78.4, screening length: 5.74355 Bohr) occupying 0.753348 of unit cell:	Completed after 3 iterations at t[s]:   4001.41
	FillingsUpdate:  mu: -0.174656048  nElectrons: 246.000000
	Linear fluid (dielectric constant: 78.4, screening length: 5.74355 Bohr) occupying 0.753348 of unit cell:	Completed after 3 iterations at t[s]:   4034.90
SCF: Cycle: 63   F: -774.459526301320807   dF: -4.898e-07   |Residual|: 1.616e-04   |deigs|: 9.429e-06  t[s]:   4035.63
	Linear fluid (dielectric constant: 78.4, screening length: 5.74355 Bohr) occupying 0.753347 of unit cell:	Completed after 3 iterations at t[s]:   4036.17
	FillingsUpdate:  mu: -0.174661916  nElectrons: 246.000000
	Linear fluid (dielectric constant: 78.4, screening length: 5.74355 Bohr) occupying 0.753349 of unit cell:	Completed after 3 iterations at t[s]:   4074.08
SCF: Cycle: 64   F: -774.459526241187859   dF: +6.013e-08   |Residual|: 1.619e-04   |deigs|: 1.167e-05  t[s]:   4074.85
	Linear fluid (dielectric constant: 78.4, screening length: 5.74355 Bohr) occupying 0.753346 of unit cell:	Completed after 3 iterations at t[s]:   4075.40
	FillingsUpdate:  mu: -0.174660907  nElectrons: 246.000000
	Linear fluid (dielectric constant: 78.4, screening length: 5.74355 Bohr) occupying 0.753349 of unit cell:	Completed after 3 iterations at t[s]:   4113.21
SCF: Cycle: 65   F: -774.459526328480592   dF: -8.729e-08   |Residual|: 1.608e-04   |deigs|: 1.203e-05  t[s]:   4113.94
	Linear fluid (dielectric constant: 78.4, screening length: 5.74355 Bohr) occupying 0.753346 of unit cell:	Completed after 3 iterations at t[s]:   4114.48
	FillingsUpdate:  mu: -0.174662915  nElectrons: 246.000000
	Linear fluid (dielectric constant: 78.4, screening length: 5.74355 Bohr) occupying 0.753349 of unit cell:	Completed after 4 iterations at t[s]:   4152.11
SCF: Cycle: 66   F: -774.459526209045748   dF: +1.194e-07   |Residual|: 1.576e-04   |deigs|: 1.264e-05  t[s]:   4152.78
	Linear fluid (dielectric constant: 78.4, screening length: 5.74355 Bohr) occupying 0.753347 of unit cell:	Completed after 3 iterations at t[s]:   4153.29
	FillingsUpdate:  mu: -0.174654259  nElectrons: 246.000000
	Linear fluid (dielectric constant: 78.4, screening length: 5.74355 Bohr) occupying 0.753349 of unit cell:	Completed after 3 iterations at t[s]:   4190.83
SCF: Cycle: 67   F: -774.459526092984902   dF: +1.161e-07   |Residual|: 1.855e-04   |deigs|: 1.240e-05  t[s]:   4191.60
	Linear fluid (dielectric constant: 78.4, screening length: 5.74355 Bohr) occupying 0.753347 of unit cell:	Completed after 3 iterations at t[s]:   4192.15
	FillingsUpdate:  mu: -0.174660216  nElectrons: 246.000000
	Linear fluid (dielectric constant: 78.4, screening length: 5.74355 Bohr) occupying 0.753349 of unit cell:	Completed after 3 iterations at t[s]:   4229.73
SCF: Cycle: 68   F: -774.459526267083106   dF: -1.741e-07   |Residual|: 1.500e-04   |deigs|: 1.137e-05  t[s]:   4230.50
	Linear fluid (dielectric constant: 78.4, screening length: 5.74355 Bohr) occupying 0.753348 of unit cell:	Completed after 3 iterations at t[s]:   4231.08
	FillingsUpdate:  mu: -0.174652866  nElectrons: 246.000000
	Linear fluid (dielectric constant: 78.4, screening length: 5.74355 Bohr) occupying 0.753349 of unit cell:	Completed after 5 iterations at t[s]:   4269.06
SCF: Cycle: 69   F: -774.459525696334822   dF: +5.707e-07   |Residual|: 2.232e-04   |deigs|: 1.481e-05  t[s]:   4269.78
	Linear fluid (dielectric constant: 78.4, screening length: 5.74355 Bohr) occupying 0.753348 of unit cell:	Completed after 3 iterations at t[s]:   4270.34
	FillingsUpdate:  mu: -0.174659787  nElectrons: 246.000000
	Linear fluid (dielectric constant: 78.4, screening length: 5.74355 Bohr) occupying 0.753349 of unit cell:	Completed after 3 iterations at t[s]:   4303.75
SCF: Cycle: 70   F: -774.459526325783941   dF: -6.294e-07   |Residual|: 1.503e-04   |deigs|: 1.163e-05  t[s]:   4304.48
	Linear fluid (dielectric constant: 78.4, screening length: 5.74355 Bohr) occupying 0.753348 of unit cell:	Completed after 3 iterations at t[s]:   4305.04
	FillingsUpdate:  mu: -0.174656974  nElectrons: 246.000000
	Linear fluid (dielectric constant: 78.4, screening length: 5.74355 Bohr) occupying 0.753349 of unit cell:	Completed after 3 iterations at t[s]:   4330.15
SCF: Cycle: 71   F: -774.459526008629609   dF: +3.172e-07   |Residual|: 2.033e-04   |deigs|: 9.533e-06  t[s]:   4330.85
	Linear fluid (dielectric constant: 78.4, screening length: 5.74355 Bohr) occupying 0.753348 of unit cell:	Completed after 3 iterations at t[s]:   4331.38
	FillingsUpdate:  mu: -0.174660503  nElectrons: 246.000000
	Linear fluid (dielectric constant: 78.4, screening length: 5.74355 Bohr) occupying 0.753349 of unit cell:	Completed after 3 iterations at t[s]:   4356.18
SCF: Cycle: 72   F: -774.459526208665579   dF: -2.000e-07   |Residual|: 1.576e-04   |deigs|: 1.089e-05  t[s]:   4356.89
	Linear fluid (dielectric constant: 78.4, screening length: 5.74355 Bohr) occupying 0.753348 of unit cell:	Completed after 3 iterations at t[s]:   4357.46
	FillingsUpdate:  mu: -0.174656331  nElectrons: 246.000000
	Linear fluid (dielectric constant: 78.4, screening length: 5.74355 Bohr) occupying 0.753349 of unit cell:	Completed after 5 iterations at t[s]:   4390.95
SCF: Cycle: 73   F: -774.459525904907650   dF: +3.038e-07   |Residual|: 1.972e-04   |deigs|: 1.135e-05  t[s]:   4391.70
	Linear fluid (dielectric constant: 78.4, screening length: 5.74355 Bohr) occupying 0.753347 of unit cell:	Completed after 3 iterations at t[s]:   4392.25
	FillingsUpdate:  mu: -0.174660280  nElectrons: 246.000000
	Linear fluid (dielectric constant: 78.4, screening length: 5.74355 Bohr) occupying 0.753349 of unit cell:	Completed after 3 iterations at t[s]:   4430.05
SCF: Cycle: 74   F: -774.459526133788813   dF: -2.289e-07   |Residual|: 1.712e-04   |deigs|: 1.184e-05  t[s]:   4430.78
	Linear fluid (dielectric constant: 78.4, screening length: 5.74355 Bohr) occupying 0.753347 of unit cell:	Completed after 3 iterations at t[s]:   4431.32
	FillingsUpdate:  mu: -0.174660001  nElectrons: 246.000000
	Linear fluid (dielectric constant: 78.4, screening length: 5.74355 Bohr) occupying 0.753349 of unit cell:	Completed after 3 iterations at t[s]:   4464.89
SCF: Cycle: 75   F: -774.459526287775702   dF: -1.540e-07   |Residual|: 1.651e-04   |deigs|: 9.007e-06  t[s]:   4465.66
	Linear fluid (dielectric constant: 78.4, screening length: 5.74355 Bohr) occupying 0.753348 of unit cell:	Completed after 3 iterations at t[s]:   4466.22
	FillingsUpdate:  mu: -0.174662389  nElectrons: 246.000000
	Linear fluid (dielectric constant: 78.4, screening length: 5.74355 Bohr) occupying 0.753349 of unit cell:	Completed after 3 iterations at t[s]:   4504.08
SCF: Cycle: 76   F: -774.459526072065728   dF: +2.157e-07   |Residual|: 1.787e-04   |deigs|: 1.159e-05  t[s]:   4504.83
	Linear fluid (dielectric constant: 78.4, screening length: 5.74355 Bohr) occupying 0.753348 of unit cell:	Completed after 3 iterations at t[s]:   4505.39
	FillingsUpdate:  mu: -0.174659984  nElectrons: 246.000000
	Linear fluid (dielectric constant: 78.4, screening length: 5.74355 Bohr) occupying 0.753349 of unit cell:	Completed after 5 iterations at t[s]:   4543.28
SCF: Cycle: 77   F: -774.459525920268447   dF: +1.518e-07   |Residual|: 1.932e-04   |deigs|: 1.234e-05  t[s]:   4544.06
	Linear fluid (dielectric constant: 78.4, screening length: 5.74355 Bohr) occupying 0.753348 of unit cell:	Completed after 3 iterations at t[s]:   4544.61
	FillingsUpdate:  mu: -0.174656815  nElectrons: 246.000000
	Linear fluid (dielectric constant: 78.4, screening length: 5.74355 Bohr) occupying 0.753349 of unit cell:	Completed after 3 iterations at t[s]:   4582.35
SCF: Cycle: 78   F: -774.459526195997228   dF: -2.757e-07   |Residual|: 1.707e-04   |deigs|: 9.997e-06  t[s]:   4583.08
	Linear fluid (dielectric constant: 78.4, screening length: 5.74355 Bohr) occupying 0.753348 of unit cell:	Completed after 3 iterations at t[s]:   4583.63
	FillingsUpdate:  mu: -0.174657520  nElectrons: 246.000000
	Linear fluid (dielectric constant: 78.4, screening length: 5.74355 Bohr) occupying 0.753349 of unit cell:	Completed after 3 iterations at t[s]:   4621.33
SCF: Cycle: 79   F: -774.459526034068972   dF: +1.619e-07   |Residual|: 2.102e-04   |deigs|: 1.104e-05  t[s]:   4622.06
	Linear fluid (dielectric constant: 78.4, screening length: 5.74355 Bohr) occupying 0.753347 of unit cell:	Completed after 3 iterations at t[s]:   4622.61
	FillingsUpdate:  mu: -0.174657246  nElectrons: 246.000000
	Linear fluid (dielectric constant: 78.4, screening length: 5.74355 Bohr) occupying 0.753349 of unit cell:	Completed after 6 iterations at t[s]:   4660.59
SCF: Cycle: 80   F: -774.459525684595292   dF: +3.495e-07   |Residual|: 2.041e-04   |deigs|: 1.323e-05  t[s]:   4661.31
	Linear fluid (dielectric constant: 78.4, screening length: 5.74355 Bohr) occupying 0.753347 of unit cell:	Completed after 5 iterations at t[s]:   4661.97
	FillingsUpdate:  mu: -0.174656973  nElectrons: 246.000000
	Linear fluid (dielectric constant: 78.4, screening length: 5.74355 Bohr) occupying 0.753349 of unit cell:	Completed after 5 iterations at t[s]:   4687.06
SCF: Cycle: 81   F: -774.459525896632158   dF: -2.120e-07   |Residual|: 2.056e-04   |deigs|: 7.709e-06  t[s]:   4687.83
	Linear fluid (dielectric constant: 78.4, screening length: 5.74355 Bohr) occupying 0.753347 of unit cell:	Completed after 4 iterations at t[s]:   4688.46
	FillingsUpdate:  mu: -0.174663167  nElectrons: 246.000000
	Linear fluid (dielectric constant: 78.4, screening length: 5.74355 Bohr) occupying 0.753349 of unit cell:	Completed after 2 iterations at t[s]:   4715.53
SCF: Cycle: 82   F: -774.459526789822235   dF: -8.932e-07   |Residual|: 9.116e-05   |deigs|: 7.813e-06  t[s]:   4716.28
	Linear fluid (dielectric constant: 78.4, screening length: 5.74355 Bohr) occupying 0.753347 of unit cell:	Completed after 3 iterations at t[s]:   4716.82
	FillingsUpdate:  mu: -0.174656940  nElectrons: 246.000000
	Linear fluid (dielectric constant: 78.4, screening length: 5.74355 Bohr) occupying 0.753349 of unit cell:	Completed after 3 iterations at t[s]:   4741.95
SCF: Cycle: 83   F: -774.459526535493069   dF: +2.543e-07   |Residual|: 1.371e-04   |deigs|: 6.696e-06  t[s]:   4742.70
	Linear fluid (dielectric constant: 78.4, screening length: 5.74355 Bohr) occupying 0.753347 of unit cell:	Completed after 3 iterations at t[s]:   4743.24
	FillingsUpdate:  mu: -0.174659204  nElectrons: 246.000000
	Linear fluid (dielectric constant: 78.4, screening length: 5.74355 Bohr) occupying 0.753349 of unit cell:	Completed after 2 iterations at t[s]:   4775.74
SCF: Cycle: 84   F: -774.459526806970302   dF: -2.715e-07   |Residual|: 8.931e-05   |deigs|: 4.696e-06  t[s]:   4776.44
	Linear fluid (dielectric constant: 78.4, screening length: 5.74355 Bohr) occupying 0.753347 of unit cell:	Completed after 3 iterations at t[s]:   4776.97
	FillingsUpdate:  mu: -0.174655831  nElectrons: 246.000000
	Linear fluid (dielectric constant: 78.4, screening length: 5.74355 Bohr) occupying 0.753349 of unit cell:	Completed after 2 iterations at t[s]:   4809.24
SCF: Cycle: 85   F: -774.459526612157902   dF: +1.948e-07   |Residual|: 1.173e-04   |deigs|: 5.621e-06  t[s]:   4810.00
	Linear fluid (dielectric constant: 78.4, screening length: 5.74355 Bohr) occupying 0.753347 of unit cell:	Completed after 3 iterations at t[s]:   4810.55
	FillingsUpdate:  mu: -0.174658324  nElectrons: 246.000000
	Linear fluid (dielectric constant: 78.4, screening length: 5.74355 Bohr) occupying 0.753349 of unit cell:	Completed after 3 iterations at t[s]:   4842.62
SCF: Cycle: 86   F: -774.459526757620893   dF: -1.455e-07   |Residual|: 9.029e-05   |deigs|: 6.072e-06  t[s]:   4843.34
	Linear fluid (dielectric constant: 78.4, screening length: 5.74355 Bohr) occupying 0.753347 of unit cell:	Completed after 2 iterations at t[s]:   4843.83
	FillingsUpdate:  mu: -0.174654711  nElectrons: 246.000000
	Linear fluid (dielectric constant: 78.4, screening length: 5.74355 Bohr) occupying 0.753349 of unit cell:	Completed after 3 iterations at t[s]:   4881.74
SCF: Cycle: 87   F: -774.459526208349530   dF: +5.493e-07   |Residual|: 1.765e-04   |deigs|: 9.683e-06  t[s]:   4882.46
	Linear fluid (dielectric constant: 78.4, screening length: 5.74355 Bohr) occupying 0.753347 of unit cell:	Completed after 3 iterations at t[s]:   4883.00
	FillingsUpdate:  mu: -0.174658076  nElectrons: 246.000000
	Linear fluid (dielectric constant: 78.4, screening length: 5.74355 Bohr) occupying 0.753349 of unit cell:	Completed after 4 iterations at t[s]:   4908.18
SCF: Cycle: 88   F: -774.459526067177194   dF: +1.412e-07   |Residual|: 1.823e-04   |deigs|: 1.165e-05  t[s]:   4908.92
	Linear fluid (dielectric constant: 78.4, screening length: 5.74355 Bohr) occupying 0.753348 of unit cell:	Completed after 3 iterations at t[s]:   4909.47
	FillingsUpdate:  mu: -0.174658642  nElectrons: 246.000000
	Linear fluid (dielectric constant: 78.4, screening length: 5.74355 Bohr) occupying 0.753349 of unit cell:	Completed after 6 iterations at t[s]:   4947.66
SCF: Cycle: 89   F: -774.459525827909033   dF: +2.393e-07   |Residual|: 2.013e-04   |deigs|: 1.312e-05  t[s]:   4948.43
	Linear fluid (dielectric constant: 78.4, screening length: 5.74355 Bohr) occupying 0.753348 of unit cell:	Completed after 2 iterations at t[s]:   4948.94
	FillingsUpdate:  mu: -0.174663026  nElectrons: 246.000000
	Linear fluid (dielectric constant: 78.4, screening length: 5.74355 Bohr) occupying 0.753349 of unit cell:	Completed after 3 iterations at t[s]:   4982.48
SCF: Cycle: 90   F: -774.459526160908354   dF: -3.330e-07   |Residual|: 1.738e-04   |deigs|: 1.047e-05  t[s]:   4983.25
	Linear fluid (dielectric constant: 78.4, screening length: 5.74355 Bohr) occupying 0.753347 of unit cell:	Completed after 3 iterations at t[s]:   4983.80
	FillingsUpdate:  mu: -0.174661525  nElectrons: 246.000000
	Linear fluid (dielectric constant: 78.4, screening length: 5.74355 Bohr) occupying 0.753349 of unit cell:	Completed after 4 iterations at t[s]:   5017.45
SCF: Cycle: 91   F: -774.459526189275266   dF: -2.837e-08   |Residual|: 1.816e-04   |deigs|: 9.227e-06  t[s]:   5018.22
	Linear fluid (dielectric constant: 78.4, screening length: 5.74355 Bohr) occupying 0.753347 of unit cell:	Completed after 3 iterations at t[s]:   5018.77
	FillingsUpdate:  mu: -0.174658574  nElectrons: 246.000000
	Linear fluid (dielectric constant: 78.4, screening length: 5.74355 Bohr) occupying 0.753349 of unit cell:	Completed after 3 iterations at t[s]:   5056.59
SCF: Cycle: 92   F: -774.459525988268524   dF: +2.010e-07   |Residual|: 2.000e-04   |deigs|: 1.096e-05  t[s]:   5057.33
	Linear fluid (dielectric constant: 78.4, screening length: 5.74355 Bohr) occupying 0.753348 of unit cell:	Completed after 3 iterations at t[s]:   5057.88
	FillingsUpdate:  mu: -0.174656408  nElectrons: 246.000000
	Linear fluid (dielectric constant: 78.4, screening length: 5.74355 Bohr) occupying 0.753349 of unit cell:	Completed after 4 iterations at t[s]:   5095.63
SCF: Cycle: 93   F: -774.459526131536109   dF: -1.433e-07   |Residual|: 1.792e-04   |deigs|: 1.179e-05  t[s]:   5096.41
	Linear fluid (dielectric constant: 78.4, screening length: 5.74355 Bohr) occupying 0.753348 of unit cell:	Completed after 3 iterations at t[s]:   5096.97
	FillingsUpdate:  mu: -0.174663181  nElectrons: 246.000000
	Linear fluid (dielectric constant: 78.4, screening length: 5.74355 Bohr) occupying 0.753349 of unit cell:	Completed after 6 iterations at t[s]:   5135.02
SCF: Cycle: 94   F: -774.459525656701999   dF: +4.748e-07   |Residual|: 2.106e-04   |deigs|: 1.296e-05  t[s]:   5135.79
	Linear fluid (dielectric constant: 78.4, screening length: 5.74355 Bohr) occupying 0.753348 of unit cell:	Completed after 3 iterations at t[s]:   5136.35
	FillingsUpdate:  mu: -0.174655870  nElectrons: 246.000000
	Linear fluid (dielectric constant: 78.4, screening length: 5.74355 Bohr) occupying 0.753349 of unit cell:	Completed after 3 iterations at t[s]:   5161.45
SCF: Cycle: 95   F: -774.459526274204450   dF: -6.175e-07   |Residual|: 1.769e-04   |deigs|: 1.145e-05  t[s]:   5162.22
	Linear fluid (dielectric constant: 78.4, screening length: 5.74355 Bohr) occupying 0.753348 of unit cell:	Completed after 3 iterations at t[s]:   5162.78
	FillingsUpdate:  mu: -0.174661372  nElectrons: 246.000000
	Linear fluid (dielectric constant: 78.4, screening length: 5.74355 Bohr) occupying 0.753349 of unit cell:	Completed after 3 iterations at t[s]:   5188.08
SCF: Cycle: 96   F: -774.459526221344959   dF: +5.286e-08   |Residual|: 1.706e-04   |deigs|: 9.818e-06  t[s]:   5188.88
	Linear fluid (dielectric constant: 78.4, screening length: 5.74355 Bohr) occupying 0.753348 of unit cell:	Completed after 3 iterations at t[s]:   5189.43
	FillingsUpdate:  mu: -0.174657121  nElectrons: 246.000000
	Linear fluid (dielectric constant: 78.4, screening length: 5.74355 Bohr) occupying 0.753349 of unit cell:	Completed after 4 iterations at t[s]:   5227.71
SCF: Cycle: 97   F: -774.459526169490346   dF: +5.185e-08   |Residual|: 1.745e-04   |deigs|: 1.018e-05  t[s]:   5228.48
	Linear fluid (dielectric constant: 78.4, screening length: 5.74355 Bohr) occupying 0.753348 of unit cell:	Completed after 3 iterations at t[s]:   5229.04
	FillingsUpdate:  mu: -0.174658300  nElectrons: 246.000000
	Linear fluid (dielectric constant: 78.4, screening length: 5.74355 Bohr) occupying 0.753349 of unit cell:	Completed after 3 iterations at t[s]:   5266.71
SCF: Cycle: 98   F: -774.459526252975934   dF: -8.349e-08   |Residual|: 1.626e-04   |deigs|: 8.308e-06  t[s]:   5267.41
	Linear fluid (dielectric constant: 78.4, screening length: 5.74355 Bohr) occupying 0.753348 of unit cell:	Completed after 3 iterations at t[s]:   5267.93
	FillingsUpdate:  mu: -0.174656673  nElectrons: 246.000000
	Linear fluid (dielectric constant: 78.4, screening length: 5.74355 Bohr) occupying 0.753349 of unit cell:	Completed after 3 iterations at t[s]:   5305.20
SCF: Cycle: 99   F: -774.459526369819514   dF: -1.168e-07   |Residual|: 1.620e-04   |deigs|: 9.213e-06  t[s]:   5305.91
	Linear fluid (dielectric constant: 78.4, screening length: 5.74355 Bohr) occupying 0.753348 of unit cell:	Completed after 3 iterations at t[s]:   5306.47
	FillingsUpdate:  mu: -0.174656911  nElectrons: 246.000000
	Linear fluid (dielectric constant: 78.4, screening length: 5.74355 Bohr) occupying 0.753349 of unit cell:	Completed after 4 iterations at t[s]:   5342.15
SCF: Cycle: 100   F: -774.459526126662922   dF: +2.432e-07   |Residual|: 1.646e-04   |deigs|: 9.580e-06  t[s]:   5342.90
	Linear fluid (dielectric constant: 78.4, screening length: 5.74355 Bohr) occupying 0.753348 of unit cell:	Completed after 3 iterations at t[s]:   5343.44
	FillingsUpdate:  mu: -0.174658371  nElectrons: 246.000000
	Linear fluid (dielectric constant: 78.4, screening length: 5.74355 Bohr) occupying 0.753349 of unit cell:	Completed after 3 iterations at t[s]:   5376.67
SCF: Cycle: 101   F: -774.459526191148939   dF: -6.449e-08   |Residual|: 1.710e-04   |deigs|: 1.009e-05  t[s]:   5377.41
	Linear fluid (dielectric constant: 78.4, screening length: 5.74355 Bohr) occupying 0.753348 of unit cell:	Completed after 3 iterations at t[s]:   5377.95
	FillingsUpdate:  mu: -0.174664539  nElectrons: 246.000000
	Linear fluid (dielectric constant: 78.4, screening length: 5.74355 Bohr) occupying 0.753349 of unit cell:	Completed after 4 iterations at t[s]:   5415.75
SCF: Cycle: 102   F: -774.459526048775501   dF: +1.424e-07   |Residual|: 1.766e-04   |deigs|: 1.205e-05  t[s]:   5416.47
	Linear fluid (dielectric constant: 78.4, screening length: 5.74355 Bohr) occupying 0.753348 of unit cell:	Completed after 3 iterations at t[s]:   5416.98
	FillingsUpdate:  mu: -0.174655170  nElectrons: 246.000000
	Linear fluid (dielectric constant: 78.4, screening length: 5.74355 Bohr) occupying 0.753349 of unit cell:	Completed after 3 iterations at t[s]:   5454.77
SCF: Cycle: 103   F: -774.459526013774962   dF: +3.500e-08   |Residual|: 1.864e-04   |deigs|: 1.363e-05  t[s]:   5455.57
	Linear fluid (dielectric constant: 78.4, screening length: 5.74355 Bohr) occupying 0.753348 of unit cell:	Completed after 3 iterations at t[s]:   5456.13
	FillingsUpdate:  mu: -0.174662379  nElectrons: 246.000000
	Linear fluid (dielectric constant: 78.4, screening length: 5.74355 Bohr) occupying 0.753349 of unit cell:	Completed after 3 iterations at t[s]:   5493.86
SCF: Cycle: 104   F: -774.459526042739867   dF: -2.896e-08   |Residual|: 1.854e-04   |deigs|: 1.295e-05  t[s]:   5494.62
	Linear fluid (dielectric constant: 78.4, screening length: 5.74355 Bohr) occupying 0.753348 of unit cell:	Completed after 3 iterations at t[s]:   5495.17
	FillingsUpdate:  mu: -0.174654620  nElectrons: 246.000000
	Linear fluid (dielectric constant: 78.4, screening length: 5.74355 Bohr) occupying 0.753349 of unit cell:	Completed after 4 iterations at t[s]:   5532.84
SCF: Cycle: 105   F: -774.459525551729712   dF: +4.910e-07   |Residual|: 2.306e-04   |deigs|: 1.418e-05  t[s]:   5533.61
	Linear fluid (dielectric constant: 78.4, screening length: 5.74355 Bohr) occupying 0.753348 of unit cell:	Completed after 3 iterations at t[s]:   5534.18
	FillingsUpdate:  mu: -0.174661422  nElectrons: 246.000000
	Linear fluid (dielectric constant: 78.4, screening length: 5.74355 Bohr) occupying 0.753349 of unit cell:	Completed after 3 iterations at t[s]:   5559.20
SCF: Cycle: 106   F: -774.459525985568462   dF: -4.338e-07   |Residual|: 2.047e-04   |deigs|: 1.330e-05  t[s]:   5559.91
	Linear fluid (dielectric constant: 78.4, screening length: 5.74355 Bohr) occupying 0.753348 of unit cell:	Completed after 3 iterations at t[s]:   5560.46
	FillingsUpdate:  mu: -0.174659185  nElectrons: 246.000000
	Linear fluid (dielectric constant: 78.4, screening length: 5.74355 Bohr) occupying 0.753349 of unit cell:	Completed after 6 iterations at t[s]:   5585.59
SCF: Cycle: 107   F: -774.459525715629297   dF: +2.699e-07   |Residual|: 2.229e-04   |deigs|: 1.194e-05  t[s]:   5586.35
	Linear fluid (dielectric constant: 78.4, screening length: 5.74355 Bohr) occupying 0.753348 of unit cell:	Completed after 2 iterations at t[s]:   5586.84
	FillingsUpdate:  mu: -0.174660303  nElectrons: 246.000000
	Linear fluid (dielectric constant: 78.4, screening length: 5.74355 Bohr) occupying 0.753349 of unit cell:	Completed after 6 iterations at t[s]:   5620.19
SCF: Cycle: 108   F: -774.459525610171340   dF: +1.055e-07   |Residual|: 2.399e-04   |deigs|: 1.226e-05  t[s]:   5620.95
	Linear fluid (dielectric constant: 78.4, screening length: 5.74355 Bohr) occupying 0.753348 of unit cell:	Completed after 3 iterations at t[s]:   5621.50
	FillingsUpdate:  mu: -0.174653710  nElectrons: 246.000000
	Linear fluid (dielectric constant: 78.4, screening length: 5.74355 Bohr) occupying 0.753349 of unit cell:	Completed after 6 iterations at t[s]:   5659.34
SCF: Cycle: 109   F: -774.459525134672049   dF: +4.755e-07   |Residual|: 3.162e-04   |deigs|: 1.278e-05  t[s]:   5660.07
	Linear fluid (dielectric constant: 78.4, screening length: 5.74355 Bohr) occupying 0.753348 of unit cell:	Completed after 3 iterations at t[s]:   5660.61
	FillingsUpdate:  mu: -0.174659759  nElectrons: 246.000000
	Linear fluid (dielectric constant: 78.4, screening length: 5.74355 Bohr) occupying 0.753349 of unit cell:	Completed after 6 iterations at t[s]:   5694.18
SCF: Cycle: 110   F: -774.459524878665889   dF: +2.560e-07   |Residual|: 3.132e-04   |deigs|: 1.556e-05  t[s]:   5694.90
	Linear fluid (dielectric constant: 78.4, screening length: 5.74355 Bohr) occupying 0.753348 of unit cell:	Completed after 3 iterations at t[s]:   5695.46
	FillingsUpdate:  mu: -0.174652136  nElectrons: 246.000000
	Linear fluid (dielectric constant: 78.4, screening length: 5.74355 Bohr) occupying 0.753348 of unit cell:	Completed after 7 iterations at t[s]:   5733.47
SCF: Cycle: 111   F: -774.459524538579103   dF: +3.401e-07   |Residual|: 3.071e-04   |deigs|: 1.771e-05  t[s]:   5734.19
	Linear fluid (dielectric constant: 78.4, screening length: 5.74355 Bohr) occupying 0.753349 of unit cell:	Completed after 6 iterations at t[s]:   5734.93
	FillingsUpdate:  mu: -0.174654769  nElectrons: 246.000000
	Linear fluid (dielectric constant: 78.4, screening length: 5.74355 Bohr) occupying 0.753349 of unit cell:	Completed after 3 iterations at t[s]:   5772.68
SCF: Cycle: 112   F: -774.459526021259876   dF: -1.483e-06   |Residual|: 2.315e-04   |deigs|: 1.226e-05  t[s]:   5773.42
	Linear fluid (dielectric constant: 78.4, screening length: 5.74355 Bohr) occupying 0.753349 of unit cell:	Completed after 3 iterations at t[s]:   5773.96
	FillingsUpdate:  mu: -0.174664658  nElectrons: 246.000000
	Linear fluid (dielectric constant: 78.4, screening length: 5.74355 Bohr) occupying 0.753349 of unit cell:	Completed after 3 iterations at t[s]:   5799.06
SCF: Cycle: 113   F: -774.459526543460015   dF: -5.222e-07   |Residual|: 2.008e-04   |deigs|: 1.230e-05  t[s]:   5799.85
	Linear fluid (dielectric constant: 78.4, screening length: 5.74355 Bohr) occupying 0.753348 of unit cell:	Completed after 1 iterations at t[s]:   5800.28
	FillingsUpdate:  mu: -0.174654084  nElectrons: 246.000000
	Linear fluid (dielectric constant: 78.4, screening length: 5.74355 Bohr) occupying 0.753349 of unit cell:	Completed after 6 iterations at t[s]:   5825.60
SCF: Cycle: 114   F: -774.459524705121112   dF: +1.838e-06   |Residual|: 2.914e-04   |deigs|: 1.801e-05  t[s]:   5826.37
	Linear fluid (dielectric constant: 78.4, screening length: 5.74355 Bohr) occupying 0.753349 of unit cell:	Completed after 6 iterations at t[s]:   5827.09
	FillingsUpdate:  mu: -0.174655560  nElectrons: 246.000000
	Linear fluid (dielectric constant: 78.4, screening length: 5.74355 Bohr) occupying 0.753349 of unit cell:	Completed after 3 iterations at t[s]:   5852.19
SCF: Cycle: 115   F: -774.459526259198242   dF: -1.554e-06   |Residual|: 1.656e-04   |deigs|: 6.528e-06  t[s]:   5852.95
	Linear fluid (dielectric constant: 78.4, screening length: 5.74355 Bohr) occupying 0.753349 of unit cell:	Completed after 3 iterations at t[s]:   5853.51
	FillingsUpdate:  mu: -0.174664151  nElectrons: 246.000000
	Linear fluid (dielectric constant: 78.4, screening length: 5.74355 Bohr) occupying 0.753349 of unit cell:	Completed after 0 iterations at t[s]:   5878.02
SCF: Cycle: 116   F: -774.459526911631201   dF: -6.524e-07   |Residual|: 6.507e-05   |deigs|: 9.097e-06  t[s]:   5878.74
	Linear fluid (dielectric constant: 78.4, screening length: 5.74355 Bohr) occupying 0.753349 of unit cell:	Completed after 0 iterations at t[s]:   5879.05
	FillingsUpdate:  mu: -0.174664154  nElectrons: 246.000000
	Linear fluid (dielectric constant: 78.4, screening length: 5.74355 Bohr) occupying 0.753349 of unit cell:	Completed after 0 iterations at t[s]:   5901.48
SCF: Cycle: 117   F: -774.459526911874036   dF: -2.428e-10   |Residual|: 6.352e-05   |deigs|: 4.640e-07  t[s]:   5902.28
	Linear fluid (dielectric constant: 78.4, screening length: 5.74355 Bohr) occupying 0.753349 of unit cell:	Completed after 0 iterations at t[s]:   5902.59
	FillingsUpdate:  mu: -0.174664169  nElectrons: 246.000000
	Linear fluid (dielectric constant: 78.4, screening length: 5.74355 Bohr) occupying 0.753349 of unit cell:	Completed after 0 iterations at t[s]:   5938.80
SCF: Cycle: 118   F: -774.459526912231922   dF: -3.579e-10   |Residual|: 5.675e-05   |deigs|: 2.103e-06  t[s]:   5939.57
SCF: Converged (|Delta E|<1.000000e-08 for 2 iters).

Single-point solvation energy estimate, DeltaF = +0.006527149453063

# Ionic positions in lattice coordinates:
ion Nb   0.164711947170022   0.181924217945280   0.493697461390396 0
ion Nb   0.006185445828327   0.979237082062930   0.499294445408692 0
ion Nb   0.798824643013548   0.802314002536881   0.503467136493547 0
ion Nb   0.592453983748957   0.623711067727317   0.504599753888221 0
ion Nb   0.496641101938186   0.983312035893660   0.499848410517623 0
ion Nb   0.396628611125776   0.424475162921498   0.493401615882344 0
ion Nb   0.297364039288239   0.803778420272542   0.503256145071686 0
ion Nb   0.093522112006535   0.621771123109329   0.504452744243137 0
ion Nb   0.894062061105078   0.380018359875534   0.498487759033372 0
ion Ir   0.733267499274165   0.214523914209211   0.494836688533187 0
ion Se   0.939618953562520   0.262495240826678   0.595109575015832 0
ion Se   0.174782081753371   0.330601326211472   0.413807929589528 0
ion Se   0.722725437497270   0.078869888986438   0.573422478191376 0
ion Se   0.955502315543167   0.123911505841938   0.405697395656558 0
ion Se   0.532890461745949   0.867514758847137   0.598429590212974 0
ion Se   0.761606087221205   0.931319410525242   0.405470551542714 0
ion Se   0.658712677211984   0.337498080394364   0.404745991301708 0
ion Se   0.331845673018051   0.672303219805476   0.600118534513086 0
ion Se   0.224902051806799   0.063960952089549   0.589393468644686 0
ion Se   0.478620622923790   0.140410996955857   0.423420788653566 0
ion Se   0.564414235349768   0.740834738832458   0.407842439859594 0
ion Se   0.133597368284488   0.466310949451696   0.584925027772201 0
ion Se   0.029996579041672   0.865620697939378   0.599087260587245 0
ion Se   0.363042181368131   0.549445626619957   0.409087055805167 0
ion Se   0.265492771980559   0.932174445369178   0.403238573960963 0
ion Se   0.832506067939422   0.670836968067416   0.600027146633874 0
ion Se   0.062197065757023   0.740016274559616   0.407982562790482 0
ion Se   0.632674363375966   0.469093477058816   0.585596935077480 0
ion Se   0.865706925120038   0.536282903063143   0.424229494728747 0


# Forces in Lattice coordinates:
force Nb  -0.005236229315236   0.055939399623284  -0.004834491761618 0
force Nb  -0.017304715644562   0.042866833723563  -0.019408050889487 0
force Nb   0.001551335631715   0.002351946511653   0.010919168576865 0
force Nb   0.008620971804311  -0.055200765758967   0.020295265530494 0
force Nb  -0.005620731292451   0.029998122027921  -0.026643850558522 0
force Nb   0.007948026450198  -0.005704117231026  -0.048381696852336 0
force Nb  -0.000786709474117   0.003794044424578   0.023440922736005 0
force Nb   0.009042823030058  -0.035362003752782   0.029675864443437 0
force Nb   0.005373383493999   0.034495101105776   0.018335763084369 0
force Ir  -0.006543480853950  -0.008687143377520  -0.034241386147725 0
force Se   0.003595123179904  -0.007968881489759   0.006511930520002 0
force Se   0.002767128881867  -0.010825463290875   0.005650201958133 0
force Se   0.018414808193393   0.000285759246022   0.022784287203686 0
force Se  -0.004092506141265  -0.007403839918156   0.006617510354641 0
force Se   0.001799600068609   0.000784266960860  -0.006253190803634 0
force Se   0.004258726040496   0.012625109557690   0.004101280464683 0
force Se  -0.000848329118638  -0.010957087637633  -0.010530248180425 0
force Se  -0.007305965671685  -0.011397434838563   0.004061935993512 0
force Se   0.002869581406933   0.004895495371466   0.002902241250418 0
force Se   0.005240797786779  -0.020480801612251   0.002733952459191 0
force Se  -0.001261051982379   0.014001012843680  -0.015331385750939 0
force Se  -0.008487234151791   0.008973152758188   0.004488209109814 0
force Se   0.006555170006094  -0.006816931381869   0.008700409402861 0
force Se  -0.001310943783613  -0.020900972431222   0.010287301866503 0
force Se   0.001527532825783   0.008272128565807   0.007880422145197 0
force Se  -0.006431144616672  -0.023538427645543   0.010791719093480 0
force Se   0.001401753623367   0.010807094562434  -0.002552478640952 0
force Se  -0.000031805674907   0.000130364000648   0.025938373808044 0
force Se  -0.004063055804799  -0.011612733473671  -0.017589571913144 0

# Energy components:
   A_diel =        0.0062358131877180
   Eewald =     4099.7503830583236777
       EH =     4737.8701687534075973
     Eloc =    -9828.3722137484728592
      Enl =      138.0650174767757221
      Exc =     -390.2404301224506753
 Exc_core =      262.1779591169663490
       KE =      206.3160206479000749
-------------------------------------
     Etot =     -774.4268590043627682
       TS =        0.0326679078691577
-------------------------------------
        F =     -774.4595269122319223

IonicMinimize: Iter:   0  F: -774.459526912231922  |grad|_K:  0.000e+00  t[s]:   5944.33
IonicMinimize: Converged (|grad|_K<1.000000e-04).

#--- Lowdin population analysis ---
# oxidation-state Nb -0.431 -0.556 -0.597 -0.554 -0.557 -0.435 -0.581 -0.548 -0.505
# oxidation-state Ir -0.836
# oxidation-state Se +0.410 +0.275 +0.333 +0.482 +0.342 +0.346 +0.388 +0.318 +0.321 +0.324 +0.362 +0.247 +0.357 +0.390 +0.327 +0.354 +0.360 +0.288 +0.212


Dumping 'NbTe2.fillings' ... done
Dumping 'NbTe2.wfns' ... done
Dumping 'NbTe2.fluidState' ... done
Dumping 'NbTe2.eigenvals' ... done
End date and time: Fri Jul 10 14:26:27 2020  (Duration: 0-1:39:07.40)
Done!
