
*************** JDFTx 1.5.0  ***************

Start date and time: Fri Dec 25 03:38:32 2020
Executable jdftx_gpu with command-line: -i Charged.in -o Charged.out
Running on hosts (process indices):  amax (0-4)
Divided in process groups (process indices):  0 (0)  1 (1)  2 (2)  3 (3)  4 (4)
gpuInit: Found compatible cuda device 0 'Tesla K80'
gpuInit: Found compatible cuda device 1 'Tesla K80'
gpuInit: Found compatible cuda device 2 'Tesla K80'
gpuInit: Found compatible cuda device 3 'Tesla K80'
gpuInit: Found compatible cuda device 4 'Tesla K80'
gpuInit: Selected device 0
Resource initialization completed at t[s]:      2.92
Run totals: 5 processes, 24 threads, 5 GPUs


Input parsed successfully to the following command list (including defaults):

basis kpoint-dependent
cache-projectors no
coords-type Lattice
core-overlap-check none
coulomb-interaction Slab 001
coulomb-truncation-embed 0.5 0.5 0.5
davidson-band-ratio 1.1
dump End State
dump-name NbTe2.$VAR
elec-cutoff 20
elec-eigen-algo Davidson
elec-ex-corr gga-PBE
elec-initial-charge 0.000000
elec-initial-magnetization 2.000000 no
elec-smearing Gauss 0.0073499
electronic-minimize  \
	dirUpdateScheme      FletcherReeves \
	linminMethod         DirUpdateRecommended \
	nIterations          500 \
	history              15 \
	knormThreshold       0 \
	energyDiffThreshold  1e-08 \
	nEnergyDiff          2 \
	alphaTstart          1 \
	alphaTmin            1e-10 \
	updateTestStepSize   yes \
	alphaTreduceFactor   0.1 \
	alphaTincreaseFactor 3 \
	nAlphaAdjustMax      3 \
	wolfeEnergy          0.0001 \
	wolfeGradient        0.9 \
	fdTest               no
exchange-regularization WignerSeitzTruncated
fluid LinearPCM 298.000000 1.013250
fluid-anion F- 1 MeanFieldLJ \
	epsBulk 1 \
	pMol 0 \
	epsInf 1 \
	Pvap 0 \
	sigmaBulk 0 \
	Rvdw 2.24877 \
	Res 0 \
	tauNuc 343133
fluid-cation Na+ 1 MeanFieldLJ \
	epsBulk 1 \
	pMol 0 \
	epsInf 1 \
	Pvap 0 \
	sigmaBulk 0 \
	Rvdw 2.19208 \
	Res 0 \
	tauNuc 343133
fluid-ex-corr lda-TF lda-PZ
fluid-gummel-loop 10 1.000000e-05
fluid-minimize  \
	dirUpdateScheme      PolakRibiere \
	linminMethod         DirUpdateRecommended \
	nIterations          400 \
	history              15 \
	knormThreshold       1e-11 \
	energyDiffThreshold  0 \
	nEnergyDiff          2 \
	alphaTstart          1 \
	alphaTmin            1e-10 \
	updateTestStepSize   yes \
	alphaTreduceFactor   0.1 \
	alphaTincreaseFactor 3 \
	nAlphaAdjustMax      6 \
	wolfeEnergy          0.0001 \
	wolfeGradient        0.9 \
	fdTest               no
fluid-solvent H2O 55.338 ScalarEOS \
	epsBulk 78.4 \
	pMol 0.92466 \
	epsInf 1.77 \
	Pvap 1.06736e-10 \
	sigmaBulk 4.62e-05 \
	Rvdw 2.61727 \
	Res 1.42 \
	tauNuc 343133 \
	poleEl 15 7 1
forces-output-coords Positions
initial-state NbTe2.$VAR
ion C   0.666666490000000   0.333333553000000   0.566297304495419 1
ion C   0.333333522000000   0.666666477000000   0.433742116200332 1
ion Ti   0.000000000000000   0.000000000000000   0.500030186254096 1
ion Ti   0.333333124000000   0.666666927000000   0.618558614194110 1
ion Ti   0.666666794000000   0.333333148000000   0.381441385805890 1
ion-species GBRV/$ID_pbe.uspp
ion-width Ecut
ionic-minimize  \
	dirUpdateScheme      L-BFGS \
	linminMethod         DirUpdateRecommended \
	nIterations          500 \
	history              15 \
	knormThreshold       0.0001 \
	energyDiffThreshold  1e-06 \
	nEnergyDiff          2 \
	alphaTstart          1 \
	alphaTmin            1e-10 \
	updateTestStepSize   yes \
	alphaTreduceFactor   0.1 \
	alphaTincreaseFactor 3 \
	nAlphaAdjustMax      3 \
	wolfeEnergy          0.0001 \
	wolfeGradient        0.9 \
	fdTest               no
kpoint   0.000000000000   0.000000000000   0.000000000000  1.00000000000000
kpoint-folding 19 19 1 
latt-move-scale 1 1 1
latt-scale 1.88973 1.88973 1.88973 
lattice Triclinic 3.05976 3.05976 19.6623 90 90 120
lattice-minimize  \
	dirUpdateScheme      L-BFGS \
	linminMethod         DirUpdateRecommended \
	nIterations          0 \
	history              15 \
	knormThreshold       0 \
	energyDiffThreshold  1e-06 \
	nEnergyDiff          2 \
	alphaTstart          1 \
	alphaTmin            1e-10 \
	updateTestStepSize   yes \
	alphaTreduceFactor   0.1 \
	alphaTincreaseFactor 3 \
	nAlphaAdjustMax      3 \
	wolfeEnergy          0.0001 \
	wolfeGradient        0.9 \
	fdTest               no
lcao-params -1 1e-06 0.0073499
pcm-variant CANDLE
spintype z-spin
subspace-rotation-factor 1 yes
symmetries automatic
symmetry-threshold 0.0001



---------- Setting up symmetries ----------

Found 24 point-group symmetries of the bravais lattice
Found 6 space-group symmetries with basis
Applied RMS atom displacement 1.75613e-06 bohrs to make symmetries exact.

---------- Initializing the Grid ----------
R = 
[    5.78211   -2.89105          0  ]
[          0    5.00745          0  ]
[          0          0    37.1563  ]
unit cell volume = 1075.81
G =
[    1.08666   0.627383         -0  ]
[          0    1.25477          0  ]
[          0         -0   0.169102  ]
Minimum fftbox size, Smin = [  24  24  152  ]
Chosen fftbox size, S = [  24  24  160  ]

---------- Exchange Correlation functional ----------
Initalized PBE GGA exchange.
Initalized PBE GGA correlation.

---------- Setting up pseudopotentials ----------
Width of ionic core gaussian charges (only for fluid interactions / plotting) set to 0.397384

Reading pseudopotential file '/home/guoxy/vasp/jdftx-1.5.0/build/pseudopotentials/GBRV/c_pbe.uspp':
  Title: C.  Created by USPP 7.3.6 on 3-2-2014
  Reference state energy: -5.406344.  4 valence electrons in orbitals:
    |200>  occupation: 2  eigenvalue: -0.504890
    |210>  occupation: 2  eigenvalue: -0.194356
  lMax: 1  lLocal: 2  QijEcut: 5
  4 projectors sampled on a log grid with 503 points:
    l: 0  eig: -0.504890  rCut: 1.3
    l: 0  eig: 0.000000  rCut: 1.3
    l: 1  eig: -0.194357  rCut: 1.3
    l: 1  eig: 0.000000  rCut: 1.3
  Partial core density with radius 1.1
  Transforming core density to a uniform radial grid of dG=0.02 with 1474 points.
  Transforming local potential to a uniform radial grid of dG=0.02 with 1474 points.
  Transforming nonlocal projectors to a uniform radial grid of dG=0.02 with 432 points.
  Transforming density augmentations to a uniform radial grid of dG=0.02 with 1474 points.
  Transforming atomic orbitals to a uniform radial grid of dG=0.02 with 432 points.
  Core radius for overlap checks: 1.30 bohrs.

Reading pseudopotential file '/home/guoxy/vasp/jdftx-1.5.0/build/pseudopotentials/GBRV/ti_pbe.uspp':
  Title: Ti.  Created by USPP 7.3.6 on 31-3-15
  Reference state energy: -59.020943.  12 valence electrons in orbitals:
    |300>  occupation: 2  eigenvalue: -2.777623
    |310>  occupation: 6  eigenvalue: -1.894596
    |400>  occupation: 2  eigenvalue: -0.438610
    |320>  occupation: 1  eigenvalue: -0.583119
  lMax: 2  lLocal: 3  QijEcut: 6
  6 projectors sampled on a log grid with 597 points:
    l: 0  eig: -2.777624  rCut: 1.8
    l: 0  eig: -0.438611  rCut: 1.8
    l: 1  eig: -1.894596  rCut: 1.8
    l: 1  eig: 0.500000  rCut: 1.8
    l: 2  eig: -0.583118  rCut: 1.8
    l: 2  eig: 0.150000  rCut: 1.8
  Partial core density with radius 0.8
  Transforming core density to a uniform radial grid of dG=0.02 with 1474 points.
  Transforming local potential to a uniform radial grid of dG=0.02 with 1474 points.
  Transforming nonlocal projectors to a uniform radial grid of dG=0.02 with 432 points.
  Transforming density augmentations to a uniform radial grid of dG=0.02 with 1474 points.
  Transforming atomic orbitals to a uniform radial grid of dG=0.02 with 432 points.
  Core radius for overlap checks: 1.80 bohrs.

Initialized 2 species with 5 total atoms.

Folded 1 k-points by 19x19x1 to 361 k-points.

---------- Setting up k-points, bands, fillings ----------
Adding inversion symmetry to k-mesh for non-inversion-symmetric unit cell.
Reduced to 40 k-points under symmetry. 
Computing the number of bands and number of electrons
Calculating initial fillings.
nElectrons:  44.000000   nBands: 38   nStates: 80

----- Setting up reduced wavefunction bases (one per k-point) -----
average nbasis = 4596.474 , ideal nbasis = 4595.939

---------- Setting up coulomb interaction ----------
Fluid mode embedding: using embedded box, but periodic Coulomb kernel.
(Fluid response is responsible for (approximate) separation between periodic images.)
Setting up double-sized grid for truncated Coulomb potentials:
R = 
[    5.78211   -2.89105          0  ]
[          0    5.00745          0  ]
[          0          0    74.3126  ]
unit cell volume = 2151.62
G =
[    1.08666   0.627383         -0  ]
[          0    1.25477          0  ]
[          0         -0  0.0845508  ]
Chosen fftbox size, S = [  24  24  320  ]
Integer grid location selected as the embedding center:
   Grid: [  12  12  80  ]
   Lattice: [  0.5  0.5  0.5  ]
   Cartesian: [  1.44553  2.50373  18.5781  ]
Constructing Wigner-Seitz cell: 8 faces (6 quadrilaterals, 2 hexagons)
Range-separation parameter for embedded mesh potentials due to point charges: 0.619224 bohrs.

Initializing van der Waals corrections
	NOTE: vdW corrections apply only for interactions with fluid.
	 C:  C6:   30.35 Eh-a0^6  R0: 2.744 a0
	Ti:  C6:  187.33 Eh-a0^6  R0: 2.952 a0

---------- Setting up ewald sum ----------
Optimum gaussian width for ewald sums = 3.938554 bohr.
Real space sum over 1805 unit cells with max indices [  9  9  2  ]
Reciprocal space sum over 4941 terms with max indices [  4  4  30  ]

---------- Allocating electronic variables ----------
Initializing wave functions:  linear combination of atomic orbitals
C pseudo-atom occupations:   s ( 2 )  p ( 2 )
Ti pseudo-atom occupations:   s ( 2 0 )  p ( 6 )  d ( 4 )
	FillingsUpdate:  mu: +3.099074341  nElectrons: 44.000000  magneticMoment: [ Abs: 0.02977  Tot: +0.01257 ]
LCAOMinimize: Iter:   0  F: -126.7865138863703010  |grad|_K:  3.745e-02  alpha:  1.000e+00
LCAOMinimize: 	Step increased F by 1.514178e+02, reducing alpha to 2.203660e-02.
	FillingsUpdate:  mu: +2.885528437  nElectrons: 44.000000  magneticMoment: [ Abs: 0.12159  Tot: +0.11940 ]
LCAOMinimize: Iter:   1  F: -127.4795419500850215  |grad|_K:  5.666e-02  alpha:  2.204e-02  linmin:  7.447e-02  cgtest: -3.593e-01  t[s]:     58.55
LCAOMinimize: 	Bad step direction: g.d > 0.
LCAOMinimize: 	Undoing step.
LCAOMinimize: 	Step failed: resetting search direction.
	FillingsUpdate:  mu: +2.885528437  nElectrons: 44.000000  magneticMoment: [ Abs: 0.12159  Tot: +0.11940 ]
LCAOMinimize: Iter:   2  F: -127.4795419500850215  |grad|_K:  5.666e-02  alpha:  0.000e+00
LCAOMinimize: 	Step increased F by 2.754744e-02, reducing alpha to 2.665420e-03.
	FillingsUpdate:  mu: +2.820405920  nElectrons: 44.000000  magneticMoment: [ Abs: 0.12994  Tot: +0.12606 ]
LCAOMinimize: Iter:   3  F: -128.9127824070158681  |grad|_K:  8.181e-02  alpha:  2.665e-03  linmin: -1.484e-01  cgtest:  6.808e-01  t[s]:     99.17
LCAOMinimize: 	Wrong curvature in test step, increasing alphaT to 7.996259e-03.
	FillingsUpdate:  mu: +1.274508590  nElectrons: 44.000000  magneticMoment: [ Abs: 1.03240  Tot: +1.03238 ]
LCAOMinimize: Iter:   4  F: -149.7666843262581153  |grad|_K:  2.049e-01  alpha: -3.777e-04  linmin: -3.464e-01  cgtest:  2.747e-01  t[s]:    116.82
LCAOMinimize: 	Step increased F by 2.445971e+02, reducing alpha to 4.986752e-02.
LCAOMinimize: 	Step increased F by 2.474168e+02, reducing alpha to 4.986752e-03.
LCAOMinimize: 	Step increased F by 3.818501e+01, reducing alpha to 4.986752e-04.
LCAOMinimize: 	Step failed to reduce F after 3 attempts. Quitting step.
LCAOMinimize: 	Undoing step.
LCAOMinimize: 	Step failed: resetting search direction.
	FillingsUpdate:  mu: +1.466899747  nElectrons: 44.000000  magneticMoment: [ Abs: 0.35715  Tot: +0.35349 ]
LCAOMinimize: Iter:   5  F: -114.0711681439534431  |grad|_K:  5.346e-02  alpha:  4.987e-04
LCAOMinimize: 	Step increased F by 2.068225e+02, reducing alpha to 3.051127e-02.
	FillingsUpdate:  mu: -0.060888580  nElectrons: 44.000000  magneticMoment: [ Abs: 0.58063  Tot: +0.57931 ]
LCAOMinimize: Iter:   6  F: -146.5856050147406222  |grad|_K:  1.217e-01  alpha:  3.051e-02  linmin: -2.372e-01  cgtest:  3.161e-01  t[s]:    195.90
LCAOMinimize: 	Step increased F by 3.997906e+01, reducing alpha to 1.097275e-03.
	FillingsUpdate:  mu: -2.221788823  nElectrons: 44.000000  magneticMoment: [ Abs: 0.77742  Tot: +0.77668 ]
LCAOMinimize: Iter:   7  F: -159.3842908353406642  |grad|_K:  6.370e-02  alpha:  1.097e-03  linmin: -2.247e-01  cgtest:  6.219e-01  t[s]:    224.46
LCAOMinimize: Encountered beta<0, resetting CG.
LCAOMinimize: 	Wrong curvature in test step, increasing alphaT to 3.291825e-03.
	FillingsUpdate:  mu: -2.241809109  nElectrons: 44.000000  magneticMoment: [ Abs: 0.77539  Tot: +0.77455 ]
LCAOMinimize: Iter:   8  F: -159.9414919737552054  |grad|_K:  6.459e-02  alpha: -1.932e-02  linmin: -1.665e-01  cgtest:  9.551e-01  t[s]:    242.06
LCAOMinimize: 	Step increased F by 2.458161e+02, reducing alpha to 3.390192e-02.
LCAOMinimize: 	Step increased F by 2.032391e+01, reducing alpha to 3.390192e-03.
	FillingsUpdate:  mu: -2.271192831  nElectrons: 44.000000  magneticMoment: [ Abs: 0.77344  Tot: +0.77213 ]
LCAOMinimize: Iter:   9  F: -162.0330975231911737  |grad|_K:  7.125e-02  alpha:  3.390e-03  linmin: -1.965e-01  cgtest:  8.058e-01  t[s]:    280.15
LCAOMinimize: 	Wrong curvature in test step, increasing alphaT to 1.017058e-02.
	FillingsUpdate:  mu: -1.793274260  nElectrons: 44.000000  magneticMoment: [ Abs: 0.84607  Tot: +0.84369 ]
LCAOMinimize: Iter:  10  F: -166.1712239576631589  |grad|_K:  9.437e-02  alpha: -3.957e-03  linmin: -2.840e-01  cgtest:  6.047e-01  t[s]:    298.17
LCAOMinimize: 	Step increased F by 2.553703e+02, reducing alpha to 4.570493e-02.
LCAOMinimize: 	Step increased F by 3.362861e+01, reducing alpha to 4.570493e-03.
	FillingsUpdate:  mu: -0.648775887  nElectrons: 44.000000  magneticMoment: [ Abs: 1.03887  Tot: +1.02702 ]
LCAOMinimize: Iter:  11  F: -172.9169155517678576  |grad|_K:  9.494e-02  alpha:  4.570e-03  linmin:  2.124e-01  cgtest: -3.114e-01  t[s]:    336.00
LCAOMinimize: 	Bad step direction: g.d > 0.
LCAOMinimize: 	Undoing step.
LCAOMinimize: 	Step failed: resetting search direction.
	FillingsUpdate:  mu: -0.648775887  nElectrons: 44.000000  magneticMoment: [ Abs: 1.03887  Tot: +1.02702 ]
LCAOMinimize: Iter:  12  F: -172.9169155517678576  |grad|_K:  9.494e-02  alpha:  0.000e+00
	FillingsUpdate:  mu: -0.020711405  nElectrons: 44.000000  magneticMoment: [ Abs: 1.11411  Tot: +1.06948 ]
LCAOMinimize: Iter:  13  F: -176.9406385614386750  |grad|_K:  4.181e-02  alpha:  8.314e-03  linmin:  1.814e-01  cgtest: -3.624e-01  t[s]:    366.27
	FillingsUpdate:  mu: +0.178070444  nElectrons: 44.000000  magneticMoment: [ Abs: 1.01766  Tot: +0.98069 ]
LCAOMinimize: Iter:  14  F: -178.4263082213319080  |grad|_K:  3.517e-02  alpha:  1.977e-02  linmin: -3.651e-02  cgtest:  7.449e-01  t[s]:    382.42
	FillingsUpdate:  mu: +0.264232536  nElectrons: 44.000000  magneticMoment: [ Abs: 0.98179  Tot: +0.93548 ]
LCAOMinimize: Iter:  15  F: -179.1938266704001137  |grad|_K:  2.450e-02  alpha:  1.077e-02  linmin:  1.609e-02  cgtest: -8.735e-02  t[s]:    399.16
LCAOMinimize: 	Predicted alpha/alphaT>3.000000, increasing alphaT to 3.231526e-02.
LCAOMinimize: 	Predicted alpha/alphaT>3.000000, increasing alphaT to 9.694579e-02.
	FillingsUpdate:  mu: +0.343666424  nElectrons: 44.000000  magneticMoment: [ Abs: 0.67830  Tot: +0.67770 ]
LCAOMinimize: Iter:  16  F: -185.4237601079144042  |grad|_K:  4.904e-03  alpha:  2.089e-01  linmin:  2.896e-01  cgtest: -1.120e+00  t[s]:    429.38
LCAOMinimize: 	Bad step direction: g.d > 0.
LCAOMinimize: 	Undoing step.
LCAOMinimize: 	Step failed: resetting search direction.
	FillingsUpdate:  mu: +0.343666424  nElectrons: 44.000000  magneticMoment: [ Abs: 0.67830  Tot: +0.67770 ]
LCAOMinimize: Iter:  17  F: -185.4237601079144042  |grad|_K:  4.904e-03  alpha:  0.000e+00
	FillingsUpdate:  mu: +0.221420786  nElectrons: 44.000000  magneticMoment: [ Abs: 0.54433  Tot: +0.52971 ]
LCAOMinimize: Iter:  18  F: -185.7103987540990886  |grad|_K:  1.385e-02  alpha:  1.963e-01  linmin: -9.455e-04  cgtest: -1.043e-01  t[s]:    456.49
	FillingsUpdate:  mu: +0.274578763  nElectrons: 44.000000  magneticMoment: [ Abs: 0.47134  Tot: +0.43530 ]
LCAOMinimize: Iter:  19  F: -185.8760326351042238  |grad|_K:  6.591e-03  alpha:  1.556e-02  linmin:  2.241e-02  cgtest:  9.290e-01  t[s]:    474.10
LCAOMinimize: Encountered beta<0, resetting CG.
	FillingsUpdate:  mu: +0.279879764  nElectrons: 44.000000  magneticMoment: [ Abs: 0.47104  Tot: +0.43418 ]
LCAOMinimize: Iter:  20  F: -185.9246243000817458  |grad|_K:  2.533e-03  alpha:  1.847e-02  linmin:  1.727e-02  cgtest: -4.410e-02  t[s]:    491.60
	FillingsUpdate:  mu: +0.263537835  nElectrons: 44.000000  magneticMoment: [ Abs: 0.46763  Tot: +0.42959 ]
LCAOMinimize: Iter:  21  F: -185.9464034414739331  |grad|_K:  8.635e-04  alpha:  5.467e-02  linmin: -6.034e-02  cgtest:  3.145e-01  t[s]:    508.39
	FillingsUpdate:  mu: +0.232243915  nElectrons: 44.000000  magneticMoment: [ Abs: 0.42765  Tot: +0.38853 ]
LCAOMinimize: Iter:  22  F: -185.9519176265993110  |grad|_K:  1.627e-03  alpha:  1.177e-01  linmin: -4.293e-03  cgtest: -4.012e-03  t[s]:    524.15
	FillingsUpdate:  mu: +0.231986010  nElectrons: 44.000000  magneticMoment: [ Abs: 0.37310  Tot: +0.33161 ]
LCAOMinimize: Iter:  23  F: -185.9581003551329843  |grad|_K:  6.591e-04  alpha:  4.020e-02  linmin:  1.473e-02  cgtest: -3.605e-01  t[s]:    539.83
	FillingsUpdate:  mu: +0.211091526  nElectrons: 44.000000  magneticMoment: [ Abs: 0.34251  Tot: +0.29918 ]
LCAOMinimize: Iter:  24  F: -185.9595368901541974  |grad|_K:  3.881e-04  alpha:  6.258e-02  linmin:  1.105e-03  cgtest:  4.613e-01  t[s]:    555.79
	FillingsUpdate:  mu: +0.198111907  nElectrons: 44.000000  magneticMoment: [ Abs: 0.32597  Tot: +0.28198 ]
LCAOMinimize: Iter:  25  F: -185.9604780221165754  |grad|_K:  5.803e-04  alpha:  1.035e-01  linmin:  1.294e-03  cgtest: -1.455e-02  t[s]:    572.57
	FillingsUpdate:  mu: +0.193285709  nElectrons: 44.000000  magneticMoment: [ Abs: 0.30810  Tot: +0.26357 ]
LCAOMinimize: Iter:  26  F: -185.9611909566038435  |grad|_K:  3.565e-04  alpha:  3.442e-02  linmin: -2.930e-03  cgtest:  1.119e-01  t[s]:    589.23
LCAOMinimize: 	Predicted alpha/alphaT>3.000000, increasing alphaT to 1.032507e-01.
	FillingsUpdate:  mu: +0.195650067  nElectrons: 44.000000  magneticMoment: [ Abs: 0.27006  Tot: +0.22524 ]
LCAOMinimize: Iter:  27  F: -185.9620791986024813  |grad|_K:  1.162e-04  alpha:  1.134e-01  linmin:  8.312e-03  cgtest: -1.820e-01  t[s]:    612.91
	FillingsUpdate:  mu: +0.190287864  nElectrons: 44.000000  magneticMoment: [ Abs: 0.23437  Tot: +0.19086 ]
LCAOMinimize: Iter:  28  F: -185.9622442764396055  |grad|_K:  3.202e-04  alpha:  2.097e-01  linmin:  5.595e-04  cgtest:  9.140e-03  t[s]:    628.70
	FillingsUpdate:  mu: +0.186156581  nElectrons: 44.000000  magneticMoment: [ Abs: 0.19333  Tot: +0.15132 ]
LCAOMinimize: Iter:  29  F: -185.9624829483702513  |grad|_K:  1.349e-04  alpha:  2.927e-02  linmin: -2.271e-02  cgtest:  8.917e-01  t[s]:    645.01
LCAOMinimize: Encountered beta<0, resetting CG.
	FillingsUpdate:  mu: +0.186703830  nElectrons: 44.000000  magneticMoment: [ Abs: 0.19139  Tot: +0.14963 ]
LCAOMinimize: Iter:  30  F: -185.9625075304554400  |grad|_K:  7.300e-05  alpha:  2.221e-02  linmin: -4.628e-05  cgtest:  1.266e-04  t[s]:    663.02
LCAOMinimize: None of the convergence criteria satisfied after 30 iterations.
----- createFluidSolver() ----- (Fluid-side solver setup)
   Initializing fluid molecule 'H2O'
     Initializing site 'O'
       Electron density: proportional to exp(-r/0.36935)*erfc((r-0.51523)/0.36823) with norm 6.826
       Charge density: gaussian nuclear width 0.478731 with net site charge 0.826
       Polarizability: cuspless exponential with width 0.32 and norm 3.73
       Hard sphere radius: 2.57003 bohrs
       Positions in reference frame:
         [ +0.000000 +0.000000 +0.000000 ]
     Initializing site 'H'
       Electron density: proportional to exp(-r/0.34641)*erfc((r-0)/0.390882) with norm 0.587
       Charge density: gaussian nuclear width 0.377945 with net site charge -0.413
       Polarizability: cuspless exponential with width 0.39 and norm 3.3
       Positions in reference frame:
         [ +0.000000 -1.441945 +1.122523 ]
         [ +0.000000 +1.441945 +1.122523 ]
     Net charge: 0   dipole magnitude: 0.927204
     Initializing spherical shell mfKernel with radius 2.61727 Bohr
     deltaS corrections:
       site 'O': -7.54299
       site 'H': -6.83917
   Initializing fluid molecule 'Na+'
     Initializing site 'Na'
       Electron density: proportional to exp(-r/0.19682)*erfc((r-0.71491)/0.41314) with norm 8.1383
       Charge density: gaussian nuclear width 0.365347 with net site charge -1
       Hard sphere radius: 1.86327 bohrs
       Positions in reference frame:
         [ +0.000000 +0.000000 +0.000000 ]
     Net charge: -1   dipole magnitude: 0
     Initializing gaussian mfKernel with width: 1.55004 Bohr
     deltaS corrections:
       site 'Na': -22.3555
   Initializing fluid molecule 'F-'
     Initializing site 'F'
       Electron density: proportional to exp(-r/0.38886)*erfc((r-0)/0.438782) with norm 8
       Charge density: gaussian nuclear width 0.374796 with net site charge 1
       Hard sphere radius: 2.39995 bohrs
       Positions in reference frame:
         [ +0.000000 +0.000000 +0.000000 ]
     Net charge: 1   dipole magnitude: 0
     Initializing gaussian mfKernel with width: 1.59012 Bohr
     deltaS corrections:
       site 'F': -9.04335

Correction to mu due to finite nuclear width = -0.0202902
   Cavity determined by nc: 0.00142 and sigma: 0.707107
   Nonlocal vdW cavity from gaussian model electron density with norm = 8 and sigma = 0.993594 bohr
   Charge asymmetry in cavity with sensitivity pCavity = 36.5 e-bohr/Eh
   Electrostatic cavity expanded by eta = 1.46 bohrs
   Weighted density cavitation model constrained by Nbulk: 0.0049383 bohr^-3, Pvap: 3.14029 kPa, Rvdw: 2.61727 bohr and sigmaBulk: 4.62e-05 Eh/bohr^2 at T: 298 K.
   Weighted density dispersion model using vdW pair potentials with single solvent site with sqrtC6eff: 0.77 SI.


---- Citations for features of the code used in this run ----

   Software package:
      R. Sundararaman, K. Letchworth-Weaver, K.A. Schwarz, D. Gunceler, Y. Ozhabes and T.A. Arias, 'JDFTx: software for joint density-functional theory', SoftwareX 6, 278 (2017)

   gga-PBE exchange-correlation functional:
      J.P. Perdew, K. Burke and M. Ernzerhof, Phys. Rev. Lett. 77, 3865 (1996)

   Pseudopotentials:
      KF Garrity, JW Bennett, KM Rabe and D Vanderbilt, Comput. Mater. Sci. 81, 446 (2014)

   Truncated Coulomb potentials:
      R. Sundararaman and T.A. Arias, Phys. Rev. B 87, 165122 (2013)

   Van der Waals correction pair-potentials:
      S. Grimme, J. Comput. Chem. 27, 1787 (2006)

   Charge-asymmetric nonlocally-determined local-electric (CANDLE) solvation model:
      R. Sundararaman and W.A. Goddard III, J. Chem. Phys. 142, 064107 (2015)

   Total energy minimization with Auxiliary Hamiltonian:
      C. Freysoldt, S. Boeck, and J. Neugebauer, Phys. Rev. B 79, 241103(R) (2009)

This list may not be complete. Please suggest additional citations or
report any other bugs at https://github.com/shankar1729/jdftx/issues

Initialization completed successfully at t[s]:    666.44

Fluid solver invoked on fresh (partially random / LCAO) wavefunctions
Running a vacuum solve first:

-------- Initial electronic minimization -----------
	FillingsUpdate:  mu: +0.186703870  nElectrons: 44.000000  magneticMoment: [ Abs: 0.19139  Tot: +0.14963 ]
ElecMinimize: Iter:   0  F: -185.962507530454900  |grad|_K:  2.262e-04  alpha:  1.000e+00
	FillingsUpdate:  mu: +0.036208440  nElectrons: 44.000000  magneticMoment: [ Abs: 0.15825  Tot: +0.12117 ]
	SubspaceRotationAdjust: set factor to 0.991
ElecMinimize: Iter:   1  F: -186.226666811109368  |grad|_K:  1.446e-04  alpha:  3.734e-01  linmin:  4.474e-05  t[s]:    698.37
	FillingsUpdate:  mu: -0.002975520  nElectrons: 44.000000  magneticMoment: [ Abs: 0.15573  Tot: +0.12020 ]
	SubspaceRotationAdjust: set factor to 0.644
ElecMinimize: Iter:   2  F: -186.251793449134595  |grad|_K:  2.283e-04  alpha:  7.348e-02  linmin: -2.533e-04  t[s]:    718.64
	FillingsUpdate:  mu: -0.000965210  nElectrons: 44.000000  magneticMoment: [ Abs: 0.13172  Tot: +0.10175 ]
	SubspaceRotationAdjust: set factor to 0.297
ElecMinimize: Iter:   3  F: -186.340711325615132  |grad|_K:  1.979e-04  alpha:  1.088e-01  linmin:  2.926e-04  t[s]:    739.33
	FillingsUpdate:  mu: +0.064007756  nElectrons: 44.000000  magneticMoment: [ Abs: 0.12368  Tot: +0.09516 ]
	SubspaceRotationAdjust: set factor to 0.225
ElecMinimize: Iter:   4  F: -186.360268385806449  |grad|_K:  7.434e-05  alpha:  3.624e-02  linmin: -1.955e-04  t[s]:    758.76
ElecMinimize: 	Predicted alpha/alphaT>3.000000, increasing alphaT to 1.087212e-01.
ElecMinimize: 	Predicted alpha/alphaT>3.000000, increasing alphaT to 3.261636e-01.
	FillingsUpdate:  mu: +0.047735426  nElectrons: 44.000000  magneticMoment: [ Abs: 0.09782  Tot: +0.07353 ]
	SubspaceRotationAdjust: set factor to 0.143
ElecMinimize: Iter:   5  F: -186.395739716105993  |grad|_K:  9.598e-05  alpha:  4.286e-01  linmin:  3.980e-05  t[s]:    791.67
	FillingsUpdate:  mu: +0.062154987  nElectrons: 44.000000  magneticMoment: [ Abs: 0.08809  Tot: +0.06537 ]
	SubspaceRotationAdjust: set factor to 0.139
ElecMinimize: Iter:   6  F: -186.408164794924460  |grad|_K:  5.693e-05  alpha:  8.851e-02  linmin: -3.045e-04  t[s]:    811.61
ElecMinimize: 	Predicted alpha/alphaT>3.000000, increasing alphaT to 2.655440e-01.
	FillingsUpdate:  mu: +0.003533099  nElectrons: 44.000000  magneticMoment: [ Abs: 0.07650  Tot: +0.05605 ]
	SubspaceRotationAdjust: set factor to 0.091
	SubspaceRotationAdjust: resetting CG because factor has changed by 0.0910081
ElecMinimize: 	State modified externally: resetting search direction.
ElecMinimize: Iter:   7  F: -186.423168524749769  |grad|_K:  5.274e-05  alpha:  3.030e-01
	FillingsUpdate:  mu: +0.019599788  nElectrons: 44.000000  magneticMoment: [ Abs: 0.07655  Tot: +0.05630 ]
	SubspaceRotationAdjust: set factor to 0.107
ElecMinimize: Iter:   8  F: -186.429756413947615  |grad|_K:  2.523e-05  alpha:  1.685e-01  linmin: -6.345e-05  t[s]:    867.68
ElecMinimize: 	Predicted alpha/alphaT>3.000000, increasing alphaT to 5.053733e-01.
	FillingsUpdate:  mu: +0.004358832  nElectrons: 44.000000  magneticMoment: [ Abs: 0.07507  Tot: +0.05575 ]
	SubspaceRotationAdjust: set factor to 0.12
ElecMinimize: Iter:   9  F: -186.435247047995659  |grad|_K:  2.072e-05  alpha:  6.149e-01  linmin:  3.175e-05  t[s]:    892.82
	FillingsUpdate:  mu: -0.016935204  nElectrons: 44.000000  magneticMoment: [ Abs: 0.07284  Tot: +0.05508 ]
	SubspaceRotationAdjust: set factor to 0.145
ElecMinimize: Iter:  10  F: -186.439261103560142  |grad|_K:  1.732e-05  alpha:  6.690e-01  linmin:  6.685e-05  t[s]:    913.15
	FillingsUpdate:  mu: -0.028747638  nElectrons: 44.000000  magneticMoment: [ Abs: 0.07033  Tot: +0.05435 ]
	SubspaceRotationAdjust: set factor to 0.124
ElecMinimize: Iter:  11  F: -186.441995389912023  |grad|_K:  1.731e-05  alpha:  6.565e-01  linmin:  3.828e-05  t[s]:    933.19
	FillingsUpdate:  mu: -0.032480984  nElectrons: 44.000000  magneticMoment: [ Abs: 0.06968  Tot: +0.05436 ]
	SubspaceRotationAdjust: set factor to 0.0917
ElecMinimize: Iter:  12  F: -186.442790644599683  |grad|_K:  1.599e-05  alpha:  1.811e-01  linmin: -1.288e-04  t[s]:    951.47
ElecMinimize: 	Predicted alpha/alphaT>3.000000, increasing alphaT to 5.432130e-01.
	FillingsUpdate:  mu: -0.045254616  nElectrons: 44.000000  magneticMoment: [ Abs: 0.06774  Tot: +0.05463 ]
	SubspaceRotationAdjust: set factor to 0.145
ElecMinimize: Iter:  13  F: -186.444970674958483  |grad|_K:  1.091e-05  alpha:  5.836e-01  linmin:  7.845e-05  t[s]:    975.11
	FillingsUpdate:  mu: -0.047844869  nElectrons: 44.000000  magneticMoment: [ Abs: 0.06711  Tot: +0.05489 ]
	SubspaceRotationAdjust: set factor to 0.0972
ElecMinimize: Iter:  14  F: -186.445670681726853  |grad|_K:  1.623e-05  alpha:  4.259e-01  linmin:  1.043e-05  t[s]:    993.54
	FillingsUpdate:  mu: -0.048205211  nElectrons: 44.000000  magneticMoment: [ Abs: 0.06661  Tot: +0.05538 ]
	SubspaceRotationAdjust: set factor to 0.0741
ElecMinimize: Iter:  15  F: -186.446412047505106  |grad|_K:  1.116e-05  alpha:  1.939e-01  linmin: -3.975e-05  t[s]:   1012.66
	FillingsUpdate:  mu: -0.043241955  nElectrons: 44.000000  magneticMoment: [ Abs: 0.06577  Tot: +0.05601 ]
	SubspaceRotationAdjust: set factor to 0.102
ElecMinimize: Iter:  16  F: -186.447357278588129  |grad|_K:  8.775e-06  alpha:  5.327e-01  linmin:  2.687e-05  t[s]:   1032.37
	FillingsUpdate:  mu: -0.040427213  nElectrons: 44.000000  magneticMoment: [ Abs: 0.06539  Tot: +0.05628 ]
	SubspaceRotationAdjust: set factor to 0.0806
ElecMinimize: Iter:  17  F: -186.447716483285006  |grad|_K:  9.606e-06  alpha:  3.322e-01  linmin: -6.056e-06  t[s]:   1052.85
	FillingsUpdate:  mu: -0.037553041  nElectrons: 44.000000  magneticMoment: [ Abs: 0.06507  Tot: +0.05662 ]
	SubspaceRotationAdjust: set factor to 0.0564
ElecMinimize: Iter:  18  F: -186.448050743218431  |grad|_K:  4.721e-06  alpha:  2.565e-01  linmin:  9.953e-06  t[s]:   1071.94
	FillingsUpdate:  mu: -0.035707292  nElectrons: 44.000000  magneticMoment: [ Abs: 0.06497  Tot: +0.05708 ]
	SubspaceRotationAdjust: set factor to 0.0592
ElecMinimize: Iter:  19  F: -186.448240286883333  |grad|_K:  3.645e-06  alpha:  6.091e-01  linmin:  1.377e-05  t[s]:   1091.31
	FillingsUpdate:  mu: -0.034388742  nElectrons: 44.000000  magneticMoment: [ Abs: 0.06500  Tot: +0.05752 ]
	SubspaceRotationAdjust: set factor to 0.0639
ElecMinimize: Iter:  20  F: -186.448344263389174  |grad|_K:  2.601e-06  alpha:  5.598e-01  linmin:  3.271e-06  t[s]:   1112.84
	FillingsUpdate:  mu: -0.034011061  nElectrons: 44.000000  magneticMoment: [ Abs: 0.06515  Tot: +0.05797 ]
	SubspaceRotationAdjust: set factor to 0.0616
ElecMinimize: Iter:  21  F: -186.448399929718761  |grad|_K:  2.389e-06  alpha:  5.870e-01  linmin:  6.713e-06  t[s]:   1132.51
	FillingsUpdate:  mu: -0.033834424  nElectrons: 44.000000  magneticMoment: [ Abs: 0.06533  Tot: +0.05834 ]
	SubspaceRotationAdjust: set factor to 0.0503
ElecMinimize: Iter:  22  F: -186.448428490458866  |grad|_K:  2.006e-06  alpha:  3.566e-01  linmin: -3.077e-06  t[s]:   1151.78
	FillingsUpdate:  mu: -0.033350184  nElectrons: 44.000000  magneticMoment: [ Abs: 0.06571  Tot: +0.05898 ]
	SubspaceRotationAdjust: set factor to 0.0509
ElecMinimize: Iter:  23  F: -186.448460030135948  |grad|_K:  1.633e-06  alpha:  5.587e-01  linmin:  8.501e-06  t[s]:   1172.73
	FillingsUpdate:  mu: -0.032680285  nElectrons: 44.000000  magneticMoment: [ Abs: 0.06615  Tot: +0.05963 ]
	SubspaceRotationAdjust: set factor to 0.0616
ElecMinimize: Iter:  24  F: -186.448482798502596  |grad|_K:  1.332e-06  alpha:  6.091e-01  linmin: -6.275e-07  t[s]:   1192.44
	FillingsUpdate:  mu: -0.032160819  nElectrons: 44.000000  magneticMoment: [ Abs: 0.06674  Tot: +0.06039 ]
	SubspaceRotationAdjust: set factor to 0.0697
ElecMinimize: Iter:  25  F: -186.448501226783549  |grad|_K:  1.322e-06  alpha:  7.406e-01  linmin:  1.546e-06  t[s]:   1210.82
	FillingsUpdate:  mu: -0.031787570  nElectrons: 44.000000  magneticMoment: [ Abs: 0.06729  Tot: +0.06109 ]
	SubspaceRotationAdjust: set factor to 0.058
ElecMinimize: Iter:  26  F: -186.448513258122688  |grad|_K:  1.452e-06  alpha:  4.911e-01  linmin:  3.633e-07  t[s]:   1230.22
	FillingsUpdate:  mu: -0.031482426  nElectrons: 44.000000  magneticMoment: [ Abs: 0.06792  Tot: +0.06186 ]
	SubspaceRotationAdjust: set factor to 0.0472
ElecMinimize: Iter:  27  F: -186.448523850263598  |grad|_K:  1.064e-06  alpha:  3.584e-01  linmin:  2.164e-07  t[s]:   1250.43
	FillingsUpdate:  mu: -0.031317341  nElectrons: 44.000000  magneticMoment: [ Abs: 0.06874  Tot: +0.06285 ]
	SubspaceRotationAdjust: set factor to 0.0573
ElecMinimize: Iter:  28  F: -186.448534049115807  |grad|_K:  8.448e-07  alpha:  6.421e-01  linmin:  1.676e-07  t[s]:   1269.41
	FillingsUpdate:  mu: -0.031373104  nElectrons: 44.000000  magneticMoment: [ Abs: 0.06951  Tot: +0.06376 ]
	SubspaceRotationAdjust: set factor to 0.0646
ElecMinimize: Iter:  29  F: -186.448541241042079  |grad|_K:  7.933e-07  alpha:  7.184e-01  linmin:  1.734e-07  t[s]:   1289.15
	FillingsUpdate:  mu: -0.031473744  nElectrons: 44.000000  magneticMoment: [ Abs: 0.07020  Tot: +0.06455 ]
	SubspaceRotationAdjust: set factor to 0.0615
ElecMinimize: Iter:  30  F: -186.448545875754689  |grad|_K:  7.926e-07  alpha:  5.251e-01  linmin: -3.886e-07  t[s]:   1308.77
	FillingsUpdate:  mu: -0.031609882  nElectrons: 44.000000  magneticMoment: [ Abs: 0.07090  Tot: +0.06534 ]
	SubspaceRotationAdjust: set factor to 0.0526
ElecMinimize: Iter:  31  F: -186.448549479092492  |grad|_K:  7.270e-07  alpha:  4.090e-01  linmin: -5.275e-07  t[s]:   1326.88
	FillingsUpdate:  mu: -0.031827101  nElectrons: 44.000000  magneticMoment: [ Abs: 0.07195  Tot: +0.06649 ]
	SubspaceRotationAdjust: set factor to 0.0577
ElecMinimize: Iter:  32  F: -186.448553649193059  |grad|_K:  5.897e-07  alpha:  5.624e-01  linmin: -3.732e-07  t[s]:   1345.54
	FillingsUpdate:  mu: -0.031980017  nElectrons: 44.000000  magneticMoment: [ Abs: 0.07315  Tot: +0.06777 ]
	SubspaceRotationAdjust: set factor to 0.0674
ElecMinimize: Iter:  33  F: -186.448557307457378  |grad|_K:  5.384e-07  alpha:  7.498e-01  linmin: -3.383e-07  t[s]:   1366.59
	FillingsUpdate:  mu: -0.032072948  nElectrons: 44.000000  magneticMoment: [ Abs: 0.07429  Tot: +0.06895 ]
	SubspaceRotationAdjust: set factor to 0.0717
ElecMinimize: Iter:  34  F: -186.448559933170259  |grad|_K:  5.444e-07  alpha:  6.457e-01  linmin: -4.891e-08  t[s]:   1386.04
	FillingsUpdate:  mu: -0.032155355  nElectrons: 44.000000  magneticMoment: [ Abs: 0.07516  Tot: +0.06983 ]
	SubspaceRotationAdjust: set factor to 0.0564
ElecMinimize: Iter:  35  F: -186.448561486738839  |grad|_K:  5.251e-07  alpha:  3.739e-01  linmin:  6.483e-07  t[s]:   1407.91
	FillingsUpdate:  mu: -0.032252291  nElectrons: 44.000000  magneticMoment: [ Abs: 0.07629  Tot: +0.07096 ]
	SubspaceRotationAdjust: set factor to 0.05
ElecMinimize: Iter:  36  F: -186.448563096252940  |grad|_K:  3.781e-07  alpha:  4.161e-01  linmin: -1.103e-06  t[s]:   1429.33
	FillingsUpdate:  mu: -0.032285488  nElectrons: 44.000000  magneticMoment: [ Abs: 0.07752  Tot: +0.07216 ]
	SubspaceRotationAdjust: set factor to 0.0576
ElecMinimize: Iter:  37  F: -186.448564418664546  |grad|_K:  2.984e-07  alpha:  6.594e-01  linmin:  1.511e-07  t[s]:   1447.46
	FillingsUpdate:  mu: -0.032283487  nElectrons: 44.000000  magneticMoment: [ Abs: 0.07849  Tot: +0.07311 ]
	SubspaceRotationAdjust: set factor to 0.0622
ElecMinimize: Iter:  38  F: -186.448565199920012  |grad|_K:  2.552e-07  alpha:  6.254e-01  linmin: -4.756e-07  t[s]:   1466.09
	FillingsUpdate:  mu: -0.032281334  nElectrons: 44.000000  magneticMoment: [ Abs: 0.07932  Tot: +0.07391 ]
	SubspaceRotationAdjust: set factor to 0.0559
ElecMinimize: Iter:  39  F: -186.448565669640828  |grad|_K:  2.389e-07  alpha:  5.140e-01  linmin: -8.308e-07  t[s]:   1484.63
	FillingsUpdate:  mu: -0.032275436  nElectrons: 44.000000  magneticMoment: [ Abs: 0.08006  Tot: +0.07462 ]
	SubspaceRotationAdjust: set factor to 0.0479
ElecMinimize: Iter:  40  F: -186.448565978213935  |grad|_K:  1.970e-07  alpha:  3.853e-01  linmin: -5.197e-07  t[s]:   1503.00
	FillingsUpdate:  mu: -0.032258159  nElectrons: 44.000000  magneticMoment: [ Abs: 0.08112  Tot: +0.07563 ]
	SubspaceRotationAdjust: set factor to 0.0576
ElecMinimize: Iter:  41  F: -186.448566301841595  |grad|_K:  1.592e-07  alpha:  5.946e-01  linmin: -9.475e-08  t[s]:   1520.95
	FillingsUpdate:  mu: -0.032238173  nElectrons: 44.000000  magneticMoment: [ Abs: 0.08226  Tot: +0.07671 ]
	SubspaceRotationAdjust: set factor to 0.0688
ElecMinimize: Iter:  42  F: -186.448566560696804  |grad|_K:  1.556e-07  alpha:  7.279e-01  linmin: -3.037e-07  t[s]:   1541.24
	FillingsUpdate:  mu: -0.032206532  nElectrons: 44.000000  magneticMoment: [ Abs: 0.08345  Tot: +0.07784 ]
	SubspaceRotationAdjust: set factor to 0.0622
ElecMinimize: Iter:  43  F: -186.448566763399356  |grad|_K:  1.815e-07  alpha:  5.970e-01  linmin:  7.782e-07  t[s]:   1562.29
	FillingsUpdate:  mu: -0.032169455  nElectrons: 44.000000  magneticMoment: [ Abs: 0.08472  Tot: +0.07904 ]
	SubspaceRotationAdjust: set factor to 0.0526
ElecMinimize: Iter:  44  F: -186.448566939834024  |grad|_K:  1.667e-07  alpha:  3.819e-01  linmin:  8.332e-07  t[s]:   1581.04
	FillingsUpdate:  mu: -0.032112236  nElectrons: 44.000000  magneticMoment: [ Abs: 0.08702  Tot: +0.08120 ]
	SubspaceRotationAdjust: set factor to 0.0599
ElecMinimize: Iter:  45  F: -186.448567205075562  |grad|_K:  1.599e-07  alpha:  6.810e-01  linmin:  1.323e-06  t[s]:   1599.30
	FillingsUpdate:  mu: -0.032063190  nElectrons: 44.000000  magneticMoment: [ Abs: 0.08983  Tot: +0.08384 ]
	SubspaceRotationAdjust: set factor to 0.0669
ElecMinimize: Iter:  46  F: -186.448567486478879  |grad|_K:  1.829e-07  alpha:  7.854e-01  linmin:  8.924e-07  t[s]:   1620.20
	FillingsUpdate:  mu: -0.032027922  nElectrons: 44.000000  magneticMoment: [ Abs: 0.09263  Tot: +0.08647 ]
	SubspaceRotationAdjust: set factor to 0.0595
ElecMinimize: Iter:  47  F: -186.448567736757298  |grad|_K:  2.108e-07  alpha:  5.335e-01  linmin: -1.487e-07  t[s]:   1639.82
	FillingsUpdate:  mu: -0.032007531  nElectrons: 44.000000  magneticMoment: [ Abs: 0.09581  Tot: +0.08945 ]
	SubspaceRotationAdjust: set factor to 0.0532
ElecMinimize: Iter:  48  F: -186.448567996363238  |grad|_K:  1.871e-07  alpha:  4.166e-01  linmin: -4.349e-07  t[s]:   1658.05
	FillingsUpdate:  mu: -0.032005375  nElectrons: 44.000000  magneticMoment: [ Abs: 0.10099  Tot: +0.09430 ]
	SubspaceRotationAdjust: set factor to 0.0648
ElecMinimize: Iter:  49  F: -186.448568380991247  |grad|_K:  1.861e-07  alpha:  7.827e-01  linmin: -1.493e-06  t[s]:   1678.07
	FillingsUpdate:  mu: -0.031999067  nElectrons: 44.000000  magneticMoment: [ Abs: 0.10670  Tot: +0.09964 ]
	SubspaceRotationAdjust: set factor to 0.0709
ElecMinimize: Iter:  50  F: -186.448568771190196  |grad|_K:  2.264e-07  alpha:  8.023e-01  linmin:  1.601e-07  t[s]:   1698.47
	FillingsUpdate:  mu: -0.031998643  nElectrons: 44.000000  magneticMoment: [ Abs: 0.11260  Tot: +0.10516 ]
	SubspaceRotationAdjust: set factor to 0.0633
ElecMinimize: Iter:  51  F: -186.448569148295690  |grad|_K:  2.816e-07  alpha:  5.246e-01  linmin:  1.312e-06  t[s]:   1716.82
	FillingsUpdate:  mu: -0.032016206  nElectrons: 44.000000  magneticMoment: [ Abs: 0.12116  Tot: +0.11318 ]
	SubspaceRotationAdjust: set factor to 0.0612
ElecMinimize: Iter:  52  F: -186.448569670851640  |grad|_K:  2.727e-07  alpha:  4.701e-01  linmin:  2.411e-06  t[s]:   1735.83
	FillingsUpdate:  mu: -0.032102844  nElectrons: 44.000000  magneticMoment: [ Abs: 0.13896  Tot: +0.12987 ]
	SubspaceRotationAdjust: set factor to 0.0696
ElecMinimize: Iter:  53  F: -186.448570703215211  |grad|_K:  3.414e-07  alpha:  9.972e-01  linmin:  1.358e-05  t[s]:   1756.20
	FillingsUpdate:  mu: -0.032111930  nElectrons: 44.000000  magneticMoment: [ Abs: 0.14193  Tot: +0.13266 ]
	SubspaceRotationAdjust: set factor to 0.0838
ElecMinimize: Iter:  54  F: -186.448571019084284  |grad|_K:  3.290e-07  alpha:  1.030e-01  linmin: -1.027e-03  t[s]:   1775.12
ElecMinimize: 	Predicted alpha/alphaT>3.000000, increasing alphaT to 3.090969e-01.
	FillingsUpdate:  mu: -0.032129673  nElectrons: 44.000000  magneticMoment: [ Abs: 0.15885  Tot: +0.14854 ]
	SubspaceRotationAdjust: set factor to 0.093
ElecMinimize: Iter:  55  F: -186.448572759106270  |grad|_K:  5.121e-07  alpha:  6.090e-01  linmin:  8.732e-06  t[s]:   1801.28
	FillingsUpdate:  mu: -0.032129951  nElectrons: 44.000000  magneticMoment: [ Abs: 0.15905  Tot: +0.14873 ]
	SubspaceRotationAdjust: set factor to 0.108
ElecMinimize: Iter:  56  F: -186.448572780803119  |grad|_K:  5.181e-07  alpha:  2.998e-03  linmin: -7.271e-04  t[s]:   1821.30
ElecMinimize: 	Predicted alpha/alphaT>3.000000, increasing alphaT to 8.995452e-03.
ElecMinimize: 	Predicted alpha/alphaT>3.000000, increasing alphaT to 2.698636e-02.
ElecMinimize: 	Predicted alpha/alphaT>3.000000, increasing alphaT to 8.095907e-02.
ElecMinimize: 	Step increased F by 7.560588e-05, reducing alpha to 6.015084e-02.
	FillingsUpdate:  mu: -0.032136874  nElectrons: 44.000000  magneticMoment: [ Abs: 0.16337  Tot: +0.15279 ]
	SubspaceRotationAdjust: set factor to 0.132
ElecMinimize: Iter:  57  F: -186.448573632095332  |grad|_K:  4.761e-07  alpha:  6.015e-02  linmin: -1.627e-03  t[s]:   1864.39
ElecMinimize: 	Predicted alpha/alphaT>3.000000, increasing alphaT to 1.804525e-01.
	FillingsUpdate:  mu: -0.032172944  nElectrons: 44.000000  magneticMoment: [ Abs: 0.18524  Tot: +0.17332 ]
	SubspaceRotationAdjust: set factor to 0.161
ElecMinimize: Iter:  58  F: -186.448576626826167  |grad|_K:  7.171e-07  alpha:  3.509e-01  linmin:  1.455e-04  t[s]:   1891.22
	FillingsUpdate:  mu: -0.032175062  nElectrons: 44.000000  magneticMoment: [ Abs: 0.18761  Tot: +0.17554 ]
	SubspaceRotationAdjust: set factor to 0.2
ElecMinimize: Iter:  59  F: -186.448576786344972  |grad|_K:  7.893e-07  alpha:  1.649e-02  linmin: -3.537e-04  t[s]:   1909.93
ElecMinimize: 	Predicted alpha/alphaT>3.000000, increasing alphaT to 4.945806e-02.
ElecMinimize: 	Predicted alpha/alphaT>3.000000, increasing alphaT to 1.483742e-01.
	FillingsUpdate:  mu: -0.032178582  nElectrons: 44.000000  magneticMoment: [ Abs: 0.22559  Tot: +0.21126 ]
	SubspaceRotationAdjust: set factor to 0.191
ElecMinimize: Iter:  60  F: -186.448578965097056  |grad|_K:  1.472e-06  alpha:  2.150e-01  linmin:  5.939e-04  t[s]:   1939.97
ElecMinimize: 	Bad step direction: g.d > 0.
ElecMinimize: 	Undoing step.
ElecMinimize: 	Step failed: resetting search direction.
	FillingsUpdate:  mu: -0.032178582  nElectrons: 44.000000  magneticMoment: [ Abs: 0.22559  Tot: +0.21126 ]
	SubspaceRotationAdjust: set factor to 0.187
ElecMinimize: Iter:  61  F: -186.448578965097113  |grad|_K:  1.454e-06  alpha:  0.000e+00
	FillingsUpdate:  mu: -0.032127961  nElectrons: 44.000000  magneticMoment: [ Abs: 0.22666  Tot: +0.21222 ]
	SubspaceRotationAdjust: set factor to 0.14
ElecMinimize: Iter:  62  F: -186.448586531452435  |grad|_K:  6.128e-07  alpha:  2.466e-01  linmin: -6.727e-03  t[s]:   1972.55
	FillingsUpdate:  mu: -0.032102504  nElectrons: 44.000000  magneticMoment: [ Abs: 0.22798  Tot: +0.21342 ]
	SubspaceRotationAdjust: set factor to 0.0824
ElecMinimize: Iter:  63  F: -186.448588155131517  |grad|_K:  8.035e-07  alpha:  2.615e-01  linmin: -8.396e-04  t[s]:   1991.99
	FillingsUpdate:  mu: -0.032086273  nElectrons: 44.000000  magneticMoment: [ Abs: 0.23134  Tot: +0.21646 ]
	SubspaceRotationAdjust: set factor to 0.0432
ElecMinimize: Iter:  64  F: -186.448591059461080  |grad|_K:  6.176e-07  alpha:  2.816e-01  linmin: -5.245e-05  t[s]:   2011.82
	FillingsUpdate:  mu: -0.032046458  nElectrons: 44.000000  magneticMoment: [ Abs: 0.23519  Tot: +0.21991 ]
	SubspaceRotationAdjust: set factor to 0.0243
ElecMinimize: Iter:  65  F: -186.448593368701580  |grad|_K:  4.475e-07  alpha:  4.245e-01  linmin: -6.233e-06  t[s]:   2030.09
	FillingsUpdate:  mu: -0.032001552  nElectrons: 44.000000  magneticMoment: [ Abs: 0.23910  Tot: +0.22337 ]
	SubspaceRotationAdjust: set factor to 0.0193
ElecMinimize: Iter:  66  F: -186.448595248052442  |grad|_K:  3.922e-07  alpha:  6.676e-01  linmin: -1.996e-06  t[s]:   2049.56
	FillingsUpdate:  mu: -0.031930368  nElectrons: 44.000000  magneticMoment: [ Abs: 0.24343  Tot: +0.22717 ]
	SubspaceRotationAdjust: set factor to 0.0225
ElecMinimize: Iter:  67  F: -186.448597062926382  |grad|_K:  3.611e-07  alpha:  8.402e-01  linmin: -1.171e-06  t[s]:   2070.70
	FillingsUpdate:  mu: -0.031908879  nElectrons: 44.000000  magneticMoment: [ Abs: 0.24669  Tot: +0.23006 ]
	SubspaceRotationAdjust: set factor to 0.0223
ElecMinimize: Iter:  68  F: -186.448598300702145  |grad|_K:  3.131e-07  alpha:  6.763e-01  linmin: -1.793e-07  t[s]:   2090.72
	FillingsUpdate:  mu: -0.031867219  nElectrons: 44.000000  magneticMoment: [ Abs: 0.24996  Tot: +0.23302 ]
	SubspaceRotationAdjust: set factor to 0.0241
ElecMinimize: Iter:  69  F: -186.448599395088110  |grad|_K:  3.122e-07  alpha:  7.958e-01  linmin: -1.014e-07  t[s]:   2109.52
	FillingsUpdate:  mu: -0.031810092  nElectrons: 44.000000  magneticMoment: [ Abs: 0.25317  Tot: +0.23599 ]
	SubspaceRotationAdjust: set factor to 0.0259
ElecMinimize: Iter:  70  F: -186.448600359087834  |grad|_K:  2.943e-07  alpha:  7.049e-01  linmin: -9.976e-08  t[s]:   2129.75
	FillingsUpdate:  mu: -0.031759455  nElectrons: 44.000000  magneticMoment: [ Abs: 0.25780  Tot: +0.24034 ]
	SubspaceRotationAdjust: set factor to 0.0272
ElecMinimize: Iter:  71  F: -186.448601586166347  |grad|_K:  3.355e-07  alpha:  1.010e+00  linmin: -8.637e-07  t[s]:   2149.36
	FillingsUpdate:  mu: -0.031708991  nElectrons: 44.000000  magneticMoment: [ Abs: 0.26341  Tot: +0.24564 ]
	SubspaceRotationAdjust: set factor to 0.0296
ElecMinimize: Iter:  72  F: -186.448602933726875  |grad|_K:  3.591e-07  alpha:  8.534e-01  linmin: -1.894e-07  t[s]:   2167.98
	FillingsUpdate:  mu: -0.031703870  nElectrons: 44.000000  magneticMoment: [ Abs: 0.27271  Tot: +0.25439 ]
	SubspaceRotationAdjust: set factor to 0.031
ElecMinimize: Iter:  73  F: -186.448604972674872  |grad|_K:  4.628e-07  alpha:  1.127e+00  linmin: -1.670e-07  t[s]:   2188.23
	FillingsUpdate:  mu: -0.031728774  nElectrons: 44.000000  magneticMoment: [ Abs: 0.28672  Tot: +0.26749 ]
	SubspaceRotationAdjust: set factor to 0.0323
ElecMinimize: Iter:  74  F: -186.448607867352194  |grad|_K:  5.522e-07  alpha:  9.634e-01  linmin:  1.459e-06  t[s]:   2208.11
	FillingsUpdate:  mu: -0.031714413  nElectrons: 44.000000  magneticMoment: [ Abs: 0.30839  Tot: +0.28766 ]
	SubspaceRotationAdjust: set factor to 0.0337
ElecMinimize: Iter:  75  F: -186.448612162563961  |grad|_K:  7.129e-07  alpha:  1.005e+00  linmin:  2.918e-06  t[s]:   2226.56
	FillingsUpdate:  mu: -0.031756093  nElectrons: 44.000000  magneticMoment: [ Abs: 0.34770  Tot: +0.32428 ]
	SubspaceRotationAdjust: set factor to 0.0347
ElecMinimize: Iter:  76  F: -186.448619805939217  |grad|_K:  8.570e-07  alpha:  1.076e+00  linmin:  1.413e-05  t[s]:   2246.13
	FillingsUpdate:  mu: -0.031758911  nElectrons: 44.000000  magneticMoment: [ Abs: 0.35197  Tot: +0.32825 ]
	SubspaceRotationAdjust: set factor to 0.0382
ElecMinimize: Iter:  77  F: -186.448621366683739  |grad|_K:  7.864e-07  alpha:  7.974e-02  linmin: -1.229e-03  t[s]:   2266.92
ElecMinimize: 	Predicted alpha/alphaT>3.000000, increasing alphaT to 2.392275e-01.
	FillingsUpdate:  mu: -0.031759919  nElectrons: 44.000000  magneticMoment: [ Abs: 0.36932  Tot: +0.34439 ]
	SubspaceRotationAdjust: set factor to 0.0414
ElecMinimize: Iter:  78  F: -186.448627594681511  |grad|_K:  7.376e-07  alpha:  3.762e-01  linmin:  1.051e-05  t[s]:   2292.70
	FillingsUpdate:  mu: -0.031762801  nElectrons: 44.000000  magneticMoment: [ Abs: 0.39244  Tot: +0.36584 ]
	SubspaceRotationAdjust: set factor to 0.0481
ElecMinimize: Iter:  79  F: -186.448631044434876  |grad|_K:  1.041e-06  alpha:  5.550e-01  linmin:  7.794e-04  t[s]:   2313.49
	FillingsUpdate:  mu: -0.031763588  nElectrons: 44.000000  magneticMoment: [ Abs: 0.39307  Tot: +0.36642 ]
	SubspaceRotationAdjust: set factor to 0.0591
ElecMinimize: Iter:  80  F: -186.448631126067227  |grad|_K:  1.057e-06  alpha:  7.506e-03  linmin: -4.477e-04  t[s]:   2334.77
ElecMinimize: 	Predicted alpha/alphaT>3.000000, increasing alphaT to 2.251792e-02.
ElecMinimize: 	Predicted alpha/alphaT>3.000000, increasing alphaT to 6.755375e-02.
	FillingsUpdate:  mu: -0.031779228  nElectrons: 44.000000  magneticMoment: [ Abs: 0.40076  Tot: +0.37353 ]
	SubspaceRotationAdjust: set factor to 0.051
ElecMinimize: Iter:  81  F: -186.448632854743380  |grad|_K:  9.903e-07  alpha:  8.707e-02  linmin:  3.482e-04  t[s]:   2362.43
	FillingsUpdate:  mu: -0.031787499  nElectrons: 44.000000  magneticMoment: [ Abs: 0.40478  Tot: +0.37725 ]
	SubspaceRotationAdjust: set factor to 0.0368
ElecMinimize: Iter:  82  F: -186.448633455860602  |grad|_K:  9.446e-07  alpha:  5.068e-02  linmin: -1.987e-05  t[s]:   2380.25
	FillingsUpdate:  mu: -0.031793648  nElectrons: 44.000000  magneticMoment: [ Abs: 0.41048  Tot: +0.38252 ]
	SubspaceRotationAdjust: set factor to 0.0279
ElecMinimize: Iter:  83  F: -186.448634421847032  |grad|_K:  9.125e-07  alpha:  7.697e-02  linmin:  3.337e-05  t[s]:   2398.69
	FillingsUpdate:  mu: -0.031791035  nElectrons: 44.000000  magneticMoment: [ Abs: 0.41854  Tot: +0.38997 ]
	SubspaceRotationAdjust: set factor to 0.0315
ElecMinimize: Iter:  84  F: -186.448635748350313  |grad|_K:  1.045e-06  alpha:  1.148e-01  linmin:  7.399e-06  t[s]:   2417.67
	FillingsUpdate:  mu: -0.031769810  nElectrons: 44.000000  magneticMoment: [ Abs: 0.43265  Tot: +0.40300 ]
	SubspaceRotationAdjust: set factor to 0.0403
ElecMinimize: Iter:  85  F: -186.448638068824948  |grad|_K:  1.402e-06  alpha:  1.519e-01  linmin:  3.519e-06  t[s]:   2437.13
	FillingsUpdate:  mu: -0.031715484  nElectrons: 44.000000  magneticMoment: [ Abs: 0.45571  Tot: +0.42429 ]
	SubspaceRotationAdjust: set factor to 0.0476
ElecMinimize: Iter:  86  F: -186.448641857262061  |grad|_K:  1.807e-06  alpha:  1.377e-01  linmin:  7.240e-07  t[s]:   2457.83
	FillingsUpdate:  mu: -0.031619763  nElectrons: 44.000000  magneticMoment: [ Abs: 0.48834  Tot: +0.45440 ]
	SubspaceRotationAdjust: set factor to 0.0535
ElecMinimize: Iter:  87  F: -186.448647228982878  |grad|_K:  2.124e-06  alpha:  1.178e-01  linmin: -2.285e-06  t[s]:   2477.96
	FillingsUpdate:  mu: -0.031478748  nElectrons: 44.000000  magneticMoment: [ Abs: 0.53072  Tot: +0.49352 ]
	SubspaceRotationAdjust: set factor to 0.0571
ElecMinimize: Iter:  88  F: -186.448654301612294  |grad|_K:  2.373e-06  alpha:  1.117e-01  linmin: -8.285e-06  t[s]:   2497.60
	FillingsUpdate:  mu: -0.031281739  nElectrons: 44.000000  magneticMoment: [ Abs: 0.58561  Tot: +0.54423 ]
	SubspaceRotationAdjust: set factor to 0.0595
ElecMinimize: Iter:  89  F: -186.448663705516907  |grad|_K:  2.657e-06  alpha:  1.179e-01  linmin: -6.121e-06  t[s]:   2518.21
	FillingsUpdate:  mu: -0.031027501  nElectrons: 44.000000  magneticMoment: [ Abs: 0.65522  Tot: +0.60857 ]
	SubspaceRotationAdjust: set factor to 0.0629
ElecMinimize: Iter:  90  F: -186.448675887259469  |grad|_K:  3.005e-06  alpha:  1.223e-01  linmin:  1.634e-05  t[s]:   2537.81
	FillingsUpdate:  mu: -0.030804921  nElectrons: 44.000000  magneticMoment: [ Abs: 0.71743  Tot: +0.66604 ]
	SubspaceRotationAdjust: set factor to 0.0679
ElecMinimize: Iter:  91  F: -186.448687998829428  |grad|_K:  3.165e-06  alpha:  8.809e-02  linmin: -1.695e-05  t[s]:   2556.72
	FillingsUpdate:  mu: -0.030737074  nElectrons: 44.000000  magneticMoment: [ Abs: 0.73759  Tot: +0.68463 ]
	SubspaceRotationAdjust: set factor to 0.0748
ElecMinimize: Iter:  92  F: -186.448693597458998  |grad|_K:  3.127e-06  alpha:  2.623e-02  linmin: -5.360e-04  t[s]:   2577.33
	FillingsUpdate:  mu: -0.030642341  nElectrons: 44.000000  magneticMoment: [ Abs: 0.76815  Tot: +0.71273 ]
	SubspaceRotationAdjust: set factor to 0.0919
ElecMinimize: Iter:  93  F: -186.448700651673050  |grad|_K:  3.019e-06  alpha:  4.123e-02  linmin:  7.397e-04  t[s]:   2597.77
	FillingsUpdate:  mu: -0.030630543  nElectrons: 44.000000  magneticMoment: [ Abs: 0.77185  Tot: +0.71612 ]
	SubspaceRotationAdjust: set factor to 0.117
ElecMinimize: Iter:  94  F: -186.448701058378788  |grad|_K:  3.096e-06  alpha:  5.390e-03  linmin: -1.555e-04  t[s]:   2616.02
	FillingsUpdate:  mu: -0.030596371  nElectrons: 44.000000  magneticMoment: [ Abs: 0.78255  Tot: +0.72591 ]
	SubspaceRotationAdjust: set factor to 0.122
ElecMinimize: Iter:  95  F: -186.448703145904688  |grad|_K:  3.241e-06  alpha:  1.484e-02  linmin:  1.792e-04  t[s]:   2635.89
	FillingsUpdate:  mu: -0.030569438  nElectrons: 44.000000  magneticMoment: [ Abs: 0.79004  Tot: +0.73276 ]
	SubspaceRotationAdjust: set factor to 0.105
ElecMinimize: Iter:  96  F: -186.448704424250508  |grad|_K:  3.314e-06  alpha:  9.481e-03  linmin: -4.576e-06  t[s]:   2656.21
	FillingsUpdate:  mu: -0.030531981  nElectrons: 44.000000  magneticMoment: [ Abs: 0.79884  Tot: +0.74078 ]
	SubspaceRotationAdjust: set factor to 0.0809
ElecMinimize: Iter:  97  F: -186.448706064984577  |grad|_K:  3.213e-06  alpha:  1.066e-02  linmin:  4.249e-05  t[s]:   2675.34
	FillingsUpdate:  mu: -0.030485854  nElectrons: 44.000000  magneticMoment: [ Abs: 0.80775  Tot: +0.74891 ]
	SubspaceRotationAdjust: set factor to 0.0598
ElecMinimize: Iter:  98  F: -186.448707695128462  |grad|_K:  2.994e-06  alpha:  1.150e-02  linmin:  2.761e-05  t[s]:   2694.88
	FillingsUpdate:  mu: -0.030426737  nElectrons: 44.000000  magneticMoment: [ Abs: 0.81718  Tot: +0.75749 ]
	SubspaceRotationAdjust: set factor to 0.0441
ElecMinimize: Iter:  99  F: -186.448709435839788  |grad|_K:  2.746e-06  alpha:  1.403e-02  linmin:  2.042e-05  t[s]:   2715.04
	FillingsUpdate:  mu: -0.030351685  nElectrons: 44.000000  magneticMoment: [ Abs: 0.82721  Tot: +0.76661 ]
	SubspaceRotationAdjust: set factor to 0.0344
ElecMinimize: Iter: 100  F: -186.448711298826936  |grad|_K:  2.551e-06  alpha:  1.777e-02  linmin:  1.065e-05  t[s]:   2735.09
	FillingsUpdate:  mu: -0.030255697  nElectrons: 44.000000  magneticMoment: [ Abs: 0.83817  Tot: +0.77656 ]
	SubspaceRotationAdjust: set factor to 0.0303
ElecMinimize: Iter: 101  F: -186.448713350575957  |grad|_K:  2.484e-06  alpha:  2.258e-02  linmin:  4.276e-06  t[s]:   2754.33
	FillingsUpdate:  mu: -0.030131180  nElectrons: 44.000000  magneticMoment: [ Abs: 0.85061  Tot: +0.78783 ]
	SubspaceRotationAdjust: set factor to 0.0312
ElecMinimize: Iter: 102  F: -186.448715695056336  |grad|_K:  2.577e-06  alpha:  2.714e-02  linmin:  1.672e-06  t[s]:   2774.88
	FillingsUpdate:  mu: -0.029970316  nElectrons: 44.000000  magneticMoment: [ Abs: 0.86499  Tot: +0.80084 ]
	SubspaceRotationAdjust: set factor to 0.0364
ElecMinimize: Iter: 103  F: -186.448718423000457  |grad|_K:  2.799e-06  alpha:  2.931e-02  linmin:  1.733e-06  t[s]:   2794.36
	FillingsUpdate:  mu: -0.029771750  nElectrons: 44.000000  magneticMoment: [ Abs: 0.88117  Tot: +0.81546 ]
	SubspaceRotationAdjust: set factor to 0.045
ElecMinimize: Iter: 104  F: -186.448721515188225  |grad|_K:  3.072e-06  alpha:  2.817e-02  linmin:  2.609e-06  t[s]:   2812.91
	FillingsUpdate:  mu: -0.029545853  nElectrons: 44.000000  magneticMoment: [ Abs: 0.89825  Tot: +0.83085 ]
	SubspaceRotationAdjust: set factor to 0.0566
ElecMinimize: Iter: 105  F: -186.448724805452883  |grad|_K:  3.321e-06  alpha:  2.490e-02  linmin:  2.310e-06  t[s]:   2833.27
	FillingsUpdate:  mu: -0.029311344  nElectrons: 44.000000  magneticMoment: [ Abs: 0.91499  Tot: +0.84593 ]
	SubspaceRotationAdjust: set factor to 0.0708
ElecMinimize: Iter: 106  F: -186.448728064861200  |grad|_K:  3.499e-06  alpha:  2.112e-02  linmin:  4.380e-07  t[s]:   2852.55
	FillingsUpdate:  mu: -0.029086253  nElectrons: 44.000000  magneticMoment: [ Abs: 0.93053  Tot: +0.85989 ]
	SubspaceRotationAdjust: set factor to 0.0879
ElecMinimize: Iter: 107  F: -186.448731119856689  |grad|_K:  3.600e-06  alpha:  1.781e-02  linmin: -2.469e-06  t[s]:   2871.65
	FillingsUpdate:  mu: -0.028882341  nElectrons: 44.000000  magneticMoment: [ Abs: 0.94449  Tot: +0.87242 ]
	SubspaceRotationAdjust: set factor to 0.109
ElecMinimize: Iter: 108  F: -186.448733896405486  |grad|_K:  3.632e-06  alpha:  1.528e-02  linmin: -6.382e-06  t[s]:   2890.83
	FillingsUpdate:  mu: -0.028704977  nElectrons: 44.000000  magneticMoment: [ Abs: 0.95693  Tot: +0.88357 ]
	SubspaceRotationAdjust: set factor to 0.134
ElecMinimize: Iter: 109  F: -186.448736398562517  |grad|_K:  3.613e-06  alpha:  1.349e-02  linmin: -1.169e-05  t[s]:   2909.80
	FillingsUpdate:  mu: -0.028555306  nElectrons: 44.000000  magneticMoment: [ Abs: 0.96808  Tot: +0.89356 ]
	SubspaceRotationAdjust: set factor to 0.168
ElecMinimize: Iter: 110  F: -186.448738672576951  |grad|_K:  3.555e-06  alpha:  1.234e-02  linmin: -1.889e-05  t[s]:   2930.95
	FillingsUpdate:  mu: -0.028432241  nElectrons: 44.000000  magneticMoment: [ Abs: 0.97827  Tot: +0.90267 ]
	SubspaceRotationAdjust: set factor to 0.214
ElecMinimize: Iter: 111  F: -186.448740783312559  |grad|_K:  3.467e-06  alpha:  1.174e-02  linmin: -2.849e-05  t[s]:   2950.45
	FillingsUpdate:  mu: -0.028333438  nElectrons: 44.000000  magneticMoment: [ Abs: 0.98784  Tot: +0.91122 ]
	SubspaceRotationAdjust: set factor to 0.28
ElecMinimize: Iter: 112  F: -186.448742806091360  |grad|_K:  3.361e-06  alpha:  1.169e-02  linmin: -4.084e-05  t[s]:   2969.96
	FillingsUpdate:  mu: -0.028254861  nElectrons: 44.000000  magneticMoment: [ Abs: 0.99718  Tot: +0.91956 ]
	SubspaceRotationAdjust: set factor to 0.369
ElecMinimize: Iter: 113  F: -186.448744829607790  |grad|_K:  3.253e-06  alpha:  1.225e-02  linmin: -5.515e-05  t[s]:   2989.84
	FillingsUpdate:  mu: -0.028187913  nElectrons: 44.000000  magneticMoment: [ Abs: 1.00673  Tot: +0.92806 ]
	SubspaceRotationAdjust: set factor to 0.482
ElecMinimize: Iter: 114  F: -186.448746959255288  |grad|_K:  3.165e-06  alpha:  1.350e-02  linmin: -6.623e-05  t[s]:   3008.75
	FillingsUpdate:  mu: -0.028113171  nElectrons: 44.000000  magneticMoment: [ Abs: 1.01682  Tot: +0.93703 ]
	SubspaceRotationAdjust: set factor to 0.626
ElecMinimize: Iter: 115  F: -186.448749269051802  |grad|_K:  3.106e-06  alpha:  1.525e-02  linmin: -6.224e-05  t[s]:   3028.92
	FillingsUpdate:  mu: -0.028004607  nElectrons: 44.000000  magneticMoment: [ Abs: 1.02698  Tot: +0.94604 ]
	SubspaceRotationAdjust: set factor to 0.82
	SubspaceRotationAdjust: resetting CG because factor has changed by 9.00473
ElecMinimize: 	State modified externally: resetting search direction.
ElecMinimize: Iter: 116  F: -186.448751611271376  |grad|_K:  3.145e-06  alpha:  1.617e-02
ElecMinimize: 	Predicted alpha/alphaT>3.000000, increasing alphaT to 4.850071e-02.
	FillingsUpdate:  mu: -0.027671340  nElectrons: 44.000000  magneticMoment: [ Abs: 1.02600  Tot: +0.94506 ]
	SubspaceRotationAdjust: set factor to 0.468
ElecMinimize: Iter: 117  F: -186.448768151660744  |grad|_K:  5.664e-06  alpha:  1.054e-01  linmin: -8.670e-04  t[s]:   3085.82
	FillingsUpdate:  mu: -0.028939699  nElectrons: 44.000000  magneticMoment: [ Abs: 1.02306  Tot: +0.94204 ]
	SubspaceRotationAdjust: set factor to 0.209
ElecMinimize: Iter: 118  F: -186.448802428288587  |grad|_K:  4.448e-06  alpha:  6.299e-02  linmin: -5.807e-06  t[s]:   3105.73
	FillingsUpdate:  mu: -0.028397992  nElectrons: 44.000000  magneticMoment: [ Abs: 1.02081  Tot: +0.93975 ]
	SubspaceRotationAdjust: set factor to 0.0857
	SubspaceRotationAdjust: resetting CG because factor has changed by 0.104583
ElecMinimize: 	State modified externally: resetting search direction.
ElecMinimize: Iter: 119  F: -186.448823333551076  |grad|_K:  1.713e-06  alpha:  7.526e-02
	FillingsUpdate:  mu: -0.028705442  nElectrons: 44.000000  magneticMoment: [ Abs: 1.02055  Tot: +0.93950 ]
	SubspaceRotationAdjust: set factor to 0.082
ElecMinimize: Iter: 120  F: -186.448832308847784  |grad|_K:  1.034e-06  alpha:  2.182e-01  linmin:  1.874e-05  t[s]:   3155.03
	FillingsUpdate:  mu: -0.028278145  nElectrons: 44.000000  magneticMoment: [ Abs: 1.02018  Tot: +0.93918 ]
	SubspaceRotationAdjust: set factor to 0.0659
ElecMinimize: Iter: 121  F: -186.448838154668465  |grad|_K:  8.543e-07  alpha:  3.898e-01  linmin:  6.832e-06  t[s]:   3175.44
	FillingsUpdate:  mu: -0.028287361  nElectrons: 44.000000  magneticMoment: [ Abs: 1.01927  Tot: +0.93836 ]
	SubspaceRotationAdjust: set factor to 0.0807
ElecMinimize: Iter: 122  F: -186.448844350034079  |grad|_K:  5.311e-07  alpha:  6.055e-01  linmin: -3.049e-07  t[s]:   3194.49
	FillingsUpdate:  mu: -0.028391062  nElectrons: 44.000000  magneticMoment: [ Abs: 1.01872  Tot: +0.93781 ]
	SubspaceRotationAdjust: set factor to 0.0971
ElecMinimize: Iter: 123  F: -186.448846506465060  |grad|_K:  4.930e-07  alpha:  5.449e-01  linmin: -2.397e-08  t[s]:   3214.54
	FillingsUpdate:  mu: -0.028367689  nElectrons: 44.000000  magneticMoment: [ Abs: 1.01765  Tot: +0.93672 ]
	SubspaceRotationAdjust: set factor to 0.0687
ElecMinimize: Iter: 124  F: -186.448849220779209  |grad|_K:  6.441e-07  alpha:  7.967e-01  linmin:  7.222e-06  t[s]:   3234.58
	FillingsUpdate:  mu: -0.028581548  nElectrons: 44.000000  magneticMoment: [ Abs: 1.01682  Tot: +0.93589 ]
	SubspaceRotationAdjust: set factor to 0.051
ElecMinimize: Iter: 125  F: -186.448850755247747  |grad|_K:  4.840e-07  alpha:  2.631e-01  linmin: -8.675e-06  t[s]:   3253.71
	FillingsUpdate:  mu: -0.028506445  nElectrons: 44.000000  magneticMoment: [ Abs: 1.01533  Tot: +0.93441 ]
	SubspaceRotationAdjust: set factor to 0.0642
ElecMinimize: Iter: 126  F: -186.448853064646300  |grad|_K:  4.997e-07  alpha:  7.014e-01  linmin:  4.359e-06  t[s]:   3273.24
	FillingsUpdate:  mu: -0.028245110  nElectrons: 44.000000  magneticMoment: [ Abs: 1.01350  Tot: +0.93265 ]
	SubspaceRotationAdjust: set factor to 0.0596
ElecMinimize: Iter: 127  F: -186.448855584705655  |grad|_K:  5.906e-07  alpha:  7.208e-01  linmin:  6.106e-06  t[s]:   3294.09
	FillingsUpdate:  mu: -0.028402593  nElectrons: 44.000000  magneticMoment: [ Abs: 1.01163  Tot: +0.93090 ]
	SubspaceRotationAdjust: set factor to 0.0486
ElecMinimize: Iter: 128  F: -186.448857864849003  |grad|_K:  5.511e-07  alpha:  4.657e-01  linmin: -1.863e-07  t[s]:   3312.93
	FillingsUpdate:  mu: -0.028494490  nElectrons: 44.000000  magneticMoment: [ Abs: 1.00930  Tot: +0.92883 ]
	SubspaceRotationAdjust: set factor to 0.0562
ElecMinimize: Iter: 129  F: -186.448860513464979  |grad|_K:  4.650e-07  alpha:  6.232e-01  linmin:  1.491e-05  t[s]:   3332.28
	FillingsUpdate:  mu: -0.028466409  nElectrons: 44.000000  magneticMoment: [ Abs: 1.00763  Tot: +0.92746 ]
	SubspaceRotationAdjust: set factor to 0.0552
ElecMinimize: Iter: 130  F: -186.448862273698637  |grad|_K:  4.553e-07  alpha:  5.841e-01  linmin:  8.539e-06  t[s]:   3353.83
	FillingsUpdate:  mu: -0.028583770  nElectrons: 44.000000  magneticMoment: [ Abs: 1.00625  Tot: +0.92642 ]
	SubspaceRotationAdjust: set factor to 0.05
ElecMinimize: Iter: 131  F: -186.448863654718025  |grad|_K:  3.613e-07  alpha:  4.755e-01  linmin:  5.657e-06  t[s]:   3373.36
	FillingsUpdate:  mu: -0.028565505  nElectrons: 44.000000  magneticMoment: [ Abs: 1.00524  Tot: +0.92576 ]
	SubspaceRotationAdjust: set factor to 0.0579
ElecMinimize: Iter: 132  F: -186.448864698683082  |grad|_K:  3.420e-07  alpha:  5.715e-01  linmin:  7.895e-06  t[s]:   3392.03
	FillingsUpdate:  mu: -0.028578719  nElectrons: 44.000000  magneticMoment: [ Abs: 1.00439  Tot: +0.92528 ]
	SubspaceRotationAdjust: set factor to 0.07
ElecMinimize: Iter: 133  F: -186.448865660207701  |grad|_K:  3.162e-07  alpha:  5.875e-01  linmin:  5.627e-06  t[s]:   3410.49
	FillingsUpdate:  mu: -0.028710140  nElectrons: 44.000000  magneticMoment: [ Abs: 1.00383  Tot: +0.92505 ]
	SubspaceRotationAdjust: set factor to 0.073
ElecMinimize: Iter: 134  F: -186.448866483315328  |grad|_K:  3.643e-07  alpha:  5.877e-01  linmin:  3.580e-06  t[s]:   3429.61
	FillingsUpdate:  mu: -0.028731673  nElectrons: 44.000000  magneticMoment: [ Abs: 1.00341  Tot: +0.92503 ]
	SubspaceRotationAdjust: set factor to 0.0715
ElecMinimize: Iter: 135  F: -186.448867561843372  |grad|_K:  4.168e-07  alpha:  5.797e-01  linmin:  5.394e-06  t[s]:   3449.73
	FillingsUpdate:  mu: -0.028935057  nElectrons: 44.000000  magneticMoment: [ Abs: 1.00308  Tot: +0.92532 ]
	SubspaceRotationAdjust: set factor to 0.0782
ElecMinimize: Iter: 136  F: -186.448869373621250  |grad|_K:  4.609e-07  alpha:  7.446e-01  linmin:  1.055e-05  t[s]:   3470.30
	FillingsUpdate:  mu: -0.028986894  nElectrons: 44.000000  magneticMoment: [ Abs: 1.00318  Tot: +0.92635 ]
	SubspaceRotationAdjust: set factor to 0.085
ElecMinimize: Iter: 137  F: -186.448872283800284  |grad|_K:  5.840e-07  alpha:  9.790e-01  linmin:  1.657e-05  t[s]:   3490.77
	FillingsUpdate:  mu: -0.028884079  nElectrons: 44.000000  magneticMoment: [ Abs: 1.00379  Tot: +0.92783 ]
	SubspaceRotationAdjust: set factor to 0.0809
ElecMinimize: Iter: 138  F: -186.448875223710331  |grad|_K:  7.269e-07  alpha:  6.177e-01  linmin:  1.833e-05  t[s]:   3510.14
	FillingsUpdate:  mu: -0.029088847  nElectrons: 44.000000  magneticMoment: [ Abs: 1.00489  Tot: +0.92995 ]
	SubspaceRotationAdjust: set factor to 0.0648
ElecMinimize: Iter: 139  F: -186.448878834143329  |grad|_K:  8.207e-07  alpha:  4.832e-01  linmin:  1.856e-06  t[s]:   3529.39
	FillingsUpdate:  mu: -0.029085417  nElectrons: 44.000000  magneticMoment: [ Abs: 1.00503  Tot: +0.93018 ]
	SubspaceRotationAdjust: set factor to 0.0955
ElecMinimize: Iter: 140  F: -186.448879424974677  |grad|_K:  7.364e-07  alpha:  3.261e-02  linmin: -1.921e-03  t[s]:   3548.90
ElecMinimize: 	Predicted alpha/alphaT>3.000000, increasing alphaT to 9.781646e-02.
	FillingsUpdate:  mu: -0.028978631  nElectrons: 44.000000  magneticMoment: [ Abs: 1.00604  Tot: +0.93160 ]
	SubspaceRotationAdjust: set factor to 0.0825
ElecMinimize: Iter: 141  F: -186.448882393440897  |grad|_K:  6.537e-07  alpha:  2.099e-01  linmin:  4.188e-04  t[s]:   3573.44
	FillingsUpdate:  mu: -0.029003883  nElectrons: 44.000000  magneticMoment: [ Abs: 1.00732  Tot: +0.93319 ]
	SubspaceRotationAdjust: set factor to 0.0964
ElecMinimize: Iter: 142  F: -186.448883531306933  |grad|_K:  7.770e-07  alpha:  2.212e-01  linmin:  1.558e-04  t[s]:   3591.94
	FillingsUpdate:  mu: -0.029066580  nElectrons: 44.000000  magneticMoment: [ Abs: 1.00876  Tot: +0.93490 ]
	SubspaceRotationAdjust: set factor to 0.0901
ElecMinimize: Iter: 143  F: -186.448884734620236  |grad|_K:  8.169e-07  alpha:  1.471e-01  linmin: -1.159e-05  t[s]:   3611.88
	FillingsUpdate:  mu: -0.029087502  nElectrons: 44.000000  magneticMoment: [ Abs: 1.01114  Tot: +0.93760 ]
	SubspaceRotationAdjust: set factor to 0.0625
ElecMinimize: Iter: 144  F: -186.448886438294636  |grad|_K:  9.382e-07  alpha:  1.815e-01  linmin:  2.427e-05  t[s]:   3630.52
	FillingsUpdate:  mu: -0.028982113  nElectrons: 44.000000  magneticMoment: [ Abs: 1.01443  Tot: +0.94124 ]
	SubspaceRotationAdjust: set factor to 0.0978
ElecMinimize: Iter: 145  F: -186.448888517889770  |grad|_K:  9.124e-07  alpha:  1.702e-01  linmin: -1.865e-05  t[s]:   3648.76
	FillingsUpdate:  mu: -0.028809417  nElectrons: 44.000000  magneticMoment: [ Abs: 1.01869  Tot: +0.94587 ]
	SubspaceRotationAdjust: set factor to 0.102
ElecMinimize: Iter: 146  F: -186.448891147083970  |grad|_K:  1.055e-06  alpha:  2.195e-01  linmin: -6.932e-05  t[s]:   3668.98
	FillingsUpdate:  mu: -0.028708160  nElectrons: 44.000000  magneticMoment: [ Abs: 1.02508  Tot: +0.95267 ]
	SubspaceRotationAdjust: set factor to 0.119
ElecMinimize: Iter: 147  F: -186.448894927203014  |grad|_K:  9.410e-07  alpha:  2.310e-01  linmin: -1.045e-04  t[s]:   3688.24
	FillingsUpdate:  mu: -0.028761170  nElectrons: 44.000000  magneticMoment: [ Abs: 1.02928  Tot: +0.95703 ]
	SubspaceRotationAdjust: set factor to 0.11
ElecMinimize: Iter: 148  F: -186.448897150854947  |grad|_K:  8.387e-07  alpha:  1.715e-01  linmin:  4.247e-06  t[s]:   3706.93
	FillingsUpdate:  mu: -0.028787265  nElectrons: 44.000000  magneticMoment: [ Abs: 1.03737  Tot: +0.96515 ]
	SubspaceRotationAdjust: set factor to 0.138
ElecMinimize: Iter: 149  F: -186.448900615043414  |grad|_K:  9.621e-07  alpha:  3.498e-01  linmin: -6.180e-06  t[s]:   3726.88
	FillingsUpdate:  mu: -0.028746759  nElectrons: 44.000000  magneticMoment: [ Abs: 1.04414  Tot: +0.97179 ]
	SubspaceRotationAdjust: set factor to 0.13
ElecMinimize: Iter: 150  F: -186.448903235266386  |grad|_K:  9.829e-07  alpha:  2.009e-01  linmin:  8.122e-06  t[s]:   3746.87
	FillingsUpdate:  mu: -0.028806140  nElectrons: 44.000000  magneticMoment: [ Abs: 1.05776  Tot: +0.98486 ]
	SubspaceRotationAdjust: set factor to 0.168
ElecMinimize: Iter: 151  F: -186.448907936162129  |grad|_K:  1.088e-06  alpha:  3.490e-01  linmin:  1.585e-05  t[s]:   3765.71
	FillingsUpdate:  mu: -0.028843534  nElectrons: 44.000000  magneticMoment: [ Abs: 1.07186  Tot: +0.99816 ]
	SubspaceRotationAdjust: set factor to 0.153
ElecMinimize: Iter: 152  F: -186.448912540910442  |grad|_K:  1.439e-06  alpha:  2.792e-01  linmin:  9.616e-06  t[s]:   3785.23
	FillingsUpdate:  mu: -0.028764694  nElectrons: 44.000000  magneticMoment: [ Abs: 1.08761  Tot: +1.01282 ]
	SubspaceRotationAdjust: set factor to 0.17
ElecMinimize: Iter: 153  F: -186.448917599286517  |grad|_K:  1.124e-06  alpha:  1.743e-01  linmin:  6.157e-07  t[s]:   3804.96
	FillingsUpdate:  mu: -0.028628133  nElectrons: 44.000000  magneticMoment: [ Abs: 1.10696  Tot: +1.03050 ]
	SubspaceRotationAdjust: set factor to 0.206
ElecMinimize: Iter: 154  F: -186.448923469944447  |grad|_K:  1.331e-06  alpha:  3.347e-01  linmin:  3.325e-05  t[s]:   3823.67
	FillingsUpdate:  mu: -0.028491260  nElectrons: 44.000000  magneticMoment: [ Abs: 1.12014  Tot: +1.04237 ]
	SubspaceRotationAdjust: set factor to 0.194
ElecMinimize: Iter: 155  F: -186.448927400562098  |grad|_K:  1.375e-06  alpha:  1.589e-01  linmin: -1.671e-05  t[s]:   3842.49
	FillingsUpdate:  mu: -0.028363250  nElectrons: 44.000000  magneticMoment: [ Abs: 1.13761  Tot: +1.05790 ]
	SubspaceRotationAdjust: set factor to 0.262
ElecMinimize: Iter: 156  F: -186.448932517141628  |grad|_K:  1.071e-06  alpha:  1.916e-01  linmin:  1.133e-05  t[s]:   3860.36
	FillingsUpdate:  mu: -0.028324709  nElectrons: 44.000000  magneticMoment: [ Abs: 1.15065  Tot: +1.06933 ]
	SubspaceRotationAdjust: set factor to 0.254
ElecMinimize: Iter: 157  F: -186.448936060153500  |grad|_K:  1.223e-06  alpha:  2.211e-01  linmin: -9.415e-06  t[s]:   3877.18
	FillingsUpdate:  mu: -0.028237707  nElectrons: 44.000000  magneticMoment: [ Abs: 1.15935  Tot: +1.07687 ]
	SubspaceRotationAdjust: set factor to 0.236
ElecMinimize: Iter: 158  F: -186.448938295774354  |grad|_K:  1.093e-06  alpha:  1.057e-01  linmin: -7.253e-06  t[s]:   3897.02
	FillingsUpdate:  mu: -0.028216323  nElectrons: 44.000000  magneticMoment: [ Abs: 1.17197  Tot: +1.08772 ]
	SubspaceRotationAdjust: set factor to 0.33
ElecMinimize: Iter: 159  F: -186.448941303167231  |grad|_K:  8.634e-07  alpha:  1.785e-01  linmin: -1.186e-05  t[s]:   3916.90
	FillingsUpdate:  mu: -0.028207607  nElectrons: 44.000000  magneticMoment: [ Abs: 1.18066  Tot: +1.09512 ]
	SubspaceRotationAdjust: set factor to 0.266
ElecMinimize: Iter: 160  F: -186.448943181062361  |grad|_K:  1.002e-06  alpha:  1.786e-01  linmin: -8.654e-06  t[s]:   3936.69
	FillingsUpdate:  mu: -0.028102517  nElectrons: 44.000000  magneticMoment: [ Abs: 1.18637  Tot: +1.09997 ]
	SubspaceRotationAdjust: set factor to 0.256
ElecMinimize: Iter: 161  F: -186.448944305128435  |grad|_K:  7.682e-07  alpha:  7.949e-02  linmin: -1.758e-06  t[s]:   3955.36
	FillingsUpdate:  mu: -0.028004502  nElectrons: 44.000000  magneticMoment: [ Abs: 1.19584  Tot: +1.10792 ]
	SubspaceRotationAdjust: set factor to 0.364
ElecMinimize: Iter: 162  F: -186.448945968298261  |grad|_K:  7.033e-07  alpha:  2.007e-01  linmin: -6.554e-07  t[s]:   3975.35
	FillingsUpdate:  mu: -0.027998109  nElectrons: 44.000000  magneticMoment: [ Abs: 1.20210  Tot: +1.11314 ]
	SubspaceRotationAdjust: set factor to 0.276
ElecMinimize: Iter: 163  F: -186.448946960312270  |grad|_K:  8.887e-07  alpha:  1.431e-01  linmin: -9.530e-07  t[s]:   3997.41
	FillingsUpdate:  mu: -0.027905570  nElectrons: 44.000000  magneticMoment: [ Abs: 1.20860  Tot: +1.11856 ]
	SubspaceRotationAdjust: set factor to 0.316
ElecMinimize: Iter: 164  F: -186.448947914340920  |grad|_K:  6.059e-07  alpha:  8.591e-02  linmin: -8.377e-07  t[s]:   4015.27
	FillingsUpdate:  mu: -0.027880517  nElectrons: 44.000000  magneticMoment: [ Abs: 1.21694  Tot: +1.12548 ]
	SubspaceRotationAdjust: set factor to 0.359
ElecMinimize: Iter: 165  F: -186.448949009932534  |grad|_K:  5.964e-07  alpha:  2.132e-01  linmin:  5.669e-06  t[s]:   4034.15
	FillingsUpdate:  mu: -0.027922329  nElectrons: 44.000000  magneticMoment: [ Abs: 1.22249  Tot: +1.13007 ]
	SubspaceRotationAdjust: set factor to 0.262
ElecMinimize: Iter: 166  F: -186.448949666760370  |grad|_K:  7.487e-07  alpha:  1.322e-01  linmin: -4.152e-07  t[s]:   4054.79
	FillingsUpdate:  mu: -0.027876971  nElectrons: 44.000000  magneticMoment: [ Abs: 1.22897  Tot: +1.13545 ]
	SubspaceRotationAdjust: set factor to 0.335
ElecMinimize: Iter: 167  F: -186.448950390769397  |grad|_K:  5.241e-07  alpha:  9.183e-02  linmin:  1.588e-07  t[s]:   4074.06
	FillingsUpdate:  mu: -0.027846020  nElectrons: 44.000000  magneticMoment: [ Abs: 1.23698  Tot: +1.14212 ]
	SubspaceRotationAdjust: set factor to 0.294
ElecMinimize: Iter: 168  F: -186.448951210593918  |grad|_K:  5.805e-07  alpha:  2.140e-01  linmin:  1.084e-05  t[s]:   4093.64
	FillingsUpdate:  mu: -0.027862992  nElectrons: 44.000000  magneticMoment: [ Abs: 1.24205  Tot: +1.14638 ]
	SubspaceRotationAdjust: set factor to 0.241
ElecMinimize: Iter: 169  F: -186.448951697417556  |grad|_K:  6.455e-07  alpha:  1.036e-01  linmin: -2.693e-06  t[s]:   4113.43
	FillingsUpdate:  mu: -0.027778409  nElectrons: 44.000000  magneticMoment: [ Abs: 1.25169  Tot: +1.15451 ]
	SubspaceRotationAdjust: set factor to 0.359
ElecMinimize: Iter: 170  F: -186.448952584810741  |grad|_K:  5.736e-07  alpha:  1.522e-01  linmin:  1.187e-05  t[s]:   4132.69
	FillingsUpdate:  mu: -0.027677690  nElectrons: 44.000000  magneticMoment: [ Abs: 1.26103  Tot: +1.16245 ]
	SubspaceRotationAdjust: set factor to 0.264
ElecMinimize: Iter: 171  F: -186.448953404607664  |grad|_K:  8.221e-07  alpha:  1.805e-01  linmin:  1.178e-05  t[s]:   4151.34
	FillingsUpdate:  mu: -0.027669614  nElectrons: 44.000000  magneticMoment: [ Abs: 1.26902  Tot: +1.16928 ]
	SubspaceRotationAdjust: set factor to 0.324
ElecMinimize: Iter: 172  F: -186.448954123765958  |grad|_K:  6.308e-07  alpha:  7.382e-02  linmin: -2.926e-05  t[s]:   4172.29
	FillingsUpdate:  mu: -0.027627758  nElectrons: 44.000000  magneticMoment: [ Abs: 1.28098  Tot: +1.17961 ]
	SubspaceRotationAdjust: set factor to 0.243
ElecMinimize: Iter: 173  F: -186.448955150832006  |grad|_K:  8.657e-07  alpha:  1.842e-01  linmin:  6.747e-05  t[s]:   4192.82
	FillingsUpdate:  mu: -0.027560404  nElectrons: 44.000000  magneticMoment: [ Abs: 1.28718  Tot: +1.18502 ]
	SubspaceRotationAdjust: set factor to 0.291
ElecMinimize: Iter: 174  F: -186.448955748173717  |grad|_K:  6.809e-07  alpha:  5.035e-02  linmin: -2.125e-04  t[s]:   4212.39
	FillingsUpdate:  mu: -0.027453837  nElectrons: 44.000000  magneticMoment: [ Abs: 1.29681  Tot: +1.19350 ]
	SubspaceRotationAdjust: set factor to 0.192
ElecMinimize: Iter: 175  F: -186.448956680714190  |grad|_K:  1.058e-06  alpha:  1.256e-01  linmin:  1.022e-04  t[s]:   4232.94
	FillingsUpdate:  mu: -0.027451329  nElectrons: 44.000000  magneticMoment: [ Abs: 1.29733  Tot: +1.19396 ]
	SubspaceRotationAdjust: set factor to 0.142
ElecMinimize: Iter: 176  F: -186.448956760680630  |grad|_K:  9.051e-07  alpha:  2.820e-03  linmin: -1.334e-03  t[s]:   4253.09
ElecMinimize: 	Predicted alpha/alphaT>3.000000, increasing alphaT to 8.461121e-03.
ElecMinimize: 	Predicted alpha/alphaT>3.000000, increasing alphaT to 2.538336e-02.
ElecMinimize: 	Predicted alpha/alphaT>3.000000, increasing alphaT to 7.615009e-02.
	FillingsUpdate:  mu: -0.027457854  nElectrons: 44.000000  magneticMoment: [ Abs: 1.30807  Tot: +1.20352 ]
	SubspaceRotationAdjust: set factor to 0.122
ElecMinimize: Iter: 177  F: -186.448958209766573  |grad|_K:  7.538e-07  alpha:  7.949e-02  linmin:  1.398e-03  t[s]:   4284.08
	FillingsUpdate:  mu: -0.027456903  nElectrons: 44.000000  magneticMoment: [ Abs: 1.30836  Tot: +1.20378 ]
	SubspaceRotationAdjust: set factor to 0.11
ElecMinimize: Iter: 178  F: -186.448958218540980  |grad|_K:  7.308e-07  alpha:  3.107e-03  linmin: -2.398e-04  t[s]:   4304.71
ElecMinimize: 	Predicted alpha/alphaT>3.000000, increasing alphaT to 9.321048e-03.
ElecMinimize: 	Predicted alpha/alphaT>3.000000, increasing alphaT to 2.796314e-02.
	FillingsUpdate:  mu: -0.027433034  nElectrons: 44.000000  magneticMoment: [ Abs: 1.31174  Tot: +1.20683 ]
	SubspaceRotationAdjust: set factor to 0.0852
ElecMinimize: Iter: 179  F: -186.448958516625282  |grad|_K:  7.703e-07  alpha:  3.852e-02  linmin:  5.801e-04  t[s]:   4335.75
	FillingsUpdate:  mu: -0.027420989  nElectrons: 44.000000  magneticMoment: [ Abs: 1.31294  Tot: +1.20791 ]
	SubspaceRotationAdjust: set factor to 0.0682
ElecMinimize: Iter: 180  F: -186.448958603518122  |grad|_K:  7.272e-07  alpha:  1.228e-02  linmin: -2.197e-04  t[s]:   4354.20
	FillingsUpdate:  mu: -0.027394505  nElectrons: 44.000000  magneticMoment: [ Abs: 1.31503  Tot: +1.20982 ]
	SubspaceRotationAdjust: set factor to 0.0524
ElecMinimize: Iter: 181  F: -186.448958789395533  |grad|_K:  6.972e-07  alpha:  2.414e-02  linmin:  3.069e-04  t[s]:   4373.75
	FillingsUpdate:  mu: -0.027373909  nElectrons: 44.000000  magneticMoment: [ Abs: 1.31647  Tot: +1.21113 ]
	SubspaceRotationAdjust: set factor to 0.0402
ElecMinimize: Iter: 182  F: -186.448958900095505  |grad|_K:  6.555e-07  alpha:  1.814e-02  linmin:  2.148e-05  t[s]:   4392.80
	FillingsUpdate:  mu: -0.027347848  nElectrons: 44.000000  magneticMoment: [ Abs: 1.31816  Tot: +1.21269 ]
	SubspaceRotationAdjust: set factor to 0.0303
ElecMinimize: Iter: 183  F: -186.448959042939407  |grad|_K:  6.209e-07  alpha:  2.418e-02  linmin:  1.104e-04  t[s]:   4412.87
	FillingsUpdate:  mu: -0.027321042  nElectrons: 44.000000  magneticMoment: [ Abs: 1.31985  Tot: +1.21425 ]
	SubspaceRotationAdjust: set factor to 0.0228
ElecMinimize: Iter: 184  F: -186.448959183088903  |grad|_K:  5.877e-07  alpha:  2.703e-02  linmin:  6.897e-05  t[s]:   4434.16
	FillingsUpdate:  mu: -0.027291871  nElectrons: 44.000000  magneticMoment: [ Abs: 1.32170  Tot: +1.21596 ]
	SubspaceRotationAdjust: set factor to 0.0174
ElecMinimize: Iter: 185  F: -186.448959338328450  |grad|_K:  5.617e-07  alpha:  3.297e-02  linmin:  6.652e-05  t[s]:   4452.84
	FillingsUpdate:  mu: -0.027260891  nElectrons: 44.000000  magneticMoment: [ Abs: 1.32370  Tot: +1.21783 ]
	SubspaceRotationAdjust: set factor to 0.0139
ElecMinimize: Iter: 186  F: -186.448959508038001  |grad|_K:  5.451e-07  alpha:  3.942e-02  linmin:  5.449e-05  t[s]:   4472.32
	FillingsUpdate:  mu: -0.027228426  nElectrons: 44.000000  magneticMoment: [ Abs: 1.32588  Tot: +1.21987 ]
	SubspaceRotationAdjust: set factor to 0.0116
ElecMinimize: Iter: 187  F: -186.448959694678848  |grad|_K:  5.369e-07  alpha:  4.589e-02  linmin:  4.678e-05  t[s]:   4491.99
	FillingsUpdate:  mu: -0.027195705  nElectrons: 44.000000  magneticMoment: [ Abs: 1.32821  Tot: +1.22206 ]
	SubspaceRotationAdjust: set factor to 0.00995
	SubspaceRotationAdjust: resetting CG because factor has changed by 0.116135
ElecMinimize: 	State modified externally: resetting search direction.
ElecMinimize: Iter: 188  F: -186.448959894560431  |grad|_K:  5.073e-07  alpha:  5.053e-02
ElecMinimize: 	Predicted alpha/alphaT>3.000000, increasing alphaT to 1.515980e-01.
ElecMinimize: 	Predicted alpha/alphaT>3.000000, increasing alphaT to 4.547940e-01.
	FillingsUpdate:  mu: -0.027216415  nElectrons: 44.000000  magneticMoment: [ Abs: 1.32814  Tot: +1.22209 ]
	SubspaceRotationAdjust: set factor to 0.0142
ElecMinimize: Iter: 189  F: -186.448962834022780  |grad|_K:  5.891e-07  alpha:  8.099e-01  linmin: -3.567e-04  t[s]:   4555.58
	FillingsUpdate:  mu: -0.027235067  nElectrons: 44.000000  magneticMoment: [ Abs: 1.32802  Tot: +1.22215 ]
	SubspaceRotationAdjust: set factor to 0.0165
ElecMinimize: Iter: 190  F: -186.448966846382831  |grad|_K:  5.500e-07  alpha:  8.147e-01  linmin: -7.875e-04  t[s]:   4574.88
	FillingsUpdate:  mu: -0.027204699  nElectrons: 44.000000  magneticMoment: [ Abs: 1.32796  Tot: +1.22223 ]
	SubspaceRotationAdjust: set factor to 0.0214
ElecMinimize: Iter: 191  F: -186.448969749208288  |grad|_K:  4.126e-07  alpha:  6.711e-01  linmin: -4.885e-04  t[s]:   4593.50
	FillingsUpdate:  mu: -0.027183179  nElectrons: 44.000000  magneticMoment: [ Abs: 1.32795  Tot: +1.22230 ]
	SubspaceRotationAdjust: set factor to 0.0266
[...]
	Linear fluid (dielectric constant: 78.4, screening length: 5.74355 Bohr) occupying 0.699942 of unit cell:	Completed after 7 iterations at t[s]:   7211.57
	Linear fluid (dielectric constant: 78.4, screening length: 5.74355 Bohr) occupying 0.699930 of unit cell:	Completed after 8 iterations at t[s]:   7220.84
	FillingsUpdate:  mu: -0.138572392  nElectrons: 44.000000  magneticMoment: [ Abs: 1.41053  Tot: +1.30215 ]
	SubspaceRotationAdjust: set factor to 0.189
ElecMinimize: Iter:   4  F: -186.448280354629560  |grad|_K:  7.419e-07  alpha:  7.797e-01  linmin:  3.201e-05  t[s]:   7228.93
	Linear fluid (dielectric constant: 78.4, screening length: 5.74355 Bohr) occupying 0.699890 of unit cell:	Completed after 12 iterations at t[s]:   7238.69
	Linear fluid (dielectric constant: 78.4, screening length: 5.74355 Bohr) occupying 0.699905 of unit cell:	Completed after 8 iterations at t[s]:   7247.69
	FillingsUpdate:  mu: -0.138809490  nElectrons: 44.000000  magneticMoment: [ Abs: 1.41123  Tot: +1.30287 ]
	SubspaceRotationAdjust: set factor to 0.152
ElecMinimize: Iter:   5  F: -186.448284010332173  |grad|_K:  7.547e-07  alpha:  4.738e-01  linmin: -4.590e-06  t[s]:   7254.83
	Linear fluid (dielectric constant: 78.4, screening length: 5.74355 Bohr) occupying 0.699885 of unit cell:	Completed after 9 iterations at t[s]:   7262.85
	Linear fluid (dielectric constant: 78.4, screening length: 5.74355 Bohr) occupying 0.699888 of unit cell:	Completed after 6 iterations at t[s]:   7271.05
	FillingsUpdate:  mu: -0.138953296  nElectrons: 44.000000  magneticMoment: [ Abs: 1.41203  Tot: +1.30368 ]
	SubspaceRotationAdjust: set factor to 0.138
ElecMinimize: Iter:   6  F: -186.448287150462676  |grad|_K:  4.639e-07  alpha:  3.929e-01  linmin:  1.398e-05  t[s]:   7277.71
	Linear fluid (dielectric constant: 78.4, screening length: 5.74355 Bohr) occupying 0.699888 of unit cell:	Completed after 6 iterations at t[s]:   7285.13
	Linear fluid (dielectric constant: 78.4, screening length: 5.74355 Bohr) occupying 0.699888 of unit cell:	Completed after 2 iterations at t[s]:   7293.13
	FillingsUpdate:  mu: -0.138841283  nElectrons: 44.000000  magneticMoment: [ Abs: 1.41267  Tot: +1.30433 ]
	SubspaceRotationAdjust: set factor to 0.174
ElecMinimize: Iter:   7  F: -186.448288795915460  |grad|_K:  2.479e-07  alpha:  5.452e-01  linmin: -1.694e-05  t[s]:   7300.09
	Linear fluid (dielectric constant: 78.4, screening length: 5.74355 Bohr) occupying 0.699894 of unit cell:	Completed after 9 iterations at t[s]:   7308.06
	Linear fluid (dielectric constant: 78.4, screening length: 5.74355 Bohr) occupying 0.699894 of unit cell:	Completed after 3 iterations at t[s]:   7315.51
	FillingsUpdate:  mu: -0.138691047  nElectrons: 44.000000  magneticMoment: [ Abs: 1.41297  Tot: +1.30462 ]
	SubspaceRotationAdjust: set factor to 0.149
ElecMinimize: Iter:   8  F: -186.448289202510409  |grad|_K:  2.079e-07  alpha:  4.717e-01  linmin:  5.728e-07  t[s]:   7321.97
	Linear fluid (dielectric constant: 78.4, screening length: 5.74355 Bohr) occupying 0.699900 of unit cell:	Completed after 6 iterations at t[s]:   7329.46
	Linear fluid (dielectric constant: 78.4, screening length: 5.74355 Bohr) occupying 0.699899 of unit cell:	Completed after 6 iterations at t[s]:   7337.60
	FillingsUpdate:  mu: -0.138635504  nElectrons: 44.000000  magneticMoment: [ Abs: 1.41328  Tot: +1.30491 ]
	SubspaceRotationAdjust: set factor to 0.107
ElecMinimize: Iter:   9  F: -186.448289423033430  |grad|_K:  1.363e-07  alpha:  3.653e-01  linmin: -1.347e-04  t[s]:   7344.49
	Linear fluid (dielectric constant: 78.4, screening length: 5.74355 Bohr) occupying 0.699903 of unit cell:	Completed after 5 iterations at t[s]:   7352.65
	Linear fluid (dielectric constant: 78.4, screening length: 5.74355 Bohr) occupying 0.699903 of unit cell:	Completed after 3 iterations at t[s]:   7361.16
	FillingsUpdate:  mu: -0.138628168  nElectrons: 44.000000  magneticMoment: [ Abs: 1.41357  Tot: +1.30518 ]
	SubspaceRotationAdjust: set factor to 0.116
ElecMinimize: Iter:  10  F: -186.448289533894894  |grad|_K:  8.067e-08  alpha:  4.234e-01  linmin: -5.080e-05  t[s]:   7369.08
	Linear fluid (dielectric constant: 78.4, screening length: 5.74355 Bohr) occupying 0.699907 of unit cell:	Completed after 2 iterations at t[s]:   7376.59
	Linear fluid (dielectric constant: 78.4, screening length: 5.74355 Bohr) occupying 0.699908 of unit cell:	Completed after 3 iterations at t[s]:   7385.28
	FillingsUpdate:  mu: -0.138612025  nElectrons: 44.000000  magneticMoment: [ Abs: 1.41381  Tot: +1.30540 ]
	SubspaceRotationAdjust: set factor to 0.132
ElecMinimize: Iter:  11  F: -186.448289583595795  |grad|_K:  5.835e-08  alpha:  5.457e-01  linmin:  1.111e-04  t[s]:   7393.11
	Linear fluid (dielectric constant: 78.4, screening length: 5.74355 Bohr) occupying 0.699913 of unit cell:	Completed after 4 iterations at t[s]:   7400.59
	Linear fluid (dielectric constant: 78.4, screening length: 5.74355 Bohr) occupying 0.699912 of unit cell:	Completed after 2 iterations at t[s]:   7408.24
	FillingsUpdate:  mu: -0.138586018  nElectrons: 44.000000  magneticMoment: [ Abs: 1.41400  Tot: +1.30558 ]
	SubspaceRotationAdjust: set factor to 0.113
ElecMinimize: Iter:  12  F: -186.448289604236606  |grad|_K:  4.360e-08  alpha:  4.348e-01  linmin:  5.229e-04  t[s]:   7415.52
	Linear fluid (dielectric constant: 78.4, screening length: 5.74355 Bohr) occupying 0.699915 of unit cell:	Completed after 3 iterations at t[s]:   7423.08
	Linear fluid (dielectric constant: 78.4, screening length: 5.74355 Bohr) occupying 0.699916 of unit cell:	Completed after 3 iterations at t[s]:   7432.02
	FillingsUpdate:  mu: -0.138577472  nElectrons: 44.000000  magneticMoment: [ Abs: 1.41429  Tot: +1.30583 ]
	SubspaceRotationAdjust: set factor to 0.124
ElecMinimize: Iter:  13  F: -186.448289619141264  |grad|_K:  3.704e-08  alpha:  5.712e-01  linmin: -1.624e-04  t[s]:   7439.86
	Linear fluid (dielectric constant: 78.4, screening length: 5.74355 Bohr) occupying 0.699919 of unit cell:	Completed after 2 iterations at t[s]:   7447.68
	Linear fluid (dielectric constant: 78.4, screening length: 5.74355 Bohr) occupying 0.699920 of unit cell:	Completed after 0 iterations at t[s]:   7455.44
	FillingsUpdate:  mu: -0.138577939  nElectrons: 44.000000  magneticMoment: [ Abs: 1.41463  Tot: +1.30613 ]
	SubspaceRotationAdjust: set factor to 0.153
ElecMinimize: Iter:  14  F: -186.448289631219097  |grad|_K:  3.290e-08  alpha:  6.221e-01  linmin: -3.063e-04  t[s]:   7462.89
	Linear fluid (dielectric constant: 78.4, screening length: 5.74355 Bohr) occupying 0.699923 of unit cell:	Completed after 3 iterations at t[s]:   7470.13
	Linear fluid (dielectric constant: 78.4, screening length: 5.74355 Bohr) occupying 0.699924 of unit cell:	Completed after 0 iterations at t[s]:   7477.53
	FillingsUpdate:  mu: -0.138579221  nElectrons: 44.000000  magneticMoment: [ Abs: 1.41509  Tot: +1.30655 ]
	SubspaceRotationAdjust: set factor to 0.168
ElecMinimize: Iter:  15  F: -186.448289642381241  |grad|_K:  3.214e-08  alpha:  7.209e-01  linmin: -6.652e-04  t[s]:   7484.67
	Linear fluid (dielectric constant: 78.4, screening length: 5.74355 Bohr) occupying 0.699927 of unit cell:	Completed after 2 iterations at t[s]:   7493.70
	Linear fluid (dielectric constant: 78.4, screening length: 5.74355 Bohr) occupying 0.699928 of unit cell:	Completed after 0 iterations at t[s]:   7503.31
	FillingsUpdate:  mu: -0.138574506  nElectrons: 44.000000  magneticMoment: [ Abs: 1.41573  Tot: +1.30711 ]
	SubspaceRotationAdjust: set factor to 0.181
ElecMinimize: Iter:  16  F: -186.448289653589597  |grad|_K:  3.432e-08  alpha:  7.468e-01  linmin:  2.122e-05  t[s]:   7511.15
	Linear fluid (dielectric constant: 78.4, screening length: 5.74355 Bohr) occupying 0.699932 of unit cell:	Completed after 1 iterations at t[s]:   7518.01
	Linear fluid (dielectric constant: 78.4, screening length: 5.74355 Bohr) occupying 0.699931 of unit cell:	Completed after 0 iterations at t[s]:   7525.07
	FillingsUpdate:  mu: -0.138560061  nElectrons: 44.000000  magneticMoment: [ Abs: 1.41650  Tot: +1.30780 ]
	SubspaceRotationAdjust: set factor to 0.201
ElecMinimize: Iter:  17  F: -186.448289664216020  |grad|_K:  2.998e-08  alpha:  6.415e-01  linmin:  3.365e-04  t[s]:   7532.24
	Linear fluid (dielectric constant: 78.4, screening length: 5.74355 Bohr) occupying 0.699934 of unit cell:	Completed after 3 iterations at t[s]:   7538.73
	Linear fluid (dielectric constant: 78.4, screening length: 5.74355 Bohr) occupying 0.699934 of unit cell:	Completed after 0 iterations at t[s]:   7546.12
	FillingsUpdate:  mu: -0.138543898  nElectrons: 44.000000  magneticMoment: [ Abs: 1.41729  Tot: +1.30851 ]
	SubspaceRotationAdjust: set factor to 0.234
ElecMinimize: Iter:  18  F: -186.448289672819357  |grad|_K:  2.992e-08  alpha:  6.938e-01  linmin: -6.063e-04  t[s]:   7553.24
	Linear fluid (dielectric constant: 78.4, screening length: 5.74355 Bohr) occupying 0.699935 of unit cell:	Completed after 2 iterations at t[s]:   7560.88
	Linear fluid (dielectric constant: 78.4, screening length: 5.74355 Bohr) occupying 0.699935 of unit cell:	Completed after 0 iterations at t[s]:   7568.79
	FillingsUpdate:  mu: -0.138535344  nElectrons: 44.000000  magneticMoment: [ Abs: 1.41821  Tot: +1.30933 ]
	SubspaceRotationAdjust: set factor to 0.273
ElecMinimize: Iter:  19  F: -186.448289681661805  |grad|_K:  2.800e-08  alpha:  6.726e-01  linmin: -1.155e-04  t[s]:   7576.05
ElecMinimize: Converged (|Delta F|<1.000000e-08 for 2 iters).
Setting wave functions to eigenvectors of Hamiltonian
IonicMinimize: 	Wolfe criterion not satisfied: alpha: 1  (E-E0)/|gdotd0|: 0.0933322  gdotd/gdotd0: -0.884188 (taking cubic step)
	Linear fluid (dielectric constant: 78.4, screening length: 5.74355 Bohr) occupying 0.699922 of unit cell:	Completed after 12 iterations at t[s]:   7588.59

-------- Electronic minimization -----------
	Linear fluid (dielectric constant: 78.4, screening length: 5.74355 Bohr) occupying 0.699922 of unit cell:	Completed after 0 iterations at t[s]:   7594.71
	FillingsUpdate:  mu: -0.139686991  nElectrons: 44.000000  magneticMoment: [ Abs: 1.41892  Tot: +1.31008 ]
ElecMinimize: Iter:   0  F: -186.448276848265891  |grad|_K:  1.186e-06  alpha:  1.000e+00
	Linear fluid (dielectric constant: 78.4, screening length: 5.74355 Bohr) occupying 0.700080 of unit cell:	Completed after 15 iterations at t[s]:   7611.00
	Linear fluid (dielectric constant: 78.4, screening length: 5.74355 Bohr) occupying 0.699982 of unit cell:	Completed after 11 iterations at t[s]:   7620.62
	FillingsUpdate:  mu: -0.138512531  nElectrons: 44.000000  magneticMoment: [ Abs: 1.41872  Tot: +1.30984 ]
	SubspaceRotationAdjust: set factor to 0.232
ElecMinimize: Iter:   1  F: -186.448284329611283  |grad|_K:  7.800e-07  alpha:  3.793e-01  linmin: -2.811e-06  t[s]:   7628.16
	Linear fluid (dielectric constant: 78.4, screening length: 5.74355 Bohr) occupying 0.700004 of unit cell:	Completed after 9 iterations at t[s]:   7636.36
	Linear fluid (dielectric constant: 78.4, screening length: 5.74355 Bohr) occupying 0.700009 of unit cell:	Completed after 6 iterations at t[s]:   7645.06
	FillingsUpdate:  mu: -0.138521542  nElectrons: 44.000000  magneticMoment: [ Abs: 1.41862  Tot: +1.30968 ]
	SubspaceRotationAdjust: set factor to 0.164
ElecMinimize: Iter:   2  F: -186.448288285153041  |grad|_K:  6.250e-07  alpha:  4.638e-01  linmin:  1.807e-04  t[s]:   7652.35
	Linear fluid (dielectric constant: 78.4, screening length: 5.74355 Bohr) occupying 0.700027 of unit cell:	Completed after 9 iterations at t[s]:   7660.55
	Linear fluid (dielectric constant: 78.4, screening length: 5.74355 Bohr) occupying 0.700019 of unit cell:	Completed after 8 iterations at t[s]:   7669.30
	FillingsUpdate:  mu: -0.138538599  nElectrons: 44.000000  magneticMoment: [ Abs: 1.41852  Tot: +1.30955 ]
	SubspaceRotationAdjust: set factor to 0.122
ElecMinimize: Iter:   3  F: -186.448289691136665  |grad|_K:  4.534e-07  alpha:  2.568e-01  linmin:  2.066e-05  t[s]:   7677.16
	Linear fluid (dielectric constant: 78.4, screening length: 5.74355 Bohr) occupying 0.700026 of unit cell:	Completed after 6 iterations at t[s]:   7685.40
	Linear fluid (dielectric constant: 78.4, screening length: 5.74355 Bohr) occupying 0.700037 of unit cell:	Completed after 8 iterations at t[s]:   7694.77
	FillingsUpdate:  mu: -0.138395543  nElectrons: 44.000000  magneticMoment: [ Abs: 1.41826  Tot: +1.30923 ]
	SubspaceRotationAdjust: set factor to 0.159
ElecMinimize: Iter:   4  F: -186.448291567112079  |grad|_K:  4.108e-07  alpha:  6.509e-01  linmin:  9.501e-06  t[s]:   7702.53
	Linear fluid (dielectric constant: 78.4, screening length: 5.74355 Bohr) occupying 0.700050 of unit cell:	Completed after 8 iterations at t[s]:   7710.63
	Linear fluid (dielectric constant: 78.4, screening length: 5.74355 Bohr) occupying 0.700047 of unit cell:	Completed after 6 iterations at t[s]:   7718.73
	FillingsUpdate:  mu: -0.138295264  nElectrons: 44.000000  magneticMoment: [ Abs: 1.41806  Tot: +1.30898 ]
	SubspaceRotationAdjust: set factor to 0.152
ElecMinimize: Iter:   5  F: -186.448292742301845  |grad|_K:  3.191e-07  alpha:  4.963e-01  linmin:  3.323e-05  t[s]:   7725.57
	Linear fluid (dielectric constant: 78.4, screening length: 5.74355 Bohr) occupying 0.700049 of unit cell:	Completed after 8 iterations at t[s]:   7733.47
	Linear fluid (dielectric constant: 78.4, screening length: 5.74355 Bohr) occupying 0.700048 of unit cell:	Completed after 6 iterations at t[s]:   7742.04
	FillingsUpdate:  mu: -0.138330337  nElectrons: 44.000000  magneticMoment: [ Abs: 1.41791  Tot: +1.30881 ]
	SubspaceRotationAdjust: set factor to 0.117
ElecMinimize: Iter:   6  F: -186.448293326542682  |grad|_K:  2.507e-07  alpha:  4.094e-01  linmin:  1.153e-05  t[s]:   7749.17
	Linear fluid (dielectric constant: 78.4, screening length: 5.74355 Bohr) occupying 0.700047 of unit cell:	Completed after 6 iterations at t[s]:   7757.04
	Linear fluid (dielectric constant: 78.4, screening length: 5.74355 Bohr) occupying 0.700047 of unit cell:	Completed after 2 iterations at t[s]:   7764.24
	FillingsUpdate:  mu: -0.138389595  nElectrons: 44.000000  magneticMoment: [ Abs: 1.41778  Tot: +1.30866 ]
	SubspaceRotationAdjust: set factor to 0.159
ElecMinimize: Iter:   7  F: -186.448293659563603  |grad|_K:  1.136e-07  alpha:  3.780e-01  linmin:  8.057e-05  t[s]:   7771.02
	Linear fluid (dielectric constant: 78.4, screening length: 5.74355 Bohr) occupying 0.700045 of unit cell:	Completed after 3 iterations at t[s]:   7777.99
	Linear fluid (dielectric constant: 78.4, screening length: 5.74355 Bohr) occupying 0.700044 of unit cell:	Completed after 3 iterations at t[s]:   7785.42
	FillingsUpdate:  mu: -0.138416220  nElectrons: 44.000000  magneticMoment: [ Abs: 1.41768  Tot: +1.30857 ]
	SubspaceRotationAdjust: set factor to 0.166
ElecMinimize: Iter:   8  F: -186.448293766148254  |grad|_K:  9.847e-08  alpha:  5.948e-01  linmin:  3.984e-04  t[s]:   7792.53
	Linear fluid (dielectric constant: 78.4, screening length: 5.74355 Bohr) occupying 0.700040 of unit cell:	Completed after 6 iterations at t[s]:   7800.57
	Linear fluid (dielectric constant: 78.4, screening length: 5.74355 Bohr) occupying 0.700042 of unit cell:	Completed after 2 iterations at t[s]:   7808.62
	FillingsUpdate:  mu: -0.138459183  nElectrons: 44.000000  magneticMoment: [ Abs: 1.41760  Tot: +1.30849 ]
	SubspaceRotationAdjust: set factor to 0.132
ElecMinimize: Iter:   9  F: -186.448293818298737  |grad|_K:  7.079e-08  alpha:  3.871e-01  linmin:  3.289e-04  t[s]:   7816.06
	Linear fluid (dielectric constant: 78.4, screening length: 5.74355 Bohr) occupying 0.700040 of unit cell:	Completed after 6 iterations at t[s]:   7823.89
	Linear fluid (dielectric constant: 78.4, screening length: 5.74355 Bohr) occupying 0.700040 of unit cell:	Completed after 0 iterations at t[s]:   7832.17
	FillingsUpdate:  mu: -0.138467344  nElectrons: 44.000000  magneticMoment: [ Abs: 1.41752  Tot: +1.30842 ]
	SubspaceRotationAdjust: set factor to 0.118
ElecMinimize: Iter:  10  F: -186.448293845701869  |grad|_K:  4.678e-08  alpha:  3.941e-01  linmin: -1.123e-03  t[s]:   7839.80
	Linear fluid (dielectric constant: 78.4, screening length: 5.74355 Bohr) occupying 0.700038 of unit cell:	Completed after 2 iterations at t[s]:   7846.89
	Linear fluid (dielectric constant: 78.4, screening length: 5.74355 Bohr) occupying 0.700037 of unit cell:	Completed after 0 iterations at t[s]:   7854.03
	FillingsUpdate:  mu: -0.138471011  nElectrons: 44.000000  magneticMoment: [ Abs: 1.41744  Tot: +1.30834 ]
	SubspaceRotationAdjust: set factor to 0.166
ElecMinimize: Iter:  11  F: -186.448293863115225  |grad|_K:  3.055e-08  alpha:  5.355e-01  linmin: -1.038e-03  t[s]:   7860.96
	Linear fluid (dielectric constant: 78.4, screening length: 5.74355 Bohr) occupying 0.700035 of unit cell:	Completed after 2 iterations at t[s]:   7867.74
	Linear fluid (dielectric constant: 78.4, screening length: 5.74355 Bohr) occupying 0.700035 of unit cell:	Completed after 2 iterations at t[s]:   7876.01
	FillingsUpdate:  mu: -0.138478137  nElectrons: 44.000000  magneticMoment: [ Abs: 1.41738  Tot: +1.30829 ]
	SubspaceRotationAdjust: set factor to 0.133
ElecMinimize: Iter:  12  F: -186.448293869410406  |grad|_K:  3.077e-08  alpha:  4.845e-01  linmin: -1.472e-03  t[s]:   7883.85
	Linear fluid (dielectric constant: 78.4, screening length: 5.74355 Bohr) occupying 0.700033 of unit cell:	Completed after 3 iterations at t[s]:   7891.93
	Linear fluid (dielectric constant: 78.4, screening length: 5.74355 Bohr) occupying 0.700033 of unit cell:	Completed after 0 iterations at t[s]:   7899.91
	FillingsUpdate:  mu: -0.138483474  nElectrons: 44.000000  magneticMoment: [ Abs: 1.41730  Tot: +1.30822 ]
	SubspaceRotationAdjust: set factor to 0.132
ElecMinimize: Iter:  13  F: -186.448293875341818  |grad|_K:  2.498e-08  alpha:  4.137e-01  linmin:  1.256e-03  t[s]:   7907.30
ElecMinimize: Converged (|Delta F|<1.000000e-08 for 2 iters).
Setting wave functions to eigenvectors of Hamiltonian

# Ionic positions in lattice coordinates:
ion C   0.666666652666667   0.333333354333333   0.566826805990831 1
ion C   0.333333319333333   0.666666687666667   0.433200722694071 1
ion Ti  -0.000000014000000   0.000000021000000   0.500003530473126 1
ion Ti   0.333333319333333   0.666666687666667   0.619325553405087 1
ion Ti   0.666666652666667   0.333333354333333   0.380712994386733 1


# Forces in Lattice coordinates:
force C   0.000000000000000  -0.000000000000000   0.002709390611988 1
force C   0.000000000000000  -0.000000000000000  -0.001510217772151 1
force Ti   0.000000000000000   0.000000000000000   0.003749027330107 1
force Ti   0.000000000000000  -0.000000000000000   0.002359929328231 1
force Ti   0.000000000000000  -0.000000000000000  -0.007712712454168 1

# Energy components:
   A_diel =        0.0008023226034612
   Eewald =     1685.5722346213881337
       EH =     1840.7433293448220866
     Eloc =    -3748.2664997731089898
      Enl =       17.9091971776449554
      Exc =      -30.7472707956969842
 Exc_core =        3.9957040503741763
       KE =       44.3552284662944274
-------------------------------------
     Etot =     -186.4372745856787219
       TS =        0.0110192896630946
-------------------------------------
        F =     -186.4482938753418182

IonicMinimize: Iter:   3  F: -186.448293875341818  |grad|_K:  6.545e-05  alpha:  4.139e-01  linmin: -3.789e-01  t[s]:   7910.36
IonicMinimize: Converged (|grad|_K<1.000000e-04).

#--- Lowdin population analysis ---
# oxidation-state C -1.112 -1.112
# magnetic-moments C -0.021 -0.021
# oxidation-state Ti +1.087 +0.885 +0.884
# magnetic-moments Ti +0.043 +0.533 +0.532


Dumping 'NbTe2.fillings' ... done
Dumping 'NbTe2.wfns' ... done
Dumping 'NbTe2.fluidState' ... done
Dumping 'NbTe2.ionpos' ... done
Dumping 'NbTe2.eigenvals' ... done
End date and time: Fri Dec 25 05:50:23 2020  (Duration: 0-2:11:51.25)
Done!
