
*************** JDFTx 1.5.0  ***************

Start date and time: Wed Feb 10 00:18:29 2021
Executable jdftx_gpu with command-line: -i Charged.in -o Charged.out
Running on hosts (process indices):  amax (0-6)
Divided in process groups (process indices):  0 (0)  1 (1)  2 (2)  3 (3)  4 (4)  5 (5)  6 (6)
gpuInit: Found compatible cuda device 0 'Tesla K80'
gpuInit: Found compatible cuda device 1 'Tesla K80'
gpuInit: Found compatible cuda device 2 'Tesla K80'
gpuInit: Found compatible cuda device 3 'Tesla K80'
gpuInit: Found compatible cuda device 4 'Tesla K80'
gpuInit: Found compatible cuda device 5 'Tesla K80'
gpuInit: Found compatible cuda device 6 'Tesla K80'
gpuInit: Selected device 0
Resource initialization completed at t[s]:      4.00
Run totals: 7 processes, 24 threads, 7 GPUs


Input parsed successfully to the following command list (including defaults):

basis kpoint-dependent
cache-projectors no
coords-type Lattice
core-overlap-check none
coulomb-interaction Slab 001
coulomb-truncation-embed 0.5 0.5 0.5
davidson-band-ratio 1.1
dump End State
dump-name NbTe2.$VAR
elec-cutoff 20
elec-eigen-algo Davidson
elec-ex-corr gga-PBE
elec-initial-magnetization 10.000000 no
elec-smearing Gauss 0.0073499
electronic-minimize  \
	dirUpdateScheme      FletcherReeves \
	linminMethod         DirUpdateRecommended \
	nIterations          200 \
	history              15 \
	knormThreshold       0 \
	energyDiffThreshold  1e-08 \
	nEnergyDiff          2 \
	alphaTstart          1 \
	alphaTmin            1e-10 \
	updateTestStepSize   yes \
	alphaTreduceFactor   0.1 \
	alphaTincreaseFactor 3 \
	nAlphaAdjustMax      3 \
	wolfeEnergy          0.0001 \
	wolfeGradient        0.9 \
	fdTest               no
exchange-regularization WignerSeitzTruncated
fluid LinearPCM 298.000000 1.013250
fluid-anion F- 1 MeanFieldLJ \
	epsBulk 1 \
	pMol 0 \
	epsInf 1 \
	Pvap 0 \
	sigmaBulk 0 \
	Rvdw 2.24877 \
	Res 0 \
	tauNuc 343133
fluid-cation Na+ 1 MeanFieldLJ \
	epsBulk 1 \
	pMol 0 \
	epsInf 1 \
	Pvap 0 \
	sigmaBulk 0 \
	Rvdw 2.19208 \
	Res 0 \
	tauNuc 343133
fluid-ex-corr lda-TF lda-PZ
fluid-gummel-loop 10 1.000000e-05
fluid-minimize  \
	dirUpdateScheme      PolakRibiere \
	linminMethod         DirUpdateRecommended \
	nIterations          400 \
	history              15 \
	knormThreshold       1e-11 \
	energyDiffThreshold  0 \
	nEnergyDiff          2 \
	alphaTstart          1 \
	alphaTmin            1e-10 \
	updateTestStepSize   yes \
	alphaTreduceFactor   0.1 \
	alphaTincreaseFactor 3 \
	nAlphaAdjustMax      6 \
	wolfeEnergy          0.0001 \
	wolfeGradient        0.9 \
	fdTest               no
fluid-solvent H2O 55.338 ScalarEOS \
	epsBulk 78.4 \
	pMol 0.92466 \
	epsInf 1.77 \
	Pvap 1.06736e-10 \
	sigmaBulk 4.62e-05 \
	Rvdw 2.61727 \
	Res 1.42 \
	tauNuc 343133 \
	poleEl 15 7 1
forces-output-coords Positions
initial-state NbTe2.$VAR
ion Zr   0.125000000000000   0.000000000000000   0.600463993117415 1
ion Zr   0.000000000000000   0.125000000000000   0.399535992215919 1
ion Zr   0.375000000000000   0.000000000000000   0.600463993117415 1
ion Zr   0.250000000000000   0.125000000000000   0.399535992215919 1
ion Zr   0.625000000000000   0.000000000000000   0.600463993117415 1
ion Zr   0.500000000000000   0.125000000000000   0.399535992215919 1
ion Zr   0.875000000000000   0.000000000000000   0.600463993117415 1
ion Zr   0.750000000000000   0.125000000000000   0.399535992215919 1
ion Zr   0.125000000000000   0.250000000000000   0.600463993117415 1
ion Zr   0.000000000000000   0.375000000000000   0.399535992215919 1
ion Zr   0.375000000000000   0.250000000000000   0.600463993117415 1
ion Zr   0.250000000000000   0.375000000000000   0.399535992215919 1
ion Zr   0.625000000000000   0.250000000000000   0.600463993117415 1
ion Zr   0.500000000000000   0.375000000000000   0.399535992215919 1
ion Zr   0.875000000000000   0.250000000000000   0.600463993117415 1
ion Zr   0.750000000000000   0.375000000000000   0.399535992215919 1
ion Zr   0.125000000000000   0.500000000000000   0.600463993117415 1
ion Zr   0.000000000000000   0.625000000000000   0.399535992215919 1
ion Zr   0.375000000000000   0.500000000000000   0.600463993117415 1
ion Zr   0.250000000000000   0.625000000000000   0.399535992215919 1
ion Zr   0.625000000000000   0.500000000000000   0.600463993117415 1
ion Zr   0.500000000000000   0.625000000000000   0.399535992215919 1
ion Zr   0.875000000000000   0.500000000000000   0.600463993117415 1
ion Zr   0.750000000000000   0.625000000000000   0.399535992215919 1
ion Zr   0.125000000000000   0.750000000000000   0.600463993117415 1
ion Zr   0.000000000000000   0.875000000000000   0.399535992215919 1
ion Zr   0.375000000000000   0.750000000000000   0.600463993117415 1
ion Zr   0.250000000000000   0.875000000000000   0.399535992215919 1
ion Zr   0.625000000000000   0.750000000000000   0.600463993117415 1
ion Zr   0.500000000000000   0.875000000000000   0.399535992215919 1
ion Zr   0.875000000000000   0.750000000000000   0.600463993117415 1
ion Zr   0.750000000000000   0.875000000000000   0.399535992215919 1
ion Si   0.000000000000000   0.000000000000000   0.499999992666667 1
ion Si   0.125000000000000   0.125000000000000   0.499999992666667 1
ion Si   0.250000000000000   0.000000000000000   0.499999992666667 1
ion Si   0.375000000000000   0.125000000000000   0.499999992666667 1
ion Si   0.500000000000000   0.000000000000000   0.499999992666667 1
ion Si   0.625000000000000   0.125000000000000   0.499999992666667 1
ion Si   0.750000000000000   0.000000000000000   0.499999992666667 1
ion Si   0.875000000000000   0.125000000000000   0.499999992666667 1
ion Si   0.000000000000000   0.250000000000000   0.499999992666667 1
ion Si   0.125000000000000   0.375000000000000   0.499999992666667 1
ion Si   0.250000000000000   0.250000000000000   0.499999992666667 1
ion Si   0.375000000000000   0.375000000000000   0.499999992666667 1
ion Si   0.500000000000000   0.250000000000000   0.499999992666667 1
ion Si   0.625000000000000   0.375000000000000   0.499999992666667 1
ion Si   0.750000000000000   0.250000000000000   0.499999992666667 1
ion Si   0.875000000000000   0.375000000000000   0.499999992666667 1
ion Si   0.000000000000000   0.500000000000000   0.499999992666667 1
ion Si   0.125000000000000   0.625000000000000   0.499999992666667 1
ion Si   0.250000000000000   0.500000000000000   0.499999992666667 1
ion Si   0.375000000000000   0.625000000000000   0.499999992666667 1
ion Si   0.500000000000000   0.500000000000000   0.499999992666667 1
ion Si   0.625000000000000   0.625000000000000   0.499999992666667 1
ion Si   0.750000000000000   0.500000000000000   0.499999992666667 1
ion Si   0.875000000000000   0.625000000000000   0.499999992666667 1
ion Si   0.000000000000000   0.750000000000000   0.499999992666667 1
ion Si   0.125000000000000   0.875000000000000   0.499999992666667 1
ion Si   0.250000000000000   0.750000000000000   0.499999992666667 1
ion Si   0.375000000000000   0.875000000000000   0.499999992666667 1
ion Si   0.500000000000000   0.750000000000000   0.499999992666667 1
ion Si   0.625000000000000   0.875000000000000   0.499999992666667 1
ion Si   0.750000000000000   0.750000000000000   0.499999992666667 1
ion Si   0.875000000000000   0.875000000000000   0.499999992666667 1
ion Se   0.000000000000000   0.125000000000000   0.655072542915365 1
ion Se   0.125000000000000   0.000000000000000   0.344927442417968 1
ion Se   0.250000000000000   0.125000000000000   0.655072542915365 1
ion Se   0.375000000000000   0.000000000000000   0.344927442417968 1
ion Se   0.500000000000000   0.125000000000000   0.655072542915365 1
ion Se   0.625000000000000   0.000000000000000   0.344927442417968 1
ion Se   0.750000000000000   0.125000000000000   0.655072542915365 1
ion Se   0.875000000000000   0.000000000000000   0.344927442417968 1
ion Se   0.000000000000000   0.375000000000000   0.655072542915365 1
ion Se   0.125000000000000   0.250000000000000   0.344927442417968 1
ion Se   0.250000000000000   0.375000000000000   0.655072542915365 1
ion Se   0.375000000000000   0.250000000000000   0.344927442417968 1
ion Se   0.500000000000000   0.375000000000000   0.655072542915365 1
ion Se   0.625000000000000   0.250000000000000   0.344927442417968 1
ion Se   0.750000000000000   0.375000000000000   0.655072542915365 1
ion Se   0.875000000000000   0.250000000000000   0.344927442417968 1
ion Se   0.000000000000000   0.625000000000000   0.655072542915365 1
ion Se   0.125000000000000   0.500000000000000   0.344927442417968 1
ion Se   0.250000000000000   0.625000000000000   0.655072542915365 1
ion Se   0.375000000000000   0.500000000000000   0.344927442417968 1
ion Se   0.500000000000000   0.625000000000000   0.655072542915365 1
ion Se   0.625000000000000   0.500000000000000   0.344927442417968 1
ion Se   0.750000000000000   0.625000000000000   0.655072542915365 1
ion Se   0.875000000000000   0.500000000000000   0.344927442417968 1
ion Se   0.000000000000000   0.875000000000000   0.655072542915365 1
ion Se   0.125000000000000   0.750000000000000   0.344927442417968 1
ion Se   0.250000000000000   0.875000000000000   0.655072542915365 1
ion Se   0.375000000000000   0.750000000000000   0.344927442417968 1
ion Se   0.500000000000000   0.875000000000000   0.655072542915365 1
ion Se   0.625000000000000   0.750000000000000   0.344927442417968 1
ion Se   0.750000000000000   0.875000000000000   0.655072542915365 1
ion Se   0.875000000000000   0.750000000000000   0.344927442417968 1
ion-species GBRV/$ID_pbe.uspp
ion-width Ecut
ionic-minimize  \
	dirUpdateScheme      L-BFGS \
	linminMethod         DirUpdateRecommended \
	nIterations          500 \
	history              15 \
	knormThreshold       0.0001 \
	energyDiffThreshold  1e-06 \
	nEnergyDiff          2 \
	alphaTstart          1 \
	alphaTmin            1e-10 \
	updateTestStepSize   yes \
	alphaTreduceFactor   0.1 \
	alphaTincreaseFactor 3 \
	nAlphaAdjustMax      3 \
	wolfeEnergy          0.0001 \
	wolfeGradient        0.9 \
	fdTest               no
kpoint   0.000000000000   0.000000000000   0.000000000000  1.00000000000000
kpoint-folding 2 2 1 
latt-move-scale 1 1 1
latt-scale 1.88973 1.88973 1.88973 
lattice Triclinic 14.0807 14.0807 21.7064 90 90 90
lattice-minimize  \
	dirUpdateScheme      L-BFGS \
	linminMethod         DirUpdateRecommended \
	nIterations          0 \
	history              15 \
	knormThreshold       0 \
	energyDiffThreshold  1e-06 \
	nEnergyDiff          2 \
	alphaTstart          1 \
	alphaTmin            1e-10 \
	updateTestStepSize   yes \
	alphaTreduceFactor   0.1 \
	alphaTincreaseFactor 3 \
	nAlphaAdjustMax      3 \
	wolfeEnergy          0.0001 \
	wolfeGradient        0.9 \
	fdTest               no
lcao-params -1 1e-06 0.0073499
pcm-variant CANDLE
spintype z-spin
subspace-rotation-factor 1 yes
symmetries automatic
symmetry-threshold 0.0001
target-mu -0.171252 no




---------- Setting up symmetries ----------

Found 16 point-group symmetries of the bravais lattice
Found 256 space-group symmetries with basis
Applied RMS atom displacement 9.83785e-15 bohrs to make symmetries exact.

---------- Initializing the Grid ----------
R = 
[    26.6087          0          0  ]
[          0    26.6087          0  ]
[          0          0    41.0191  ]
unit cell volume = 29042.4
G =
[   0.236133          0          0  ]
[          0   0.236133          0  ]
[          0          0   0.153177  ]
Minimum fftbox size, Smin = [  108  108  168  ]
Chosen fftbox size, S = [  108  108  168  ]

---------- Exchange Correlation functional ----------
Initalized PBE GGA exchange.
Initalized PBE GGA correlation.

---------- Setting up pseudopotentials ----------
Width of ionic core gaussian charges (only for fluid interactions / plotting) set to 0.397384

Reading pseudopotential file '/home/guoxy/vasp/jdftx-1.5.0/build/pseudopotentials/GBRV/zr_pbe.uspp':
  Title: Zr.  Created by USPP 7.3.6 on 14-9-2013
  Reference state energy: -49.308156.  12 valence electrons in orbitals:
    |400>  occupation: 2  eigenvalue: -2.002953
    |410>  occupation: 6  eigenvalue: -1.192957
    |420>  occupation: 2  eigenvalue: -0.132269
    |500>  occupation: 2  eigenvalue: -0.163143
    |510>  occupation: 0  eigenvalue: -0.053997
  lMax: 2  lLocal: 3  QijEcut: 5
  6 projectors sampled on a log grid with 625 points:
    l: 0  eig: -2.002953  rCut: 1.8
    l: 0  eig: -0.132269  rCut: 1.8
    l: 1  eig: -1.192956  rCut: 2
    l: 1  eig: 0.150000  rCut: 2
    l: 2  eig: -0.163145  rCut: 2.2
    l: 2  eig: 0.150000  rCut: 2.2
  Partial core density with radius 1.2
  Transforming core density to a uniform radial grid of dG=0.02 with 1113 points.
  Transforming local potential to a uniform radial grid of dG=0.02 with 1113 points.
  Transforming nonlocal projectors to a uniform radial grid of dG=0.02 with 432 points.
  Transforming density augmentations to a uniform radial grid of dG=0.02 with 1113 points.
  Transforming atomic orbitals to a uniform radial grid of dG=0.02 with 432 points.
  Core radius for overlap checks: 2.20 bohrs.

Reading pseudopotential file '/home/guoxy/vasp/jdftx-1.5.0/build/pseudopotentials/GBRV/si_pbe.uspp':
  Title: Si.  Created by USPP 7.3.6 on 14-9-2013
  Reference state energy: -4.599342.  4 valence electrons in orbitals:
    |300>  occupation: 2  eigenvalue: -0.397366
    |310>  occupation: 2  eigenvalue: -0.149981
  lMax: 2  lLocal: 3  QijEcut: 5
  6 projectors sampled on a log grid with 627 points:
    l: 0  eig: -0.397364  rCut: 1.6
    l: 0  eig: 1.000000  rCut: 1.6
    l: 1  eig: -0.149982  rCut: 1.6
    l: 1  eig: 1.000000  rCut: 1.6
    l: 2  eig: -0.100000  rCut: 1.7
    l: 2  eig: 0.100000  rCut: 1.7
  Partial core density with radius 1.45
  Transforming core density to a uniform radial grid of dG=0.02 with 1113 points.
  Transforming local potential to a uniform radial grid of dG=0.02 with 1113 points.
  Transforming nonlocal projectors to a uniform radial grid of dG=0.02 with 432 points.
  Transforming density augmentations to a uniform radial grid of dG=0.02 with 1113 points.
  Transforming atomic orbitals to a uniform radial grid of dG=0.02 with 432 points.
  Core radius for overlap checks: 1.70 bohrs.

Reading pseudopotential file '/home/guoxy/vasp/jdftx-1.5.0/build/pseudopotentials/GBRV/se_pbe.uspp':
  Title: Se.  Created by USPP 7.3.6 on 14-9-2013
  Reference state energy: -21.672887.  6 valence electrons in orbitals:
    |400>  occupation: 2  eigenvalue: -0.635284
    |410>  occupation: 4  eigenvalue: -0.239295
  lMax: 2  lLocal: 3  QijEcut: 5
  6 projectors sampled on a log grid with 625 points:
    l: 0  eig: -0.635278  rCut: 1.5
    l: 0  eig: 0.500000  rCut: 1.5
    l: 1  eig: -0.239295  rCut: 1.5
    l: 1  eig: 0.500000  rCut: 1.5
    l: 2  eig: 0.000000  rCut: 1.8
    l: 2  eig: 1.000000  rCut: 1.8
  Partial core density with radius 1.2
  Transforming core density to a uniform radial grid of dG=0.02 with 1113 points.
  Transforming local potential to a uniform radial grid of dG=0.02 with 1113 points.
  Transforming nonlocal projectors to a uniform radial grid of dG=0.02 with 432 points.
  Transforming density augmentations to a uniform radial grid of dG=0.02 with 1113 points.
  Transforming atomic orbitals to a uniform radial grid of dG=0.02 with 432 points.
  Core radius for overlap checks: 1.80 bohrs.

Initialized 3 species with 96 total atoms.

Folded 1 k-points by 2x2x1 to 4 k-points.

---------- Setting up k-points, bands, fillings ----------
Reduced to 3 k-points under symmetry. 
Computing the number of bands and number of electrons
Calculating initial fillings.
nElectrons: 704.000000   nBands: 672   nStates: 6

----- Setting up reduced wavefunction bases (one per k-point) -----
average nbasis = 124108.750 , ideal nbasis = 124071.433

---------- Setting up coulomb interaction ----------
Fluid mode embedding: using embedded box, but periodic Coulomb kernel.
(Fluid response is responsible for (approximate) separation between periodic images.)
Setting up double-sized grid for truncated Coulomb potentials:
R = 
[    26.6087          0          0  ]
[          0    26.6087          0  ]
[          0          0    82.0383  ]
unit cell volume = 58084.8
G =
[   0.236133          0          0  ]
[          0   0.236133          0  ]
[          0          0  0.0765884  ]
Chosen fftbox size, S = [  108  108  336  ]
Integer grid location selected as the embedding center:
   Grid: [  54  54  84  ]
   Lattice: [  0.5  0.5  0.5  ]
   Cartesian: [  13.3043  13.3043  20.5096  ]
Constructing Wigner-Seitz cell: 6 faces (6 quadrilaterals, 0 hexagons)
Range-separation parameter for embedded mesh potentials due to point charges: 0.626195 bohrs.

Initializing van der Waals corrections
	NOTE: vdW corrections apply only for interactions with fluid.
	Zr:  C6:  427.91 Eh-a0^6  R0: 3.097 a0
	Si:  C6:  160.10 Eh-a0^6  R0: 3.243 a0
	Se:  C6:  219.24 Eh-a0^6  R0: 3.347 a0

---------- Setting up ewald sum ----------
Optimum gaussian width for ewald sums = 7.220254 bohr.
Real space sum over 405 unit cells with max indices [  4  4  2  ]
Reciprocal space sum over 8775 terms with max indices [  7  7  19  ]

---------- Allocating electronic variables ----------
Initializing wave functions:  linear combination of atomic orbitals
Zr pseudo-atom occupations:   s ( 2 2 )  p ( 6 0 )  d ( 2 )
Si pseudo-atom occupations:   s ( 2 )  p ( 2 )
Se pseudo-atom occupations:   s ( 2 )  p ( 4 )
	FillingsUpdate:  mu: -0.171251800  nElectrons: 704.000000  magneticMoment: [ Abs: 1.97310  Tot: +1.83365 ]
LCAOMinimize: Iter:   0  G: -1819.1245635900806974  |grad|_K:  5.363e-03  alpha:  1.000e+00
	FillingsUpdate:  mu: -0.171251800  nElectrons: 704.000000  magneticMoment: [ Abs: 1.51097  Tot: +1.33611 ]
LCAOMinimize: Iter:   1  G: -1824.8739907438009595  |grad|_K:  1.407e-03  alpha:  1.217e-01  linmin: -3.526e-01  cgtest:  9.960e-01  t[s]:    305.25
LCAOMinimize: Encountered beta<0, resetting CG.
	FillingsUpdate:  mu: -0.171251800  nElectrons: 704.000000  magneticMoment: [ Abs: 1.16119  Tot: +0.94155 ]
LCAOMinimize: Iter:   2  G: -1825.3936564125622226  |grad|_K:  2.947e-04  alpha:  1.939e-01  linmin:  1.376e-03  cgtest: -6.402e-03  t[s]:    394.72
	FillingsUpdate:  mu: -0.171251800  nElectrons: 704.000000  magneticMoment: [ Abs: 0.97942  Tot: +0.76990 ]
LCAOMinimize: Iter:   3  G: -1825.4178292801843781  |grad|_K:  3.316e-05  alpha:  2.047e-01  linmin: -2.297e-02  cgtest:  7.264e-02  t[s]:    483.24
LCAOMinimize: 	Wrong curvature in test step, increasing alphaT to 6.140098e-01.
	FillingsUpdate:  mu: -0.171251800  nElectrons: 704.000000  magneticMoment: [ Abs: 0.83964  Tot: +0.64023 ]
LCAOMinimize: Iter:   4  G: -1825.4187441419553579  |grad|_K:  2.457e-05  alpha: -2.082e-01  linmin: -2.390e-01  cgtest:  9.951e-01  t[s]:    570.38
LCAOMinimize: Encountered beta<0, resetting CG.
LCAOMinimize: 	Wrong curvature in test step, increasing alphaT to 3.000000e+00.
	FillingsUpdate:  mu: -0.171251800  nElectrons: 704.000000  magneticMoment: [ Abs: 0.29293  Tot: +0.11817 ]
LCAOMinimize: Iter:   5  G: -1825.4206946752033218  |grad|_K:  1.139e-05  alpha: -2.645e+00  linmin:  1.830e-01  cgtest: -4.461e-01  t[s]:    656.78
	FillingsUpdate:  mu: -0.171251800  nElectrons: 704.000000  magneticMoment: [ Abs: 0.09427  Tot: -0.04424 ]
LCAOMinimize: Iter:   6  G: -1825.4207643559395819  |grad|_K:  1.050e-05  alpha:  5.244e-01  linmin:  7.473e-02  cgtest:  3.670e-01  t[s]:    745.69
LCAOMinimize: 	Step increased G by 2.143157e-05, reducing alpha to 1.231926e-02.
LCAOMinimize: 	Step increased G by 1.692270e-06, reducing alpha to 1.231926e-03.
LCAOMinimize: 	Step increased G by 1.646924e-07, reducing alpha to 1.231926e-04.
LCAOMinimize: 	Step failed to reduce G after 3 attempts. Quitting step.
LCAOMinimize: 	Undoing step.
LCAOMinimize: 	Step failed: resetting search direction.
	FillingsUpdate:  mu: -0.171251800  nElectrons: 704.000000  magneticMoment: [ Abs: 0.09405  Tot: -0.04436 ]
LCAOMinimize: Iter:   7  G: -1825.4207642077785749  |grad|_K:  1.047e-05  alpha:  1.232e-04
LCAOMinimize: 	Step increased G by 2.187046e-05, reducing alpha to 1.184897e-02.
LCAOMinimize: 	Step increased G by 1.637459e-06, reducing alpha to 1.184897e-03.
LCAOMinimize: 	Step increased G by 1.582714e-07, reducing alpha to 1.184897e-04.
LCAOMinimize: 	Step failed to reduce G after 3 attempts. Quitting step.
LCAOMinimize: 	Undoing step.
LCAOMinimize: 	Step failed along negative gradient direction.
LCAOMinimize: Probably at roundoff error limit. (Stopping)
----- createFluidSolver() ----- (Fluid-side solver setup)
   Initializing fluid molecule 'H2O'
     Initializing site 'O'
       Electron density: proportional to exp(-r/0.36935)*erfc((r-0.51523)/0.36823) with norm 6.826
       Charge density: gaussian nuclear width 0.478731 with net site charge 0.826
       Polarizability: cuspless exponential with width 0.32 and norm 3.73
       Hard sphere radius: 2.57003 bohrs
       Positions in reference frame:
         [ +0.000000 +0.000000 +0.000000 ]
     Initializing site 'H'
       Electron density: proportional to exp(-r/0.34641)*erfc((r-0)/0.390882) with norm 0.587
       Charge density: gaussian nuclear width 0.377945 with net site charge -0.413
       Polarizability: cuspless exponential with width 0.39 and norm 3.3
       Positions in reference frame:
         [ +0.000000 -1.441945 +1.122523 ]
         [ +0.000000 +1.441945 +1.122523 ]
     Net charge: 0   dipole magnitude: 0.927204
     Initializing spherical shell mfKernel with radius 2.61727 Bohr
     deltaS corrections:
       site 'O': -7.54299
       site 'H': -6.83917
   Initializing fluid molecule 'Na+'
     Initializing site 'Na'
       Electron density: proportional to exp(-r/0.19682)*erfc((r-0.71491)/0.41314) with norm 8.1383
       Charge density: gaussian nuclear width 0.365347 with net site charge -1
       Hard sphere radius: 1.86327 bohrs
       Positions in reference frame:
         [ +0.000000 +0.000000 +0.000000 ]
     Net charge: -1   dipole magnitude: 0
     Initializing gaussian mfKernel with width: 1.55004 Bohr
     deltaS corrections:
       site 'Na': -22.3555
   Initializing fluid molecule 'F-'
     Initializing site 'F'
       Electron density: proportional to exp(-r/0.38886)*erfc((r-0)/0.438782) with norm 8
       Charge density: gaussian nuclear width 0.374796 with net site charge 1
       Hard sphere radius: 2.39995 bohrs
       Positions in reference frame:
         [ +0.000000 +0.000000 +0.000000 ]
     Net charge: 1   dipole magnitude: 0
     Initializing gaussian mfKernel with width: 1.59012 Bohr
     deltaS corrections:
       site 'F': -9.04335

Correction to mu due to finite nuclear width = -0.0120257
   Cavity determined by nc: 0.00142 and sigma: 0.707107
   Nonlocal vdW cavity from gaussian model electron density with norm = 8 and sigma = 0.993594 bohr
   Charge asymmetry in cavity with sensitivity pCavity = 36.5 e-bohr/Eh
   Electrostatic cavity expanded by eta = 1.46 bohrs
   Weighted density cavitation model constrained by Nbulk: 0.0049383 bohr^-3, Pvap: 3.14029 kPa, Rvdw: 2.61727 bohr and sigmaBulk: 4.62e-05 Eh/bohr^2 at T: 298 K.
   Weighted density dispersion model using vdW pair potentials with single solvent site with sqrtC6eff: 0.77 SI.


---- Citations for features of the code used in this run ----

   Software package:
      R. Sundararaman, K. Letchworth-Weaver, K.A. Schwarz, D. Gunceler, Y. Ozhabes and T.A. Arias, 'JDFTx: software for joint density-functional theory', SoftwareX 6, 278 (2017)

   gga-PBE exchange-correlation functional:
      J.P. Perdew, K. Burke and M. Ernzerhof, Phys. Rev. Lett. 77, 3865 (1996)

   Pseudopotentials:
      KF Garrity, JW Bennett, KM Rabe and D Vanderbilt, Comput. Mater. Sci. 81, 446 (2014)

   Truncated Coulomb potentials:
      R. Sundararaman and T.A. Arias, Phys. Rev. B 87, 165122 (2013)

   Van der Waals correction pair-potentials:
      S. Grimme, J. Comput. Chem. 27, 1787 (2006)

   Charge-asymmetric nonlocally-determined local-electric (CANDLE) solvation model:
      R. Sundararaman and W.A. Goddard III, J. Chem. Phys. 142, 064107 (2015)

   Total energy minimization with Auxiliary Hamiltonian:
      C. Freysoldt, S. Boeck, and J. Neugebauer, Phys. Rev. B 79, 241103(R) (2009)

   Grand-canonical (fixed-potential) DFT:
      R. Sundararaman, W. A. Goddard III and T. A. Arias, J. Chem. Phys. 146, 114104 (2017)

This list may not be complete. Please suggest additional citations or
report any other bugs at https://github.com/shankar1729/jdftx/issues

Initialization completed successfully at t[s]:   1324.42

Fluid solver invoked on fresh (partially random / LCAO) wavefunctions
Running a vacuum solve first:

-------- Initial electronic minimization -----------
	FillingsUpdate:  mu: -0.075303333  nElectrons: 704.000000  magneticMoment: [ Abs: 0.09397  Tot: -0.04432 ]
ElecMinimize: Iter:   0  G: -1825.265322734903293  |grad|_K:  5.847e-05  alpha:  1.000e+00
	FillingsUpdate:  mu: -0.016632110  nElectrons: 704.000000  magneticMoment: [ Abs: 0.02947  Tot: -0.00242 ]
	SubspaceRotationAdjust: set factor to 0.957
ElecMinimize: Iter:   1  G: -1826.971537886141959  |grad|_K:  2.987e-05  alpha:  9.946e-01  linmin: -5.094e-05  t[s]:   1561.69
	FillingsUpdate:  mu: -0.068682042  nElectrons: 704.000000  magneticMoment: [ Abs: 0.01830  Tot: +0.00224 ]
	SubspaceRotationAdjust: set factor to 0.63
ElecMinimize: Iter:   2  G: -1827.116469399819380  |grad|_K:  2.405e-05  alpha:  3.187e-01  linmin: -5.280e-05  t[s]:   1709.93
	FillingsUpdate:  mu: -0.049216149  nElectrons: 704.000000  magneticMoment: [ Abs: 0.00698  Tot: +0.00693 ]
	SubspaceRotationAdjust: set factor to 0.426
ElecMinimize: Iter:   3  G: -1827.266855912313758  |grad|_K:  9.799e-06  alpha:  5.238e-01  linmin:  3.803e-04  t[s]:   1857.62
	FillingsUpdate:  mu: -0.048151824  nElectrons: 704.000000  magneticMoment: [ Abs: 0.00674  Tot: +0.00553 ]
	SubspaceRotationAdjust: set factor to 0.35
ElecMinimize: Iter:   4  G: -1827.300791266215583  |grad|_K:  5.309e-06  alpha:  7.517e-01  linmin:  9.916e-05  t[s]:   2006.29
	FillingsUpdate:  mu: -0.046010514  nElectrons: 704.000000  magneticMoment: [ Abs: 0.00531  Tot: +0.00324 ]
	SubspaceRotationAdjust: set factor to 0.391
ElecMinimize: Iter:   5  G: -1827.312261219484299  |grad|_K:  3.137e-06  alpha:  8.249e-01  linmin:  4.083e-05  t[s]:   2154.49
	FillingsUpdate:  mu: -0.048817256  nElectrons: 704.000000  magneticMoment: [ Abs: 0.00390  Tot: +0.00157 ]
	SubspaceRotationAdjust: set factor to 0.452
ElecMinimize: Iter:   6  G: -1827.316300112503313  |grad|_K:  1.865e-06  alpha:  8.250e-01  linmin:  1.399e-05  t[s]:   2303.38
	FillingsUpdate:  mu: -0.047446967  nElectrons: 704.000000  magneticMoment: [ Abs: 0.00252  Tot: +0.00042 ]
	SubspaceRotationAdjust: set factor to 0.532
ElecMinimize: Iter:   7  G: -1827.317845651293510  |grad|_K:  1.264e-06  alpha:  8.894e-01  linmin:  1.488e-05  t[s]:   2451.42
	FillingsUpdate:  mu: -0.048482768  nElectrons: 704.000000  magneticMoment: [ Abs: 0.00146  Tot: -0.00016 ]
	SubspaceRotationAdjust: set factor to 0.566
ElecMinimize: Iter:   8  G: -1827.318433783479122  |grad|_K:  7.902e-07  alpha:  7.377e-01  linmin:  3.383e-06  t[s]:   2599.60
	FillingsUpdate:  mu: -0.047516803  nElectrons: 704.000000  magneticMoment: [ Abs: 0.00070  Tot: -0.00034 ]
	SubspaceRotationAdjust: set factor to 0.478
ElecMinimize: Iter:   9  G: -1827.318660385009707  |grad|_K:  5.551e-07  alpha:  7.248e-01  linmin:  3.190e-06  t[s]:   2747.39
	FillingsUpdate:  mu: -0.048339125  nElectrons: 704.000000  magneticMoment: [ Abs: 0.00036  Tot: -0.00032 ]
	SubspaceRotationAdjust: set factor to 0.357
ElecMinimize: Iter:  10  G: -1827.318748753282989  |grad|_K:  3.889e-07  alpha:  5.731e-01  linmin:  5.452e-07  t[s]:   2895.88
	FillingsUpdate:  mu: -0.047895871  nElectrons: 704.000000  magneticMoment: [ Abs: 0.00025  Tot: -0.00022 ]
	SubspaceRotationAdjust: set factor to 0.363
ElecMinimize: Iter:  11  G: -1827.318804412687086  |grad|_K:  2.864e-07  alpha:  7.347e-01  linmin:  1.471e-06  t[s]:   3043.90
	FillingsUpdate:  mu: -0.047885175  nElectrons: 704.000000  magneticMoment: [ Abs: 0.00031  Tot: -0.00008 ]
	SubspaceRotationAdjust: set factor to 0.439
ElecMinimize: Iter:  12  G: -1827.318843521727558  |grad|_K:  2.478e-07  alpha:  9.555e-01  linmin:  2.680e-06  t[s]:   3192.09
	FillingsUpdate:  mu: -0.048195407  nElectrons: 704.000000  magneticMoment: [ Abs: 0.00037  Tot: +0.00004 ]
	SubspaceRotationAdjust: set factor to 0.431
ElecMinimize: Iter:  13  G: -1827.318869484339757  |grad|_K:  2.204e-07  alpha:  8.472e-01  linmin:  2.138e-06  t[s]:   3340.13
	FillingsUpdate:  mu: -0.047875554  nElectrons: 704.000000  magneticMoment: [ Abs: 0.00034  Tot: +0.00011 ]
	SubspaceRotationAdjust: set factor to 0.415
ElecMinimize: Iter:  14  G: -1827.318888482459897  |grad|_K:  1.730e-07  alpha:  7.837e-01  linmin:  1.102e-06  t[s]:   3488.27
	FillingsUpdate:  mu: -0.047949054  nElectrons: 704.000000  magneticMoment: [ Abs: 0.00025  Tot: +0.00013 ]
	SubspaceRotationAdjust: set factor to 0.488
ElecMinimize: Iter:  15  G: -1827.318900944468169  |grad|_K:  1.364e-07  alpha:  8.336e-01  linmin:  1.299e-06  t[s]:   3636.75
	FillingsUpdate:  mu: -0.048058154  nElectrons: 704.000000  magneticMoment: [ Abs: 0.00015  Tot: +0.00011 ]
	SubspaceRotationAdjust: set factor to 0.584
ElecMinimize: Iter:  16  G: -1827.318908153441726  |grad|_K:  1.085e-07  alpha:  7.748e-01  linmin:  8.148e-07  t[s]:   3784.42
	FillingsUpdate:  mu: -0.047920851  nElectrons: 704.000000  magneticMoment: [ Abs: 0.00008  Tot: +0.00007 ]
	SubspaceRotationAdjust: set factor to 0.633
ElecMinimize: Iter:  17  G: -1827.318912079337224  |grad|_K:  8.322e-08  alpha:  6.654e-01  linmin:  3.578e-07  t[s]:   3932.43
	FillingsUpdate:  mu: -0.048005847  nElectrons: 704.000000  magneticMoment: [ Abs: 0.00004  Tot: +0.00003 ]
	SubspaceRotationAdjust: set factor to 0.679
ElecMinimize: Iter:  18  G: -1827.318914098945015  |grad|_K:  5.799e-08  alpha:  5.821e-01  linmin: -6.787e-08  t[s]:   4081.14
	FillingsUpdate:  mu: -0.047971814  nElectrons: 704.000000  magneticMoment: [ Abs: 0.00003  Tot: -0.00000 ]
	SubspaceRotationAdjust: set factor to 0.754
ElecMinimize: Iter:  19  G: -1827.318915112979084  |grad|_K:  3.593e-08  alpha:  6.008e-01  linmin: -4.484e-08  t[s]:   4229.78
	FillingsUpdate:  mu: -0.047995965  nElectrons: 704.000000  magneticMoment: [ Abs: 0.00003  Tot: -0.00001 ]
	SubspaceRotationAdjust: set factor to 0.82
ElecMinimize: Iter:  20  G: -1827.318915559344532  |grad|_K:  2.523e-08  alpha:  6.890e-01  linmin: -3.000e-08  t[s]:   4377.94
	FillingsUpdate:  mu: -0.047968207  nElectrons: 704.000000  magneticMoment: [ Abs: 0.00002  Tot: -0.00001 ]
	SubspaceRotationAdjust: set factor to 0.83
ElecMinimize: Iter:  21  G: -1827.318915751074883  |grad|_K:  2.013e-08  alpha:  6.000e-01  linmin: -9.535e-09  t[s]:   4526.04
	FillingsUpdate:  mu: -0.047996268  nElectrons: 704.000000  magneticMoment: [ Abs: 0.00002  Tot: -0.00001 ]
	SubspaceRotationAdjust: set factor to 0.708
ElecMinimize: Iter:  22  G: -1827.318915838485964  |grad|_K:  1.614e-08  alpha:  4.297e-01  linmin:  8.169e-09  t[s]:   4674.04
	FillingsUpdate:  mu: -0.047979487  nElectrons: 704.000000  magneticMoment: [ Abs: 0.00001  Tot: -0.00000 ]
	SubspaceRotationAdjust: set factor to 0.651
ElecMinimize: Iter:  23  G: -1827.318915899024660  |grad|_K:  1.064e-08  alpha:  4.634e-01  linmin:  9.880e-09  t[s]:   4822.65
	FillingsUpdate:  mu: -0.047984185  nElectrons: 704.000000  magneticMoment: [ Abs: 0.00000  Tot: +0.00000 ]
	SubspaceRotationAdjust: set factor to 0.712
ElecMinimize: Iter:  24  G: -1827.318915938727287  |grad|_K:  7.800e-09  alpha:  6.984e-01  linmin:  3.275e-08  t[s]:   4970.71
	FillingsUpdate:  mu: -0.047980939  nElectrons: 704.000000  magneticMoment: [ Abs: 0.00001  Tot: +0.00000 ]
	SubspaceRotationAdjust: set factor to 0.813
ElecMinimize: Iter:  25  G: -1827.318915964472808  |grad|_K:  6.762e-09  alpha:  8.437e-01  linmin: -1.003e-08  t[s]:   5119.39
	FillingsUpdate:  mu: -0.047983305  nElectrons: 704.000000  magneticMoment: [ Abs: 0.00001  Tot: +0.00000 ]
	SubspaceRotationAdjust: set factor to 0.958
ElecMinimize: Iter:  26  G: -1827.318915983535589  |grad|_K:  5.721e-09  alpha:  8.311e-01  linmin: -1.305e-08  t[s]:   5267.44
	FillingsUpdate:  mu: -0.047981834  nElectrons: 704.000000  magneticMoment: [ Abs: 0.00001  Tot: +0.00000 ]
	SubspaceRotationAdjust: set factor to 1.1
ElecMinimize: Iter:  27  G: -1827.318915996710075  |grad|_K:  4.743e-09  alpha:  8.009e-01  linmin:  9.149e-09  t[s]:   5415.53
	FillingsUpdate:  mu: -0.047986017  nElectrons: 704.000000  magneticMoment: [ Abs: 0.00000  Tot: +0.00000 ]
	SubspaceRotationAdjust: set factor to 1.07
ElecMinimize: Iter:  28  G: -1827.318916004259563  |grad|_K:  4.488e-09  alpha:  6.716e-01  linmin:  2.391e-08  t[s]:   5563.29
	FillingsUpdate:  mu: -0.047980080  nElectrons: 704.000000  magneticMoment: [ Abs: 0.00000  Tot: -0.00000 ]
	SubspaceRotationAdjust: set factor to 0.839
ElecMinimize: Iter:  29  G: -1827.318916007323651  |grad|_K:  3.819e-09  alpha:  3.006e-01  linmin:  2.264e-08  t[s]:   5711.44
ElecMinimize: Converged (|Delta G|<1.000000e-08 for 2 iters).
Setting wave functions to eigenvectors of Hamiltonian
Vacuum energy after initial minimize, F = -1827.318916007323651

Shifting auxilliary hamiltonian by -0.123272 to set nElectrons=704.000000
	Linear fluid (dielectric constant: 78.4, screening length: 5.74355 Bohr) occupying 0.711203 of unit cell:	Completed after 18 iterations at t[s]:   5738.84

-------- Electronic minimization -----------
	Linear fluid (dielectric constant: 78.4, screening length: 5.74355 Bohr) occupying 0.711203 of unit cell:	Completed after 0 iterations at t[s]:   5769.51
	FillingsUpdate:  mu: -0.171251800  nElectrons: 704.000000  magneticMoment: [ Abs: 0.00000  Tot: -0.00000 ]
ElecMinimize: Iter:   0  G: -1827.308445780259945  |grad|_K:  4.093e-06  alpha:  1.000e+00
	Linear fluid (dielectric constant: 78.4, screening length: 5.74355 Bohr) occupying 0.711744 of unit cell:	Completed after 16 iterations at t[s]:   5891.74
	Linear fluid (dielectric constant: 78.4, screening length: 5.74355 Bohr) occupying 0.711234 of unit cell:	Completed after 16 iterations at t[s]:   5944.38
	FillingsUpdate:  mu: -0.171251800  nElectrons: 703.848375  magneticMoment: [ Abs: 0.00001  Tot: -0.00000 ]
	SubspaceRotationAdjust: set factor to 0.457
ElecMinimize: Iter:   1  G: -1827.308842286220397  |grad|_K:  2.020e-06  alpha:  5.363e-02  linmin:  2.988e-03  t[s]:   6009.90
	Linear fluid (dielectric constant: 78.4, screening length: 5.74355 Bohr) occupying 0.711287 of unit cell:	Completed after 7 iterations at t[s]:   6060.76
ElecMinimize: 	Predicted alpha/alphaT>3.000000, increasing alphaT to 1.608842e-01.
	Linear fluid (dielectric constant: 78.4, screening length: 5.74355 Bohr) occupying 0.711391 of unit cell:	Completed after 11 iterations at t[s]:   6108.58
	Linear fluid (dielectric constant: 78.4, screening length: 5.74355 Bohr) occupying 0.711559 of unit cell:	Completed after 11 iterations at t[s]:   6158.51
	FillingsUpdate:  mu: -0.171251800  nElectrons: 703.769519  magneticMoment: [ Abs: 0.00007  Tot: -0.00000 ]
	SubspaceRotationAdjust: set factor to 0.255
ElecMinimize: Iter:   2  G: -1827.309450774225752  |grad|_K:  1.622e-06  alpha:  3.362e-01  linmin: -1.527e-05  t[s]:   6222.69
	Linear fluid (dielectric constant: 78.4, screening length: 5.74355 Bohr) occupying 0.711854 of unit cell:	Completed after 12 iterations at t[s]:   6273.47
	Linear fluid (dielectric constant: 78.4, screening length: 5.74355 Bohr) occupying 0.711689 of unit cell:	Completed after 12 iterations at t[s]:   6323.37
	FillingsUpdate:  mu: -0.171251800  nElectrons: 703.649350  magneticMoment: [ Abs: 0.00009  Tot: -0.00000 ]
	SubspaceRotationAdjust: set factor to 0.136
ElecMinimize: Iter:   3  G: -1827.309642844424161  |grad|_K:  8.691e-07  alpha:  1.467e-01  linmin:  5.923e-05  t[s]:   6388.30
	Linear fluid (dielectric constant: 78.4, screening length: 5.74355 Bohr) occupying 0.711757 of unit cell:	Completed after 6 iterations at t[s]:   6438.44
ElecMinimize: 	Predicted alpha/alphaT>3.000000, increasing alphaT to 4.402246e-01.
	Linear fluid (dielectric constant: 78.4, screening length: 5.74355 Bohr) occupying 0.711890 of unit cell:	Completed after 8 iterations at t[s]:   6485.22
	Linear fluid (dielectric constant: 78.4, screening length: 5.74355 Bohr) occupying 0.712096 of unit cell:	Completed after 9 iterations at t[s]:   6533.87
	FillingsUpdate:  mu: -0.171251800  nElectrons: 703.625458  magneticMoment: [ Abs: 0.00008  Tot: +0.00000 ]
	SubspaceRotationAdjust: set factor to 0.0708
	SubspaceRotationAdjust: resetting CG because factor has changed by 0.0843892
	Linear fluid (dielectric constant: 78.4, screening length: 5.74355 Bohr) occupying 0.712096 of unit cell:	Completed after 0 iterations at t[s]:   6617.46
ElecMinimize: 	State modified externally: resetting search direction.
ElecMinimize: Iter:   4  G: -1827.309982560169829  |grad|_K:  3.862e-07  alpha:  8.985e-01
	Linear fluid (dielectric constant: 78.4, screening length: 5.74355 Bohr) occupying 0.712134 of unit cell:	Completed after 11 iterations at t[s]:   6730.03
	Linear fluid (dielectric constant: 78.4, screening length: 5.74355 Bohr) occupying 0.712120 of unit cell:	Completed after 8 iterations at t[s]:   6779.08
	FillingsUpdate:  mu: -0.171251800  nElectrons: 703.604493  magneticMoment: [ Abs: 0.00006  Tot: +0.00000 ]
	SubspaceRotationAdjust: set factor to 0.0829
ElecMinimize: Iter:   5  G: -1827.310023925795804  |grad|_K:  1.691e-07  alpha:  5.544e-01  linmin:  6.993e-05  t[s]:   6842.76
	Linear fluid (dielectric constant: 78.4, screening length: 5.74355 Bohr) occupying 0.712141 of unit cell:	Completed after 6 iterations at t[s]:   6892.80
	Linear fluid (dielectric constant: 78.4, screening length: 5.74355 Bohr) occupying 0.712166 of unit cell:	Completed after 7 iterations at t[s]:   6940.28
	FillingsUpdate:  mu: -0.171251800  nElectrons: 703.614727  magneticMoment: [ Abs: 0.00007  Tot: +0.00000 ]
	SubspaceRotationAdjust: set factor to 0.0949
ElecMinimize: Iter:   6  G: -1827.310041300080456  |grad|_K:  1.303e-07  alpha:  1.204e+00  linmin: -1.758e-04  t[s]:   7004.04
	Linear fluid (dielectric constant: 78.4, screening length: 5.74355 Bohr) occupying 0.712212 of unit cell:	Completed after 3 iterations at t[s]:   7053.53
	Linear fluid (dielectric constant: 78.4, screening length: 5.74355 Bohr) occupying 0.712218 of unit cell:	Completed after 0 iterations at t[s]:   7099.01
	FillingsUpdate:  mu: -0.171251800  nElectrons: 703.611491  magneticMoment: [ Abs: 0.00013  Tot: +0.00000 ]
	SubspaceRotationAdjust: set factor to 0.134
ElecMinimize: Iter:   7  G: -1827.310053055012531  |grad|_K:  9.949e-08  alpha:  1.353e+00  linmin: -2.370e-04  t[s]:   7160.59
	Linear fluid (dielectric constant: 78.4, screening length: 5.74355 Bohr) occupying 0.712247 of unit cell:	Completed after 2 iterations at t[s]:   7211.16
	Linear fluid (dielectric constant: 78.4, screening length: 5.74355 Bohr) occupying 0.712245 of unit cell:	Completed after 0 iterations at t[s]:   7256.63
	FillingsUpdate:  mu: -0.171251800  nElectrons: 703.606047  magneticMoment: [ Abs: 0.00014  Tot: +0.00000 ]
	SubspaceRotationAdjust: set factor to 0.159
ElecMinimize: Iter:   8  G: -1827.310059669785915  |grad|_K:  1.105e-07  alpha:  1.282e+00  linmin: -5.192e-05  t[s]:   7318.51
	Linear fluid (dielectric constant: 78.4, screening length: 5.74355 Bohr) occupying 0.712279 of unit cell:	Completed after 5 iterations at t[s]:   7368.52
	Linear fluid (dielectric constant: 78.4, screening length: 5.74355 Bohr) occupying 0.712272 of unit cell:	Completed after 0 iterations at t[s]:   7414.67
	FillingsUpdate:  mu: -0.171251800  nElectrons: 703.606448  magneticMoment: [ Abs: 0.00014  Tot: -0.00000 ]
	SubspaceRotationAdjust: set factor to 0.155
ElecMinimize: Iter:   9  G: -1827.310066213791742  |grad|_K:  1.173e-07  alpha:  1.014e+00  linmin:  7.576e-05  t[s]:   7476.53
	Linear fluid (dielectric constant: 78.4, screening length: 5.74355 Bohr) occupying 0.712305 of unit cell:	Completed after 7 iterations at t[s]:   7526.37
	Linear fluid (dielectric constant: 78.4, screening length: 5.74355 Bohr) occupying 0.712288 of unit cell:	Completed after 3 iterations at t[s]:   7574.10
	FillingsUpdate:  mu: -0.171251800  nElectrons: 703.596932  magneticMoment: [ Abs: 0.00011  Tot: -0.00000 ]
	SubspaceRotationAdjust: set factor to 0.106
ElecMinimize: Iter:  10  G: -1827.310069357940392  |grad|_K:  1.087e-07  alpha:  4.970e-01  linmin:  7.733e-05  t[s]:   7636.88
	Linear fluid (dielectric constant: 78.4, screening length: 5.74355 Bohr) occupying 0.712304 of unit cell:	Completed after 6 iterations at t[s]:   7686.98
	Linear fluid (dielectric constant: 78.4, screening length: 5.74355 Bohr) occupying 0.712300 of unit cell:	Completed after 0 iterations at t[s]:   7733.39
	FillingsUpdate:  mu: -0.171251800  nElectrons: 703.598875  magneticMoment: [ Abs: 0.00009  Tot: -0.00000 ]
	SubspaceRotationAdjust: set factor to 0.0613
ElecMinimize: Iter:  11  G: -1827.310071146489008  |grad|_K:  6.389e-08  alpha:  3.546e-01  linmin:  8.161e-06  t[s]:   7794.88
	Linear fluid (dielectric constant: 78.4, screening length: 5.74355 Bohr) occupying 0.712305 of unit cell:	Completed after 2 iterations at t[s]:   7844.26
	Linear fluid (dielectric constant: 78.4, screening length: 5.74355 Bohr) occupying 0.712306 of unit cell:	Completed after 0 iterations at t[s]:   7889.25
	FillingsUpdate:  mu: -0.171251800  nElectrons: 703.596459  magneticMoment: [ Abs: 0.00007  Tot: -0.00000 ]
	SubspaceRotationAdjust: set factor to 0.0703
ElecMinimize: Iter:  12  G: -1827.310072163952555  |grad|_K:  3.737e-08  alpha:  4.478e-01  linmin: -2.730e-04  t[s]:   7950.53
	Linear fluid (dielectric constant: 78.4, screening length: 5.74355 Bohr) occupying 0.712309 of unit cell:	Completed after 0 iterations at t[s]:   7999.67
	Linear fluid (dielectric constant: 78.4, screening length: 5.74355 Bohr) occupying 0.712311 of unit cell:	Completed after 3 iterations at t[s]:   8044.77
	FillingsUpdate:  mu: -0.171251800  nElectrons: 703.594068  magneticMoment: [ Abs: 0.00003  Tot: -0.00000 ]
	SubspaceRotationAdjust: set factor to 0.074
ElecMinimize: Iter:  13  G: -1827.310072707695326  |grad|_K:  4.112e-08  alpha:  9.146e-01  linmin:  1.490e-04  t[s]:   8107.77
	Linear fluid (dielectric constant: 78.4, screening length: 5.74355 Bohr) occupying 0.712318 of unit cell:	Completed after 0 iterations at t[s]:   8156.48
	Linear fluid (dielectric constant: 78.4, screening length: 5.74355 Bohr) occupying 0.712315 of unit cell:	Completed after 0 iterations at t[s]:   8200.70
	FillingsUpdate:  mu: -0.171251800  nElectrons: 703.594309  magneticMoment: [ Abs: 0.00002  Tot: -0.00000 ]
	SubspaceRotationAdjust: set factor to 0.0838
ElecMinimize: Iter:  14  G: -1827.310073048763570  |grad|_K:  4.235e-08  alpha:  5.499e-01  linmin:  1.844e-08  t[s]:   8262.26
	Linear fluid (dielectric constant: 78.4, screening length: 5.74355 Bohr) occupying 0.712318 of unit cell:	Completed after 3 iterations at t[s]:   8311.49
	Linear fluid (dielectric constant: 78.4, screening length: 5.74355 Bohr) occupying 0.712317 of unit cell:	Completed after 0 iterations at t[s]:   8357.22
	FillingsUpdate:  mu: -0.171251800  nElectrons: 703.595301  magneticMoment: [ Abs: 0.00004  Tot: -0.00000 ]
	SubspaceRotationAdjust: set factor to 0.0687
ElecMinimize: Iter:  15  G: -1827.310073277167703  |grad|_K:  3.285e-08  alpha:  2.338e-01  linmin:  1.506e-04  t[s]:   8417.80
	Linear fluid (dielectric constant: 78.4, screening length: 5.74355 Bohr) occupying 0.712317 of unit cell:	Completed after 0 iterations at t[s]:   8466.63
	Linear fluid (dielectric constant: 78.4, screening length: 5.74355 Bohr) occupying 0.712318 of unit cell:	Completed after 0 iterations at t[s]:   8510.61
	FillingsUpdate:  mu: -0.171251800  nElectrons: 703.595149  magneticMoment: [ Abs: 0.00004  Tot: -0.00000 ]
	SubspaceRotationAdjust: set factor to 0.095
ElecMinimize: Iter:  16  G: -1827.310073366208144  |grad|_K:  2.668e-08  alpha:  3.026e-01  linmin: -2.439e-08  t[s]:   8571.89
	Linear fluid (dielectric constant: 78.4, screening length: 5.74355 Bohr) occupying 0.712318 of unit cell:	Completed after 0 iterations at t[s]:   8620.91
	Linear fluid (dielectric constant: 78.4, screening length: 5.74355 Bohr) occupying 0.712319 of unit cell:	Completed after 2 iterations at t[s]:   8665.53
	FillingsUpdate:  mu: -0.171251800  nElectrons: 703.593845  magneticMoment: [ Abs: 0.00005  Tot: -0.00000 ]
	SubspaceRotationAdjust: set factor to 0.107
ElecMinimize: Iter:  17  G: -1827.310073366613551  |grad|_K:  2.248e-08  alpha:  4.625e-01  linmin:  6.650e-05  t[s]:   8727.67
	Linear fluid (dielectric constant: 78.4, screening length: 5.74355 Bohr) occupying 0.712319 of unit cell:	Completed after 0 iterations at t[s]:   8776.55
	Linear fluid (dielectric constant: 78.4, screening length: 5.74355 Bohr) occupying 0.712320 of unit cell:	Completed after 0 iterations at t[s]:   8820.67
	FillingsUpdate:  mu: -0.171251800  nElectrons: 703.592462  magneticMoment: [ Abs: 0.00004  Tot: -0.00000 ]
	SubspaceRotationAdjust: set factor to 0.122
ElecMinimize: Iter:  18  G: -1827.310073465991081  |grad|_K:  2.242e-08  alpha:  5.516e-01  linmin:  3.319e-09  t[s]:   8882.23
	Linear fluid (dielectric constant: 78.4, screening length: 5.74355 Bohr) occupying 0.712320 of unit cell:	Completed after 2 iterations at t[s]:   8931.84
	Linear fluid (dielectric constant: 78.4, screening length: 5.74355 Bohr) occupying 0.712320 of unit cell:	Completed after 0 iterations at t[s]:   8977.12
	FillingsUpdate:  mu: -0.171251800  nElectrons: 703.591583  magneticMoment: [ Abs: 0.00004  Tot: -0.00000 ]
	SubspaceRotationAdjust: set factor to 0.129
ElecMinimize: Iter:  19  G: -1827.310073503514559  |grad|_K:  2.179e-08  alpha:  3.007e-01  linmin: -9.799e-06  t[s]:   9039.03
	Linear fluid (dielectric constant: 78.4, screening length: 5.74355 Bohr) occupying 0.712320 of unit cell:	Completed after 0 iterations at t[s]:   9088.00
	Linear fluid (dielectric constant: 78.4, screening length: 5.74355 Bohr) occupying 0.712320 of unit cell:	Completed after 0 iterations at t[s]:   9131.97
	FillingsUpdate:  mu: -0.171251800  nElectrons: 703.591438  magneticMoment: [ Abs: 0.00003  Tot: -0.00000 ]
	SubspaceRotationAdjust: set factor to 0.169
ElecMinimize: Iter:  20  G: -1827.310073622132450  |grad|_K:  2.048e-08  alpha:  4.594e-01  linmin: -6.548e-08  t[s]:   9193.26
	Linear fluid (dielectric constant: 78.4, screening length: 5.74355 Bohr) occupying 0.712320 of unit cell:	Completed after 3 iterations at t[s]:   9242.65
	Linear fluid (dielectric constant: 78.4, screening length: 5.74355 Bohr) occupying 0.712320 of unit cell:	Completed after 0 iterations at t[s]:   9288.16
	FillingsUpdate:  mu: -0.171251800  nElectrons: 703.591754  magneticMoment: [ Abs: 0.00002  Tot: -0.00000 ]
	SubspaceRotationAdjust: set factor to 0.148
ElecMinimize: Iter:  21  G: -1827.310073637707546  |grad|_K:  2.670e-08  alpha:  1.364e-01  linmin:  4.732e-05  t[s]:   9349.46
	Linear fluid (dielectric constant: 78.4, screening length: 5.74355 Bohr) occupying 0.712320 of unit cell:	Completed after 0 iterations at t[s]:   9398.36
	Linear fluid (dielectric constant: 78.4, screening length: 5.74355 Bohr) occupying 0.712320 of unit cell:	Completed after 0 iterations at t[s]:   9442.68
	FillingsUpdate:  mu: -0.171251800  nElectrons: 703.591796  magneticMoment: [ Abs: 0.00002  Tot: -0.00000 ]
	SubspaceRotationAdjust: set factor to 0.189
ElecMinimize: Iter:  22  G: -1827.310073642534462  |grad|_K:  2.531e-08  alpha:  6.259e-02  linmin:  2.245e-08  t[s]:   9504.18
	Linear fluid (dielectric constant: 78.4, screening length: 5.74355 Bohr) occupying 0.712320 of unit cell:	Completed after 0 iterations at t[s]:   9553.34
ElecMinimize: 	Predicted alpha/alphaT>3.000000, increasing alphaT to 1.877599e-01.
	Linear fluid (dielectric constant: 78.4, screening length: 5.74355 Bohr) occupying 0.712320 of unit cell:	Completed after 0 iterations at t[s]:   9596.88
	Linear fluid (dielectric constant: 78.4, screening length: 5.74355 Bohr) occupying 0.712320 of unit cell:	Completed after 0 iterations at t[s]:   9640.94
	FillingsUpdate:  mu: -0.171251800  nElectrons: 703.591288  magneticMoment: [ Abs: 0.00001  Tot: -0.00000 ]
	SubspaceRotationAdjust: set factor to 0.178
ElecMinimize: Iter:  23  G: -1827.310073714312466  |grad|_K:  2.429e-08  alpha:  2.235e-01  linmin: -8.469e-09  t[s]:   9702.17
	Linear fluid (dielectric constant: 78.4, screening length: 5.74355 Bohr) occupying 0.712320 of unit cell:	Completed after 0 iterations at t[s]:   9751.08
	Linear fluid (dielectric constant: 78.4, screening length: 5.74355 Bohr) occupying 0.712320 of unit cell:	Completed after 0 iterations at t[s]:   9795.33
	FillingsUpdate:  mu: -0.171251800  nElectrons: 703.589950  magneticMoment: [ Abs: 0.00001  Tot: -0.00000 ]
	SubspaceRotationAdjust: set factor to 0.205
ElecMinimize: Iter:  24  G: -1827.310073784063206  |grad|_K:  2.512e-08  alpha:  2.355e-01  linmin:  6.840e-09  t[s]:   9856.70
	Linear fluid (dielectric constant: 78.4, screening length: 5.74355 Bohr) occupying 0.712319 of unit cell:	Completed after 2 iterations at t[s]:   9906.25
	Linear fluid (dielectric constant: 78.4, screening length: 5.74355 Bohr) occupying 0.712320 of unit cell:	Completed after 1 iterations at t[s]:   9952.18
ElecMinimize: 	Step increased G by 2.244221e-07, reducing alpha to 2.191452e-03.
	Linear fluid (dielectric constant: 78.4, screening length: 5.74355 Bohr) occupying 0.712320 of unit cell:	Completed after 0 iterations at t[s]:  10048.94
ElecMinimize: 	Step increased G by 1.892024e-07, reducing alpha to 2.191452e-04.
	Linear fluid (dielectric constant: 78.4, screening length: 5.74355 Bohr) occupying 0.712320 of unit cell:	Completed after 0 iterations at t[s]:  10145.67
ElecMinimize: 	Step increased G by 1.857095e-07, reducing alpha to 2.191452e-05.
ElecMinimize: 	Step failed to reduce G after 3 attempts. Quitting step.
ElecMinimize: 	Undoing step.
	Linear fluid (dielectric constant: 78.4, screening length: 5.74355 Bohr) occupying 0.712320 of unit cell:	Completed after 0 iterations at t[s]:  10242.63
ElecMinimize: 	Step failed: resetting search direction.
	FillingsUpdate:  mu: -0.171251800  nElectrons: 703.589948  magneticMoment: [ Abs: 0.00001  Tot: -0.00000 ]
	SubspaceRotationAdjust: set factor to 0.132
ElecMinimize: Iter:  25  G: -1827.310073598413510  |grad|_K:  4.733e-08  alpha:  2.191e-05
	Linear fluid (dielectric constant: 78.4, screening length: 5.74355 Bohr) occupying 0.712320 of unit cell:	Completed after 3 iterations at t[s]:  10352.88
	Linear fluid (dielectric constant: 78.4, screening length: 5.74355 Bohr) occupying 0.712320 of unit cell:	Completed after 0 iterations at t[s]:  10398.21
	FillingsUpdate:  mu: -0.171251800  nElectrons: 703.591940  magneticMoment: [ Abs: 0.00001  Tot: -0.00000 ]
	SubspaceRotationAdjust: set factor to 0.0647
ElecMinimize: Iter:  26  G: -1827.310073717872683  |grad|_K:  1.728e-08  alpha:  1.467e-01  linmin:  1.207e-04  t[s]:  10459.38
	Linear fluid (dielectric constant: 78.4, screening length: 5.74355 Bohr) occupying 0.712320 of unit cell:	Completed after 0 iterations at t[s]:  10507.09
ElecMinimize: 	Predicted alpha/alphaT>3.000000, increasing alphaT to 4.400634e-01.
	Linear fluid (dielectric constant: 78.4, screening length: 5.74355 Bohr) occupying 0.712320 of unit cell:	Completed after 0 iterations at t[s]:  10550.79
	Linear fluid (dielectric constant: 78.4, screening length: 5.74355 Bohr) occupying 0.712319 of unit cell:	Completed after 0 iterations at t[s]:  10595.51
	FillingsUpdate:  mu: -0.171251800  nElectrons: 703.592605  magneticMoment: [ Abs: 0.00001  Tot: -0.00000 ]
	SubspaceRotationAdjust: set factor to 0.104
ElecMinimize: Iter:  27  G: -1827.310073824013443  |grad|_K:  1.268e-08  alpha:  7.493e-01  linmin: -1.002e-07  t[s]:  10657.39
	Linear fluid (dielectric constant: 78.4, screening length: 5.74355 Bohr) occupying 0.712319 of unit cell:	Completed after 0 iterations at t[s]:  10706.78
	Linear fluid (dielectric constant: 78.4, screening length: 5.74355 Bohr) occupying 0.712319 of unit cell:	Completed after 2 iterations at t[s]:  10752.51
ElecMinimize: 	Step increased G by 1.141696e-07, reducing alpha to 1.094234e-01.
	Linear fluid (dielectric constant: 78.4, screening length: 5.74355 Bohr) occupying 0.712319 of unit cell:	Completed after 0 iterations at t[s]:  10850.92
ElecMinimize: 	Step increased G by 1.850071e-08, reducing alpha to 1.094234e-02.
	Linear fluid (dielectric constant: 78.4, screening length: 5.74355 Bohr) occupying 0.712319 of unit cell:	Completed after 0 iterations at t[s]:  10948.26
ElecMinimize: 	Step increased G by 1.681178e-08, reducing alpha to 1.094234e-03.
ElecMinimize: 	Step failed to reduce G after 3 attempts. Quitting step.
ElecMinimize: 	Undoing step.
	Linear fluid (dielectric constant: 78.4, screening length: 5.74355 Bohr) occupying 0.712319 of unit cell:	Completed after 0 iterations at t[s]:  11045.67
ElecMinimize: 	Step failed: resetting search direction.
	FillingsUpdate:  mu: -0.171251800  nElectrons: 703.592605  magneticMoment: [ Abs: 0.00001  Tot: -0.00000 ]
	SubspaceRotationAdjust: set factor to 0.0919
ElecMinimize: Iter:  28  G: -1827.310073807192566  |grad|_K:  1.527e-08  alpha:  1.094e-03
	Linear fluid (dielectric constant: 78.4, screening length: 5.74355 Bohr) occupying 0.712319 of unit cell:	Completed after 3 iterations at t[s]:  11156.34
	Linear fluid (dielectric constant: 78.4, screening length: 5.74355 Bohr) occupying 0.712319 of unit cell:	Completed after 0 iterations at t[s]:  11202.00
ElecMinimize: 	Step increased G by 1.133299e-08, reducing alpha to 2.265704e-02.
	Linear fluid (dielectric constant: 78.4, screening length: 5.74355 Bohr) occupying 0.712319 of unit cell:	Completed after 0 iterations at t[s]:  11298.90
	FillingsUpdate:  mu: -0.171251800  nElectrons: 703.592651  magneticMoment: [ Abs: 0.00001  Tot: -0.00000 ]
	SubspaceRotationAdjust: set factor to 0.0662
ElecMinimize: Iter:  29  G: -1827.310073817167904  |grad|_K:  1.861e-08  alpha:  2.266e-02  linmin:  2.104e-04  t[s]:  11360.12
	Linear fluid (dielectric constant: 78.4, screening length: 5.74355 Bohr) occupying 0.712319 of unit cell:	Completed after 0 iterations at t[s]:  11409.12
ElecMinimize: 	Predicted alpha/alphaT>3.000000, increasing alphaT to 6.797112e-02.
	Linear fluid (dielectric constant: 78.4, screening length: 5.74355 Bohr) occupying 0.712319 of unit cell:	Completed after 0 iterations at t[s]:  11453.06
	Linear fluid (dielectric constant: 78.4, screening length: 5.74355 Bohr) occupying 0.712319 of unit cell:	Completed after 0 iterations at t[s]:  11497.92
	FillingsUpdate:  mu: -0.171251800  nElectrons: 703.592752  magneticMoment: [ Abs: 0.00001  Tot: -0.00000 ]
	SubspaceRotationAdjust: set factor to 0.0498
ElecMinimize: Iter:  30  G: -1827.310073837771142  |grad|_K:  1.477e-08  alpha:  1.782e-01  linmin: -5.815e-07  t[s]:  11559.79
	Linear fluid (dielectric constant: 78.4, screening length: 5.74355 Bohr) occupying 0.712319 of unit cell:	Completed after 0 iterations at t[s]:  11608.64
	Linear fluid (dielectric constant: 78.4, screening length: 5.74355 Bohr) occupying 0.712319 of unit cell:	Completed after 0 iterations at t[s]:  11653.05
	FillingsUpdate:  mu: -0.171251800  nElectrons: 703.592092  magneticMoment: [ Abs: 0.00000  Tot: -0.00000 ]
	SubspaceRotationAdjust: set factor to 0.0697
ElecMinimize: Iter:  31  G: -1827.310073888784018  |grad|_K:  1.990e-08  alpha:  4.660e-01  linmin:  1.618e-07  t[s]:  11714.29
	Linear fluid (dielectric constant: 78.4, screening length: 5.74355 Bohr) occupying 0.712318 of unit cell:	Completed after 2 iterations at t[s]:  11763.55
	Linear fluid (dielectric constant: 78.4, screening length: 5.74355 Bohr) occupying 0.712318 of unit cell:	Completed after 0 iterations at t[s]:  11808.40
ElecMinimize: 	Step increased G by 3.825494e-08, reducing alpha to 5.691852e-03.
	Linear fluid (dielectric constant: 78.4, screening length: 5.74355 Bohr) occupying 0.712319 of unit cell:	Completed after 2 iterations at t[s]:  11905.88
ElecMinimize: 	Step increased G by 1.486205e-07, reducing alpha to 5.691852e-04.
	Linear fluid (dielectric constant: 78.4, screening length: 5.74355 Bohr) occupying 0.712319 of unit cell:	Completed after 0 iterations at t[s]:  12003.27
ElecMinimize: 	Step increased G by 1.454657e-07, reducing alpha to 5.691852e-05.
ElecMinimize: 	Step failed to reduce G after 3 attempts. Quitting step.
ElecMinimize: 	Undoing step.
	Linear fluid (dielectric constant: 78.4, screening length: 5.74355 Bohr) occupying 0.712319 of unit cell:	Completed after 0 iterations at t[s]:  12100.69
ElecMinimize: 	Step failed: resetting search direction.
	FillingsUpdate:  mu: -0.171251800  nElectrons: 703.592090  magneticMoment: [ Abs: 0.00000  Tot: -0.00000 ]
	SubspaceRotationAdjust: set factor to 0.0574
ElecMinimize: Iter:  32  G: -1827.310073743369003  |grad|_K:  2.371e-08  alpha:  5.692e-05
	Linear fluid (dielectric constant: 78.4, screening length: 5.74355 Bohr) occupying 0.712318 of unit cell:	Completed after 0 iterations at t[s]:  12211.08
	Linear fluid (dielectric constant: 78.4, screening length: 5.74355 Bohr) occupying 0.712318 of unit cell:	Completed after 2 iterations at t[s]:  12255.59
	FillingsUpdate:  mu: -0.171251800  nElectrons: 703.593904  magneticMoment: [ Abs: 0.00000  Tot: -0.00000 ]
	SubspaceRotationAdjust: set factor to 0.0505
ElecMinimize: Iter:  33  G: -1827.310073768321672  |grad|_K:  1.726e-08  alpha:  7.084e-01  linmin:  9.460e-04  t[s]:  12317.83
	Linear fluid (dielectric constant: 78.4, screening length: 5.74355 Bohr) occupying 0.712318 of unit cell:	Completed after 0 iterations at t[s]:  12366.84
	Linear fluid (dielectric constant: 78.4, screening length: 5.74355 Bohr) occupying 0.712318 of unit cell:	Completed after 0 iterations at t[s]:  12410.89
	FillingsUpdate:  mu: -0.171251800  nElectrons: 703.594547  magneticMoment: [ Abs: 0.00000  Tot: -0.00000 ]
	SubspaceRotationAdjust: set factor to 0.0605
ElecMinimize: Iter:  34  G: -1827.310073804879949  |grad|_K:  8.247e-09  alpha:  6.081e-01  linmin: -4.321e-07  t[s]:  12472.23
	Linear fluid (dielectric constant: 78.4, screening length: 5.74355 Bohr) occupying 0.712318 of unit cell:	Completed after 0 iterations at t[s]:  12521.41
	Linear fluid (dielectric constant: 78.4, screening length: 5.74355 Bohr) occupying 0.712318 of unit cell:	Completed after 0 iterations at t[s]:  12566.15
	FillingsUpdate:  mu: -0.171251800  nElectrons: 703.594519  magneticMoment: [ Abs: 0.00000  Tot: -0.00000 ]
	SubspaceRotationAdjust: set factor to 0.0784
ElecMinimize: Iter:  35  G: -1827.310073824749225  |grad|_K:  5.780e-09  alpha:  5.819e-01  linmin:  8.839e-07  t[s]:  12626.79
	Linear fluid (dielectric constant: 78.4, screening length: 5.74355 Bohr) occupying 0.712318 of unit cell:	Completed after 0 iterations at t[s]:  12675.57
	Linear fluid (dielectric constant: 78.4, screening length: 5.74355 Bohr) occupying 0.712318 of unit cell:	Completed after 0 iterations at t[s]:  12720.13
	FillingsUpdate:  mu: -0.171251800  nElectrons: 703.594074  magneticMoment: [ Abs: 0.00000  Tot: -0.00000 ]
	SubspaceRotationAdjust: set factor to 0.0959
ElecMinimize: Iter:  36  G: -1827.310073845021861  |grad|_K:  7.650e-09  alpha:  1.208e+00  linmin: -4.538e-07  t[s]:  12781.18
	Linear fluid (dielectric constant: 78.4, screening length: 5.74355 Bohr) occupying 0.712317 of unit cell:	Completed after 3 iterations at t[s]:  12831.06
	Linear fluid (dielectric constant: 78.4, screening length: 5.74355 Bohr) occupying 0.712318 of unit cell:	Completed after 0 iterations at t[s]:  12875.52
	FillingsUpdate:  mu: -0.171251800  nElectrons: 703.593929  magneticMoment: [ Abs: 0.00000  Tot: -0.00000 ]
	SubspaceRotationAdjust: set factor to 0.0888
ElecMinimize: Iter:  37  G: -1827.310073890202148  |grad|_K:  2.594e-08  alpha:  1.371e-01  linmin:  1.425e-04  t[s]:  12936.88
ElecMinimize: 	Bad step direction: g.d > 0.
ElecMinimize: 	Undoing step.
	Linear fluid (dielectric constant: 78.4, screening length: 5.74355 Bohr) occupying 0.712318 of unit cell:	Completed after 0 iterations at t[s]:  12986.11
ElecMinimize: 	Step failed: resetting search direction.
	FillingsUpdate:  mu: -0.171251800  nElectrons: 703.593929  magneticMoment: [ Abs: 0.00000  Tot: -0.00000 ]
	SubspaceRotationAdjust: set factor to 0.102
ElecMinimize: Iter:  38  G: -1827.310073890193962  |grad|_K:  2.550e-08  alpha:  0.000e+00
	Linear fluid (dielectric constant: 78.4, screening length: 5.74355 Bohr) occupying 0.712317 of unit cell:	Completed after 0 iterations at t[s]:  13096.41
ElecMinimize: 	Predicted alpha/alphaT>3.000000, increasing alphaT to 4.113805e-01.
	Linear fluid (dielectric constant: 78.4, screening length: 5.74355 Bohr) occupying 0.712317 of unit cell:	Completed after 1 iterations at t[s]:  13140.61
	Linear fluid (dielectric constant: 78.4, screening length: 5.74355 Bohr) occupying 0.712317 of unit cell:	Completed after 0 iterations at t[s]:  13185.28
ElecMinimize: 	Step increased G by 7.509198e-08, reducing alpha to 1.368431e-02.
	Linear fluid (dielectric constant: 78.4, screening length: 5.74355 Bohr) occupying 0.712318 of unit cell:	Completed after 0 iterations at t[s]:  13281.89
ElecMinimize: 	Step increased G by 5.009019e-08, reducing alpha to 1.368431e-03.
	Linear fluid (dielectric constant: 78.4, screening length: 5.74355 Bohr) occupying 0.712318 of unit cell:	Completed after 0 iterations at t[s]:  13378.65
ElecMinimize: 	Step increased G by 4.793424e-08, reducing alpha to 1.368431e-04.
ElecMinimize: 	Step failed to reduce G after 3 attempts. Quitting step.
ElecMinimize: 	Undoing step.
	Linear fluid (dielectric constant: 78.4, screening length: 5.74355 Bohr) occupying 0.712318 of unit cell:	Completed after 0 iterations at t[s]:  13475.85
ElecMinimize: 	Step failed along negative gradient direction.
ElecMinimize: Probably at roundoff error limit. (Stopping)
Setting wave functions to eigenvectors of Hamiltonian
Single-point solvation energy estimate, DeltaG = +0.008842165039823

# Ionic positions in lattice coordinates:
ion Zr   0.125000000000000   0.000000000000000   0.600463993117415 1
ion Zr   0.000000000000000   0.125000000000000   0.399535992215919 1
ion Zr   0.375000000000000   0.000000000000000   0.600463993117415 1
ion Zr   0.250000000000000   0.125000000000000   0.399535992215919 1
ion Zr   0.625000000000000   0.000000000000000   0.600463993117415 1
ion Zr   0.500000000000000   0.125000000000000   0.399535992215919 1
ion Zr   0.875000000000000   0.000000000000000   0.600463993117415 1
ion Zr   0.750000000000000   0.125000000000000   0.399535992215919 1
ion Zr   0.125000000000000   0.250000000000000   0.600463993117415 1
ion Zr   0.000000000000000   0.375000000000000   0.399535992215919 1
ion Zr   0.375000000000000   0.250000000000000   0.600463993117415 1
ion Zr   0.250000000000000   0.375000000000000   0.399535992215919 1
ion Zr   0.625000000000000   0.250000000000000   0.600463993117415 1
ion Zr   0.500000000000000   0.375000000000000   0.399535992215919 1
ion Zr   0.875000000000000   0.250000000000000   0.600463993117415 1
ion Zr   0.750000000000000   0.375000000000000   0.399535992215919 1
ion Zr   0.125000000000000   0.500000000000000   0.600463993117415 1
ion Zr   0.000000000000000   0.625000000000000   0.399535992215919 1
ion Zr   0.375000000000000   0.500000000000000   0.600463993117415 1
ion Zr   0.250000000000000   0.625000000000000   0.399535992215919 1
ion Zr   0.625000000000000   0.500000000000000   0.600463993117415 1
ion Zr   0.500000000000000   0.625000000000000   0.399535992215919 1
ion Zr   0.875000000000000   0.500000000000000   0.600463993117415 1
ion Zr   0.750000000000000   0.625000000000000   0.399535992215919 1
ion Zr   0.125000000000000   0.750000000000000   0.600463993117415 1
ion Zr   0.000000000000000   0.875000000000000   0.399535992215919 1
ion Zr   0.375000000000000   0.750000000000000   0.600463993117415 1
ion Zr   0.250000000000000   0.875000000000000   0.399535992215919 1
ion Zr   0.625000000000000   0.750000000000000   0.600463993117415 1
ion Zr   0.500000000000000   0.875000000000000   0.399535992215919 1
ion Zr   0.875000000000000   0.750000000000000   0.600463993117415 1
ion Zr   0.750000000000000   0.875000000000000   0.399535992215919 1
ion Si   0.000000000000000   0.000000000000000   0.499999992666667 1
ion Si   0.125000000000000   0.125000000000000   0.499999992666667 1
ion Si   0.250000000000000   0.000000000000000   0.499999992666667 1
ion Si   0.375000000000000   0.125000000000000   0.499999992666667 1
ion Si   0.500000000000000   0.000000000000000   0.499999992666667 1
ion Si   0.625000000000000   0.125000000000000   0.499999992666667 1
ion Si   0.750000000000000   0.000000000000000   0.499999992666667 1
ion Si   0.875000000000000   0.125000000000000   0.499999992666667 1
ion Si   0.000000000000000   0.250000000000000   0.499999992666667 1
ion Si   0.125000000000000   0.375000000000000   0.499999992666667 1
ion Si   0.250000000000000   0.250000000000000   0.499999992666667 1
ion Si   0.375000000000000   0.375000000000000   0.499999992666667 1
ion Si   0.500000000000000   0.250000000000000   0.499999992666667 1
ion Si   0.625000000000000   0.375000000000000   0.499999992666667 1
ion Si   0.750000000000000   0.250000000000000   0.499999992666667 1
ion Si   0.875000000000000   0.375000000000000   0.499999992666667 1
ion Si   0.000000000000000   0.500000000000000   0.499999992666667 1
ion Si   0.125000000000000   0.625000000000000   0.499999992666667 1
ion Si   0.250000000000000   0.500000000000000   0.499999992666667 1
ion Si   0.375000000000000   0.625000000000000   0.499999992666667 1
ion Si   0.500000000000000   0.500000000000000   0.499999992666667 1
ion Si   0.625000000000000   0.625000000000000   0.499999992666667 1
ion Si   0.750000000000000   0.500000000000000   0.499999992666667 1
ion Si   0.875000000000000   0.625000000000000   0.499999992666667 1
ion Si   0.000000000000000   0.750000000000000   0.499999992666667 1
ion Si   0.125000000000000   0.875000000000000   0.499999992666667 1
ion Si   0.250000000000000   0.750000000000000   0.499999992666667 1
ion Si   0.375000000000000   0.875000000000000   0.499999992666667 1
ion Si   0.500000000000000   0.750000000000000   0.499999992666667 1
ion Si   0.625000000000000   0.875000000000000   0.499999992666667 1
ion Si   0.750000000000000   0.750000000000000   0.499999992666667 1
ion Si   0.875000000000000   0.875000000000000   0.499999992666667 1
ion Se   0.000000000000000   0.125000000000000   0.655072542915365 1
ion Se   0.125000000000000   0.000000000000000   0.344927442417968 1
ion Se   0.250000000000000   0.125000000000000   0.655072542915365 1
ion Se   0.375000000000000   0.000000000000000   0.344927442417968 1
ion Se   0.500000000000000   0.125000000000000   0.655072542915365 1
ion Se   0.625000000000000   0.000000000000000   0.344927442417968 1
ion Se   0.750000000000000   0.125000000000000   0.655072542915365 1
ion Se   0.875000000000000   0.000000000000000   0.344927442417968 1
ion Se   0.000000000000000   0.375000000000000   0.655072542915365 1
ion Se   0.125000000000000   0.250000000000000   0.344927442417968 1
ion Se   0.250000000000000   0.375000000000000   0.655072542915365 1
ion Se   0.375000000000000   0.250000000000000   0.344927442417968 1
ion Se   0.500000000000000   0.375000000000000   0.655072542915365 1
ion Se   0.625000000000000   0.250000000000000   0.344927442417968 1
ion Se   0.750000000000000   0.375000000000000   0.655072542915365 1
ion Se   0.875000000000000   0.250000000000000   0.344927442417968 1
ion Se   0.000000000000000   0.625000000000000   0.655072542915365 1
ion Se   0.125000000000000   0.500000000000000   0.344927442417968 1
ion Se   0.250000000000000   0.625000000000000   0.655072542915365 1
ion Se   0.375000000000000   0.500000000000000   0.344927442417968 1
ion Se   0.500000000000000   0.625000000000000   0.655072542915365 1
ion Se   0.625000000000000   0.500000000000000   0.344927442417968 1
ion Se   0.750000000000000   0.625000000000000   0.655072542915365 1
ion Se   0.875000000000000   0.500000000000000   0.344927442417968 1
ion Se   0.000000000000000   0.875000000000000   0.655072542915365 1
ion Se   0.125000000000000   0.750000000000000   0.344927442417968 1
ion Se   0.250000000000000   0.875000000000000   0.655072542915365 1
ion Se   0.375000000000000   0.750000000000000   0.344927442417968 1
ion Se   0.500000000000000   0.875000000000000   0.655072542915365 1
ion Se   0.625000000000000   0.750000000000000   0.344927442417968 1
ion Se   0.750000000000000   0.875000000000000   0.655072542915365 1
ion Se   0.875000000000000   0.750000000000000   0.344927442417968 1


# Forces in Lattice coordinates:
force Zr  -0.000000000000000   0.000000000000000   0.013618651665969 1
force Zr   0.000000000000000  -0.000000000000000  -0.013618651665514 1
force Zr  -0.000000000000000   0.000000000000000   0.013618651665741 1
force Zr  -0.000000000000000  -0.000000000000000  -0.013618651665514 1
force Zr  -0.000000000000000   0.000000000000000   0.013618651665741 1
force Zr  -0.000000000000000  -0.000000000000000  -0.013618651665741 1
force Zr   0.000000000000000  -0.000000000000000   0.013618651665969 1
force Zr  -0.000000000000000  -0.000000000000000  -0.013618651665741 1
force Zr   0.000000000000000   0.000000000000000   0.013618651666423 1
force Zr   0.000000000000000   0.000000000000000  -0.013618651665741 1
force Zr  -0.000000000000000   0.000000000000000   0.013618651665969 1
force Zr  -0.000000000000000  -0.000000000000000  -0.013618651665968 1
force Zr   0.000000000000000   0.000000000000000   0.013618651665741 1
force Zr  -0.000000000000000   0.000000000000000  -0.013618651665969 1
force Zr   0.000000000000000  -0.000000000000000   0.013618651665969 1
force Zr   0.000000000000000   0.000000000000000  -0.013618651665741 1
force Zr  -0.000000000000000  -0.000000000000000   0.013618651665741 1
force Zr   0.000000000000000  -0.000000000000000  -0.013618651665969 1
force Zr   0.000000000000000  -0.000000000000000   0.013618651665741 1
force Zr  -0.000000000000000  -0.000000000000000  -0.013618651666196 1
force Zr   0.000000000000000  -0.000000000000000   0.013618651665741 1
force Zr  -0.000000000000000  -0.000000000000000  -0.013618651666423 1
force Zr   0.000000000000000   0.000000000000000   0.013618651665741 1
force Zr   0.000000000000000  -0.000000000000000  -0.013618651666196 1
force Zr   0.000000000000000  -0.000000000000000   0.013618651665741 1
force Zr   0.000000000000000   0.000000000000000  -0.013618651665968 1
force Zr  -0.000000000000000   0.000000000000000   0.013618651665741 1
force Zr  -0.000000000000000  -0.000000000000000  -0.013618651665741 1
force Zr   0.000000000000000  -0.000000000000000   0.013618651665741 1
force Zr  -0.000000000000000   0.000000000000000  -0.013618651666196 1
force Zr   0.000000000000000  -0.000000000000000   0.013618651665741 1
force Zr   0.000000000000000  -0.000000000000000  -0.013618651665968 1
force Si   0.000000000000000   0.000000000000000  -0.000000000000000 1
force Si   0.000000000000000   0.000000000000000  -0.000000000000000 1
force Si  -0.000000000000000   0.000000000000000   0.000000000000000 1
force Si   0.000000000000000  -0.000000000000000  -0.000000000000000 1
force Si   0.000000000000000   0.000000000000000   0.000000000000000 1
force Si   0.000000000000000   0.000000000000000   0.000000000000000 1
force Si   0.000000000000000   0.000000000000000   0.000000000000000 1
force Si   0.000000000000000   0.000000000000000  -0.000000000000000 1
force Si   0.000000000000000  -0.000000000000000  -0.000000000000000 1
force Si   0.000000000000000   0.000000000000000  -0.000000000000000 1
force Si   0.000000000000000  -0.000000000000000   0.000000000000000 1
force Si   0.000000000000000   0.000000000000000   0.000000000000000 1
force Si   0.000000000000000  -0.000000000000000  -0.000000000000000 1
force Si   0.000000000000000   0.000000000000000   0.000000000000000 1
force Si   0.000000000000000  -0.000000000000000   0.000000000000000 1
force Si   0.000000000000000   0.000000000000000  -0.000000000000000 1
force Si  -0.000000000000000   0.000000000000000  -0.000000000000000 1
force Si   0.000000000000000   0.000000000000000   0.000000000000000 1
force Si   0.000000000000000   0.000000000000000   0.000000000000000 1
force Si   0.000000000000000   0.000000000000000   0.000000000000000 1
force Si   0.000000000000000   0.000000000000000   0.000000000000000 1
force Si   0.000000000000000   0.000000000000000   0.000000000000000 1
force Si   0.000000000000000   0.000000000000000   0.000000000000000 1
force Si   0.000000000000000   0.000000000000000   0.000000000000000 1
force Si   0.000000000000000   0.000000000000000  -0.000000000000000 1
force Si   0.000000000000000  -0.000000000000000  -0.000000000000000 1
force Si   0.000000000000000   0.000000000000000  -0.000000000000000 1
force Si   0.000000000000000  -0.000000000000000  -0.000000000000000 1
force Si   0.000000000000000   0.000000000000000  -0.000000000000000 1
force Si   0.000000000000000  -0.000000000000000   0.000000000000000 1
force Si   0.000000000000000   0.000000000000000  -0.000000000000000 1
force Si   0.000000000000000  -0.000000000000000  -0.000000000000000 1
force Se  -0.000000000000000   0.000000000000000  -0.019175498133267 1
force Se   0.000000000000000   0.000000000000000   0.019175498133493 1
force Se  -0.000000000000000   0.000000000000000  -0.019175498133267 1
force Se   0.000000000000000   0.000000000000000   0.019175498133608 1
force Se  -0.000000000000000  -0.000000000000000  -0.019175498133267 1
force Se   0.000000000000000  -0.000000000000000   0.019175498133492 1
force Se   0.000000000000000  -0.000000000000000  -0.019175498133267 1
force Se  -0.000000000000000   0.000000000000000   0.019175498133608 1
force Se   0.000000000000000   0.000000000000000  -0.019175498133266 1
force Se   0.000000000000000  -0.000000000000000   0.019175498133492 1
force Se  -0.000000000000000   0.000000000000000  -0.019175498133267 1
force Se   0.000000000000000  -0.000000000000000   0.019175498133607 1
force Se  -0.000000000000000   0.000000000000000  -0.019175498133153 1
force Se   0.000000000000000  -0.000000000000000   0.019175498133607 1
force Se   0.000000000000000   0.000000000000000  -0.019175498133380 1
force Se  -0.000000000000000  -0.000000000000000   0.019175498133720 1
force Se   0.000000000000000  -0.000000000000000  -0.019175498133267 1
force Se   0.000000000000000  -0.000000000000000   0.019175498133607 1
force Se  -0.000000000000000  -0.000000000000000  -0.019175498133267 1
force Se   0.000000000000000   0.000000000000000   0.019175498133607 1
force Se  -0.000000000000000   0.000000000000000  -0.019175498133153 1
force Se   0.000000000000000  -0.000000000000000   0.019175498133606 1
force Se   0.000000000000000  -0.000000000000000  -0.019175498133267 1
force Se   0.000000000000000  -0.000000000000000   0.019175498133493 1
force Se  -0.000000000000000   0.000000000000000  -0.019175498133268 1
force Se   0.000000000000000   0.000000000000000   0.019175498133492 1
force Se  -0.000000000000000   0.000000000000000  -0.019175498133268 1
force Se   0.000000000000000   0.000000000000000   0.019175498133494 1
force Se  -0.000000000000000   0.000000000000000  -0.019175498133153 1
force Se   0.000000000000000   0.000000000000000   0.019175498133492 1
force Se   0.000000000000000   0.000000000000000  -0.019175498133268 1
force Se  -0.000000000000000   0.000000000000000   0.019175498133606 1

# Energy components:
   A_diel =        0.0484567124363747
   Eewald =    18049.5771535544081416
       EH =    19635.6921035754494369
     Eloc =   -40178.3202699727553409
      Enl =      286.6179229184645010
      Exc =     -831.2660194585560021
 Exc_core =      493.5807696735311083
       KE =      596.3249796126633555
  MuShift =        0.0048832282257019
-------------------------------------
     Etot =    -1947.7400201561360973
       TS =        0.0617812017109605
-------------------------------------
        F =    -1947.8018013578471255
      muN =     -120.4917275155633263
-------------------------------------
        G =    -1827.3100738422838276

IonicMinimize: Iter:   0  G: -1827.310073842283828  |grad|_K:  1.911e-04  t[s]:  13577.09

#--- Lowdin population analysis ---
# oxidation-state Zr -0.441 -0.441 -0.441 -0.441 -0.441 -0.441 -0.441 -0.441 -0.441 -0.441 -0.441 -0.441 -0.441 -0.441 -0.441 -0.441 -0.441 -0.441 -0.441 -0.441 -0.441 -0.441 -0.441 -0.441 -0.441 -0.441 -0.441 -0.441 -0.441 -0.441 -0.441 -0.441
# magnetic-moments Zr +0.000 +0.000 +0.000 +0.000 +0.000 +0.000 +0.000 +0.000 +0.000 +0.000 +0.000 +0.000 +0.000 +0.000 +0.000 +0.000 +0.000 +0.000 +0.000 +0.000 +0.000 +0.000 +0.000 +0.000 +0.000 +0.000 +0.000 +0.000 +0.000 +0.000 +0.000 +0.000
# oxidation-state Si +0.315 +0.315 +0.315 +0.315 +0.315 +0.315 +0.315 +0.315 +0.315 +0.315 +0.315 +0.315 +0.315 +0.315 +0.315 +0.315 +0.315 +0.315 +0.315 +0.315 +0.315 +0.315 +0.315 +0.315 +0.315 +0.315 +0.315 +0.315 +0.315 +0.315 +0.315 +0.315
# magnetic-moments Si +0.000 +0.000 +0.000 +0.000 +0.000 +0.000 +0.000 +0.000 +0.000 +0.000 +0.000 +0.000 +0.000 +0.000 +0.000 +0.000 +0.000 +0.000 +0.000 +0.000 +0.000 +0.000 +0.000 +0.000 +0.000 +0.000 +0.000 +0.000 +0.000 +0.000 +0.000 +0.000
# oxidation-state Se +0.219 +0.219 +0.219 +0.219 +0.219 +0.219 +0.219 +0.219 +0.219 +0.219 +0.219 +0.219 +0.219 +0.219 +0.219 +0.219 +0.219 +0.219 +0.219 +0.219 +0.219 +0.219 +0.219 +0.219 +0.219 +0.219 +0.219 +0.219 +0.219 +0.219 +0.219 +0.219
# magnetic-moments Se -0.000 -0.000 -0.000 -0.000 -0.000 -0.000 -0.000 -0.000 -0.000 -0.000 -0.000 -0.000 -0.000 -0.000 -0.000 -0.000 -0.000 -0.000 -0.000 -0.000 -0.000 -0.000 -0.000 -0.000 -0.000 -0.000 -0.000 -0.000 -0.000 -0.000 -0.000 -0.000

Shifting auxilliary hamiltonian by -0.000046 to set nElectrons=703.593933
	Linear fluid (dielectric constant: 78.4, screening length: 5.74355 Bohr) occupying 0.712323 of unit cell:	Completed after 3 iterations at t[s]:  13629.58

-------- Electronic minimization -----------
	Linear fluid (dielectric constant: 78.4, screening length: 5.74355 Bohr) occupying 0.712323 of unit cell:	Completed after 0 iterations at t[s]:  13658.50
	FillingsUpdate:  mu: -0.171251800  nElectrons: 703.593933  magneticMoment: [ Abs: 0.00002  Tot: -0.00000 ]
ElecMinimize: Iter:   0  G: -1827.310080536484293  |grad|_K:  6.234e-08  alpha:  1.000e+00
	Linear fluid (dielectric constant: 78.4, screening length: 5.74355 Bohr) occupying 0.712321 of unit cell:	Completed after 3 iterations at t[s]:  13779.25
	Linear fluid (dielectric constant: 78.4, screening length: 5.74355 Bohr) occupying 0.712322 of unit cell:	Completed after 0 iterations at t[s]:  13824.85
	FillingsUpdate:  mu: -0.171251800  nElectrons: 703.598631  magneticMoment: [ Abs: 0.00003  Tot: +0.00000 ]
	SubspaceRotationAdjust: set factor to 0.0866
ElecMinimize: Iter:   1  G: -1827.310082300678005  |grad|_K:  5.184e-08  alpha:  7.876e-01  linmin:  5.413e-03  t[s]:  13886.15
	Linear fluid (dielectric constant: 78.4, screening length: 5.74355 Bohr) occupying 0.712321 of unit cell:	Completed after 2 iterations at t[s]:  13935.59
	Linear fluid (dielectric constant: 78.4, screening length: 5.74355 Bohr) occupying 0.712321 of unit cell:	Completed after 0 iterations at t[s]:  13981.15
	FillingsUpdate:  mu: -0.171251800  nElectrons: 703.595331  magneticMoment: [ Abs: 0.00003  Tot: +0.00000 ]
	SubspaceRotationAdjust: set factor to 0.0863
ElecMinimize: Iter:   2  G: -1827.310083212398240  |grad|_K:  3.292e-08  alpha:  9.603e-01  linmin: -1.730e-03  t[s]:  14042.52
	Linear fluid (dielectric constant: 78.4, screening length: 5.74355 Bohr) occupying 0.712322 of unit cell:	Completed after 3 iterations at t[s]:  14092.12
	Linear fluid (dielectric constant: 78.4, screening length: 5.74355 Bohr) occupying 0.712321 of unit cell:	Completed after 0 iterations at t[s]:  14138.10
[...]
ElecMinimize: 	Step failed: resetting search direction.
	FillingsUpdate:  mu: -0.171251800  nElectrons: 703.576070  magneticMoment: [ Abs: 0.00002  Tot: +0.00000 ]
	SubspaceRotationAdjust: set factor to 0.0646
ElecMinimize: Iter:  28  G: -1827.310114742460655  |grad|_K:  1.981e-08  alpha:  2.547e-04
	Linear fluid (dielectric constant: 78.4, screening length: 5.74355 Bohr) occupying 0.712393 of unit cell:	Completed after 6 iterations at t[s]:  24135.50
	Linear fluid (dielectric constant: 78.4, screening length: 5.74355 Bohr) occupying 0.712391 of unit cell:	Completed after 6 iterations at t[s]:  24182.90
	FillingsUpdate:  mu: -0.171251800  nElectrons: 703.575018  magneticMoment: [ Abs: 0.00002  Tot: +0.00000 ]
	SubspaceRotationAdjust: set factor to 0.0304
ElecMinimize: Iter:  29  G: -1827.310114827042071  |grad|_K:  1.151e-08  alpha:  3.996e-01  linmin:  7.959e-04  t[s]:  24246.59
	Linear fluid (dielectric constant: 78.4, screening length: 5.74355 Bohr) occupying 0.712392 of unit cell:	Completed after 0 iterations at t[s]:  24295.48
ElecMinimize: 	Predicted alpha/alphaT>3.000000, increasing alphaT to 1.198922e+00.
	Linear fluid (dielectric constant: 78.4, screening length: 5.74355 Bohr) occupying 0.712392 of unit cell:	Completed after 0 iterations at t[s]:  24339.95
	Linear fluid (dielectric constant: 78.4, screening length: 5.74355 Bohr) occupying 0.712393 of unit cell:	Completed after 3 iterations at t[s]:  24384.99
ElecMinimize: 	Step increased G by 2.341594e-07, reducing alpha to 3.086273e-01.
	Linear fluid (dielectric constant: 78.4, screening length: 5.74355 Bohr) occupying 0.712392 of unit cell:	Completed after 1 iterations at t[s]:  24483.77
ElecMinimize: 	Step increased G by 4.322351e-08, reducing alpha to 3.086273e-02.
	Linear fluid (dielectric constant: 78.4, screening length: 5.74355 Bohr) occupying 0.712391 of unit cell:	Completed after 0 iterations at t[s]:  24581.71
ElecMinimize: 	Step increased G by 3.699483e-08, reducing alpha to 3.086273e-03.
ElecMinimize: 	Step failed to reduce G after 3 attempts. Quitting step.
ElecMinimize: 	Undoing step.
	Linear fluid (dielectric constant: 78.4, screening length: 5.74355 Bohr) occupying 0.712391 of unit cell:	Completed after 0 iterations at t[s]:  24678.18
ElecMinimize: 	Step failed: resetting search direction.
	FillingsUpdate:  mu: -0.171251800  nElectrons: 703.575048  magneticMoment: [ Abs: 0.00002  Tot: +0.00000 ]
	SubspaceRotationAdjust: set factor to 0.0121
ElecMinimize: Iter:  30  G: -1827.310114790112266  |grad|_K:  3.283e-09  alpha:  3.086e-03
	Linear fluid (dielectric constant: 78.4, screening length: 5.74355 Bohr) occupying 0.712391 of unit cell:	Completed after 0 iterations at t[s]:  24787.08
	Linear fluid (dielectric constant: 78.4, screening length: 5.74355 Bohr) occupying 0.712392 of unit cell:	Completed after 0 iterations at t[s]:  24830.52
	FillingsUpdate:  mu: -0.171251800  nElectrons: 703.574812  magneticMoment: [ Abs: 0.00002  Tot: +0.00000 ]
	SubspaceRotationAdjust: set factor to 0.0178
ElecMinimize: Iter:  31  G: -1827.310114795963045  |grad|_K:  2.937e-09  alpha:  1.073e+00  linmin: -1.689e-06  t[s]:  24892.06
	Linear fluid (dielectric constant: 78.4, screening length: 5.74355 Bohr) occupying 0.712392 of unit cell:	Completed after 0 iterations at t[s]:  24940.80
	Linear fluid (dielectric constant: 78.4, screening length: 5.74355 Bohr) occupying 0.712392 of unit cell:	Completed after 0 iterations at t[s]:  24985.20
	FillingsUpdate:  mu: -0.171251800  nElectrons: 703.574542  magneticMoment: [ Abs: 0.00002  Tot: +0.00000 ]
	SubspaceRotationAdjust: set factor to 0.0209
ElecMinimize: Iter:  32  G: -1827.310114800545762  |grad|_K:  2.865e-09  alpha:  1.038e+00  linmin:  1.373e-07  t[s]:  25046.73
ElecMinimize: Converged (|Delta G|<1.000000e-08 for 2 iters).
Setting wave functions to eigenvectors of Hamiltonian

# Ionic positions in lattice coordinates:
ion Zr   0.125000000000000  -0.000000000000000   0.600554294163846 1
ion Zr  -0.000000000000000   0.125000000000000   0.399445691169488 1
ion Zr   0.375000000000000  -0.000000000000000   0.600554294163846 1
ion Zr   0.250000000000000   0.125000000000000   0.399445691169488 1
ion Zr   0.625000000000000  -0.000000000000000   0.600554294163846 1
ion Zr   0.500000000000000   0.125000000000000   0.399445691169488 1
ion Zr   0.875000000000000  -0.000000000000000   0.600554294163846 1
ion Zr   0.750000000000000   0.125000000000000   0.399445691169488 1
ion Zr   0.125000000000000   0.250000000000000   0.600554294163846 1
ion Zr  -0.000000000000000   0.375000000000000   0.399445691169488 1
ion Zr   0.375000000000000   0.250000000000000   0.600554294163846 1
ion Zr   0.250000000000000   0.375000000000000   0.399445691169488 1
ion Zr   0.625000000000000   0.250000000000000   0.600554294163846 1
ion Zr   0.500000000000000   0.375000000000000   0.399445691169488 1
ion Zr   0.875000000000000   0.250000000000000   0.600554294163846 1
ion Zr   0.750000000000000   0.375000000000000   0.399445691169488 1
ion Zr   0.125000000000000   0.500000000000000   0.600554294163846 1
ion Zr  -0.000000000000000   0.625000000000000   0.399445691169488 1
ion Zr   0.375000000000000   0.500000000000000   0.600554294163846 1
ion Zr   0.250000000000000   0.625000000000000   0.399445691169488 1
ion Zr   0.625000000000000   0.500000000000000   0.600554294163846 1
ion Zr   0.500000000000000   0.625000000000000   0.399445691169488 1
ion Zr   0.875000000000000   0.500000000000000   0.600554294163846 1
ion Zr   0.750000000000000   0.625000000000000   0.399445691169488 1
ion Zr   0.125000000000000   0.750000000000000   0.600554294163846 1
ion Zr  -0.000000000000000   0.875000000000000   0.399445691169488 1
ion Zr   0.375000000000000   0.750000000000000   0.600554294163846 1
ion Zr   0.250000000000000   0.875000000000000   0.399445691169488 1
ion Zr   0.625000000000000   0.750000000000000   0.600554294163846 1
ion Zr   0.500000000000000   0.875000000000000   0.399445691169488 1
ion Zr   0.875000000000000   0.750000000000000   0.600554294163846 1
ion Zr   0.750000000000000   0.875000000000000   0.399445691169488 1
ion Si   0.000000000000000  -0.000000000000000   0.499999992666667 1
ion Si   0.125000000000000   0.125000000000000   0.499999992666667 1
ion Si   0.250000000000000  -0.000000000000000   0.499999992666667 1
ion Si   0.375000000000000   0.125000000000000   0.499999992666667 1
ion Si   0.500000000000000  -0.000000000000000   0.499999992666667 1
ion Si   0.625000000000000   0.125000000000000   0.499999992666667 1
ion Si   0.750000000000000  -0.000000000000000   0.499999992666667 1
ion Si   0.875000000000000   0.125000000000000   0.499999992666667 1
ion Si  -0.000000000000000   0.250000000000000   0.499999992666667 1
ion Si   0.125000000000000   0.375000000000000   0.499999992666667 1
ion Si   0.250000000000000   0.250000000000000   0.499999992666667 1
ion Si   0.375000000000000   0.375000000000000   0.499999992666667 1
ion Si   0.500000000000000   0.250000000000000   0.499999992666667 1
ion Si   0.625000000000000   0.375000000000000   0.499999992666667 1
ion Si   0.750000000000000   0.250000000000000   0.499999992666667 1
ion Si   0.875000000000000   0.375000000000000   0.499999992666667 1
ion Si   0.000000000000000   0.500000000000000   0.499999992666667 1
ion Si   0.125000000000000   0.625000000000000   0.499999992666667 1
ion Si   0.250000000000000   0.500000000000000   0.499999992666667 1
ion Si   0.375000000000000   0.625000000000000   0.499999992666667 1
ion Si   0.500000000000000   0.500000000000000   0.499999992666667 1
ion Si   0.625000000000000   0.625000000000000   0.499999992666667 1
ion Si   0.750000000000000   0.500000000000000   0.499999992666667 1
ion Si   0.875000000000000   0.625000000000000   0.499999992666667 1
ion Si   0.000000000000000   0.750000000000000   0.499999992666667 1
ion Si   0.125000000000000   0.875000000000000   0.499999992666667 1
ion Si   0.250000000000000   0.750000000000000   0.499999992666667 1
ion Si   0.375000000000000   0.875000000000000   0.499999992666667 1
ion Si   0.500000000000000   0.750000000000000   0.499999992666667 1
ion Si   0.625000000000000   0.875000000000000   0.499999992666667 1
ion Si   0.750000000000000   0.750000000000000   0.499999992666667 1
ion Si   0.875000000000000   0.875000000000000   0.499999992666667 1
ion Se   0.000000000000000   0.125000000000000   0.654995384209821 1
ion Se   0.125000000000000  -0.000000000000000   0.345004601123512 1
ion Se   0.250000000000000   0.125000000000000   0.654995384209821 1
ion Se   0.375000000000000  -0.000000000000000   0.345004601123512 1
ion Se   0.500000000000000   0.125000000000000   0.654995384209821 1
ion Se   0.625000000000000  -0.000000000000000   0.345004601123512 1
ion Se   0.750000000000000   0.125000000000000   0.654995384209821 1
ion Se   0.875000000000000  -0.000000000000000   0.345004601123512 1
ion Se   0.000000000000000   0.375000000000000   0.654995384209821 1
ion Se   0.125000000000000   0.250000000000000   0.345004601123512 1
ion Se   0.250000000000000   0.375000000000000   0.654995384209821 1
ion Se   0.375000000000000   0.250000000000000   0.345004601123512 1
ion Se   0.500000000000000   0.375000000000000   0.654995384209821 1
ion Se   0.625000000000000   0.250000000000000   0.345004601123512 1
ion Se   0.750000000000000   0.375000000000000   0.654995384209821 1
ion Se   0.875000000000000   0.250000000000000   0.345004601123512 1
ion Se   0.000000000000000   0.625000000000000   0.654995384209821 1
ion Se   0.125000000000000   0.500000000000000   0.345004601123512 1
ion Se   0.250000000000000   0.625000000000000   0.654995384209821 1
ion Se   0.375000000000000   0.500000000000000   0.345004601123512 1
ion Se   0.500000000000000   0.625000000000000   0.654995384209821 1
ion Se   0.625000000000000   0.500000000000000   0.345004601123512 1
ion Se   0.750000000000000   0.625000000000000   0.654995384209821 1
ion Se   0.875000000000000   0.500000000000000   0.345004601123512 1
ion Se  -0.000000000000000   0.875000000000000   0.654995384209821 1
ion Se   0.125000000000000   0.750000000000000   0.345004601123512 1
ion Se   0.250000000000000   0.875000000000000   0.654995384209821 1
ion Se   0.375000000000000   0.750000000000000   0.345004601123512 1
ion Se   0.500000000000000   0.875000000000000   0.654995384209821 1
ion Se   0.625000000000000   0.750000000000000   0.345004601123512 1
ion Se   0.750000000000000   0.875000000000000   0.654995384209821 1
ion Se   0.875000000000000   0.750000000000000   0.345004601123512 1


# Forces in Lattice coordinates:
force Zr  -0.000000000000000  -0.000000000000000  -0.010980835938179 1
force Zr  -0.000000000000000  -0.000000000000000   0.010980835938635 1
force Zr   0.000000000000000  -0.000000000000000  -0.010980835938634 1
force Zr  -0.000000000000000   0.000000000000000   0.010980835938408 1
force Zr   0.000000000000000  -0.000000000000000  -0.010980835938407 1
force Zr  -0.000000000000000   0.000000000000000   0.010980835938407 1
force Zr   0.000000000000000  -0.000000000000000  -0.010980835938179 1
force Zr   0.000000000000000   0.000000000000000   0.010980835938180 1
force Zr  -0.000000000000000  -0.000000000000000  -0.010980835938180 1
force Zr   0.000000000000000   0.000000000000000   0.010980835938408 1
force Zr   0.000000000000000  -0.000000000000000  -0.010980835938407 1
force Zr   0.000000000000000   0.000000000000000   0.010980835938408 1
force Zr   0.000000000000000   0.000000000000000  -0.010980835938407 1
force Zr  -0.000000000000000   0.000000000000000   0.010980835938635 1
force Zr   0.000000000000000  -0.000000000000000  -0.010980835938180 1
force Zr   0.000000000000000   0.000000000000000   0.010980835938407 1
force Zr   0.000000000000000  -0.000000000000000  -0.010980835937953 1
force Zr   0.000000000000000   0.000000000000000   0.010980835938635 1
force Zr   0.000000000000000  -0.000000000000000  -0.010980835938180 1
force Zr  -0.000000000000000   0.000000000000000   0.010980835938407 1
force Zr   0.000000000000000  -0.000000000000000  -0.010980835938179 1
force Zr   0.000000000000000   0.000000000000000   0.010980835938407 1
force Zr   0.000000000000000  -0.000000000000000  -0.010980835938180 1
force Zr   0.000000000000000   0.000000000000000   0.010980835938180 1
force Zr  -0.000000000000000  -0.000000000000000  -0.010980835938180 1
force Zr  -0.000000000000000   0.000000000000000   0.010980835938408 1
force Zr   0.000000000000000   0.000000000000000  -0.010980835938635 1
force Zr  -0.000000000000000  -0.000000000000000   0.010980835938408 1
force Zr   0.000000000000000  -0.000000000000000  -0.010980835938407 1
force Zr   0.000000000000000  -0.000000000000000   0.010980835938408 1
force Zr   0.000000000000000  -0.000000000000000  -0.010980835938407 1
force Zr  -0.000000000000000   0.000000000000000   0.010980835938408 1
force Si   0.000000000000000   0.000000000000000   0.000000000000000 1
force Si  -0.000000000000000  -0.000000000000000   0.000000000000000 1
force Si  -0.000000000000000   0.000000000000000   0.000000000000000 1
force Si   0.000000000000000   0.000000000000000  -0.000000000000000 1
force Si  -0.000000000000000   0.000000000000000  -0.000000000000000 1
force Si  -0.000000000000000  -0.000000000000000   0.000000000000000 1
force Si  -0.000000000000000   0.000000000000000   0.000000000000000 1
force Si  -0.000000000000000   0.000000000000000   0.000000000000000 1
force Si   0.000000000000000  -0.000000000000000   0.000000000000000 1
force Si   0.000000000000000  -0.000000000000000   0.000000000000000 1
force Si  -0.000000000000000   0.000000000000000  -0.000000000000000 1
force Si  -0.000000000000000  -0.000000000000000   0.000000000000000 1
force Si   0.000000000000000  -0.000000000000000  -0.000000000000000 1
force Si   0.000000000000000  -0.000000000000000  -0.000000000000000 1
force Si  -0.000000000000000  -0.000000000000000   0.000000000000000 1
force Si  -0.000000000000000  -0.000000000000000   0.000000000000000 1
force Si   0.000000000000000   0.000000000000000  -0.000000000000000 1
force Si  -0.000000000000000  -0.000000000000000   0.000000000000000 1
force Si  -0.000000000000000  -0.000000000000000  -0.000000000000000 1
force Si   0.000000000000000  -0.000000000000000  -0.000000000000000 1
force Si   0.000000000000000   0.000000000000000  -0.000000000000000 1
force Si   0.000000000000000  -0.000000000000000   0.000000000000000 1
force Si   0.000000000000000  -0.000000000000000  -0.000000000000000 1
force Si  -0.000000000000000  -0.000000000000000  -0.000000000000000 1
force Si  -0.000000000000000   0.000000000000000  -0.000000000000000 1
force Si  -0.000000000000000   0.000000000000000   0.000000000000000 1
force Si  -0.000000000000000   0.000000000000000  -0.000000000000000 1
force Si   0.000000000000000  -0.000000000000000  -0.000000000000000 1
force Si  -0.000000000000000  -0.000000000000000   0.000000000000000 1
force Si   0.000000000000000  -0.000000000000000  -0.000000000000000 1
force Si  -0.000000000000000  -0.000000000000000  -0.000000000000000 1
force Si   0.000000000000000   0.000000000000000  -0.000000000000000 1
force Se   0.000000000000000  -0.000000000000000  -0.000544622927539 1
force Se   0.000000000000000   0.000000000000000   0.000544622927421 1
force Se   0.000000000000000  -0.000000000000000  -0.000544622927537 1
force Se   0.000000000000000   0.000000000000000   0.000544622927537 1
force Se  -0.000000000000000  -0.000000000000000  -0.000544622927650 1
force Se  -0.000000000000000   0.000000000000000   0.000544622927538 1
force Se   0.000000000000000   0.000000000000000  -0.000544622927650 1
force Se   0.000000000000000  -0.000000000000000   0.000544622927536 1
force Se   0.000000000000000  -0.000000000000000  -0.000544622927422 1
force Se   0.000000000000000  -0.000000000000000   0.000544622927422 1
force Se  -0.000000000000000   0.000000000000000  -0.000544622927649 1
force Se   0.000000000000000   0.000000000000000   0.000544622927422 1
force Se   0.000000000000000  -0.000000000000000  -0.000544622927649 1
force Se  -0.000000000000000  -0.000000000000000   0.000544622927421 1
force Se   0.000000000000000   0.000000000000000  -0.000544622927649 1
force Se  -0.000000000000000  -0.000000000000000   0.000544622927309 1
force Se   0.000000000000000  -0.000000000000000  -0.000544622927538 1
force Se  -0.000000000000000  -0.000000000000000   0.000544622927420 1
force Se   0.000000000000000  -0.000000000000000  -0.000544622927649 1
force Se   0.000000000000000  -0.000000000000000   0.000544622927538 1
force Se   0.000000000000000  -0.000000000000000  -0.000544622927761 1
force Se  -0.000000000000000  -0.000000000000000   0.000544622927536 1
force Se  -0.000000000000000   0.000000000000000  -0.000544622927534 1
force Se  -0.000000000000000  -0.000000000000000   0.000544622927309 1
force Se   0.000000000000000  -0.000000000000000  -0.000544622927538 1
force Se   0.000000000000000  -0.000000000000000   0.000544622927534 1
force Se   0.000000000000000  -0.000000000000000  -0.000544622927764 1
force Se  -0.000000000000000  -0.000000000000000   0.000544622927535 1
force Se   0.000000000000000  -0.000000000000000  -0.000544622927764 1
force Se  -0.000000000000000   0.000000000000000   0.000544622927534 1
force Se  -0.000000000000000  -0.000000000000000  -0.000544622927650 1
force Se   0.000000000000000  -0.000000000000000   0.000544622927420 1

# Energy components:
   A_diel =        0.0500439047325276
   Eewald =    18048.5077110551246733
       EH =    19633.8197561758570373
     Eloc =   -40175.3850265735163703
      Enl =      286.6231401044998393
      Exc =     -831.2672967930942605
 Exc_core =      493.5807476228236510
       KE =      596.3289596716178949
  MuShift =        0.0051164151362521
-------------------------------------
     Etot =    -1947.7368484168232499
       TS =        0.0616731976056026
-------------------------------------
        F =    -1947.7985216144288643
      muN =     -120.4884068138830173
-------------------------------------
        G =    -1827.3101148005457617

IonicMinimize: Iter:   2  G: -1827.310114800545762  |grad|_K:  8.934e-05  alpha:  1.000e+00  linmin:  7.490e-01  t[s]:  25087.85
IonicMinimize: Converged (|grad|_K<1.000000e-04).

#--- Lowdin population analysis ---
# oxidation-state Zr -0.441 -0.441 -0.441 -0.441 -0.441 -0.441 -0.441 -0.441 -0.441 -0.441 -0.441 -0.441 -0.441 -0.441 -0.441 -0.441 -0.441 -0.441 -0.441 -0.441 -0.441 -0.441 -0.441 -0.441 -0.441 -0.441 -0.441 -0.441 -0.441 -0.441 -0.441 -0.441
# magnetic-moments Zr +0.000 +0.000 +0.000 +0.000 +0.000 +0.000 +0.000 +0.000 +0.000 +0.000 +0.000 +0.000 +0.000 +0.000 +0.000 +0.000 +0.000 +0.000 +0.000 +0.000 +0.000 +0.000 +0.000 +0.000 +0.000 +0.000 +0.000 +0.000 +0.000 +0.000 +0.000 +0.000
# oxidation-state Si +0.314 +0.314 +0.314 +0.314 +0.314 +0.314 +0.314 +0.314 +0.314 +0.314 +0.314 +0.314 +0.314 +0.314 +0.314 +0.314 +0.314 +0.314 +0.314 +0.314 +0.314 +0.314 +0.314 +0.314 +0.314 +0.314 +0.314 +0.314 +0.314 +0.314 +0.314 +0.314
# magnetic-moments Si -0.000 -0.000 -0.000 -0.000 -0.000 -0.000 -0.000 -0.000 -0.000 -0.000 -0.000 -0.000 -0.000 -0.000 -0.000 -0.000 -0.000 -0.000 -0.000 -0.000 -0.000 -0.000 -0.000 -0.000 -0.000 -0.000 -0.000 -0.000 -0.000 -0.000 -0.000 -0.000
# oxidation-state Se +0.220 +0.220 +0.220 +0.220 +0.220 +0.220 +0.220 +0.220 +0.220 +0.220 +0.220 +0.220 +0.220 +0.220 +0.220 +0.220 +0.220 +0.220 +0.220 +0.220 +0.220 +0.220 +0.220 +0.220 +0.220 +0.220 +0.220 +0.220 +0.220 +0.220 +0.220 +0.220
# magnetic-moments Se -0.000 -0.000 -0.000 -0.000 -0.000 -0.000 -0.000 -0.000 -0.000 -0.000 -0.000 -0.000 -0.000 -0.000 -0.000 -0.000 -0.000 -0.000 -0.000 -0.000 -0.000 -0.000 -0.000 -0.000 -0.000 -0.000 -0.000 -0.000 -0.000 -0.000 -0.000 -0.000


Dumping 'NbTe2.fillings' ... done
Dumping 'NbTe2.wfns' ... done
Dumping 'NbTe2.fluidState' ... done
Dumping 'NbTe2.ionpos' ... done
Dumping 'NbTe2.eigenvals' ... done
End date and time: Wed Feb 10 07:17:01 2021  (Duration: 0-6:58:32.16)
Done!
